<event>
12    7  0.1606355E-007  0.2648086E+04  0.7818608E-02  0.8352048E-01
          2   -1    0    0  501    0  0.00000000000E+00  0.00000000000E+00  0.95970877609E+03  0.95970877609E+03  0.00000000000E+00 0. -1.
         -1   -1    0    0    0  501 -0.00000000000E+00 -0.00000000000E+00 -0.18266900185E+04  0.18266900185E+04  0.00000000000E+00 0.  1.
         24    2    1    2    0    0  0.52575255348E+03  0.12015545677E+03 -0.14766876819E+04  0.15741454361E+04  0.80462802538E+02 0.  0.
        254    2    1    2    0    0 -0.52575255348E+03 -0.12015545677E+03  0.60970643954E+03  0.12122533585E+04  0.89831129435E+03 0.  0.
         23    2    4    4    0    0 -0.33619045931E+03  0.22475310513E+03  0.68584875905E+03  0.80128294152E+03  0.90154583281E+02 0.  0.
         23    2    4    4    0    0 -0.18956209417E+03 -0.34490856190E+03 -0.76142319505E+02  0.41097041701E+03  0.90572220977E+02 0.  0.
          4    1    3    3  502    0  0.23352865159E+03  0.13240725651E+02 -0.61237213735E+03  0.65552313654E+03  0.00000000000E+00 0. -1.
         -3    1    3    3    0  502  0.29222390190E+03  0.10691473112E+03 -0.86431554460E+03  0.91862229953E+03  0.00000000000E+00 0.  1.
         13    1    5    5    0    0 -0.63700263736E+02  0.84653531119E+02  0.21210191279E+03  0.23708893972E+03  0.00000000000E+00 0.  1.
        -13    1    5    5    0    0 -0.27249019557E+03  0.14009957402E+03  0.47374684626E+03  0.56419400180E+03  0.00000000000E+00 0. -1.
          3    1    6    6  503    0 -0.13859024085E+03 -0.30482766698E+03 -0.85134494975E+02  0.34550693720E+03  0.00000000000E+00 0. -1.
         -3    1    6    6    0  503 -0.50971853324E+02 -0.40080894918E+02  0.89921754694E+01  0.65463479807E+02  0.00000000000E+00 0.  1.
<mgrwt>
<rscale>  0 0.26480864E+04</rscale>
<asrwt>0</asrwt>
<pdfrwt beam="1">  1        2 0.14764751E+00 0.26480864E+04</pdfrwt>
<pdfrwt beam="2">  1       -1 0.28102923E+00 0.26480864E+04</pdfrwt>
<totfact> 0.11777451E+00</totfact>
</mgrwt>
</event>
<event>
12    7  0.1606355E-007  0.2213066E+04  0.7818608E-02  0.8513009E-01
         -1   -1    0    0    0  501 -0.00000000000E+00  0.00000000000E+00  0.11198073729E+04  0.11198073729E+04  0.00000000000E+00 0.  1.
          2   -1    0    0  501    0  0.00000000000E+00 -0.00000000000E+00 -0.10934160200E+04  0.10934160200E+04  0.00000000000E+00 0. -1.
         24    2    1    2    0    0  0.48787391892E+03  0.26030177520E+02  0.79141493848E+03  0.93362303687E+03  0.81337809193E+02 0.  0.
        254    2    1    2    0    0 -0.48787391892E+03 -0.26030177520E+02 -0.76502358553E+03  0.12796003561E+04  0.90189658717E+03 0.  0.
         23    2    4    4    0    0 -0.73120832537E+03  0.84433662440E+02 -0.58282363124E+03  0.94360913177E+03  0.94446545657E+02 0.  0.
         23    2    4    4    0    0  0.24333440645E+03 -0.11046383996E+03 -0.18219995430E+03  0.33599122431E+03  0.90991132343E+02 0.  0.
          4    1    3    3  502    0  0.10531746050E+03  0.68145378098E+01  0.11354963630E+03  0.15502169305E+03  0.00000000000E+00 0. -1.
         -3    1    3    3    0  502  0.38255645843E+03  0.19215639710E+02  0.67786530218E+03  0.77860134382E+03  0.00000000000E+00 0.  1.
         13    1    5    5    0    0 -0.15689246817E+02  0.17344504840E+02 -0.16375759668E+02  0.28550828684E+02  0.00000000000E+00 0. -1.
        -13    1    5    5    0    0 -0.71551907855E+03  0.67089157600E+02 -0.56644787157E+03  0.91505830309E+03  0.00000000000E+00 0.  1.
          3    1    6    6  503    0  0.29533296305E+02 -0.27861500801E+02 -0.69709457987E+02  0.80671477924E+02  0.00000000000E+00 0. -1.
         -3    1    6    6    0  503  0.21380111014E+03 -0.82602339159E+02 -0.11249049631E+03  0.25531974638E+03  0.00000000000E+00 0.  1.
<mgrwt>
<rscale>  0 0.22130660E+04</rscale>
<asrwt>0</asrwt>
<pdfrwt beam="1">  1        2 0.16821785E+00 0.22130660E+04</pdfrwt>
<pdfrwt beam="2">  1       -1 0.17227806E+00 0.22130660E+04</pdfrwt>
<totfact> 0.54211470E+00</totfact>
</mgrwt>
</event>
<event>
12    7  0.1606355E-007  0.2034330E+04  0.7818608E-02  0.8590736E-01
          2   -1    0    0  501    0  0.00000000000E+00  0.00000000000E+00  0.14028027137E+04  0.14028027137E+04  0.00000000000E+00 0. -1.
         -1   -1    0    0    0  501 -0.00000000000E+00 -0.00000000000E+00 -0.73754131900E+03  0.73754131900E+03  0.00000000000E+00 0.  1.
         24    2    1    2    0    0 -0.11663267105E+03  0.53135808750E+03 -0.35754958497E+03  0.65437447534E+03  0.66480456970E+02 0.  0.
        254    2    1    2    0    0  0.11663267105E+03 -0.53135808750E+03  0.10228109797E+04  0.14859695574E+04  0.93060121865E+03 0.  0.
         23    2    4    4    0    0 -0.14594922014E+03 -0.42630338964E+03  0.43278068575E+02  0.46175475572E+03  0.91152116431E+02 0.  0.
         23    2    4    4    0    0  0.26258189119E+03 -0.10505469786E+03  0.97953291113E+03  0.10242148017E+04  0.97701058516E+02 0.  0.
          2    1    3    3  502    0 -0.63348689696E+02  0.20357447755E+03 -0.10814530929E+03  0.23906282086E+03  0.00000000000E+00 0. -1.
         -1    1    3    3    0  502 -0.53283981349E+02  0.32778360995E+03 -0.24940427568E+03  0.41531165448E+03  0.00000000000E+00 0.  1.
         13    1    5    5    0    0 -0.12277881128E+03 -0.36762660137E+03  0.43243401607E+01  0.38761147359E+03  0.00000000000E+00 0. -1.
        -13    1    5    5    0    0 -0.23170408858E+02 -0.58676788268E+02  0.38953728414E+02  0.74143282133E+02  0.00000000000E+00 0.  1.
          3    1    6    6  503    0  0.16882521059E+03 -0.15687395104E+02  0.53974033196E+03  0.56574523598E+03  0.00000000000E+00 0. -1.
         -3    1    6    6    0  503  0.93756680594E+02 -0.89367302757E+02  0.43979257917E+03  0.45846956568E+03  0.00000000000E+00 0.  1.
<mgrwt>
<rscale>  0 0.20343303E+04</rscale>
<asrwt>0</asrwt>
<pdfrwt beam="1">  1        2 0.21581580E+00 0.20343303E+04</pdfrwt>
<pdfrwt beam="2">  1       -1 0.11346790E+00 0.20343303E+04</pdfrwt>
<totfact> 0.10790300E+01</totfact>
</mgrwt>
</event>
<event>
12    7  0.1606355E-007  0.3094110E+04  0.7818608E-02  0.8217356E-01
          2   -1    0    0  501    0  0.00000000000E+00  0.00000000000E+00  0.22587503761E+04  0.22587503761E+04  0.00000000000E+00 0. -1.
         -1   -1    0    0    0  501 -0.00000000000E+00 -0.00000000000E+00 -0.10596032857E+04  0.10596032857E+04  0.00000000000E+00 0.  1.
         24    2    1    2    0    0 -0.61496327841E+03 -0.12651079961E+04  0.40336328351E+03  0.14656653798E+04  0.82431737166E+02 0.  0.
        254    2    1    2    0    0  0.61496327841E+03  0.12651079961E+04  0.79578380684E+03  0.18526882820E+04  0.90581671841E+03 0.  0.
         23    2    4    4    0    0 -0.57992596703E+02  0.60739425398E+03 -0.72372956417E+00  0.61635814066E+03  0.87211884142E+02 0.  0.
         23    2    4    4    0    0  0.67295587511E+03  0.65771374215E+03  0.79650753641E+03  0.12363301413E+04  0.92903102005E+02 0.  0.
          4    1    3    3  502    0 -0.38501338894E+03 -0.84944452143E+03  0.29814005798E+03  0.97912144233E+03  0.00000000000E+00 0. -1.
         -3    1    3    3    0  502 -0.22994988947E+03 -0.41566347470E+03  0.10522322553E+03  0.48654393744E+03  0.00000000000E+00 0.  1.
         13    1    5    5    0    0 -0.71299115736E+02  0.52410941540E+03  0.20688736585E+02  0.52934135209E+03  0.00000000000E+00 0.  1.
        -13    1    5    5    0    0  0.13306519033E+02  0.83284838584E+02 -0.21412466149E+02  0.87016788572E+02  0.00000000000E+00 0. -1.
          3    1    6    6  503    0  0.89813691474E+02  0.99560939239E+02  0.74831739072E+02  0.15355347268E+03  0.00000000000E+00 0. -1.
         -3    1    6    6    0  503  0.58314218364E+03  0.55815280291E+03  0.72167579733E+03  0.10827766687E+04  0.00000000000E+00 0.  1.
<mgrwt>
<rscale>  0 0.30941101E+04</rscale>
<asrwt>0</asrwt>
<pdfrwt beam="1">  1        2 0.34750006E+00 0.30941101E+04</pdfrwt>
<pdfrwt beam="2">  1       -1 0.16301589E+00 0.30941101E+04</pdfrwt>
<totfact> 0.12812252E+00</totfact>
</mgrwt>
</event>
<event>
12    7  0.1606355E-007  0.1358745E+04  0.7818608E-02  0.8984235E-01
          2   -1    0    0  501    0  0.00000000000E+00  0.00000000000E+00  0.70013895632E+03  0.70013895632E+03  0.00000000000E+00 0. -1.
         -1   -1    0    0    0  501 -0.00000000000E+00 -0.00000000000E+00 -0.65922155295E+03  0.65922155295E+03  0.00000000000E+00 0.  1.
         24    2    1    2    0    0  0.11080041595E+03  0.24984556615E+03  0.26381582065E+03  0.38833675390E+03  0.80666648010E+02 0.  0.
        254    2    1    2    0    0 -0.11080041595E+03 -0.24984556615E+03 -0.22289841727E+03  0.97102375537E+03  0.90471204810E+03 0.  0.
         23    2    4    4    0    0 -0.23110186179E+03 -0.21908810311E+03  0.28700811193E+03  0.43834676036E+03  0.91468893944E+02 0.  0.
         23    2    4    4    0    0  0.12030144583E+03 -0.30757463040E+02 -0.50990652920E+03  0.53267699501E+03  0.91223095178E+02 0.  0.
          4    1    3    3  502    0  0.12265086640E+03  0.23177989239E+03  0.25210700125E+03  0.36376241370E+03  0.00000000000E+00 0. -1.
         -3    1    3    3    0  502 -0.11850450444E+02  0.18065673763E+02  0.11708819399E+02  0.24574340194E+02  0.00000000000E+00 0.  1.
         13    1    5    5    0    0  0.16593632724E+01  0.60169568332E+01  0.11965591091E+02  0.13495652121E+02  0.00000000000E+00 0. -1.
        -13    1    5    5    0    0 -0.23276122506E+03 -0.22510505995E+03  0.27504252084E+03  0.42485110824E+03  0.00000000000E+00 0.  1.
          1    1    6    6  503    0  0.11498961762E+02 -0.34251496663E+02 -0.62255773500E+02  0.71980361761E+02  0.00000000000E+00 0. -1.
         -1    1    6    6    0  503  0.10880248407E+03  0.34940336226E+01 -0.44765075570E+03  0.46069663325E+03  0.00000000000E+00 0.  1.
<mgrwt>
<rscale>  0 0.13587446E+04</rscale>
<asrwt>0</asrwt>
<pdfrwt beam="1">  1        2 0.10771369E+00 0.13587446E+04</pdfrwt>
<pdfrwt beam="2">  1       -1 0.10141870E+00 0.13587446E+04</pdfrwt>
<totfact> 0.42164074E+01</totfact>
</mgrwt>
</event>
<event>
12    7  0.1606355E-007  0.5781594E+04  0.7818608E-02  0.7718087E-01
          2   -1    0    0  501    0  0.00000000000E+00  0.00000000000E+00  0.30962738854E+04  0.30962738854E+04  0.00000000000E+00 0. -1.
         -1   -1    0    0    0  501 -0.00000000000E+00 -0.00000000000E+00 -0.26989561512E+04  0.26989561512E+04  0.00000000000E+00 0.  1.
         24    2    1    2    0    0  0.14835230552E+04 -0.17091360663E+04  0.18810990667E+04  0.29438894919E+04  0.77232721213E+02 0.  0.
        254    2    1    2    0    0 -0.14835230552E+04  0.17091360663E+04 -0.14837813325E+04  0.28513405447E+04  0.89808079324E+03 0.  0.
         23    2    4    4    0    0 -0.49485354719E+03  0.16784910320E+03 -0.67419434195E+02  0.53455824884E+03  0.90298320483E+02 0.  0.
         23    2    4    4    0    0 -0.98866950798E+03  0.15412869631E+04 -0.14163618983E+04  0.23167822959E+04  0.91467377448E+02 0.  0.
          4    1    3    3  502    0  0.14354392907E+04 -0.16634619251E+04  0.18103885533E+04  0.28469454241E+04  0.00000000000E+00 0. -1.
         -3    1    3    3    0  502  0.48083764419E+02 -0.45674141143E+02  0.70710513395E+02  0.96944067763E+02  0.00000000000E+00 0.  1.
         13    1    5    5    0    0 -0.43027816193E+03  0.16415989064E+03 -0.34075813598E+02  0.46178883421E+03  0.00000000000E+00 0. -1.
        -13    1    5    5    0    0 -0.64575385262E+02  0.36892125607E+01 -0.33343620597E+02  0.72769414630E+02  0.00000000000E+00 0.  1.
          3    1    6    6  503    0 -0.94799452468E+03  0.14880761872E+04 -0.13424106024E+04  0.22170093783E+04  0.00000000000E+00 0. -1.
         -3    1    6    6    0  503 -0.40674983296E+02  0.53210775833E+02 -0.73951295898E+02  0.99772917647E+02  0.00000000000E+00 0.  1.
<mgrwt>
<rscale>  0 0.57815941E+04</rscale>
<asrwt>0</asrwt>
<pdfrwt beam="1">  1        2 0.47634983E+00 0.57815941E+04</pdfrwt>
<pdfrwt beam="2">  1       -1 0.41522402E+00 0.57815941E+04</pdfrwt>
<totfact> 0.66333137E-03</totfact>
</mgrwt>
</event>
<event>
12    7  0.1606355E-007  0.1280400E+04  0.7818608E-02  0.9045254E-01
         -1   -1    0    0    0  501 -0.00000000000E+00  0.00000000000E+00  0.26443094409E+03  0.26443094409E+03  0.00000000000E+00 0.  1.
          2   -1    0    0  501    0  0.00000000000E+00 -0.00000000000E+00 -0.15499540693E+04  0.15499540693E+04  0.00000000000E+00 0. -1.
         24    2    1    2    0    0  0.89942050480E+02  0.19613222384E+03 -0.67872473217E+03  0.71665219147E+03  0.79785210468E+02 0.  0.
        254    2    1    2    0    0 -0.89942050480E+02 -0.19613222384E+03 -0.60679839299E+03  0.10977328219E+04  0.88896323705E+03 0.  0.
         23    2    4    4    0    0 -0.37884819624E+03 -0.34906392575E+03 -0.18310211550E+03  0.55446285662E+03  0.92363924871E+02 0.  0.
         23    2    4    4    0    0  0.28890614576E+03  0.15293170191E+03 -0.42369627749E+03  0.54326996526E+03  0.93642154422E+02 0.  0.
          4    1    3    3  502    0  0.59115598754E+02  0.17770650830E+03 -0.62138305067E+03  0.64899241349E+03  0.00000000000E+00 0. -1.
         -3    1    3    3    0  502  0.30826451726E+02  0.18425715539E+02 -0.57341681496E+02  0.67659777977E+02  0.00000000000E+00 0.  1.
         13    1    5    5    0    0 -0.27805407740E+03 -0.29837602198E+03 -0.16605941541E+03  0.44036127203E+03  0.00000000000E+00 0. -1.
        -13    1    5    5    0    0 -0.10079411884E+03 -0.50687903768E+02 -0.17042700090E+02  0.11410158460E+03  0.00000000000E+00 0.  1.
          1    1    6    6  503    0  0.25109150161E+03  0.16120881552E+03 -0.39523489739E+03  0.49522302905E+03  0.00000000000E+00 0. -1.
         -1    1    6    6    0  503  0.37814644151E+02 -0.82771136139E+01 -0.28461380098E+02  0.48046936209E+02  0.00000000000E+00 0.  1.
<mgrwt>
<rscale>  0 0.12803997E+04</rscale>
<asrwt>0</asrwt>
<pdfrwt beam="1">  1        2 0.23845447E+00 0.12803997E+04</pdfrwt>
<pdfrwt beam="2">  1       -1 0.40681684E-01 0.12803997E+04</pdfrwt>
<totfact> 0.78535747E+01</totfact>
</mgrwt>
</event>
<event>
12    7  0.1606355E-007  0.1239760E+04  0.7818608E-02  0.9078749E-01
         -1   -1    0    0    0  501 -0.00000000000E+00  0.00000000000E+00  0.12477017977E+03  0.12477017977E+03  0.00000000000E+00 0.  1.
          2   -1    0    0  501    0  0.00000000000E+00 -0.00000000000E+00 -0.30796741388E+04  0.30796741388E+04  0.00000000000E+00 0. -1.
         24    2    1    2    0    0 -0.14198716009E+03  0.43546672552E+02 -0.76412575592E+02  0.18490535713E+03  0.79337526228E+02 0.  0.
        254    2    1    2    0    0  0.14198716009E+03 -0.43546672552E+02 -0.28784913834E+04  0.30195389614E+04  0.89991456748E+03 0.  0.
         23    2    4    4    0    0  0.43917813842E+03  0.29057601777E+02 -0.24176783328E+04  0.24591003213E+04  0.91016963658E+02 0.  0.
         23    2    4    4    0    0 -0.29719097833E+03 -0.72604274329E+02 -0.46081305064E+03  0.56043864017E+03  0.90271498839E+02 0.  0.
          4    1    3    3  502    0 -0.36979388813E+02  0.49592452200E+01 -0.61651756677E+02  0.72062531259E+02  0.00000000000E+00 0. -1.
         -3    1    3    3    0  502 -0.10500777128E+03  0.38587427332E+02 -0.14760818915E+02  0.11284282588E+03  0.00000000000E+00 0.  1.
         13    1    5    5    0    0  0.40582068588E+03  0.26499260950E+02 -0.20531690453E+04  0.20930589501E+04  0.00000000000E+00 0. -1.
        -13    1    5    5    0    0  0.33357452536E+02  0.25583408263E+01 -0.36450928753E+03  0.36604137122E+03  0.00000000000E+00 0.  1.
          4    1    6    6  503    0 -0.17702696608E+03 -0.36367702948E+02 -0.34591472909E+03  0.39027958740E+03  0.00000000000E+00 0. -1.
         -4    1    6    6    0  503 -0.12016401225E+03 -0.36236571381E+02 -0.11489832155E+03  0.17015905277E+03  0.00000000000E+00 0.  1.
<mgrwt>
<rscale>  0 0.12397605E+04</rscale>
<asrwt>0</asrwt>
<pdfrwt beam="1">  1        2 0.47379602E+00 0.12397605E+04</pdfrwt>
<pdfrwt beam="2">  1       -1 0.19195412E-01 0.12397605E+04</pdfrwt>
<totfact> 0.38638856E+01</totfact>
</mgrwt>
</event>
<event>
12    7  0.1606355E-007  0.1257920E+04  0.7818608E-02  0.9063617E-01
         -1   -1    0    0    0  501 -0.00000000000E+00  0.00000000000E+00  0.61060567636E+03  0.61060567636E+03  0.00000000000E+00 0.  1.
          2   -1    0    0  501    0  0.00000000000E+00 -0.00000000000E+00 -0.64786579815E+03  0.64786579815E+03  0.00000000000E+00 0. -1.
         24    2    1    2    0    0  0.19529507341E+02  0.20247286791E+03  0.21424107803E+03  0.30838397525E+03  0.88457745725E+02 0.  0.
        254    2    1    2    0    0 -0.19529507341E+02 -0.20247286791E+03 -0.25150119982E+03  0.95008749927E+03  0.89332902049E+03 0.  0.
         23    2    4    4    0    0  0.39326194126E+03 -0.26397775497E+03 -0.18999483522E+03  0.51855449086E+03  0.91986482810E+02 0.  0.
         23    2    4    4    0    0 -0.41279144860E+03  0.61504887052E+02 -0.61506364599E+02  0.43153300841E+03  0.90873941756E+02 0.  0.
          2    1    3    3  502    0  0.23155281457E+02  0.54466321266E+01  0.14827252240E+02  0.28029988760E+02  0.00000000000E+00 0. -1.
         -1    1    3    3    0  502 -0.36257741160E+01  0.19702623579E+03  0.19941382579E+03  0.28035398649E+03  0.00000000000E+00 0.  1.
         13    1    5    5    0    0  0.20612472111E+03 -0.15603451390E+03 -0.56580776820E+02  0.26464231424E+03  0.00000000000E+00 0.  1.
        -13    1    5    5    0    0  0.18713722015E+03 -0.10794324107E+03 -0.13341405840E+03  0.25391217662E+03  0.00000000000E+00 0. -1.
          2    1    6    6  503    0 -0.14556967461E+03  0.61763929300E+02 -0.39344051857E+01  0.15817962155E+03  0.00000000000E+00 0. -1.
         -2    1    6    6    0  503 -0.26722177399E+03 -0.25904224763E+00 -0.57571959414E+02  0.27335338686E+03  0.00000000000E+00 0.  1.
<mgrwt>
<rscale>  0 0.12579198E+04</rscale>
<asrwt>0</asrwt>
<pdfrwt beam="1">  1        2 0.99671662E-01 0.12579198E+04</pdfrwt>
<pdfrwt beam="2">  1       -1 0.93939334E-01 0.12579198E+04</pdfrwt>
<totfact> 0.55705866E+01</totfact>
</mgrwt>
</event>
<event>
12    7  0.1606355E-007  0.1985377E+04  0.7818608E-02  0.8613488E-01
         -1   -1    0    0    0  501 -0.00000000000E+00  0.00000000000E+00  0.11909494835E+04  0.11909494835E+04  0.00000000000E+00 0.  1.
          2   -1    0    0  501    0  0.00000000000E+00 -0.00000000000E+00 -0.82743270937E+03  0.82743270937E+03  0.00000000000E+00 0. -1.
         24    2    1    2    0    0 -0.16150941657E+03  0.18563774192E+03 -0.61598674330E+03  0.66804084905E+03  0.79323673753E+02 0.  0.
        254    2    1    2    0    0  0.16150941657E+03 -0.18563774192E+03  0.97950351741E+03  0.13503413438E+04  0.89635257644E+03 0.  0.
         23    2    4    4    0    0 -0.20324454115E+03  0.20259340734E+03  0.65305932647E+03  0.71870894279E+03  0.87770315840E+02 0.  0.
         23    2    4    4    0    0  0.36475395772E+03 -0.38823114927E+03  0.32644419093E+03  0.63163240101E+03  0.92869829772E+02 0.  0.
          4    1    3    3  502    0 -0.12028621203E+03  0.13635596505E+03 -0.53253408456E+03  0.56272042190E+03  0.00000000000E+00 0. -1.
         -3    1    3    3    0  502 -0.41223204538E+02  0.49281776879E+02 -0.83452658737E+02  0.10532042715E+03  0.00000000000E+00 0.  1.
         13    1    5    5    0    0 -0.14679383932E+03  0.14533820916E+03  0.55315766268E+03  0.59047017375E+03  0.00000000000E+00 0.  1.
        -13    1    5    5    0    0 -0.56450701825E+02  0.57255198189E+02  0.99901663793E+02  0.12823876904E+03  0.00000000000E+00 0. -1.
          1    1    6    6  503    0  0.36511201424E+02 -0.67540014583E+01  0.16883017927E+02  0.40788732016E+02  0.00000000000E+00 0. -1.
         -1    1    6    6    0  503  0.32824275629E+03 -0.38147714781E+03  0.30956117301E+03  0.59084366900E+03  0.00000000000E+00 0.  1.
<mgrwt>
<rscale>  0 0.19853771E+04</rscale>
<asrwt>0</asrwt>
<pdfrwt beam="1">  1        2 0.12729734E+00 0.19853771E+04</pdfrwt>
<pdfrwt beam="2">  1       -1 0.18322300E+00 0.19853771E+04</pdfrwt>
<totfact> 0.68957889E+00</totfact>
</mgrwt>
</event>
<event>
12    7  0.1606355E-007  0.1496297E+04  0.7818608E-02  0.8886919E-01
         -1   -1    0    0    0  501 -0.00000000000E+00  0.00000000000E+00  0.23178685006E+03  0.23178685006E+03  0.00000000000E+00 0.  1.
          2   -1    0    0  501    0  0.00000000000E+00 -0.00000000000E+00 -0.24148302108E+04  0.24148302108E+04  0.00000000000E+00 0. -1.
         24    2    1    2    0    0  0.17756748875E+03 -0.35634356713E+03 -0.12165123274E+04  0.12823773052E+04  0.77963832196E+02 0.  0.
        254    2    1    2    0    0 -0.17756748875E+03  0.35634356713E+03 -0.96653103332E+03  0.13642397557E+04  0.87661674737E+03 0.  0.
         23    2    4    4    0    0 -0.40409219056E+03 -0.10116897884E+03 -0.30765798523E+03  0.52592504593E+03  0.91749971749E+02 0.  0.
         23    2    4    4    0    0  0.22652470181E+03  0.45751254597E+03 -0.65887304809E+03  0.83831470977E+03  0.89591790124E+02 0.  0.
          2    1    3    3  502    0  0.34512319143E+02 -0.12308305582E+03 -0.30572994913E+03  0.33137794223E+03  0.00000000000E+00 0. -1.
         -1    1    3    3    0  502  0.14305516961E+03 -0.23326051131E+03 -0.91078237829E+03  0.95099936293E+03  0.00000000000E+00 0.  1.
         13    1    5    5    0    0 -0.37888001664E+03 -0.89388840289E+02 -0.31050735749E+03  0.49795105265E+03  0.00000000000E+00 0.  1.
        -13    1    5    5    0    0 -0.25212173921E+02 -0.11780138550E+02  0.28493722647E+01  0.27973993286E+02  0.00000000000E+00 0. -1.
          1    1    6    6  503    0  0.13954755424E+03  0.22168568148E+03 -0.39426984973E+03  0.47335692207E+03  0.00000000000E+00 0. -1.
         -1    1    6    6    0  503  0.86977147567E+02  0.23582686449E+03 -0.26460319836E+03  0.36495778769E+03  0.00000000000E+00 0.  1.
<mgrwt>
<rscale>  0 0.14962966E+04</rscale>
<asrwt>0</asrwt>
<pdfrwt beam="1">  1        2 0.37151232E+00 0.14962966E+04</pdfrwt>
<pdfrwt beam="2">  1       -1 0.35659517E-01 0.14962966E+04</pdfrwt>
<totfact> 0.32270096E+01</totfact>
</mgrwt>
</event>
<event>
12    7  0.1606355E-007  0.2450256E+04  0.7818608E-02  0.8420924E-01
         -1   -1    0    0    0  501 -0.00000000000E+00  0.00000000000E+00  0.21137206551E+04  0.21137206551E+04  0.00000000000E+00 0.  1.
          2   -1    0    0  501    0  0.00000000000E+00 -0.00000000000E+00 -0.71009341020E+03  0.71009341020E+03  0.00000000000E+00 0. -1.
         24    2    1    2    0    0  0.45099079417E+03 -0.69555189374E+03  0.13751767240E+04  0.16076641117E+04  0.79295274754E+02 0.  0.
        254    2    1    2    0    0 -0.45099079417E+03  0.69555189374E+03  0.28450520844E+02  0.12161499535E+04  0.88939650552E+03 0.  0.
         23    2    4    4    0    0 -0.10568648920E+03  0.75658452061E+03 -0.19100440138E+03  0.79268085675E+03  0.90942226147E+02 0.  0.
         23    2    4    4    0    0 -0.34530430497E+03 -0.61032626867E+02  0.21945492223E+03  0.42346909678E+03  0.90584592867E+02 0.  0.
          4    1    3    3  502    0  0.14609221072E+02 -0.58675399887E+02  0.11039599443E+03  0.12587099538E+03  0.00000000000E+00 0. -1.
         -3    1    3    3    0  502  0.43638157309E+03 -0.63687649385E+03  0.12647807296E+04  0.14817931164E+04  0.00000000000E+00 0.  1.
         13    1    5    5    0    0 -0.73150063209E+02  0.27575853427E+03 -0.42845891074E+02  0.28849518428E+03  0.00000000000E+00 0.  1.
        -13    1    5    5    0    0 -0.32536425992E+02  0.48082598634E+03 -0.14815851031E+03  0.50418567248E+03  0.00000000000E+00 0. -1.
          4    1    6    6  503    0 -0.34308705213E+03 -0.71933889713E+02  0.21628833031E+03  0.41190272110E+03  0.00000000000E+00 0. -1.
         -4    1    6    6    0  503 -0.22172528397E+01  0.10901262846E+02  0.31665919180E+01  0.11566375672E+02  0.00000000000E+00 0.  1.
<mgrwt>
<rscale>  0 0.24502564E+04</rscale>
<asrwt>0</asrwt>
<pdfrwt beam="1">  1        2 0.10924514E+00 0.24502564E+04</pdfrwt>
<pdfrwt beam="2">  1       -1 0.32518779E+00 0.24502564E+04</pdfrwt>
<totfact> 0.93073551E-01</totfact>
</mgrwt>
</event>
<event>
12    7  0.1606355E-007  0.1239006E+04  0.7818608E-02  0.9079383E-01
          2   -1    0    0  501    0  0.00000000000E+00  0.00000000000E+00  0.54338187562E+03  0.54338187562E+03  0.00000000000E+00 0. -1.
         -1   -1    0    0    0  501 -0.00000000000E+00 -0.00000000000E+00 -0.70628813524E+03  0.70628813524E+03  0.00000000000E+00 0.  1.
         24    2    1    2    0    0 -0.21757254682E+03 -0.47578867141E+02 -0.22875176773E+03  0.33046182613E+03  0.85299973990E+02 0.  0.
        254    2    1    2    0    0  0.21757254682E+03  0.47578867141E+02  0.65845508107E+02  0.91920818472E+03  0.88938545873E+03 0.  0.
         23    2    4    4    0    0  0.50861430936E+03  0.14759259545E+03  0.19372284401E+03  0.57132177124E+03  0.91694798565E+02 0.  0.
         23    2    4    4    0    0 -0.29104176254E+03 -0.10001372831E+03 -0.12787733591E+03  0.34788641348E+03  0.99821291606E+02 0.  0.
          4    1    3    3  502    0 -0.39724389585E+01 -0.22916068245E+02 -0.18338635702E+02  0.29618102817E+02  0.00000000000E+00 0. -1.
         -3    1    3    3    0  502 -0.21360010786E+03 -0.24662798896E+02 -0.21041313202E+03  0.30084372331E+03  0.00000000000E+00 0.  1.
         13    1    5    5    0    0  0.57755037043E+02  0.38887737247E+02  0.50221752695E+02  0.85849431307E+02  0.00000000000E+00 0.  1.
        -13    1    5    5    0    0  0.45085927232E+03  0.10870485820E+03  0.14350109132E+03  0.48547233993E+03  0.00000000000E+00 0. -1.
          3    1    6    6  503    0 -0.17104471135E+03 -0.93459245819E+01 -0.86491480073E+02  0.19189688823E+03  0.00000000000E+00 0. -1.
         -3    1    6    6    0  503 -0.11999705118E+03 -0.90667803725E+02 -0.41385855835E+02  0.15598952525E+03  0.00000000000E+00 0.  1.
<mgrwt>
<rscale>  0 0.12390063E+04</rscale>
<asrwt>0</asrwt>
<pdfrwt beam="1">  1        2 0.83597212E-01 0.12390063E+04</pdfrwt>
<pdfrwt beam="2">  1       -1 0.10865971E+00 0.12390063E+04</pdfrwt>
<totfact> 0.49392787E+01</totfact>
</mgrwt>
</event>
<event>
12    7  0.1606355E-007  0.2027465E+04  0.7818608E-02  0.8593886E-01
          2   -1    0    0  501    0  0.00000000000E+00  0.00000000000E+00  0.13590297620E+04  0.13590297620E+04  0.00000000000E+00 0. -1.
         -1   -1    0    0    0  501 -0.00000000000E+00 -0.00000000000E+00 -0.75616744529E+03  0.75616744529E+03  0.00000000000E+00 0.  1.
         24    2    1    2    0    0  0.34728795408E+03  0.73072483142E+03  0.33463294710E+03  0.87887658717E+03  0.76662532508E+02 0.  0.
        254    2    1    2    0    0 -0.34728795408E+03 -0.73072483142E+03  0.26822936963E+03  0.12363206201E+04  0.89552999880E+03 0.  0.
         23    2    4    4    0    0 -0.25212819439E+03 -0.41706642510E+03  0.58786210316E+03  0.76856956930E+03  0.87202644283E+02 0.  0.
         23    2    4    4    0    0 -0.95159759698E+02 -0.31365840631E+03 -0.31963273353E+03  0.46775105084E+03  0.95859196246E+02 0.  0.
          4    1    3    3  502    0  0.29175245512E+03  0.62213513389E+03  0.25363005459E+03  0.73246148328E+03  0.00000000000E+00 0. -1.
         -3    1    3    3    0  502  0.55535498961E+02  0.10858969752E+03  0.81002892504E+02  0.14641510389E+03  0.00000000000E+00 0.  1.
         13    1    5    5    0    0 -0.98792979354E+02 -0.17723317215E+03  0.18030554906E+03  0.27144380837E+03  0.00000000000E+00 0.  1.
        -13    1    5    5    0    0 -0.15333521503E+03 -0.23983325295E+03  0.40755655410E+03  0.49712576093E+03  0.00000000000E+00 0. -1.
          4    1    6    6  503    0 -0.11383525380E+03 -0.25554455875E+03 -0.25036234418E+03  0.37542348074E+03  0.00000000000E+00 0. -1.
         -4    1    6    6    0  503  0.18675494106E+02 -0.58113847569E+02 -0.69270389354E+02  0.92327570100E+02  0.00000000000E+00 0.  1.
<mgrwt>
<rscale>  0 0.20274655E+04</rscale>
<asrwt>0</asrwt>
<pdfrwt beam="1">  1        2 0.20908150E+00 0.20274655E+04</pdfrwt>
<pdfrwt beam="2">  1       -1 0.11633345E+00 0.20274655E+04</pdfrwt>
<totfact> 0.10776361E+01</totfact>
</mgrwt>
</event>
<event>
12    7  0.1606355E-007  0.1743467E+04  0.7818608E-02  0.8736954E-01
          2   -1    0    0  501    0  0.00000000000E+00  0.00000000000E+00  0.22019527590E+04  0.22019527590E+04  0.00000000000E+00 0. -1.
         -3   -1    0    0    0  501 -0.00000000000E+00 -0.00000000000E+00 -0.34511160994E+03  0.34511160994E+03  0.00000000000E+00 0.  1.
         24    2    1    2    0    0 -0.27946765023E+03 -0.41193069717E+03  0.12424279581E+04  0.13408862787E+04  0.80992065013E+02 0.  0.
        254    2    1    2    0    0  0.27946765023E+03  0.41193069717E+03  0.61441319100E+03  0.12061780903E+04  0.91080895326E+03 0.  0.
         23    2    4    4    0    0  0.22310452761E+03 -0.12979065247E+03  0.59401158138E+03  0.65407704903E+03  0.91355260076E+02 0.  0.
         23    2    4    4    0    0  0.56363122623E+02  0.54172134964E+03  0.20401609625E+02  0.55210104123E+03  0.88093767110E+02 0.  0.
          4    1    3    3  502    0 -0.26336101057E+03 -0.41083016718E+03  0.11957167736E+04  0.12914639177E+04  0.00000000000E+00 0. -1.
         -3    1    3    3    0  502 -0.16106639664E+02 -0.11005299857E+01  0.46711184486E+02  0.49422360967E+02  0.00000000000E+00 0.  1.
         13    1    5    5    0    0  0.16431857250E+03 -0.13460437721E+03  0.42614451168E+03  0.47614921660E+03  0.00000000000E+00 0.  1.
        -13    1    5    5    0    0  0.58785955114E+02  0.48137247352E+01  0.16786706970E+03  0.17792783243E+03  0.00000000000E+00 0. -1.
          3    1    6    6  503    0  0.16826891309E+01  0.21269189203E+02  0.19319997610E+02  0.28783192313E+02  0.00000000000E+00 0. -1.
         -3    1    6    6    0  503  0.54680433493E+02  0.52045216044E+03  0.10816120152E+01  0.52331784891E+03  0.00000000000E+00 0.  1.
<mgrwt>
<rscale>  0 0.17434672E+04</rscale>
<asrwt>0</asrwt>
<pdfrwt beam="1">  1        2 0.33876195E+00 0.17434672E+04</pdfrwt>
<pdfrwt beam="2">  1       -3 0.53094095E-01 0.17434672E+04</pdfrwt>
<totfact> 0.11013192E+01</totfact>
</mgrwt>
</event>
<event>
12    7  0.1606355E-007  0.1428046E+04  0.7818608E-02  0.8933764E-01
         -1   -1    0    0    0  501 -0.00000000000E+00  0.00000000000E+00  0.22793204667E+03  0.22793204667E+03  0.00000000000E+00 0.  1.
          2   -1    0    0  501    0  0.00000000000E+00 -0.00000000000E+00 -0.22367591475E+04  0.22367591475E+04  0.00000000000E+00 0. -1.
         24    2    1    2    0    0 -0.38479449126E+03 -0.59916924545E+02 -0.33356491120E+03  0.51936798965E+03  0.82587652495E+02 0.  0.
        254    2    1    2    0    0  0.38479449126E+03  0.59916924545E+02 -0.16752621897E+04  0.19453232046E+04  0.90891260729E+03 0.  0.
         23    2    4    4    0    0 -0.82184851774E+01  0.70456007703E+02  0.80913111945E+02  0.14348230731E+03  0.94913899438E+02 0.  0.
         23    2    4    4    0    0  0.39301297643E+03 -0.10539083158E+02 -0.17561753016E+04  0.18018408972E+04  0.88930630629E+02 0.  0.
          2    1    3    3  502    0 -0.13810559262E+03 -0.32295063154E+02 -0.17311410599E+03  0.22379593274E+03  0.00000000000E+00 0. -1.
         -1    1    3    3    0  502 -0.24668889863E+03 -0.27621861391E+02 -0.16045080520E+03  0.29557205691E+03  0.00000000000E+00 0.  1.
         13    1    5    5    0    0  0.71665477005E+01  0.81784050562E+02  0.27221589051E+02  0.86492804572E+02  0.00000000000E+00 0. -1.
        -13    1    5    5    0    0 -0.15385032878E+02 -0.11328042860E+02  0.53691522894E+02  0.56989502738E+02  0.00000000000E+00 0.  1.
          4    1    6    6  503    0  0.20520181697E+03 -0.41716624323E+01 -0.11133916984E+04  0.11321511659E+04  0.00000000000E+00 0. -1.
         -4    1    6    6    0  503  0.18781115946E+03 -0.63674207254E+01 -0.64278360326E+03  0.66968973136E+03  0.00000000000E+00 0.  1.
<mgrwt>
<rscale>  0 0.14280463E+04</rscale>
<asrwt>0</asrwt>
<pdfrwt beam="1">  1        2 0.34411682E+00 0.14280463E+04</pdfrwt>
<pdfrwt beam="2">  1       -1 0.35066466E-01 0.14280463E+04</pdfrwt>
<totfact> 0.42189476E+01</totfact>
</mgrwt>
</event>
<event>
12    7  0.1606355E-007  0.3152234E+04  0.7818608E-02  0.8201547E-01
         -1   -1    0    0    0  501 -0.00000000000E+00  0.00000000000E+00  0.62038260847E+03  0.62038260847E+03  0.00000000000E+00 0.  1.
          2   -1    0    0  501    0  0.00000000000E+00 -0.00000000000E+00 -0.40042131207E+04  0.40042131207E+04  0.00000000000E+00 0. -1.
         24    2    1    2    0    0 -0.20716130868E+03  0.43881326316E+03 -0.35571442098E+04  0.35909723218E+04  0.79588937773E+02 0.  0.
        254    2    1    2    0    0  0.20716130868E+03 -0.43881326316E+03  0.17331369759E+03  0.10336234073E+04  0.89602836042E+03 0.  0.
         23    2    4    4    0    0  0.55176471849E+03 -0.30927685659E+03  0.11136018081E+03  0.64879986970E+03  0.91889621073E+02 0.  0.
         23    2    4    4    0    0 -0.34460340981E+03 -0.12953640657E+03  0.61953516781E+02  0.38482353763E+03  0.93379474153E+02 0.  0.
          4    1    3    3  502    0 -0.17300839138E+03  0.38547993462E+03 -0.32513143684E+04  0.32786539625E+04  0.00000000000E+00 0. -1.
         -3    1    3    3    0  502 -0.34152917299E+02  0.53333328538E+02 -0.30582984142E+03  0.31231835936E+03  0.00000000000E+00 0.  1.
         13    1    5    5    0    0  0.39179690691E+03 -0.26309317541E+03  0.95919979767E+02  0.48158434125E+03  0.00000000000E+00 0. -1.
        -13    1    5    5    0    0  0.15996781158E+03 -0.46183681178E+02  0.15440201039E+02  0.16721552845E+03  0.00000000000E+00 0.  1.
          2    1    6    6  503    0 -0.31034074832E+03 -0.87797750267E+02  0.34836749025E+02  0.32439701617E+03  0.00000000000E+00 0. -1.
         -2    1    6    6    0  503 -0.34262661498E+02 -0.41738656299E+02  0.27116767756E+02  0.60426521462E+02  0.00000000000E+00 0.  1.
<mgrwt>
<rscale>  0 0.31522336E+04</rscale>
<asrwt>0</asrwt>
<pdfrwt beam="1">  1        2 0.61603277E+00 0.31522336E+04</pdfrwt>
<pdfrwt beam="2">  1       -1 0.95443480E-01 0.31522336E+04</pdfrwt>
<totfact> 0.34481210E-01</totfact>
</mgrwt>
</event>
<event>
12    7  0.1606355E-007  0.1856397E+04  0.7818608E-02  0.8676870E-01
          2   -1    0    0  501    0  0.00000000000E+00  0.00000000000E+00  0.41266635988E+03  0.41266635988E+03  0.00000000000E+00 0. -1.
         -1   -1    0    0    0  501 -0.00000000000E+00 -0.00000000000E+00 -0.20877702361E+04  0.20877702361E+04  0.00000000000E+00 0.  1.
         24    2    1    2    0    0 -0.31753741397E+03  0.53164275481E+03 -0.19391083443E+03  0.65350947041E+03  0.77454426646E+02 0.  0.
        254    2    1    2    0    0  0.31753741397E+03 -0.53164275481E+03 -0.14811930418E+04  0.18469271255E+04  0.91308978314E+03 0.  0.
         23    2    4    4    0    0  0.45882287989E+03  0.72689717322E+02 -0.69814918343E+03  0.84352550150E+03  0.91218195834E+02 0.  0.
         23    2    4    4    0    0 -0.14128546592E+03 -0.60433247213E+03 -0.78304385834E+03  0.10034016240E+04  0.92075052499E+02 0.  0.
          2    1    3    3  502    0 -0.31955143373E+03  0.52393093221E+03 -0.19761057803E+03  0.64472217356E+03  0.00000000000E+00 0. -1.
         -1    1    3    3    0  502  0.20140197619E+01  0.77118225921E+01  0.36997436044E+01  0.87872968558E+01  0.00000000000E+00 0.  1.
         13    1    5    5    0    0  0.33209614360E+03  0.93458334562E+02 -0.50745506158E+03  0.61362280630E+03  0.00000000000E+00 0.  1.
        -13    1    5    5    0    0  0.12672673629E+03 -0.20768617240E+02 -0.19069412185E+03  0.22990269520E+03  0.00000000000E+00 0. -1.
          1    1    6    6  503    0 -0.75233358100E+02 -0.40412148389E+03 -0.57836658300E+03  0.70956475127E+03  0.00000000000E+00 0. -1.
         -1    1    6    6    0  503 -0.66052107821E+02 -0.20021098824E+03 -0.20467727534E+03  0.29383687277E+03  0.00000000000E+00 0.  1.
<mgrwt>
<rscale>  0 0.18563971E+04</rscale>
<asrwt>0</asrwt>
<pdfrwt beam="1">  1        2 0.63487133E-01 0.18563971E+04</pdfrwt>
<pdfrwt beam="2">  1       -1 0.32119542E+00 0.18563971E+04</pdfrwt>
<totfact> 0.19855333E+00</totfact>
</mgrwt>
</event>
<event>
12    7  0.1606355E-007  0.1540971E+04  0.7818608E-02  0.8857656E-01
          2   -1    0    0  501    0  0.00000000000E+00  0.00000000000E+00  0.24281229777E+04  0.24281229777E+04  0.00000000000E+00 0. -1.
         -1   -1    0    0    0  501 -0.00000000000E+00 -0.00000000000E+00 -0.24448832733E+03  0.24448832733E+03  0.00000000000E+00 0.  1.
         24    2    1    2    0    0  0.21439455402E+03 -0.49853483732E+02 -0.62459866657E+02  0.24233926907E+03  0.79854190605E+02 0.  0.
        254    2    1    2    0    0 -0.21439455402E+03  0.49853483732E+02  0.22460945170E+04  0.24302720360E+04  0.90157151394E+03 0.  0.
         23    2    4    4    0    0 -0.21716788747E+02  0.31053638656E+03  0.19612532572E+04  0.19879131896E+04  0.91542582064E+02 0.  0.
         23    2    4    4    0    0 -0.19267776527E+03 -0.26068290283E+03  0.28484125988E+03  0.44235884639E+03  0.97295984451E+02 0.  0.
          2    1    3    3  502    0  0.13386916502E+03  0.38541667650E+01 -0.15694435376E+02  0.13484110370E+03  0.00000000000E+00 0. -1.
         -1    1    3    3    0  502  0.80525388995E+02 -0.53707650497E+02 -0.46765431281E+02  0.10749816537E+03  0.00000000000E+00 0.  1.
         13    1    5    5    0    0  0.30205146964E+02  0.51118280147E+02  0.31724413419E+03  0.32275264546E+03  0.00000000000E+00 0. -1.
        -13    1    5    5    0    0 -0.51921935711E+02  0.25941810641E+03  0.16440091230E+04  0.16651605441E+04  0.00000000000E+00 0.  1.
          4    1    6    6  503    0 -0.11928443228E+02 -0.69919578280E+00 -0.51308199877E+01  0.13003920422E+02  0.00000000000E+00 0. -1.
         -4    1    6    6    0  503 -0.18074932204E+03 -0.25998370705E+03  0.28997207987E+03  0.42935492596E+03  0.00000000000E+00 0.  1.
<mgrwt>
<rscale>  0 0.15409708E+04</rscale>
<asrwt>0</asrwt>
<pdfrwt beam="1">  1        2 0.37355736E+00 0.15409708E+04</pdfrwt>
<pdfrwt beam="2">  1       -1 0.37613591E-01 0.15409708E+04</pdfrwt>
<totfact> 0.28690037E+01</totfact>
</mgrwt>
</event>
<event>
12    7  0.1606355E-007  0.1244684E+04  0.7818608E-02  0.9074619E-01
          2   -1    0    0  501    0  0.00000000000E+00  0.00000000000E+00  0.28036824354E+04  0.28036824354E+04  0.00000000000E+00 0. -1.
         -1   -1    0    0    0  501 -0.00000000000E+00 -0.00000000000E+00 -0.13814325154E+03  0.13814325154E+03  0.00000000000E+00 0.  1.
         24    2    1    2    0    0 -0.10757200372E+02  0.72071328052E+02  0.12666996960E+04  0.12713934359E+04  0.81259801108E+02 0.  0.
        254    2    1    2    0    0  0.10757200372E+02 -0.72071328052E+02  0.13988394878E+04  0.16704322510E+04  0.91009999390E+03 0.  0.
         23    2    4    4    0    0 -0.20449514124E+03 -0.42997770606E+03  0.79042856076E+03  0.92719316640E+03  0.90613286252E+02 0.  0.
         23    2    4    4    0    0  0.21525234161E+03  0.35790637801E+03  0.60841092706E+03  0.74323908463E+03  0.88373835310E+02 0.  0.
          2    1    3    3  502    0 -0.10158806926E+02  0.87825480948E+02  0.11772400159E+04  0.11805551963E+04  0.00000000000E+00 0. -1.
         -1    1    3    3    0  502 -0.59839344603E+00 -0.15754152895E+02  0.89459680097E+02  0.90838239586E+02  0.00000000000E+00 0.  1.
         13    1    5    5    0    0 -0.25504795483E+02 -0.14700114029E+03  0.22196659167E+03  0.26744905619E+03  0.00000000000E+00 0.  1.
        -13    1    5    5    0    0 -0.17899034575E+03 -0.28297656577E+03  0.56846196909E+03  0.65974411020E+03  0.00000000000E+00 0. -1.
          1    1    6    6  503    0  0.21682625935E+03  0.33917291425E+03  0.54797957540E+03  0.67995110674E+03  0.00000000000E+00 0. -1.
         -1    1    6    6    0  503 -0.15739177393E+01  0.18733463756E+02  0.60431351667E+02  0.63287977892E+02  0.00000000000E+00 0.  1.
<mgrwt>
<rscale>  0 0.12446844E+04</rscale>
<asrwt>0</asrwt>
<pdfrwt beam="1">  1        2 0.43133572E+00 0.12446844E+04</pdfrwt>
<pdfrwt beam="2">  1       -1 0.21252810E-01 0.12446844E+04</pdfrwt>
<totfact> 0.48074741E+01</totfact>
</mgrwt>
</event>
<event>
12    7  0.1606355E-007  0.2765980E+04  0.7818608E-02  0.8313909E-01
          2   -1    0    0  501    0  0.00000000000E+00  0.00000000000E+00  0.18715292914E+04  0.18715292914E+04  0.00000000000E+00 0. -1.
         -1   -1    0    0    0  501 -0.00000000000E+00 -0.00000000000E+00 -0.10219779857E+04  0.10219779857E+04  0.00000000000E+00 0.  1.
         24    2    1    2    0    0  0.10414223171E+04 -0.66591460803E+03  0.25404232866E+03  0.12643798452E+04  0.78206012928E+02 0.  0.
        254    2    1    2    0    0 -0.10414223171E+04  0.66591460803E+03  0.59550897699E+03  0.16291274319E+04  0.87830663214E+03 0.  0.
         23    2    4    4    0    0 -0.10591551516E+04  0.64560806417E+03  0.24709354287E+03  0.12679617519E+04  0.89735042062E+02 0.  0.
         23    2    4    4    0    0  0.17732834504E+02  0.20306543860E+02  0.34841543412E+03  0.36116568000E+03  0.91216909239E+02 0.  0.
          2    1    3    3  502    0  0.49959211441E+03 -0.29623440304E+03  0.84851338976E+02  0.58698113432E+03  0.00000000000E+00 0. -1.
         -1    1    3    3    0  502  0.54183020266E+03 -0.36968020499E+03  0.16919098968E+03  0.67739871085E+03  0.00000000000E+00 0.  1.
         13    1    5    5    0    0 -0.29205789665E+03  0.16473204919E+03  0.10602479389E+03  0.35167558907E+03  0.00000000000E+00 0.  1.
        -13    1    5    5    0    0 -0.76709725492E+03  0.48087601497E+03  0.14106874898E+03  0.91628616285E+03  0.00000000000E+00 0. -1.
          2    1    6    6  503    0  0.90466173136E+01  0.38086795495E+02  0.33495097125E+03  0.33723077917E+03  0.00000000000E+00 0. -1.
         -2    1    6    6    0  503  0.86862171900E+01 -0.17780251635E+02  0.13464462867E+02  0.23934900826E+02  0.00000000000E+00 0.  1.
<mgrwt>
<rscale>  0 0.27659803E+04</rscale>
<asrwt>0</asrwt>
<pdfrwt beam="1">  1        2 0.28792758E+00 0.27659803E+04</pdfrwt>
<pdfrwt beam="2">  1       -1 0.15722738E+00 0.27659803E+04</pdfrwt>
<totfact> 0.23990283E+00</totfact>
</mgrwt>
</event>
<event>
12    7  0.1606355E-007  0.1295480E+04  0.7818608E-02  0.9033157E-01
          2   -1    0    0  501    0  0.00000000000E+00  0.00000000000E+00  0.10646718005E+04  0.10646718005E+04  0.00000000000E+00 0. -1.
         -1   -1    0    0    0  501 -0.00000000000E+00 -0.00000000000E+00 -0.39408144492E+03  0.39408144492E+03  0.00000000000E+00 0.  1.
         24    2    1    2    0    0 -0.63509455363E+02  0.27398304618E+03  0.34912161251E+03  0.45520038769E+03  0.78875421485E+02 0.  0.
        254    2    1    2    0    0  0.63509455363E+02 -0.27398304618E+03  0.32146874309E+03  0.10035528578E+04  0.90811674635E+03 0.  0.
         23    2    4    4    0    0 -0.37298215131E+03  0.32007301638E+02  0.22388955324E+02  0.38587136359E+03  0.90858633967E+02 0.  0.
         23    2    4    4    0    0  0.43649160667E+03 -0.30599034782E+03  0.29907978777E+03  0.61768149417E+03  0.89031978106E+02 0.  0.
          2    1    3    3  502    0 -0.76015972328E+02  0.19108574951E+03  0.21910325899E+03  0.30049697139E+03  0.00000000000E+00 0. -1.
         -1    1    3    3    0  502  0.12506516965E+02  0.82897296670E+02  0.13001835352E+03  0.15470341630E+03  0.00000000000E+00 0.  1.
         13    1    5    5    0    0 -0.37192938182E+03  0.27972526804E+02  0.10341995192E+02  0.37312314882E+03  0.00000000000E+00 0. -1.
        -13    1    5    5    0    0 -0.10527694875E+01  0.40347748343E+01  0.12046960131E+02  0.12748214776E+02  0.00000000000E+00 0.  1.
          4    1    6    6  503    0  0.29513813943E+03 -0.15408237758E+03  0.18281419499E+03  0.37982750074E+03  0.00000000000E+00 0. -1.
         -4    1    6    6    0  503  0.14135346724E+03 -0.15190797024E+03  0.11626559278E+03  0.23785399343E+03  0.00000000000E+00 0.  1.
<mgrwt>
<rscale>  0 0.12954805E+04</rscale>
<asrwt>0</asrwt>
<pdfrwt beam="1">  1        2 0.16379566E+00 0.12954805E+04</pdfrwt>
<pdfrwt beam="2">  1       -1 0.60627915E-01 0.12954805E+04</pdfrwt>
<totfact> 0.70706025E+01</totfact>
</mgrwt>
</event>
<event>
12    7  0.1606355E-007  0.1828098E+04  0.7818608E-02  0.8691498E-01
          2   -1    0    0  501    0  0.00000000000E+00  0.00000000000E+00  0.29337177933E+04  0.29337177933E+04  0.00000000000E+00 0. -1.
         -1   -1    0    0    0  501 -0.00000000000E+00 -0.00000000000E+00 -0.28478742827E+03  0.28478742827E+03  0.00000000000E+00 0.  1.
         24    2    1    2    0    0  0.23863444266E+03  0.90465068116E+02 -0.87797093488E+02  0.28122443251E+03  0.79047618832E+02 0.  0.
        254    2    1    2    0    0 -0.23863444266E+03 -0.90465068116E+02  0.27367274585E+04  0.29372807891E+04  0.10357658644E+04 0.  0.
         23    2    4    4    0    0  0.21494961518E+03  0.33914711901E+03  0.13849398170E+04  0.14452758016E+04  0.97671595688E+02 0.  0.
         23    2    4    4    0    0 -0.45358405784E+03 -0.42961218713E+03  0.13517876416E+04  0.14920049875E+04  0.91890837303E+02 0.  0.
          2    1    3    3  502    0  0.28767154126E+02 -0.14724735101E+02 -0.13134851738E+02  0.34883969247E+02  0.00000000000E+00 0. -1.
         -1    1    3    3    0  502  0.20986728853E+03  0.10518980322E+03 -0.74662241751E+02  0.24634046326E+03  0.00000000000E+00 0.  1.
         13    1    5    5    0    0  0.11958087017E+03  0.18332562949E+03  0.58155053877E+03  0.62137661695E+03  0.00000000000E+00 0.  1.
        -13    1    5    5    0    0  0.95368745010E+02  0.15582148952E+03  0.80338927820E+03  0.82389918464E+03  0.00000000000E+00 0. -1.
          1    1    6    6  503    0 -0.42812483774E+03 -0.38856495734E+03  0.11875773278E+04  0.13208381855E+04  0.00000000000E+00 0. -1.
         -1    1    6    6    0  503 -0.25459220103E+02 -0.41047229789E+02  0.16421031376E+03  0.17116680200E+03  0.00000000000E+00 0.  1.
<mgrwt>
<rscale>  0 0.18280984E+04</rscale>
<asrwt>0</asrwt>
<pdfrwt beam="1">  1        2 0.45134118E+00 0.18280984E+04</pdfrwt>
<pdfrwt beam="2">  1       -1 0.43813453E-01 0.18280984E+04</pdfrwt>
<totfact> 0.10605071E+01</totfact>
</mgrwt>
</event>
<event>
12    7  0.1606355E-007  0.1729855E+04  0.7818608E-02  0.8744518E-01
          2   -1    0    0  501    0  0.00000000000E+00  0.00000000000E+00  0.26452422347E+04  0.26452422347E+04  0.00000000000E+00 0. -1.
         -1   -1    0    0    0  501 -0.00000000000E+00 -0.00000000000E+00 -0.28280939385E+03  0.28280939385E+03  0.00000000000E+00 0.  1.
         24    2    1    2    0    0 -0.54320006325E+01  0.10815105233E+02 -0.18895048112E+03  0.20507411892E+03  0.78782211213E+02 0.  0.
        254    2    1    2    0    0  0.54320006325E+01 -0.10815105233E+02  0.25513833220E+04  0.27229775097E+04  0.95126399554E+03 0.  0.
         23    2    4    4    0    0  0.39914875970E+03  0.42046443145E+01  0.58374216501E+03  0.71421691706E+03  0.10006736733E+03 0.  0.
         23    2    4    4    0    0 -0.39371675907E+03 -0.15019749548E+02  0.19676411570E+04  0.20087605926E+04  0.90933582643E+02 0.  0.
          2    1    3    3  502    0  0.11201681497E+00  0.45036695666E+02 -0.10744976840E+03  0.11650652013E+03  0.00000000000E+00 0. -1.
         -1    1    3    3    0  502 -0.55440174475E+01 -0.34221590433E+02 -0.81500712717E+02  0.88567598785E+02  0.00000000000E+00 0.  1.
         13    1    5    5    0    0  0.26142695106E+03  0.49915315328E+02  0.38987785403E+03  0.47205966838E+03  0.00000000000E+00 0.  1.
        -13    1    5    5    0    0  0.13772180864E+03 -0.45710671014E+02  0.19386431097E+03  0.24215724868E+03  0.00000000000E+00 0. -1.
          4    1    6    6  503    0 -0.25601510266E+03 -0.48076699149E+02  0.13727110319E+04  0.13972081730E+04  0.00000000000E+00 0.  1.
         -4    1    6    6    0  503 -0.13770165641E+03  0.33056949601E+02  0.59493012514E+03  0.61155241958E+03  0.00000000000E+00 0. -1.
<mgrwt>
<rscale>  0 0.17298547E+04</rscale>
<asrwt>0</asrwt>
<pdfrwt beam="1">  1        2 0.40696033E+00 0.17298547E+04</pdfrwt>
<pdfrwt beam="2">  1       -1 0.43509139E-01 0.17298547E+04</pdfrwt>
<totfact> 0.16168699E+01</totfact>
</mgrwt>
</event>
<event>
12    7  0.1606355E-007  0.1198379E+04  0.7818608E-02  0.9114276E-01
         -1   -1    0    0    0  501 -0.00000000000E+00  0.00000000000E+00  0.11177535583E+04  0.11177535583E+04  0.00000000000E+00 0.  1.
          2   -1    0    0  501    0  0.00000000000E+00 -0.00000000000E+00 -0.32120527509E+03  0.32120527509E+03  0.00000000000E+00 0. -1.
         24    2    1    2    0    0 -0.11580096202E+01  0.35571567183E+02  0.53629718574E+03  0.54311786859E+03  0.78074774230E+02 0.  0.
        254    2    1    2    0    0  0.11580096202E+01 -0.35571567183E+02  0.26025109743E+03  0.89584096477E+03  0.85646583299E+03 0.  0.
         23    2    4    4    0    0  0.36306598727E+03 -0.14304837036E+03 -0.41337014741E+02  0.40414796265E+03  0.96680295574E+02 0.  0.
         23    2    4    4    0    0 -0.36190797765E+03  0.10747680317E+03  0.30158811217E+03  0.49169300212E+03  0.90983357944E+02 0.  0.
          4    1    3    3  502    0  0.50636561167E+01  0.34686497447E+02  0.87274659576E+02  0.94051368531E+02  0.00000000000E+00 0. -1.
         -3    1    3    3    0  502 -0.62216657369E+01  0.88506973601E+00  0.44902252616E+03  0.44906650005E+03  0.00000000000E+00 0.  1.
         13    1    5    5    0    0  0.22883641765E+03 -0.11911080785E+03 -0.64320627603E+02  0.26587710268E+03  0.00000000000E+00 0.  1.
        -13    1    5    5    0    0  0.13422956962E+03 -0.23937562507E+02  0.22983612863E+02  0.13827085998E+03  0.00000000000E+00 0. -1.
          1    1    6    6  503    0 -0.17417537486E+03  0.49306540115E+02  0.87457261446E+02  0.20103971917E+03  0.00000000000E+00 0. -1.
         -1    1    6    6    0  503 -0.18773260279E+03  0.58170263060E+02  0.21413085073E+03  0.29065328295E+03  0.00000000000E+00 0.  1.
<mgrwt>
<rscale>  0 0.11983795E+04</rscale>
<asrwt>0</asrwt>
<pdfrwt beam="1">  1        2 0.49416197E-01 0.11983795E+04</pdfrwt>
<pdfrwt beam="2">  1       -1 0.17196208E+00 0.11983795E+04</pdfrwt>
<totfact> 0.27373923E+01</totfact>
</mgrwt>
</event>
<event>
12    7  0.1606355E-007  0.1327267E+04  0.7818608E-02  0.9008218E-01
          2   -1    0    0  501    0  0.00000000000E+00  0.00000000000E+00  0.16136198215E+04  0.16136198215E+04  0.00000000000E+00 0. -1.
         -1   -1    0    0    0  501 -0.00000000000E+00 -0.00000000000E+00 -0.27293246725E+03  0.27293246725E+03  0.00000000000E+00 0.  1.
         24    2    1    2    0    0  0.21120545436E+03  0.16394085451E+03  0.65317018129E+03  0.71026936783E+03  0.79793116411E+02 0.  0.
        254    2    1    2    0    0 -0.21120545436E+03 -0.16394085451E+03  0.68751717300E+03  0.11762829210E+04  0.91622993796E+03 0.  0.
         23    2    4    4    0    0 -0.39864720067E+03 -0.64048188169E+02 -0.37840342702E+02  0.41541502770E+03  0.90088804500E+02 0.  0.
         23    2    4    4    0    0  0.18744174631E+03 -0.99892666344E+02  0.72535751571E+03  0.76086789325E+03  0.87541260771E+02 0.  0.
          2    1    3    3  502    0  0.20645822182E+03  0.13404708929E+03  0.60752774328E+03  0.65550253879E+03  0.00000000000E+00 0. -1.
         -1    1    3    3    0  502  0.47472325393E+01  0.29893765224E+02  0.45642438006E+02  0.54766829041E+02  0.00000000000E+00 0.  1.
         13    1    5    5    0    0 -0.32662876927E+03 -0.25174245507E+02 -0.61554114747E+01  0.32765528326E+03  0.00000000000E+00 0.  1.
        -13    1    5    5    0    0 -0.72018431396E+02 -0.38873942662E+02 -0.31684931228E+02  0.87759744449E+02  0.00000000000E+00 0. -1.
          4    1    6    6  503    0  0.83221019695E+02 -0.73003365159E+02  0.48559841004E+03  0.49805727108E+03  0.00000000000E+00 0. -1.
         -4    1    6    6    0  503  0.10422072662E+03 -0.26889301185E+02  0.23975910566E+03  0.26281062217E+03  0.00000000000E+00 0.  1.
<mgrwt>
<rscale>  0 0.13272667E+04</rscale>
<asrwt>0</asrwt>
<pdfrwt beam="1">  1        2 0.24824920E+00 0.13272667E+04</pdfrwt>
<pdfrwt beam="2">  1       -1 0.41989611E-01 0.13272667E+04</pdfrwt>
<totfact> 0.68023975E+01</totfact>
</mgrwt>
</event>
<event>
12    7  0.1606355E-007  0.1211364E+04  0.7818608E-02  0.9102968E-01
          2   -1    0    0  501    0  0.00000000000E+00  0.00000000000E+00  0.99529413999E+03  0.99529413999E+03  0.00000000000E+00 0. -1.
         -1   -1    0    0    0  501 -0.00000000000E+00 -0.00000000000E+00 -0.36858494715E+03  0.36858494715E+03  0.00000000000E+00 0.  1.
         24    2    1    2    0    0 -0.50718929155E+02 -0.13560076208E+03  0.47804633967E+03  0.50590457010E+03  0.80319080737E+02 0.  0.
        254    2    1    2    0    0  0.50718929155E+02  0.13560076208E+03  0.14866285318E+03  0.85797451704E+03  0.83250204295E+03 0.  0.
         23    2    4    4    0    0  0.17150542416E+03  0.29959036577E+03  0.39043611946E+03  0.52908954243E+03  0.91251754803E+02 0.  0.
         23    2    4    4    0    0 -0.12078649501E+03 -0.16398960369E+03 -0.24177326628E+03  0.32888497460E+03  0.90714093375E+02 0.  0.
          4    1    3    3  502    0 -0.12486450822E+01 -0.10087318037E+03  0.35106264290E+03  0.36526967692E+03  0.00000000000E+00 0. -1.
         -3    1    3    3    0  502 -0.49470284072E+02 -0.34727581706E+02  0.12698369676E+03  0.14063489318E+03  0.00000000000E+00 0.  1.
         13    1    5    5    0    0  0.79787852338E+02  0.70670534142E+02  0.83761000285E+02  0.13555932629E+03  0.00000000000E+00 0. -1.
        -13    1    5    5    0    0  0.91717571826E+02  0.22891983163E+03  0.30667511918E+03  0.39353021614E+03  0.00000000000E+00 0.  1.
          3    1    6    6  503    0  0.10863961473E+02  0.19831153051E+01 -0.10256150104E+02  0.15071397419E+02  0.00000000000E+00 0. -1.
         -3    1    6    6    0  503 -0.13165045648E+03 -0.16597271899E+03 -0.23151711618E+03  0.31381357718E+03  0.00000000000E+00 0.  1.
<mgrwt>
<rscale>  0 0.12113636E+04</rscale>
<asrwt>0</asrwt>
<pdfrwt beam="1">  1        2 0.15312217E+00 0.12113636E+04</pdfrwt>
<pdfrwt beam="2">  1       -1 0.56705377E-01 0.12113636E+04</pdfrwt>
<totfact> 0.89803682E+01</totfact>
</mgrwt>
</event>
<event>
12    7  0.1606355E-007  0.1894035E+04  0.7818608E-02  0.8657831E-01
          2   -1    0    0  501    0  0.00000000000E+00  0.00000000000E+00  0.70235654486E+03  0.70235654486E+03  0.00000000000E+00 0. -1.
         -3   -1    0    0    0  501 -0.00000000000E+00 -0.00000000000E+00 -0.12769041400E+04  0.12769041400E+04  0.00000000000E+00 0.  1.
         24    2    1    2    0    0 -0.63880202076E+03 -0.25630440824E+01 -0.55239772802E+03  0.84869250909E+03  0.84030554765E+02 0.  0.
        254    2    1    2    0    0  0.63880202076E+03  0.25630440824E+01 -0.22149867137E+02  0.11305681758E+04  0.93253374875E+03 0.  0.
         23    2    4    4    0    0 -0.19003076765E+03 -0.71142572860E+02  0.16020856791E+03  0.27406163479E+03  0.90939738881E+02 0.  0.
         23    2    4    4    0    0  0.82883278841E+03  0.73705616942E+02 -0.18235843504E+03  0.85650654099E+03  0.89177053223E+02 0.  0.
          2    1    3    3  502    0 -0.54960134193E+03  0.90180775769E+01 -0.50762913345E+03  0.74821808178E+03  0.00000000000E+00 0. -1.
         -1    1    3    3    0  502 -0.89200678828E+02 -0.11581121659E+02 -0.44768594566E+02  0.10047442730E+03  0.00000000000E+00 0.  1.
         13    1    5    5    0    0 -0.78450323270E+02  0.16531860066E+02  0.64493355371E+02  0.10289387011E+03  0.00000000000E+00 0. -1.
        -13    1    5    5    0    0 -0.11158044438E+03 -0.87674432926E+02  0.95715212535E+02  0.17116776468E+03  0.00000000000E+00 0.  1.
          4    1    6    6  503    0  0.18470627554E+03  0.29117635036E+02 -0.55579683218E+01  0.18706986905E+03  0.00000000000E+00 0.  1.
         -4    1    6    6    0  503  0.64412651287E+03  0.44587981906E+02 -0.17680046672E+03  0.66943667195E+03  0.00000000000E+00 0. -1.
<mgrwt>
<rscale>  0 0.18940348E+04</rscale>
<asrwt>0</asrwt>
<pdfrwt beam="1">  1        2 0.10805485E+00 0.18940348E+04</pdfrwt>
<pdfrwt beam="2">  1       -3 0.19644679E+00 0.18940348E+04</pdfrwt>
<totfact> 0.37013634E+00</totfact>
</mgrwt>
</event>
<event>
12    7  0.1606355E-007  0.3974295E+04  0.7818608E-02  0.8009752E-01
          2   -1    0    0  501    0  0.00000000000E+00  0.00000000000E+00  0.39682249448E+04  0.39682249448E+04  0.00000000000E+00 0. -1.
         -1   -1    0    0    0  501 -0.00000000000E+00 -0.00000000000E+00 -0.99509358773E+03  0.99509358773E+03  0.00000000000E+00 0.  1.
         24    2    1    2    0    0  0.14642652959E+04  0.82628947814E+03  0.24745816146E+04  0.29927987003E+04  0.80391136222E+02 0.  0.
        254    2    1    2    0    0 -0.14642652959E+04 -0.82628947814E+03  0.49854974253E+03  0.19705198323E+04  0.89864865511E+03 0.  0.
         23    2    4    4    0    0 -0.15624466730E+04 -0.75495396942E+03  0.52519530048E+03  0.18154282258E+04  0.93565152298E+02 0.  0.
         23    2    4    4    0    0  0.98181377100E+02 -0.71335508715E+02 -0.26645557954E+02  0.15509160645E+03  0.92817471526E+02 0.  0.
          2    1    3    3  502    0  0.97251583729E+03  0.55109264619E+03  0.17116541445E+04  0.20443214202E+04  0.00000000000E+00 0. -1.
         -1    1    3    3    0  502  0.49174945858E+03  0.27519683194E+03  0.76292747007E+03  0.94847728012E+03  0.00000000000E+00 0.  1.
         13    1    5    5    0    0 -0.71113588822E+03 -0.34701874248E+03  0.19097663813E+03  0.81400757703E+03  0.00000000000E+00 0. -1.
        -13    1    5    5    0    0 -0.85131078474E+03 -0.40793522694E+03  0.33421866235E+03  0.10014206488E+04  0.00000000000E+00 0.  1.
          4    1    6    6  503    0  0.21934943205E+01 -0.10021973520E+02 -0.39183614883E+02  0.40504407734E+02  0.00000000000E+00 0.  1.
         -4    1    6    6    0  503  0.95987882780E+02 -0.61313535196E+02  0.12538056929E+02  0.11458719872E+03  0.00000000000E+00 0. -1.
<mgrwt>
<rscale>  0 0.39742950E+04</rscale>
<asrwt>0</asrwt>
<pdfrwt beam="1">  1        2 0.61049614E+00 0.39742950E+04</pdfrwt>
<pdfrwt beam="2">  1       -1 0.15309132E+00 0.39742950E+04</pdfrwt>
<totfact> 0.10705913E-01</totfact>
</mgrwt>
</event>
<event>
12    7  0.1606355E-007  0.2865143E+04  0.7818608E-02  0.8283325E-01
         -3   -1    0    0    0  501 -0.00000000000E+00  0.00000000000E+00  0.98340662518E+03  0.98340662518E+03  0.00000000000E+00 0.  1.
          2   -1    0    0  501    0  0.00000000000E+00 -0.00000000000E+00 -0.20868896796E+04  0.20868896796E+04  0.00000000000E+00 0. -1.
         24    2    1    2    0    0 -0.50997567748E+02 -0.86110840076E+03  0.52983862248E+03  0.10154860131E+04  0.79840135327E+02 0.  0.
        254    2    1    2    0    0  0.50997567748E+02  0.86110840076E+03 -0.16333216769E+04  0.20548102916E+04  0.90022064221E+03 0.  0.
         23    2    4    4    0    0 -0.35617346866E+03  0.47535017053E+03 -0.11933437746E+04  0.13361264872E+04  0.91363565357E+02 0.  0.
         23    2    4    4    0    0  0.40717103641E+03  0.38575823023E+03 -0.43997790222E+03  0.71868380436E+03  0.91258923567E+02 0.  0.
          4    1    3    3  502    0  0.10421815702E+02 -0.27827522637E+03  0.14069374993E+03  0.31199430623E+03  0.00000000000E+00 0. -1.
         -3    1    3    3    0  502 -0.61419383451E+02 -0.58283317439E+03  0.38914487255E+03  0.70349170689E+03  0.00000000000E+00 0.  1.
         13    1    5    5    0    0 -0.62064816589E+02  0.11507231322E+03 -0.34006146617E+03  0.36432880685E+03  0.00000000000E+00 0.  1.
        -13    1    5    5    0    0 -0.29410865207E+03  0.36027785732E+03 -0.85328230846E+03  0.97179768040E+03  0.00000000000E+00 0. -1.
          4    1    6    6  503    0  0.20737429186E+03  0.24258306010E+03 -0.28670390452E+03  0.42901021764E+03  0.00000000000E+00 0. -1.
         -4    1    6    6    0  503  0.19979674455E+03  0.14317517013E+03 -0.15327399770E+03  0.28967358672E+03  0.00000000000E+00 0.  1.
<mgrwt>
<rscale>  0 0.28651430E+04</rscale>
<asrwt>0</asrwt>
<pdfrwt beam="1">  1        2 0.32105995E+00 0.28651430E+04</pdfrwt>
<pdfrwt beam="2">  1       -3 0.15129333E+00 0.28651430E+04</pdfrwt>
<totfact> 0.10360339E+00</totfact>
</mgrwt>
</event>
<event>
12    7  0.1606355E-007  0.1095074E+04  0.7818608E-02  0.9210006E-01
         -3   -1    0    0    0  501 -0.00000000000E+00  0.00000000000E+00  0.52362405840E+03  0.52362405840E+03  0.00000000000E+00 0.  1.
          4   -1    0    0  501    0  0.00000000000E+00 -0.00000000000E+00 -0.57254191002E+03  0.57254191002E+03  0.00000000000E+00 0. -1.
         24    2    1    2    0    0  0.14737725176E+03  0.30340228739E+02  0.69309991961E+02  0.18424047041E+03  0.80623148881E+02 0.  0.
        254    2    1    2    0    0 -0.14737725176E+03 -0.30340228739E+02 -0.11822784358E+03  0.91192549801E+03  0.89162195302E+03 0.  0.
         23    2    4    4    0    0 -0.15818795756E+03  0.14485042035E+03 -0.46072015456E+03  0.51671750797E+03  0.93428304220E+02 0.  0.
         23    2    4    4    0    0  0.10810705805E+02 -0.17519064909E+03  0.34249231099E+03  0.39520799004E+03  0.89887359595E+02 0.  0.
          4    1    3    3  502    0 -0.72610683288E+01  0.96102216765E+01 -0.27919721998E+01  0.12364246144E+02  0.00000000000E+00 0. -1.
         -3    1    3    3    0  502  0.15463832008E+03  0.20730007062E+02  0.72101964161E+02  0.17187622426E+03  0.00000000000E+00 0.  1.
         13    1    5    5    0    0  0.49020389046E+01 -0.18899490711E+01 -0.56972636324E+02  0.57214361682E+02  0.00000000000E+00 0.  1.
        -13    1    5    5    0    0 -0.16308999647E+03  0.14674036942E+03 -0.40374751824E+03  0.45950314629E+03  0.00000000000E+00 0. -1.
          4    1    6    6  503    0  0.32898459936E+02 -0.16183016783E+03  0.25348234266E+03  0.30253034547E+03  0.00000000000E+00 0. -1.
         -4    1    6    6    0  503 -0.22087754131E+02 -0.13360481260E+02  0.89009968324E+02  0.92677644570E+02  0.00000000000E+00 0.  1.
<mgrwt>
<rscale>  0 0.10950739E+04</rscale>
<asrwt>0</asrwt>
<pdfrwt beam="1">  1        4 0.88083371E-01 0.10950739E+04</pdfrwt>
<pdfrwt beam="2">  1       -3 0.80557547E-01 0.10950739E+04</pdfrwt>
<totfact> 0.36127246E+00</totfact>
</mgrwt>
</event>
<event>
12    7  0.1606355E-007  0.1314147E+04  0.7818608E-02  0.9018421E-01
         -1   -1    0    0    0  501 -0.00000000000E+00  0.00000000000E+00  0.27192364707E+03  0.27192364707E+03  0.00000000000E+00 0.  1.
          2   -1    0    0  501    0  0.00000000000E+00 -0.00000000000E+00 -0.15877468189E+04  0.15877468189E+04  0.00000000000E+00 0. -1.
         24    2    1    2    0    0  0.40303773040E+02 -0.87997504154E+02  0.10955142908E+03  0.16598423116E+03  0.78621209107E+02 0.  0.
        254    2    1    2    0    0 -0.40303773040E+02  0.87997504154E+02 -0.14253746009E+04  0.16936862348E+04  0.90967706037E+03 0.  0.
         23    2    4    4    0    0  0.31318224518E+03 -0.35375406735E+02 -0.14891427122E+03  0.36047536426E+03  0.91828590124E+02 0.  0.
         23    2    4    4    0    0 -0.35348601822E+03  0.12337291089E+03 -0.12764603297E+04  0.13332108705E+04  0.89033768075E+02 0.  0.
          2    1    3    3  502    0  0.29298019470E+02 -0.24262559856E+02 -0.83029156573E+00  0.38049114835E+02  0.00000000000E+00 0. -1.
         -1    1    3    3    0  502  0.11005753571E+02 -0.63734944298E+02  0.11038172065E+03  0.12793511632E+03  0.00000000000E+00 0.  1.
         13    1    5    5    0    0  0.11980986613E+03  0.26557040316E+02 -0.77958859535E+02  0.14538660252E+03  0.00000000000E+00 0. -1.
        -13    1    5    5    0    0  0.19337237905E+03 -0.61932447051E+02 -0.70955411686E+02  0.21508876174E+03  0.00000000000E+00 0.  1.
          1    1    6    6  503    0 -0.32162657909E+03  0.81729856551E+02 -0.11256057278E+04  0.11735040180E+04  0.00000000000E+00 0. -1.
         -1    1    6    6    0  503 -0.31859439125E+02  0.41643054337E+02 -0.15085460188E+03  0.15970685253E+03  0.00000000000E+00 0.  1.
<mgrwt>
<rscale>  0 0.13141475E+04</rscale>
<asrwt>0</asrwt>
<pdfrwt beam="1">  1        2 0.24426874E+00 0.13141475E+04</pdfrwt>
<pdfrwt beam="2">  1       -1 0.41834408E-01 0.13141475E+04</pdfrwt>
<totfact> 0.70877491E+01</totfact>
</mgrwt>
</event>
<event>
12    7  0.1606355E-007  0.1948160E+04  0.7818608E-02  0.8631249E-01
         -1   -1    0    0    0  501 -0.00000000000E+00  0.00000000000E+00  0.73107675548E+03  0.73107675548E+03  0.00000000000E+00 0.  1.
          2   -1    0    0  501    0  0.00000000000E+00 -0.00000000000E+00 -0.12978554061E+04  0.12978554061E+04  0.00000000000E+00 0. -1.
         24    2    1    2    0    0  0.11586348135E+03  0.71202472681E+03 -0.50024083438E+03  0.88140971283E+03  0.78985008698E+02 0.  0.
        254    2    1    2    0    0 -0.11586348135E+03 -0.71202472681E+03 -0.66537816254E+02  0.11475224488E+04  0.88993085772E+03 0.  0.
         23    2    4    4    0    0 -0.48942558644E+03 -0.49910460285E+03 -0.64865080610E+02  0.70795588223E+03  0.91385136933E+02 0.  0.
         23    2    4    4    0    0  0.37356210509E+03 -0.21292012396E+03 -0.16727356442E+01  0.43956656653E+03  0.91281667512E+02 0.  0.
          2    1    3    3  502    0  0.10185547018E+03  0.45851069005E+03 -0.35636055919E+03  0.58957564217E+03  0.00000000000E+00 0. -1.
         -1    1    3    3    0  502  0.14008011171E+02  0.25351403676E+03 -0.14388027519E+03  0.29183407066E+03  0.00000000000E+00 0.  1.
         13    1    5    5    0    0 -0.37899185619E+02 -0.10597059739E+02  0.18769585735E+01  0.39397575041E+02  0.00000000000E+00 0. -1.
        -13    1    5    5    0    0 -0.45152640082E+03 -0.48850754311E+03 -0.66742039183E+02  0.66855830719E+03  0.00000000000E+00 0.  1.
          4    1    6    6  503    0  0.36558298681E+03 -0.18345081616E+03 -0.11120155313E+01  0.40903099977E+03  0.00000000000E+00 0.  1.
         -4    1    6    6    0  503  0.79791182823E+01 -0.29469307796E+02 -0.56072011291E+00  0.30535566764E+02  0.00000000000E+00 0. -1.
<mgrwt>
<rscale>  0 0.19481601E+04</rscale>
<asrwt>0</asrwt>
<pdfrwt beam="1">  1        2 0.19967006E+00 0.19481601E+04</pdfrwt>
<pdfrwt beam="2">  1       -1 0.11247335E+00 0.19481601E+04</pdfrwt>
<totfact> 0.12764545E+01</totfact>
</mgrwt>
</event>
<event>
12    7  0.1606355E-007  0.1227018E+04  0.7818608E-02  0.9089531E-01
          2   -1    0    0  501    0  0.00000000000E+00  0.00000000000E+00  0.13100931392E+04  0.13100931392E+04  0.00000000000E+00 0. -1.
         -1   -1    0    0    0  501 -0.00000000000E+00 -0.00000000000E+00 -0.28730290339E+03  0.28730290339E+03  0.00000000000E+00 0.  1.
         24    2    1    2    0    0 -0.11716035400E+03 -0.19085694533E+03  0.17398357833E+02  0.23250461157E+03  0.60023074040E+02 0.  0.
        254    2    1    2    0    0  0.11716035400E+03  0.19085694533E+03  0.10053918779E+04  0.13648914310E+04  0.89552379535E+03 0.  0.
         23    2    4    4    0    0  0.15288936944E+03  0.32251871671E+03  0.23341946454E+02  0.36907909569E+03  0.91000277475E+02 0.  0.
         23    2    4    4    0    0 -0.35729015436E+02 -0.13166177138E+03  0.98204993148E+03  0.99581233530E+03  0.92783374656E+02 0.  0.
          2    1    3    3  502    0 -0.31146201593E+02 -0.25607433244E+02  0.22432545552E+02  0.46141582232E+02  0.00000000000E+00 0. -1.
         -1    1    3    3    0  502 -0.86014152412E+02 -0.16524951208E+03 -0.50341877187E+01  0.18636302934E+03  0.00000000000E+00 0.  1.
         13    1    5    5    0    0  0.56271718541E+02  0.44039386741E+02  0.20360398749E+02  0.74300200062E+02  0.00000000000E+00 0.  1.
        -13    1    5    5    0    0  0.96617650899E+02  0.27847932996E+03  0.29815477050E+01  0.29477889563E+03  0.00000000000E+00 0. -1.
          3    1    6    6  503    0 -0.20292850603E+01 -0.13013810863E+03  0.72956071070E+03  0.74107953414E+03  0.00000000000E+00 0. -1.
         -3    1    6    6    0  503 -0.33699730376E+02 -0.15236627513E+01  0.25248922078E+03  0.25473280116E+03  0.00000000000E+00 0.  1.
<mgrwt>
<rscale>  0 0.12270184E+04</rscale>
<asrwt>0</asrwt>
<pdfrwt beam="1">  1        2 0.20155279E+00 0.12270184E+04</pdfrwt>
<pdfrwt beam="2">  1       -1 0.44200447E-01 0.12270184E+04</pdfrwt>
<totfact> 0.92681052E+01</totfact>
</mgrwt>
</event>
<event>
12    7  0.1606355E-007  0.3123951E+04  0.7818608E-02  0.8209195E-01
         -1   -1    0    0    0  501 -0.00000000000E+00  0.00000000000E+00  0.75225243208E+03  0.75225243208E+03  0.00000000000E+00 0.  1.
          2   -1    0    0  501    0  0.00000000000E+00 -0.00000000000E+00 -0.32432826394E+04  0.32432826394E+04  0.00000000000E+00 0. -1.
         24    2    1    2    0    0  0.33534415074E+03 -0.22287799563E+03  0.61369381608E+03  0.73809180541E+03  0.77647362804E+02 0.  0.
        254    2    1    2    0    0 -0.33534415074E+03  0.22287799563E+03 -0.31047240234E+04  0.32574432661E+04  0.89971943949E+03 0.  0.
         23    2    4    4    0    0 -0.63445470681E+03  0.20204968242E+03 -0.21442693568E+04  0.22471212050E+04  0.91136087134E+02 0.  0.
         23    2    4    4    0    0  0.29911055607E+03  0.20828313211E+02 -0.96045466660E+03  0.10103220610E+04  0.91523532823E+02 0.  0.
          4    1    3    3  502    0  0.22246538529E+02 -0.26974141854E+02  0.24446018164E+02  0.42662871556E+02  0.00000000000E+00 0. -1.
         -3    1    3    3    0  502  0.31309761221E+03 -0.19590385378E+03  0.58924779791E+03  0.69542893386E+03  0.00000000000E+00 0.  1.
         13    1    5    5    0    0 -0.60260300457E+03  0.21158906136E+03 -0.20476575270E+04  0.21449479387E+04  0.00000000000E+00 0. -1.
        -13    1    5    5    0    0 -0.31851702244E+02 -0.95393789355E+01 -0.96611829826E+02  0.10217326631E+03  0.00000000000E+00 0.  1.
          4    1    6    6  503    0  0.27632982184E+03  0.10324040262E+02 -0.93307715483E+03  0.97318946414E+03  0.00000000000E+00 0. -1.
         -4    1    6    6    0  503  0.22780734231E+02  0.10504272948E+02 -0.27377511761E+02  0.37132596900E+02  0.00000000000E+00 0.  1.
<mgrwt>
<rscale>  0 0.31239509E+04</rscale>
<asrwt>0</asrwt>
<pdfrwt beam="1">  1        2 0.49896655E+00 0.31239509E+04</pdfrwt>
<pdfrwt beam="2">  1       -1 0.11573114E+00 0.31239509E+04</pdfrwt>
<totfact> 0.78959406E-01</totfact>
</mgrwt>
</event>
<event>
12    7  0.1606355E-007  0.1317626E+04  0.7818608E-02  0.9015703E-01
          2   -1    0    0  501    0  0.00000000000E+00  0.00000000000E+00  0.18239638564E+04  0.18239638564E+04  0.00000000000E+00 0. -1.
         -1   -1    0    0    0  501 -0.00000000000E+00 -0.00000000000E+00 -0.23796239265E+03  0.23796239265E+03  0.00000000000E+00 0.  1.
         24    2    1    2    0    0  0.11635585774E+03 -0.20498844098E+03  0.51917307507E+02  0.25404903607E+03  0.79287825963E+02 0.  0.
        254    2    1    2    0    0 -0.11635585774E+03  0.20498844098E+03  0.15340841562E+04  0.18078772130E+04  0.92706357505E+03 0.  0.
         23    2    4    4    0    0 -0.31805870905E+03  0.19926279708E+03  0.15381934637E+04  0.15860620519E+04  0.93202446706E+02 0.  0.
         23    2    4    4    0    0  0.20170285130E+03  0.57256438971E+01 -0.41093074304E+01  0.22181516108E+03  0.92023127826E+02 0.  0.
          2    1    3    3  502    0  0.29265539127E+02 -0.52177143926E+02  0.50292168595E+02  0.78155155625E+02  0.00000000000E+00 0. -1.
         -1    1    3    3    0  502  0.87090318615E+02 -0.15281129705E+03  0.16251389110E+01  0.17589388045E+03  0.00000000000E+00 0.  1.
         13    1    5    5    0    0 -0.88472897031E+01  0.34147890936E+02  0.17511643208E+03  0.17863403308E+03  0.00000000000E+00 0. -1.
        -13    1    5    5    0    0 -0.30921141934E+03  0.16511490614E+03  0.13630770316E+04  0.14074280188E+04  0.00000000000E+00 0.  1.
          1    1    6    6  503    0  0.73355337656E+02 -0.32911727544E+02 -0.29031041788E+02  0.85480926293E+02  0.00000000000E+00 0. -1.
         -1    1    6    6    0  503  0.12834751365E+03  0.38637371441E+02  0.24921734358E+02  0.13633423479E+03  0.00000000000E+00 0.  1.
<mgrwt>
<rscale>  0 0.13176264E+04</rscale>
<asrwt>0</asrwt>
<pdfrwt beam="1">  1        2 0.28060982E+00 0.13176264E+04</pdfrwt>
<pdfrwt beam="2">  1       -1 0.36609600E-01 0.13176264E+04</pdfrwt>
<totfact> 0.66801077E+01</totfact>
</mgrwt>
</event>
<event>
12    7  0.1606355E-007  0.1502987E+04  0.7818608E-02  0.8882469E-01
          2   -1    0    0  501    0  0.00000000000E+00  0.00000000000E+00  0.18809552947E+04  0.18809552947E+04  0.00000000000E+00 0. -1.
         -1   -1    0    0    0  501 -0.00000000000E+00 -0.00000000000E+00 -0.30024238870E+03  0.30024238870E+03  0.00000000000E+00 0.  1.
         24    2    1    2    0    0 -0.19665374965E+03  0.36009610345E+03  0.94160239862E+03  0.10304279068E+04  0.82611700128E+02 0.  0.
        254    2    1    2    0    0  0.19665374965E+03 -0.36009610345E+03  0.63911050740E+03  0.11507697766E+04  0.86456170236E+03 0.  0.
         23    2    4    4    0    0  0.35905334619E+02  0.12725075098E+03  0.60856878101E+03  0.62815227818E+03  0.82081524631E+02 0.  0.
         23    2    4    4    0    0  0.16074841504E+03 -0.48734685443E+03  0.30541726394E+02  0.52261749846E+03  0.94070416124E+02 0.  0.
          4    1    3    3  502    0 -0.19608480665E+03  0.33845867487E+03  0.84088550262E+03  0.92741142677E+03  0.00000000000E+00 0. -1.
         -3    1    3    3    0  502 -0.56894300280E+00  0.21637428580E+02  0.10071689600E+03  0.10301648000E+03  0.00000000000E+00 0.  1.
         13    1    5    5    0    0  0.53091568044E+02  0.47951646320E+02  0.34656418383E+03  0.35387117500E+03  0.00000000000E+00 0. -1.
        -13    1    5    5    0    0 -0.17186233425E+02  0.79299104656E+02  0.26200459717E+03  0.27428110317E+03  0.00000000000E+00 0.  1.
          4    1    6    6  503    0 -0.51154152228E+01 -0.80940969868E+02 -0.10383416004E+02  0.81764438505E+02  0.00000000000E+00 0. -1.
         -4    1    6    6    0  503  0.16586383026E+03 -0.40640588456E+03  0.40925142398E+02  0.44085305996E+03  0.00000000000E+00 0.  1.
<mgrwt>
<rscale>  0 0.15029870E+04</rscale>
<asrwt>0</asrwt>
<pdfrwt beam="1">  1        2 0.28937773E+00 0.15029870E+04</pdfrwt>
<pdfrwt beam="2">  1       -1 0.46191138E-01 0.15029870E+04</pdfrwt>
<totfact> 0.39930931E+01</totfact>
</mgrwt>
</event>
<event>
12    7  0.1606355E-007  0.2272074E+04  0.7818608E-02  0.8489014E-01
          2   -1    0    0  501    0  0.00000000000E+00  0.00000000000E+00  0.81142584077E+03  0.81142584077E+03  0.00000000000E+00 0. -1.
         -1   -1    0    0    0  501 -0.00000000000E+00 -0.00000000000E+00 -0.15905094735E+04  0.15905094735E+04  0.00000000000E+00 0.  1.
         24    2    1    2    0    0  0.92837309477E+03  0.86795326322E+02 -0.55030768536E+03  0.10856791681E+04  0.80316099263E+02 0.  0.
        254    2    1    2    0    0 -0.92837309477E+03 -0.86795326322E+02 -0.22877594738E+03  0.13162561461E+04  0.90043421545E+03 0.  0.
         23    2    4    4    0    0 -0.15537623053E+03 -0.27415715116E+03 -0.37857163792E+03  0.50176814246E+03  0.95660165193E+02 0.  0.
         23    2    4    4    0    0 -0.77299686424E+03  0.18736182484E+03  0.14979569054E+03  0.81448800367E+03  0.91232415712E+02 0.  0.
          4    1    3    3  502    0  0.18948037332E+03  0.27640541550E+02 -0.14996604757E+03  0.24322135357E+03  0.00000000000E+00 0. -1.
         -3    1    3    3    0  502  0.73889272146E+03  0.59154784772E+02 -0.40034163779E+03  0.84245781457E+03  0.00000000000E+00 0.  1.
         13    1    5    5    0    0  0.13261459641E+02 -0.22199244457E+02 -0.24439185909E+02  0.35580142975E+02  0.00000000000E+00 0. -1.
        -13    1    5    5    0    0 -0.16863769017E+03 -0.25195790670E+03 -0.35413245201E+03  0.46618799949E+03  0.00000000000E+00 0.  1.
          3    1    6    6  503    0 -0.80835227176E+02  0.35080313639E+02 -0.77947947686E+01  0.88463106338E+02  0.00000000000E+00 0. -1.
         -3    1    6    6    0  503 -0.69216163707E+03  0.15228151120E+03  0.15759048531E+03  0.72602489733E+03  0.00000000000E+00 0.  1.
<mgrwt>
<rscale>  0 0.22720744E+04</rscale>
<asrwt>0</asrwt>
<pdfrwt beam="1">  1        2 0.12483475E+00 0.22720744E+04</pdfrwt>
<pdfrwt beam="2">  1       -1 0.24469376E+00 0.22720744E+04</pdfrwt>
<totfact> 0.26460091E+00</totfact>
</mgrwt>
</event>
<event>
12    7  0.1606355E-007  0.1954779E+04  0.7818608E-02  0.8628060E-01
         -1   -1    0    0    0  501 -0.00000000000E+00  0.00000000000E+00  0.56915120487E+03  0.56915120487E+03  0.00000000000E+00 0.  1.
          2   -1    0    0  501    0  0.00000000000E+00 -0.00000000000E+00 -0.16784479553E+04  0.16784479553E+04  0.00000000000E+00 0. -1.
         24    2    1    2    0    0  0.45637083382E+03  0.61560504006E+03 -0.36769805491E+03  0.85376453702E+03  0.80424634152E+02 0.  0.
        254    2    1    2    0    0 -0.45637083382E+03 -0.61560504006E+03 -0.74159869547E+03  0.13938346231E+04  0.89753129646E+03 0.  0.
         23    2    4    4    0    0 -0.34774081426E+03 -0.20838800397E+02 -0.69276909540E+03  0.78069117788E+03  0.90508376234E+02 0.  0.
         23    2    4    4    0    0 -0.10863001955E+03 -0.59476623967E+03 -0.48829600066E+02  0.61314344522E+03  0.89516443065E+02 0.  0.
          4    1    3    3  502    0  0.31796157829E+03  0.47962228789E+03 -0.29408737389E+03  0.64623872353E+03  0.00000000000E+00 0. -1.
         -3    1    3    3    0  502  0.13840925553E+03  0.13598275218E+03 -0.73610681024E+02  0.20752581349E+03  0.00000000000E+00 0.  1.
         13    1    5    5    0    0 -0.11522513154E+03 -0.73905206997E+01 -0.32977168074E+03  0.34940064704E+03  0.00000000000E+00 0.  1.
        -13    1    5    5    0    0 -0.23251568272E+03 -0.13448279698E+02 -0.36299741466E+03  0.43129053084E+03  0.00000000000E+00 0. -1.
          3    1    6    6  503    0 -0.93287877815E+01 -0.23969025606E+03 -0.47032024555E+02  0.24443906493E+03  0.00000000000E+00 0. -1.
         -3    1    6    6    0  503 -0.99301231771E+02 -0.35507598361E+03 -0.17975755109E+01  0.36870438029E+03  0.00000000000E+00 0.  1.
<mgrwt>
<rscale>  0 0.19547795E+04</rscale>
<asrwt>0</asrwt>
<pdfrwt beam="1">  1        2 0.25822276E+00 0.19547795E+04</pdfrwt>
<pdfrwt beam="2">  1       -1 0.87561725E-01 0.19547795E+04</pdfrwt>
<totfact> 0.13739896E+01</totfact>
</mgrwt>
</event>
<event>
12    7  0.1606355E-007  0.2546205E+04  0.7818608E-02  0.8386707E-01
         -1   -1    0    0    0  501 -0.00000000000E+00  0.00000000000E+00  0.60222515284E+03  0.60222515284E+03  0.00000000000E+00 0.  1.
          2   -1    0    0  501    0  0.00000000000E+00 -0.00000000000E+00 -0.26913353953E+04  0.26913353953E+04  0.00000000000E+00 0. -1.
         24    2    1    2    0    0 -0.40050741027E+02 -0.38567746475E+03  0.43415913038E+03  0.58765479474E+03  0.80578152257E+02 0.  0.
        254    2    1    2    0    0  0.40050741027E+02  0.38567746475E+03 -0.25232693729E+04  0.27059057534E+04  0.89704317049E+03 0.  0.
         23    2    4    4    0    0 -0.19689694486E+03  0.56917751170E+03 -0.11965669890E+04  0.13425633718E+04  0.89288304874E+02 0.  0.
         23    2    4    4    0    0  0.23694768589E+03 -0.18350004694E+03 -0.13267023838E+04  0.13633423816E+04  0.93524120697E+02 0.  0.
          2    1    3    3  502    0 -0.13162547008E+01 -0.25823979859E+03  0.24246757421E+03  0.35423163417E+03  0.00000000000E+00 0. -1.
         -1    1    3    3    0  502 -0.38734486326E+02 -0.12743766617E+03  0.19169155616E+03  0.23342316058E+03  0.00000000000E+00 0.  1.
         13    1    5    5    0    0 -0.10677426277E+03  0.21258731832E+03 -0.53799133955E+03  0.58824212067E+03  0.00000000000E+00 0. -1.
        -13    1    5    5    0    0 -0.90122682095E+02  0.35659019338E+03 -0.65857564947E+03  0.75432125114E+03  0.00000000000E+00 0.  1.
          2    1    6    6  503    0  0.17264277536E+03 -0.13221682842E+03 -0.75287180570E+03  0.78364709750E+03  0.00000000000E+00 0. -1.
         -2    1    6    6    0  503  0.64304910530E+02 -0.51283218517E+02 -0.57383057814E+03  0.57969528411E+03  0.00000000000E+00 0.  1.
<mgrwt>
<rscale>  0 0.25462049E+04</rscale>
<asrwt>0</asrwt>
<pdfrwt beam="1">  1        2 0.41405160E+00 0.25462049E+04</pdfrwt>
<pdfrwt beam="2">  1       -1 0.92650023E-01 0.25462049E+04</pdfrwt>
<totfact> 0.30745662E+00</totfact>
</mgrwt>
</event>
<event>
12    7  0.1606355E-007  0.1661025E+04  0.7818608E-02  0.8783911E-01
          2   -1    0    0  501    0  0.00000000000E+00  0.00000000000E+00  0.11186655015E+04  0.11186655015E+04  0.00000000000E+00 0. -1.
         -1   -1    0    0    0  501 -0.00000000000E+00 -0.00000000000E+00 -0.61658360177E+03  0.61658360177E+03  0.00000000000E+00 0.  1.
         24    2    1    2    0    0  0.38444278098E+02 -0.25422649958E+03 -0.36594905276E+03  0.45419510684E+03  0.79154344528E+02 0.  0.
        254    2    1    2    0    0 -0.38444278098E+02  0.25422649958E+03  0.86803095244E+03  0.12810539964E+04  0.90637328493E+03 0.  0.
         23    2    4    4    0    0  0.42269030256E+03  0.83830262806E+02  0.44605310467E+03  0.62687803517E+03  0.91203585164E+02 0.  0.
         23    2    4    4    0    0 -0.46113458066E+03  0.17039623677E+03  0.42197784777E+03  0.65417596121E+03  0.90558849536E+02 0.  0.
          4    1    3    3  502    0 -0.11469158437E+02 -0.17486012203E+03 -0.23503508593E+03  0.29317076166E+03  0.00000000000E+00 0. -1.
         -3    1    3    3    0  502  0.49913436535E+02 -0.79366377550E+02 -0.13091396683E+03  0.16102434518E+03  0.00000000000E+00 0.  1.
         13    1    5    5    0    0  0.33580832679E+03  0.58050124869E+02  0.29505270622E+03  0.45076950738E+03  0.00000000000E+00 0. -1.
        -13    1    5    5    0    0  0.86881975772E+02  0.25780137937E+02  0.15100039845E+03  0.17610852778E+03  0.00000000000E+00 0.  1.
          4    1    6    6  503    0 -0.34606634807E+03  0.14783134117E+03  0.36323260454E+03  0.52302385003E+03  0.00000000000E+00 0. -1.
         -4    1    6    6    0  503 -0.11506823259E+03  0.22564895600E+02  0.58745243230E+02  0.13115211118E+03  0.00000000000E+00 0.  1.
<mgrwt>
<rscale>  0 0.16610247E+04</rscale>
<asrwt>0</asrwt>
<pdfrwt beam="1">  1        2 0.17210238E+00 0.16610247E+04</pdfrwt>
<pdfrwt beam="2">  1       -1 0.94859016E-01 0.16610247E+04</pdfrwt>
<totfact> 0.24817074E+01</totfact>
</mgrwt>
</event>
<event>
12    7  0.1606355E-007  0.2021318E+04  0.7818608E-02  0.8596718E-01
         -1   -1    0    0    0  501 -0.00000000000E+00  0.00000000000E+00  0.18260207278E+04  0.18260207278E+04  0.00000000000E+00 0.  1.
          2   -1    0    0  501    0  0.00000000000E+00 -0.00000000000E+00 -0.55937548116E+03  0.55937548116E+03  0.00000000000E+00 0. -1.
         24    2    1    2    0    0  0.63213791061E+03  0.50952443298E+03  0.47147593467E+03  0.94226090464E+03  0.79703008812E+02 0.  0.
        254    2    1    2    0    0 -0.63213791061E+03 -0.50952443298E+03  0.79516931201E+03  0.14431353044E+04  0.88945589329E+03 0.  0.
         23    2    4    4    0    0 -0.38998513895E+03  0.18604292301E+03  0.42974004146E+03  0.61599204806E+03  0.89829406311E+02 0.  0.
         23    2    4    4    0    0 -0.24215277166E+03 -0.69556735599E+03  0.36542927056E+03  0.82714325631E+03  0.90418488887E+02 0.  0.
          2    1    3    3  502    0  0.55290312902E+03  0.45170878133E+03  0.38319173067E+03  0.81029537556E+03  0.00000000000E+00 0. -1.
         -1    1    3    3    0  502  0.79234781591E+02  0.57815651655E+02  0.88284203992E+02  0.13196552908E+03  0.00000000000E+00 0.  1.
         13    1    5    5    0    0 -0.25686861291E+03  0.16530687312E+03  0.31820233589E+03  0.44109020978E+03  0.00000000000E+00 0. -1.
        -13    1    5    5    0    0 -0.13311652604E+03  0.20736049885E+02  0.11153770557E+03  0.17490183827E+03  0.00000000000E+00 0.  1.
          3    1    6    6  503    0 -0.23886468499E+03 -0.69438067040E+03  0.35399989315E+03  0.81519125211E+03  0.00000000000E+00 0. -1.
         -3    1    6    6    0  503 -0.32880866661E+01 -0.11866855951E+01  0.11429377403E+02  0.11952004202E+02  0.00000000000E+00 0.  1.
<mgrwt>
<rscale>  0 0.20213176E+04</rscale>
<asrwt>0</asrwt>
<pdfrwt beam="1">  1        2 0.86057767E-01 0.20213176E+04</pdfrwt>
<pdfrwt beam="2">  1       -1 0.28092626E+00 0.20213176E+04</pdfrwt>
<totfact> 0.25096313E+00</totfact>
</mgrwt>
</event>
<event>
12    7  0.1606355E-007  0.3817685E+04  0.7818608E-02  0.8042370E-01
          2   -1    0    0  501    0  0.00000000000E+00  0.00000000000E+00  0.33954047669E+04  0.33954047669E+04  0.00000000000E+00 0. -1.
         -1   -1    0    0    0  501 -0.00000000000E+00 -0.00000000000E+00 -0.10731208866E+04  0.10731208866E+04  0.00000000000E+00 0.  1.
         24    2    1    2    0    0  0.11357916294E+04  0.65975228859E+03  0.25364823401E+04  0.28575194971E+04  0.79870563602E+02 0.  0.
        254    2    1    2    0    0 -0.11357916294E+04 -0.65975228859E+03 -0.21419845982E+03  0.16110061565E+04  0.90783486843E+03 0.  0.
         23    2    4    4    0    0 -0.70673437602E+03  0.51701930866E+02  0.94760576018E+02  0.72027165755E+03  0.87550705350E+02 0.  0.
         23    2    4    4    0    0 -0.42905725335E+03 -0.71145421946E+03 -0.30895903583E+03  0.89073449891E+03  0.87721312628E+02 0.  0.
          4    1    3    3  502    0  0.10927780916E+04  0.63081848722E+03  0.24655534978E+04  0.27696660398E+04  0.00000000000E+00 0. -1.
         -3    1    3    3    0  502  0.43013537743E+02  0.28933801377E+02  0.70928842268E+02  0.87853457284E+02  0.00000000000E+00 0.  1.
         13    1    5    5    0    0 -0.14642624317E+02  0.14890460221E+02  0.43158498569E+01  0.21325074735E+02  0.00000000000E+00 0. -1.
        -13    1    5    5    0    0 -0.69209175170E+03  0.36811470646E+02  0.90444726161E+02  0.69894658282E+03  0.00000000000E+00 0.  1.
          2    1    6    6  503    0 -0.55038390924E+02 -0.44694110761E+02 -0.28544846853E+02  0.76430336216E+02  0.00000000000E+00 0. -1.
         -2    1    6    6    0  503 -0.37401886243E+03 -0.66676010870E+03 -0.28041418898E+03  0.81430416270E+03  0.00000000000E+00 0.  1.
<mgrwt>
<rscale>  0 0.38176850E+04</rscale>
<asrwt>0</asrwt>
<pdfrwt beam="1">  1        2 0.52236996E+00 0.38176850E+04</pdfrwt>
<pdfrwt beam="2">  1       -1 0.16509552E+00 0.38176850E+04</pdfrwt>
<totfact> 0.23313846E-01</totfact>
</mgrwt>
</event>
<event>
12    7  0.1606355E-007  0.1196164E+04  0.7818608E-02  0.9116221E-01
          2   -1    0    0  501    0  0.00000000000E+00  0.00000000000E+00  0.24866942037E+04  0.24866942037E+04  0.00000000000E+00 0. -1.
         -1   -1    0    0    0  501 -0.00000000000E+00 -0.00000000000E+00 -0.14384648431E+03  0.14384648431E+03  0.00000000000E+00 0.  1.
         24    2    1    2    0    0  0.22053944696E+02 -0.89385043469E+02  0.98815873527E+03  0.99563495446E+03  0.79719596065E+02 0.  0.
        254    2    1    2    0    0 -0.22053944696E+02  0.89385043469E+02  0.13546889842E+04  0.16349057336E+04  0.91063628933E+03 0.  0.
         23    2    4    4    0    0  0.13583269010E+03 -0.26154004890E+02  0.14043887875E+04  0.14139461833E+04  0.88325484299E+02 0.  0.
         23    2    4    4    0    0 -0.15788663480E+03  0.11553904836E+03 -0.49699803340E+02  0.22095955027E+03  0.89864293594E+02 0.  0.
          4    1    3    3  502    0  0.28766880558E+02 -0.98401394261E+02  0.72237336180E+03  0.72961198020E+03  0.00000000000E+00 0. -1.
         -3    1    3    3    0  502 -0.67129358623E+01  0.90163507919E+01  0.26578537346E+03  0.26602297427E+03  0.00000000000E+00 0.  1.
         13    1    5    5    0    0  0.14208874154E+03 -0.41100191412E+02  0.12622643203E+04  0.12709011175E+04  0.00000000000E+00 0.  1.
        -13    1    5    5    0    0 -0.62560514412E+01  0.14946186522E+02  0.14212446721E+03  0.14304506580E+03  0.00000000000E+00 0. -1.
          4    1    6    6  503    0 -0.60169499498E+02 -0.39581054484E+01 -0.21646763782E+02  0.64067290022E+02  0.00000000000E+00 0. -1.
         -4    1    6    6    0  503 -0.97717135297E+02  0.11949715381E+03 -0.28053039557E+02  0.15689226025E+03  0.00000000000E+00 0.  1.
<mgrwt>
<rscale>  0 0.11961642E+04</rscale>
<asrwt>0</asrwt>
<pdfrwt beam="1">  1        2 0.38256831E+00 0.11961642E+04</pdfrwt>
<pdfrwt beam="2">  1       -1 0.22130230E-01 0.11961642E+04</pdfrwt>
<totfact> 0.69138313E+01</totfact>
</mgrwt>
</event>
<event>
12    7  0.1606355E-007  0.1370788E+04  0.7818608E-02  0.8975239E-01
          2   -1    0    0  501    0  0.00000000000E+00  0.00000000000E+00  0.31645644140E+04  0.31645644140E+04  0.00000000000E+00 0. -1.
         -1   -1    0    0    0  501 -0.00000000000E+00 -0.00000000000E+00 -0.14844535057E+03  0.14844535057E+03  0.00000000000E+00 0.  1.
         24    2    1    2    0    0 -0.86107504546E+00  0.27948047076E+03  0.15096124620E+04  0.15373101510E+04  0.79263105466E+02 0.  0.
        254    2    1    2    0    0  0.86107504546E+00 -0.27948047076E+03  0.15065066014E+04  0.17756996135E+04  0.89746136550E+03 0.  0.
         23    2    4    4    0    0 -0.23798343053E+03  0.24453461426E+03  0.63696351788E+03  0.72831516453E+03  0.91033867308E+02 0.  0.
         23    2    4    4    0    0  0.23884450557E+03 -0.52401508501E+03  0.86954308350E+03  0.10473844490E+04  0.96283450378E+02 0.  0.
          4    1    3    3  502    0  0.26713582839E+02  0.23389688986E+03  0.12918817833E+04  0.13131564692E+04  0.00000000000E+00 0. -1.
         -3    1    3    3    0  502 -0.27574657884E+02  0.45583580893E+02  0.21773067871E+03  0.22415368178E+03  0.00000000000E+00 0.  1.
         13    1    5    5    0    0 -0.22847516468E+03  0.24663737206E+03  0.57893218003E+03  0.66947245145E+03  0.00000000000E+00 0.  1.
        -13    1    5    5    0    0 -0.95082658446E+01 -0.21027578071E+01  0.58031337857E+02  0.58842713085E+02  0.00000000000E+00 0. -1.
          1    1    6    6  503    0  0.63874435997E+02 -0.14863348789E+03  0.32701331368E+03  0.36484183508E+03  0.00000000000E+00 0. -1.
         -1    1    6    6    0  503  0.17497006958E+03 -0.37538159712E+03  0.54252976982E+03  0.68254261394E+03  0.00000000000E+00 0.  1.
<mgrwt>
<rscale>  0 0.13707879E+04</rscale>
<asrwt>0</asrwt>
<pdfrwt beam="1">  1        2 0.48685601E+00 0.13707879E+04</pdfrwt>
<pdfrwt beam="2">  1       -1 0.22837749E-01 0.13707879E+04</pdfrwt>
<totfact> 0.25139516E+01</totfact>
</mgrwt>
</event>
<event>
12    7  0.1606355E-007  0.1395090E+04  0.7818608E-02  0.8957380E-01
          2   -1    0    0  501    0  0.00000000000E+00  0.00000000000E+00  0.14991293904E+04  0.14991293904E+04  0.00000000000E+00 0. -1.
         -1   -1    0    0    0  501 -0.00000000000E+00 -0.00000000000E+00 -0.32456773913E+03  0.32456773913E+03  0.00000000000E+00 0.  1.
         24    2    1    2    0    0  0.20286909647E+02  0.13173480601E+03  0.85871395614E+03  0.87273569895E+03  0.80698971060E+02 0.  0.
        254    2    1    2    0    0 -0.20286909647E+02 -0.13173480601E+03  0.31584769510E+03  0.95096143055E+03  0.88701874731E+03 0.  0.
         23    2    4    4    0    0  0.68820364079E+02 -0.35947361214E+03 -0.15906304732E+03  0.40939633563E+03  0.91360747977E+02 0.  0.
         23    2    4    4    0    0 -0.89107273726E+02  0.22773880613E+03  0.47491074242E+03  0.54156509491E+03  0.89148576635E+02 0.  0.
          2    1    3    3  502    0  0.38437090320E+02  0.43186692751E+02  0.47571115576E+03  0.47921143983E+03  0.00000000000E+00 0. -1.
         -1    1    3    3    0  502 -0.18150180673E+02  0.88548113259E+02  0.38300280038E+03  0.39352425912E+03  0.00000000000E+00 0.  1.
         13    1    5    5    0    0 -0.83590442206E+01 -0.79251933941E+02 -0.35926972498E+01  0.79772489789E+02  0.00000000000E+00 0. -1.
        -13    1    5    5    0    0  0.77179408300E+02 -0.28022167820E+03 -0.15547035007E+03  0.32962384584E+03  0.00000000000E+00 0.  1.
          4    1    6    6  503    0 -0.29540358145E+01  0.94798810552E+02  0.12040230991E+03  0.15327184034E+03  0.00000000000E+00 0. -1.
         -4    1    6    6    0  503 -0.86153237912E+02  0.13293999557E+03  0.35450843251E+03  0.38829325458E+03  0.00000000000E+00 0.  1.
<mgrwt>
<rscale>  0 0.13950900E+04</rscale>
<asrwt>0</asrwt>
<pdfrwt beam="1">  1        2 0.23063529E+00 0.13950900E+04</pdfrwt>
<pdfrwt beam="2">  1       -1 0.49933499E-01 0.13950900E+04</pdfrwt>
<totfact> 0.56728960E+01</totfact>
</mgrwt>
</event>
<event>
12    7  0.1606355E-007  0.2629247E+04  0.7818608E-02  0.8358334E-01
          2   -1    0    0  501    0  0.00000000000E+00  0.00000000000E+00  0.21598953140E+04  0.21598953140E+04  0.00000000000E+00 0. -1.
         -1   -1    0    0    0  501 -0.00000000000E+00 -0.00000000000E+00 -0.80014741158E+03  0.80014741158E+03  0.00000000000E+00 0.  1.
         24    2    1    2    0    0 -0.67322593211E+02 -0.79143771582E+03 -0.35308381966E+03  0.87227244666E+03  0.72698335073E+02 0.  0.
        254    2    1    2    0    0  0.67322593211E+02  0.79143771582E+03  0.17128317221E+04  0.20877702789E+04  0.89111516641E+03 0.  0.
         23    2    4    4    0    0 -0.33482329958E+03  0.49043612139E+03  0.53608059441E+03  0.80513569475E+03  0.90701996394E+02 0.  0.
         23    2    4    4    0    0  0.40214589279E+03  0.30100159443E+03  0.11767511276E+04  0.12826345842E+04  0.89916523069E+02 0.  0.
          2    1    3    3  502    0 -0.14941799793E+02 -0.21461717757E+03 -0.61110537687E+02  0.22364768746E+03  0.00000000000E+00 0. -1.
         -1    1    3    3    0  502 -0.52380793418E+02 -0.57682053824E+03 -0.29197328197E+03  0.64862475920E+03  0.00000000000E+00 0.  1.
         13    1    5    5    0    0 -0.15346026829E+03  0.30051325073E+03  0.28239162769E+03  0.44000374907E+03  0.00000000000E+00 0.  1.
        -13    1    5    5    0    0 -0.18136303129E+03  0.18992287066E+03  0.25368896672E+03  0.36513194568E+03  0.00000000000E+00 0. -1.
          4    1    6    6  503    0  0.17152318220E+03  0.14082226716E+03  0.41209209658E+03  0.46805022062E+03  0.00000000000E+00 0. -1.
         -4    1    6    6    0  503  0.23062271059E+03  0.16017932727E+03  0.76465903107E+03  0.81458436354E+03  0.00000000000E+00 0.  1.
<mgrwt>
<rscale>  0 0.26292468E+04</rscale>
<asrwt>0</asrwt>
<pdfrwt beam="1">  1        2 0.33229158E+00 0.26292468E+04</pdfrwt>
<pdfrwt beam="2">  1       -1 0.12309960E+00 0.26292468E+04</pdfrwt>
<totfact> 0.31734334E+00</totfact>
</mgrwt>
</event>
<event>
12    7  0.1606355E-007  0.1917204E+04  0.7818608E-02  0.8646340E-01
         -1   -1    0    0    0  501 -0.00000000000E+00  0.00000000000E+00  0.10908901935E+04  0.10908901935E+04  0.00000000000E+00 0.  1.
          2   -1    0    0  501    0  0.00000000000E+00 -0.00000000000E+00 -0.84235623108E+03  0.84235623108E+03  0.00000000000E+00 0. -1.
         24    2    1    2    0    0  0.74049190785E+03  0.79071209607E+02  0.14391721805E+03  0.76225381751E+03  0.75750873745E+02 0.  0.
        254    2    1    2    0    0 -0.74049190785E+03 -0.79071209607E+02  0.10461674439E+03  0.11709926071E+04  0.89760709715E+03 0.  0.
         23    2    4    4    0    0  0.46952185050E+02  0.18898225180E+03 -0.18598658534E+03  0.28512617873E+03  0.93739685799E+02 0.  0.
         23    2    4    4    0    0 -0.78744409290E+03 -0.26805346141E+03  0.29060332972E+03  0.88586642836E+03  0.91586986107E+02 0.  0.
          4    1    3    3  502    0  0.49902718164E+03  0.59764394951E+02  0.61302607976E+02  0.50631800349E+03  0.00000000000E+00 0. -1.
         -3    1    3    3    0  502  0.24146472621E+03  0.19306814656E+02  0.82614610077E+02  0.25593581402E+03  0.00000000000E+00 0.  1.
         13    1    5    5    0    0  0.24430262900E+02  0.18736916759E+03 -0.18170061849E+03  0.26214339104E+03  0.00000000000E+00 0. -1.
        -13    1    5    5    0    0  0.22521922150E+02  0.16130842177E+01 -0.42859668451E+01  0.22982787686E+02  0.00000000000E+00 0.  1.
          2    1    6    6  503    0 -0.39201569318E+03 -0.85493508962E+02  0.14541131071E+03  0.42676679001E+03  0.00000000000E+00 0. -1.
         -2    1    6    6    0  503 -0.39542839972E+03 -0.18255995245E+03  0.14519201901E+03  0.45909963835E+03  0.00000000000E+00 0.  1.
<mgrwt>
<rscale>  0 0.19172044E+04</rscale>
<asrwt>0</asrwt>
<pdfrwt beam="1">  1        2 0.12959327E+00 0.19172044E+04</pdfrwt>
<pdfrwt beam="2">  1       -1 0.16782926E+00 0.19172044E+04</pdfrwt>
<totfact> 0.87564279E+00</totfact>
</mgrwt>
</event>
<event>
12    7  0.1606355E-007  0.2308530E+04  0.7818608E-02  0.8474565E-01
          2   -1    0    0  501    0  0.00000000000E+00  0.00000000000E+00  0.32242858595E+04  0.32242858595E+04  0.00000000000E+00 0. -1.
         -1   -1    0    0    0  501 -0.00000000000E+00 -0.00000000000E+00 -0.41321633537E+03  0.41321633537E+03  0.00000000000E+00 0.  1.
         24    2    1    2    0    0  0.21844793291E+03  0.75823728376E+03  0.20973720376E+04  0.22423024333E+04  0.79419519571E+02 0.  0.
        254    2    1    2    0    0 -0.21844793291E+03 -0.75823728376E+03  0.71369748654E+03  0.13951997617E+04  0.90253808495E+03 0.  0.
         23    2    4    4    0    0  0.66402327964E+02 -0.27091402461E+03 -0.17315467535E+03  0.33995075497E+03  0.88205988015E+02 0.  0.
         23    2    4    4    0    0 -0.28485026087E+03 -0.48732325915E+03  0.88685216189E+03  0.10552490067E+04  0.91760988696E+02 0.  0.
          4    1    3    3  502    0  0.15850832846E+03  0.49936757450E+03  0.14870522037E+04  0.15766474308E+04  0.00000000000E+00 0. -1.
         -3    1    3    3    0  502  0.59939604450E+02  0.25886970926E+03  0.61031983395E+03  0.66565500243E+03  0.00000000000E+00 0.  1.
         13    1    5    5    0    0  0.46722062648E+01 -0.11793506211E+03 -0.30610564746E+02  0.12193242006E+03  0.00000000000E+00 0.  1.
        -13    1    5    5    0    0  0.61730121699E+02 -0.15297896250E+03 -0.14254411060E+03  0.21801833492E+03  0.00000000000E+00 0. -1.
          4    1    6    6  503    0 -0.13464354112E+03 -0.27631719943E+03  0.55325715675E+03  0.63290880809E+03  0.00000000000E+00 0. -1.
         -4    1    6    6    0  503 -0.15020671976E+03 -0.21100605972E+03  0.33359500514E+03  0.42234019860E+03  0.00000000000E+00 0.  1.
<mgrwt>
<rscale>  0 0.23085299E+04</rscale>
<asrwt>0</asrwt>
<pdfrwt beam="1">  1        2 0.49604396E+00 0.23085299E+04</pdfrwt>
<pdfrwt beam="2">  1       -1 0.63571746E-01 0.23085299E+04</pdfrwt>
<totfact> 0.32382764E+00</totfact>
</mgrwt>
</event>
<event>
12    7  0.1606355E-007  0.1608450E+04  0.7818608E-02  0.8815374E-01
         -1   -1    0    0    0  501 -0.00000000000E+00  0.00000000000E+00  0.46842679057E+03  0.46842679057E+03  0.00000000000E+00 0.  1.
          2   -1    0    0  501    0  0.00000000000E+00 -0.00000000000E+00 -0.13807445730E+04  0.13807445730E+04  0.00000000000E+00 0. -1.
         24    2    1    2    0    0  0.43716362248E+03 -0.18311727997E+03 -0.61649804967E+03  0.78172848622E+03  0.79910011148E+02 0.  0.
        254    2    1    2    0    0 -0.43716362248E+03  0.18311727997E+03 -0.29581973272E+03  0.10674428773E+04  0.90954989473E+03 0.  0.
         23    2    4    4    0    0 -0.52172987040E+02 -0.34551910856E+03 -0.14836787851E+03  0.39081487006E+03  0.92831892859E+02 0.  0.
         23    2    4    4    0    0 -0.38499063544E+03  0.52863638853E+03 -0.14745185421E+03  0.67662800725E+03  0.91701636999E+02 0.  0.
          4    1    3    3  502    0  0.18922594011E+03 -0.79595332204E+02 -0.33257012781E+03  0.39082574536E+03  0.00000000000E+00 0. -1.
         -3    1    3    3    0  502  0.24793768236E+03 -0.10352194776E+03 -0.28392792186E+03  0.39090274086E+03  0.00000000000E+00 0.  1.
         13    1    5    5    0    0 -0.58294799882E+02 -0.34515472709E+03 -0.13333197968E+03  0.37457640893E+03  0.00000000000E+00 0.  1.
        -13    1    5    5    0    0  0.61218128419E+01 -0.36438147631E+00 -0.15035898830E+02  0.16238461132E+02  0.00000000000E+00 0. -1.
          3    1    6    6  503    0 -0.11809060807E+02 -0.10439582503E+01 -0.65527829052E+01  0.13545579714E+02  0.00000000000E+00 0. -1.
         -3    1    6    6    0  503 -0.37318157463E+03  0.52968034678E+03 -0.14089907130E+03  0.66308242753E+03  0.00000000000E+00 0.  1.
<mgrwt>
<rscale>  0 0.16084499E+04</rscale>
<asrwt>0</asrwt>
<pdfrwt beam="1">  1        2 0.21242224E+00 0.16084499E+04</pdfrwt>
<pdfrwt beam="2">  1       -1 0.72065661E-01 0.16084499E+04</pdfrwt>
<totfact> 0.31502108E+01</totfact>
</mgrwt>
</event>
<event>
12    7  0.1606355E-007  0.2281249E+04  0.7818608E-02  0.8485351E-01
          2   -1    0    0  501    0  0.00000000000E+00  0.00000000000E+00  0.12264425326E+04  0.12264425326E+04  0.00000000000E+00 0. -1.
         -1   -1    0    0    0  501 -0.00000000000E+00 -0.00000000000E+00 -0.10608113271E+04  0.10608113271E+04  0.00000000000E+00 0.  1.
         24    2    1    2    0    0 -0.38081355894E+03  0.49006624357E+03 -0.66327445039E+03  0.91178838094E+03  0.79001046275E+02 0.  0.
        254    2    1    2    0    0  0.38081355894E+03 -0.49006624357E+03  0.82890565590E+03  0.13754654788E+04  0.90533795191E+03 0.  0.
         23    2    4    4    0    0  0.63056432971E+02  0.42164588903E+02  0.73230184433E+03  0.74177871472E+03  0.90640521295E+02 0.  0.
         23    2    4    4    0    0  0.31775712597E+03 -0.53223083247E+03  0.96603811570E+02  0.63368676406E+03  0.89372078407E+02 0.  0.
          2    1    3    3  502    0 -0.27346068632E+01  0.39029978675E+01 -0.22622326100E+02  0.23118847403E+02  0.00000000000E+00 0. -1.
         -1    1    3    3    0  502 -0.37807895208E+03  0.48616324570E+03 -0.64065212429E+03  0.88866953353E+03  0.00000000000E+00 0.  1.
         13    1    5    5    0    0  0.76452852286E+02  0.50443243084E+01  0.41295804495E+03  0.42000575081E+03  0.00000000000E+00 0. -1.
        -13    1    5    5    0    0 -0.13396419315E+02  0.37120264594E+02  0.31934379939E+03  0.32177296390E+03  0.00000000000E+00 0.  1.
          3    1    6    6  503    0  0.12904026354E+03 -0.28040603364E+03  0.78384150539E+02  0.31846979193E+03  0.00000000000E+00 0. -1.
         -3    1    6    6    0  503  0.18871686243E+03 -0.25182479883E+03  0.18219661031E+02  0.31521697213E+03  0.00000000000E+00 0.  1.
<mgrwt>
<rscale>  0 0.22812489E+04</rscale>
<asrwt>0</asrwt>
<pdfrwt beam="1">  1        2 0.18868347E+00 0.22812489E+04</pdfrwt>
<pdfrwt beam="2">  1       -1 0.16320174E+00 0.22812489E+04</pdfrwt>
<totfact> 0.52258797E+00</totfact>
</mgrwt>
</event>
<event>
12    7  0.1606355E-007  0.1171603E+04  0.7818608E-02  0.9138082E-01
          2   -1    0    0  501    0  0.00000000000E+00  0.00000000000E+00  0.19384248806E+04  0.19384248806E+04  0.00000000000E+00 0. -1.
         -1   -1    0    0    0  501 -0.00000000000E+00 -0.00000000000E+00 -0.17703204667E+03  0.17703204667E+03  0.00000000000E+00 0.  1.
         24    2    1    2    0    0  0.13605954149E+03 -0.91349917139E+02  0.74581571621E+02  0.19733029351E+03  0.80745450137E+02 0.  0.
        254    2    1    2    0    0 -0.13605954149E+03  0.91349917139E+02  0.16868112623E+04  0.19181266337E+04  0.89834322074E+03 0.  0.
         23    2    4    4    0    0 -0.30953123488E+03  0.86659880041E+02  0.16876079546E+04  0.17203254051E+04  0.90439873202E+02 0.  0.
         23    2    4    4    0    0  0.17347169339E+03  0.46900370987E+01 -0.79669237234E+00  0.19780122862E+03  0.94922423430E+02 0.  0.
          2    1    3    3  502    0  0.17712240028E+02 -0.26128742523E+01  0.42293904384E+02  0.45927387327E+02  0.00000000000E+00 0. -1.
         -1    1    3    3    0  502  0.11834730147E+03 -0.88737042887E+02  0.32287667237E+02  0.15140290618E+03  0.00000000000E+00 0.  1.
         13    1    5    5    0    0 -0.18179081285E+03  0.62442313727E+02  0.77389412175E+03  0.79740770868E+03  0.00000000000E+00 0.  1.
        -13    1    5    5    0    0 -0.12774042203E+03  0.24217566313E+02  0.91371383289E+03  0.92291769642E+03  0.00000000000E+00 0. -1.
          3    1    6    6  503    0  0.13798981391E+03 -0.64835521224E+01 -0.39941158996E+02  0.14380028293E+03  0.00000000000E+00 0. -1.
         -3    1    6    6    0  503  0.35481879481E+02  0.11173589221E+02  0.39144466624E+02  0.54000945685E+02  0.00000000000E+00 0.  1.
<mgrwt>
<rscale>  0 0.11716029E+04</rscale>
<asrwt>0</asrwt>
<pdfrwt beam="1">  1        2 0.29821920E+00 0.11716029E+04</pdfrwt>
<pdfrwt beam="2">  1       -1 0.27235701E-01 0.11716029E+04</pdfrwt>
<totfact> 0.98464050E+01</totfact>
</mgrwt>
</event>
<event>
12    7  0.1606355E-007  0.1912377E+04  0.7818608E-02  0.8648720E-01
         -1   -1    0    0    0  501 -0.00000000000E+00  0.00000000000E+00  0.72716583446E+03  0.72716583446E+03  0.00000000000E+00 0.  1.
          2   -1    0    0  501    0  0.00000000000E+00 -0.00000000000E+00 -0.12573426158E+04  0.12573426158E+04  0.00000000000E+00 0. -1.
         24    2    1    2    0    0  0.71529526066E+02  0.54094136070E+03 -0.76264858382E+03  0.94116827616E+03  0.80192473664E+02 0.  0.
        254    2    1    2    0    0 -0.71529526066E+02 -0.54094136070E+03  0.23247180247E+03  0.10433401741E+04  0.85835980285E+03 0.  0.
         23    2    4    4    0    0 -0.37455323402E+03 -0.34930931674E+03  0.38157384238E+03  0.64524769859E+03  0.91863330346E+02 0.  0.
         23    2    4    4    0    0  0.30302370796E+03 -0.19163204396E+03 -0.14910203991E+03  0.39809247552E+03  0.87749603473E+02 0.  0.
          4    1    3    3  502    0  0.77749008559E+02  0.43916897944E+03 -0.57599431638E+03  0.72848044129E+03  0.00000000000E+00 0. -1.
         -3    1    3    3    0  502 -0.62194824930E+01  0.10177238126E+03 -0.18665426744E+03  0.21268783487E+03  0.00000000000E+00 0.  1.
         13    1    5    5    0    0 -0.33328953758E+03 -0.32578497790E+03  0.31145278022E+03  0.56055383506E+03  0.00000000000E+00 0.  1.
        -13    1    5    5    0    0 -0.41263696439E+02 -0.23524338846E+02  0.70121062155E+02  0.84693863531E+02  0.00000000000E+00 0. -1.
          4    1    6    6  503    0  0.45272923822E+02 -0.21288238305E+02 -0.56702439564E+02  0.75617414490E+02  0.00000000000E+00 0. -1.
         -4    1    6    6    0  503  0.25775078413E+03 -0.17034380565E+03 -0.92399600342E+02  0.32247506104E+03  0.00000000000E+00 0.  1.
<mgrwt>
<rscale>  0 0.19123772E+04</rscale>
<asrwt>0</asrwt>
<pdfrwt beam="1">  1        2 0.19343732E+00 0.19123772E+04</pdfrwt>
<pdfrwt beam="2">  1       -1 0.11187167E+00 0.19123772E+04</pdfrwt>
<totfact> 0.13697246E+01</totfact>
</mgrwt>
</event>
<event>
12    7  0.1606355E-007  0.1535058E+04  0.7818608E-02  0.8861469E-01
          2   -1    0    0  501    0  0.00000000000E+00  0.00000000000E+00  0.23828014456E+04  0.23828014456E+04  0.00000000000E+00 0. -1.
         -1   -1    0    0    0  501 -0.00000000000E+00 -0.00000000000E+00 -0.24723028816E+03  0.24723028816E+03  0.00000000000E+00 0.  1.
         24    2    1    2    0    0  0.26717648147E+03  0.36125979692E+03  0.10701497772E+04  0.11632643801E+04  0.77920210207E+02 0.  0.
        254    2    1    2    0    0 -0.26717648147E+03 -0.36125979692E+03  0.10654213802E+04  0.14667673537E+04  0.90243661235E+03 0.  0.
         23    2    4    4    0    0 -0.36297036293E+03 -0.40129536396E+03  0.11699760646E+04  0.12931791062E+04  0.10335741543E+03 0.  0.
         23    2    4    4    0    0  0.95793881463E+02  0.40035567037E+02 -0.10455468439E+03  0.17358824754E+03  0.91770819449E+02 0.  0.
          2    1    3    3  502    0  0.27017556007E+03  0.34122307440E+03  0.10331035322E+04  0.11210401099E+04  0.00000000000E+00 0. -1.
         -1    1    3    3    0  502 -0.29990786081E+01  0.20036722521E+02  0.37046244990E+02  0.42224270150E+02  0.00000000000E+00 0.  1.
         13    1    5    5    0    0 -0.28138210660E+03 -0.23957526598E+03  0.76916389121E+03  0.85333773473E+03  0.00000000000E+00 0. -1.
        -13    1    5    5    0    0 -0.81588256325E+02 -0.16172009798E+03  0.40081217342E+03  0.43984137143E+03  0.00000000000E+00 0.  1.
          2    1    6    6  503    0  0.47867902354E+02 -0.27351629012E+02 -0.50746418282E+02  0.74930945902E+02  0.00000000000E+00 0. -1.
         -2    1    6    6    0  503  0.47925979110E+02  0.67387196049E+02 -0.53808266107E+02  0.98657301638E+02  0.00000000000E+00 0.  1.
<mgrwt>
<rscale>  0 0.15350579E+04</rscale>
<asrwt>0</asrwt>
<pdfrwt beam="1">  1        2 0.36658482E+00 0.15350579E+04</pdfrwt>
<pdfrwt beam="2">  1       -1 0.38035431E-01 0.15350579E+04</pdfrwt>
<totfact> 0.29856761E+01</totfact>
</mgrwt>
</event>
<event>
12    7  0.1606355E-007  0.1250222E+04  0.7818608E-02  0.9069998E-01
          2   -1    0    0  501    0  0.00000000000E+00  0.00000000000E+00  0.15182561878E+04  0.15182561878E+04  0.00000000000E+00 0. -1.
         -1   -1    0    0    0  501 -0.00000000000E+00 -0.00000000000E+00 -0.25737678702E+03  0.25737678702E+03  0.00000000000E+00 0.  1.
         24    2    1    2    0    0  0.22702741013E+03  0.74175096579E+02  0.58882295724E+02  0.25901395108E+03  0.81103096127E+02 0.  0.
        254    2    1    2    0    0 -0.22702741013E+03 -0.74175096579E+02  0.12019971050E+04  0.15166190237E+04  0.89347234580E+03 0.  0.
         23    2    4    4    0    0 -0.22113120051E+03  0.21120713982E+03  0.11718231760E+04  0.12144963649E+04  0.91238154549E+02 0.  0.
         23    2    4    4    0    0 -0.58962096171E+01 -0.28538223640E+03  0.30173929040E+02  0.30212265881E+03  0.94285994893E+02 0.  0.
          2    1    3    3  502    0 -0.25812884548E+01  0.13651013429E+02  0.84653384444E+01  0.16268840546E+02  0.00000000000E+00 0. -1.
         -1    1    3    3    0  502  0.22960869858E+03  0.60524083150E+02  0.50416957279E+02  0.24274511053E+03  0.00000000000E+00 0.  1.
         13    1    5    5    0    0 -0.11182667782E+03  0.12844765665E+03  0.48257038599E+03  0.51174034804E+03  0.00000000000E+00 0.  1.
        -13    1    5    5    0    0 -0.10930452269E+03  0.82759483170E+02  0.68925278999E+03  0.70275601687E+03  0.00000000000E+00 0. -1.
          1    1    6    6  503    0  0.18573229399E+01 -0.13895295923E+03 -0.32404278529E+02  0.14269341889E+03  0.00000000000E+00 0. -1.
         -1    1    6    6    0  503 -0.77535325569E+01 -0.14642927717E+03  0.62578207569E+02  0.15942923992E+03  0.00000000000E+00 0.  1.
<mgrwt>
<rscale>  0 0.12502222E+04</rscale>
<asrwt>0</asrwt>
<pdfrwt beam="1">  1        2 0.23357787E+00 0.12502222E+04</pdfrwt>
<pdfrwt beam="2">  1       -1 0.39596430E-01 0.12502222E+04</pdfrwt>
<totfact> 0.86163576E+01</totfact>
</mgrwt>
</event>
<event>
12    7  0.1606355E-007  0.1711133E+04  0.7818608E-02  0.8755040E-01
          2   -1    0    0  501    0  0.00000000000E+00  0.00000000000E+00  0.15951430962E+04  0.15951430962E+04  0.00000000000E+00 0. -1.
         -1   -1    0    0    0  501 -0.00000000000E+00 -0.00000000000E+00 -0.45888918087E+03  0.45888918087E+03  0.00000000000E+00 0.  1.
         24    2    1    2    0    0 -0.59036321702E+03 -0.11022566579E+03  0.51287365801E+03  0.79380744596E+03  0.80077754508E+02 0.  0.
        254    2    1    2    0    0  0.59036321702E+03  0.11022566579E+03  0.62338025735E+03  0.12602248311E+04  0.91590679347E+03 0.  0.
         23    2    4    4    0    0  0.40655232658E+03  0.36090050065E+03  0.73390239271E+03  0.91793318942E+03  0.91949184840E+02 0.  0.
         23    2    4    4    0    0  0.18381089044E+03 -0.25067483486E+03 -0.11052213537E+03  0.34229164170E+03  0.91236556798E+02 0.  0.
          4    1    3    3  502    0 -0.50288511982E+03 -0.93891381721E+02  0.39613363829E+03  0.64701691994E+03  0.00000000000E+00 0. -1.
         -3    1    3    3    0  502 -0.87478097202E+02 -0.16334284073E+02  0.11674001972E+03  0.14679052602E+03  0.00000000000E+00 0.  1.
         13    1    5    5    0    0  0.22642625167E+02  0.22906055453E+02  0.90045051608E+02  0.95632040499E+02  0.00000000000E+00 0.  1.
        -13    1    5    5    0    0  0.38390970141E+03  0.33799444520E+03  0.64385734110E+03  0.82230114892E+03  0.00000000000E+00 0. -1.
          4    1    6    6  503    0  0.10307514311E+03 -0.16878540300E+03 -0.11200816221E+03  0.22728578000E+03  0.00000000000E+00 0. -1.
         -4    1    6    6    0  503  0.80735747338E+02 -0.81889431865E+02  0.14860268442E+01  0.11500586170E+03  0.00000000000E+00 0.  1.
<mgrwt>
<rscale>  0 0.17111329E+04</rscale>
<asrwt>0</asrwt>
<pdfrwt beam="1">  1        2 0.24540663E+00 0.17111329E+04</pdfrwt>
<pdfrwt beam="2">  1       -1 0.70598336E-01 0.17111329E+04</pdfrwt>
<totfact> 0.24642692E+01</totfact>
</mgrwt>
</event>
<event>
12    7  0.1606355E-007  0.3076623E+04  0.7818608E-02  0.8222183E-01
         -1   -1    0    0    0  501 -0.00000000000E+00  0.00000000000E+00  0.66772011891E+03  0.66772011891E+03  0.00000000000E+00 0.  1.
          2   -1    0    0  501    0  0.00000000000E+00 -0.00000000000E+00 -0.35440035943E+04  0.35440035943E+04  0.00000000000E+00 0. -1.
         24    2    1    2    0    0 -0.14085047760E+03 -0.81102702380E+03 -0.28663443611E+04  0.29832728599E+04  0.79895366306E+02 0.  0.
        254    2    1    2    0    0  0.14085047760E+03  0.81102702380E+03 -0.99391143113E+01  0.12284508534E+04  0.91180536453E+03 0.  0.
         23    2    4    4    0    0  0.19450540534E+03  0.98700136778E+03 -0.76911214601E+02  0.10124851033E+04  0.84892265139E+02 0.  0.
         23    2    4    4    0    0 -0.53654927737E+02 -0.17597434397E+03  0.66972100290E+02  0.21596575012E+03  0.91159870570E+02 0.  0.
          4    1    3    3  502    0 -0.14637365839E+03 -0.79913677742E+03 -0.28388167643E+04  0.29527826636E+04  0.00000000000E+00 0. -1.
         -3    1    3    3    0  502  0.55231807876E+01 -0.11890246385E+02 -0.27527596800E+02  0.30490196305E+02  0.00000000000E+00 0.  1.
         13    1    5    5    0    0  0.16745251394E+03  0.86951599048E+03 -0.39979580479E+02  0.88639537960E+03  0.00000000000E+00 0. -1.
        -13    1    5    5    0    0  0.27052891400E+02  0.11748537730E+03 -0.36931634122E+02  0.12608972365E+03  0.00000000000E+00 0.  1.
          2    1    6    6  503    0 -0.19159149761E+02 -0.35343762506E+02 -0.22186328836E+02  0.45918272560E+02  0.00000000000E+00 0. -1.
         -2    1    6    6    0  503 -0.34495777975E+02 -0.14063058147E+03  0.89158429126E+02  0.17004747756E+03  0.00000000000E+00 0.  1.
<mgrwt>
<rscale>  0 0.30766231E+04</rscale>
<asrwt>0</asrwt>
<pdfrwt beam="1">  1        2 0.54523133E+00 0.30766231E+04</pdfrwt>
<pdfrwt beam="2">  1       -1 0.10272617E+00 0.30766231E+04</pdfrwt>
<totfact> 0.65451954E-01</totfact>
</mgrwt>
</event>
<event>
12    7  0.1606355E-007  0.1526767E+04  0.7818608E-02  0.8866845E-01
         -1   -1    0    0    0  501 -0.00000000000E+00  0.00000000000E+00  0.50372469564E+03  0.50372469564E+03  0.00000000000E+00 0.  1.
          2   -1    0    0  501    0  0.00000000000E+00 -0.00000000000E+00 -0.11568912064E+04  0.11568912064E+04  0.00000000000E+00 0. -1.
         24    2    1    2    0    0 -0.30997556915E+03 -0.37959765871E+03 -0.12850503304E+03  0.51328701808E+03  0.82284770389E+02 0.  0.
        254    2    1    2    0    0  0.30997556915E+03  0.37959765871E+03 -0.52466147771E+03  0.11473288839E+04  0.89493835864E+03 0.  0.
         23    2    4    4    0    0  0.49624022282E+03  0.52705037703E+03 -0.24637983599E+03  0.77032159159E+03  0.93036940035E+02 0.  0.
         23    2    4    4    0    0 -0.18626465367E+03 -0.14745271831E+03 -0.27828164172E+03  0.37700729236E+03  0.90868041838E+02 0.  0.
          2    1    3    3  502    0 -0.30457746637E+03 -0.37173842413E+03 -0.13782643791E+03  0.49995301378E+03  0.00000000000E+00 0. -1.
         -3    1    3    3    0  502 -0.53981027818E+01 -0.78592345843E+01  0.93214048745E+01  0.13334004302E+02  0.00000000000E+00 0.  1.
         13    1    5    5    0    0  0.64077214224E+02  0.30170643661E+02 -0.32587828253E+02  0.77962322130E+02  0.00000000000E+00 0.  1.
        -13    1    5    5    0    0  0.43216300860E+03  0.49687973337E+03 -0.21379200774E+03  0.69235926946E+03  0.00000000000E+00 0. -1.
          1    1    6    6  503    0 -0.10095074865E+03 -0.48085459132E+02 -0.18517733822E+03  0.21631900431E+03  0.00000000000E+00 0. -1.
         -1    1    6    6    0  503 -0.85313905019E+02 -0.99367259182E+02 -0.93104303497E+02  0.16068828805E+03  0.00000000000E+00 0.  1.
<mgrwt>
<rscale>  0 0.15267674E+04</rscale>
<asrwt>0</asrwt>
<pdfrwt beam="1">  1        2 0.17798326E+00 0.15267674E+04</pdfrwt>
<pdfrwt beam="2">  1       -1 0.77496108E-01 0.15267674E+04</pdfrwt>
<totfact> 0.36905191E+01</totfact>
</mgrwt>
</event>
<event>
12    7  0.1668482E-007  0.1633616E+04  0.7818608E-02  0.8800158E-01
          2   -1    0    0  501    0  0.00000000000E+00  0.00000000000E+00  0.20019110523E+04  0.20019110523E+04  0.00000000000E+00 0. -1.
         -1   -1    0    0    0  501 -0.00000000000E+00 -0.00000000000E+00 -0.33326930273E+03  0.33326930273E+03  0.00000000000E+00 0.  1.
         24    2    1    2    0    0 -0.73617656133E+02 -0.13377291809E+02  0.13664908476E+04  0.13708753594E+04  0.80021893132E+02 0.  0.
        254    2    1    2    0    0  0.73617656133E+02  0.13377291809E+02  0.30215090200E+03  0.96430499560E+03  0.91268310258E+03 0.  0.
         23    2    4    4    0    0 -0.26621391058E+03 -0.26425745761E+03  0.33937260950E+03  0.51439377332E+03  0.93409506296E+02 0.  0.
         23    2    4    4    0    0  0.33983156671E+03  0.27763474941E+03 -0.37221707505E+02  0.44991122228E+03  0.92022304942E+02 0.  0.
          4    1    3    3  502    0 -0.89543254605E+02 -0.12372376442E+02  0.12546188599E+04  0.12578710401E+04  0.00000000000E+00 0. -1.
         -3    1    3    3    0  502  0.15925598472E+02 -0.10049153671E+01  0.11187198772E+03  0.11300431929E+03  0.00000000000E+00 0.  1.
         13    1    5    5    0    0 -0.42620173362E+02 -0.21935721385E+02  0.11265773272E+02  0.49239950218E+02  0.00000000000E+00 0.  1.
        -13    1    5    5    0    0 -0.22359373722E+03 -0.24232173622E+03  0.32810683623E+03  0.46515382310E+03  0.00000000000E+00 0. -1.
          3    1    6    6  503    0  0.73996809743E+02  0.60694974389E+02 -0.47063228301E+02  0.10665062225E+03  0.00000000000E+00 0. -1.
         -3    1    6    6    0  503  0.26583475697E+03  0.21693977503E+03  0.98415207954E+01  0.34326060003E+03  0.00000000000E+00 0.  1.
<mgrwt>
<rscale>  0 0.16336162E+04</rscale>
<asrwt>0</asrwt>
<pdfrwt beam="1">  1        2 0.30798631E+00 0.16336162E+04</pdfrwt>
<pdfrwt beam="2">  1       -1 0.51272201E-01 0.16336162E+04</pdfrwt>
<totfact> 0.27782770E+01</totfact>
</mgrwt>
</event>
<event>
12    7  0.1606355E-007  0.1684230E+04  0.7818608E-02  0.8770410E-01
          2   -1    0    0  501    0  0.00000000000E+00  0.00000000000E+00  0.15464019867E+04  0.15464019867E+04  0.00000000000E+00 0. -1.
         -1   -1    0    0    0  501 -0.00000000000E+00 -0.00000000000E+00 -0.45858570733E+03  0.45858570733E+03  0.00000000000E+00 0.  1.
         24    2    1    2    0    0 -0.95912707455E+02  0.39605216634E+02  0.10968564958E+04  0.11045933121E+04  0.79147912002E+02 0.  0.
        254    2    1    2    0    0  0.95912707455E+02 -0.39605216634E+02 -0.90402164458E+01  0.90039438198E+03  0.89434920303E+03 0.  0.
         23    2    4    4    0    0  0.20978876932E+03  0.99944825295E+02 -0.39363206292E+03  0.46607274253E+03  0.90979692971E+02 0.  0.
         23    2    4    4    0    0 -0.11387606187E+03 -0.13955004193E+03  0.38459184647E+03  0.43432163945E+03  0.91007837329E+02 0.  0.
          2    1    3    3  502    0 -0.51185576793E+02  0.49094552662E+02  0.88611483667E+03  0.88894867239E+03  0.00000000000E+00 0. -1.
         -1    1    3    3    0  502 -0.44727130662E+02 -0.94893360281E+01  0.21074165918E+03  0.21564463969E+03  0.00000000000E+00 0.  1.
         13    1    5    5    0    0  0.81835709093E+02  0.11964859527E+01 -0.18388542925E+03  0.20127683909E+03  0.00000000000E+00 0. -1.
        -13    1    5    5    0    0  0.12795306023E+03  0.98748339342E+02 -0.20974663366E+03  0.26479590344E+03  0.00000000000E+00 0.  1.
          4    1    6    6  503    0 -0.15181595370E+02  0.12761748851E+02  0.29679065845E+02  0.35695798369E+02  0.00000000000E+00 0. -1.
         -4    1    6    6    0  503 -0.98694466499E+02 -0.15231179078E+03  0.35491278063E+03  0.39862584108E+03  0.00000000000E+00 0.  1.
<mgrwt>
<rscale>  0 0.16842302E+04</rscale>
<asrwt>0</asrwt>
<pdfrwt beam="1">  1        2 0.23790800E+00 0.16842302E+04</pdfrwt>
<pdfrwt beam="2">  1       -1 0.70551648E-01 0.16842302E+04</pdfrwt>
<totfact> 0.26338582E+01</totfact>
</mgrwt>
</event>
<event>
12    7  0.1606355E-007  0.1520343E+04  0.7818608E-02  0.8871037E-01
         -1   -1    0    0    0  501 -0.00000000000E+00  0.00000000000E+00  0.10783645645E+04  0.10783645645E+04  0.00000000000E+00 0.  1.
          2   -1    0    0  501    0  0.00000000000E+00 -0.00000000000E+00 -0.53586747672E+03  0.53586747672E+03  0.00000000000E+00 0. -1.
         24    2    1    2    0    0  0.16864742110E+03  0.42521354006E+03  0.35727058590E+03  0.58554476461E+03  0.77278020937E+02 0.  0.
        254    2    1    2    0    0 -0.16864742110E+03 -0.42521354006E+03  0.18522650189E+03  0.10286872766E+04  0.90257417911E+03 0.  0.
         23    2    4    4    0    0  0.74165272923E+02 -0.19711836323E+03 -0.33392135569E+03  0.40493657955E+03  0.90077882084E+02 0.  0.
         23    2    4    4    0    0 -0.24281269402E+03 -0.22809517683E+03  0.51914785757E+03  0.62375069708E+03  0.92547393364E+02 0.  0.
          2    1    3    3  502    0  0.72124823769E+01  0.76160047893E+02  0.36548222865E+02  0.84782931016E+02  0.00000000000E+00 0. -1.
         -3    1    3    3    0  502  0.16143493872E+03  0.34905349217E+03  0.32072236304E+03  0.50076183360E+03  0.00000000000E+00 0.  1.
         13    1    5    5    0    0  0.83332672757E+02 -0.11882548093E+03 -0.25488905153E+03  0.29331256000E+03  0.00000000000E+00 0. -1.
        -13    1    5    5    0    0 -0.91673998344E+01 -0.78292882294E+02 -0.79032304160E+02  0.11162401954E+03  0.00000000000E+00 0.  1.
          2    1    6    6  503    0 -0.20827922210E+03 -0.22598423783E+03  0.43356726074E+03  0.53144113474E+03  0.00000000000E+00 0. -1.
         -2    1    6    6    0  503 -0.34533471920E+02 -0.21109390051E+01  0.85580596836E+02  0.92309562349E+02  0.00000000000E+00 0.  1.
<mgrwt>
<rscale>  0 0.15203427E+04</rscale>
<asrwt>0</asrwt>
<pdfrwt beam="1">  1        2 0.82441151E-01 0.15203427E+04</pdfrwt>
<pdfrwt beam="2">  1       -1 0.16590224E+00 0.15203427E+04</pdfrwt>
<totfact> 0.16518426E+01</totfact>
</mgrwt>
</event>
<event>
12    7  0.1606355E-007  0.1703041E+04  0.7818608E-02  0.8759632E-01
          2   -1    0    0  501    0  0.00000000000E+00  0.00000000000E+00  0.19294442233E+04  0.19294442233E+04  0.00000000000E+00 0. -1.
         -1   -1    0    0    0  501 -0.00000000000E+00 -0.00000000000E+00 -0.37580117862E+03  0.37580117862E+03  0.00000000000E+00 0.  1.
         24    2    1    2    0    0  0.59299348901E+02  0.39899574431E+03  0.11812671008E+04  0.12508234197E+04  0.80332103933E+02 0.  0.
        254    2    1    2    0    0 -0.59299348901E+02 -0.39899574431E+03  0.37237594387E+03  0.10544219823E+04  0.90023766660E+03 0.  0.
         23    2    4    4    0    0  0.30918214980E+02  0.27281352113E+03  0.28864116152E+02  0.28904221859E+03  0.85610242386E+02 0.  0.
         23    2    4    4    0    0 -0.90217563881E+02 -0.67180926543E+03  0.34351182771E+03  0.76537976368E+03  0.91317626521E+02 0.  0.
          2    1    3    3  502    0  0.71446119586E+02  0.37916963478E+03  0.11390643243E+04  0.12026394700E+04  0.00000000000E+00 0. -1.
         -1    1    3    3    0  502 -0.12146770684E+02  0.19826109529E+02  0.42202776531E+02  0.48183949652E+02  0.00000000000E+00 0.  1.
         13    1    5    5    0    0  0.17999989383E+02  0.25819791007E+03  0.58730903487E+01  0.25889120026E+03  0.00000000000E+00 0.  1.
        -13    1    5    5    0    0  0.12918225597E+02  0.14615611060E+02  0.22991025804E+02  0.30151018337E+02  0.00000000000E+00 0. -1.
          4    1    6    6  503    0 -0.41357572407E+02 -0.94245778162E+02  0.69942754538E+02  0.12443755225E+03  0.00000000000E+00 0. -1.
         -4    1    6    6    0  503 -0.48859991474E+02 -0.57756348727E+03  0.27356907318E+03  0.64094221143E+03  0.00000000000E+00 0.  1.
<mgrwt>
<rscale>  0 0.17030413E+04</rscale>
<asrwt>0</asrwt>
<pdfrwt beam="1">  1        2 0.29683757E+00 0.17030413E+04</pdfrwt>
<pdfrwt beam="2">  1       -1 0.57815567E-01 0.17030413E+04</pdfrwt>
<totfact> 0.24013871E+01</totfact>
</mgrwt>
</event>
<event>
12    7  0.1606355E-007  0.1249240E+04  0.7818608E-02  0.9070816E-01
         -1   -1    0    0    0  501 -0.00000000000E+00  0.00000000000E+00  0.11378698896E+03  0.11378698896E+03  0.00000000000E+00 0.  1.
          2   -1    0    0  501    0  0.00000000000E+00 -0.00000000000E+00 -0.34287780416E+04  0.34287780416E+04  0.00000000000E+00 0. -1.
         24    2    1    2    0    0 -0.52108229444E+02 -0.20525353220E+03 -0.14117376030E+04  0.14297182128E+04  0.79036877754E+02 0.  0.
        254    2    1    2    0    0  0.52108229444E+02  0.20525353220E+03 -0.19032534496E+04  0.21128468178E+04  0.89269462974E+03 0.  0.
         23    2    4    4    0    0 -0.31323961698E+03  0.19672180042E+03 -0.36078758921E+03  0.52509562995E+03  0.93483750774E+02 0.  0.
         23    2    4    4    0    0  0.36534784642E+03  0.85317317813E+01 -0.15424658604E+04  0.15877511878E+04  0.90559729888E+02 0.  0.
          2    1    3    3  502    0 -0.46297068890E+02 -0.20472819503E+03 -0.14058366094E+04  0.14214195808E+04  0.00000000000E+00 0. -1.
         -1    1    3    3    0  502 -0.58111605542E+01 -0.52533717244E+00 -0.59009936099E+01  0.82986319183E+01  0.00000000000E+00 0.  1.
         13    1    5    5    0    0 -0.16121518355E+02  0.12181429779E+02  0.30159836237E+01  0.20430045099E+02  0.00000000000E+00 0. -1.
        -13    1    5    5    0    0 -0.29711809862E+03  0.18454037064E+03 -0.36380357283E+03  0.50466558485E+03  0.00000000000E+00 0.  1.
          3    1    6    6  503    0  0.20980903922E+00  0.10918911508E+02 -0.59381870228E+02  0.60377753851E+02  0.00000000000E+00 0. -1.
         -3    1    6    6    0  503  0.36513803738E+03 -0.23871797271E+01 -0.14830839902E+04  0.15273734340E+04  0.00000000000E+00 0.  1.
<mgrwt>
<rscale>  0 0.12492403E+04</rscale>
<asrwt>0</asrwt>
<pdfrwt beam="1">  1        2 0.52750431E+00 0.12492403E+04</pdfrwt>
<pdfrwt beam="2">  1       -1 0.17505691E-01 0.12492403E+04</pdfrwt>
<totfact> 0.26624318E+01</totfact>
</mgrwt>
</event>
<event>
12    7  0.1606355E-007  0.1508184E+04  0.7818608E-02  0.8879029E-01
          2   -1    0    0  501    0  0.00000000000E+00  0.00000000000E+00  0.10435197379E+04  0.10435197379E+04  0.00000000000E+00 0. -1.
         -1   -1    0    0    0  501 -0.00000000000E+00 -0.00000000000E+00 -0.54493910628E+03  0.54493910628E+03  0.00000000000E+00 0.  1.
         24    2    1    2    0    0  0.14604305357E+03  0.46384826428E+02 -0.31970735999E+03  0.36313056983E+03  0.78555006815E+02 0.  0.
        254    2    1    2    0    0 -0.14604305357E+03 -0.46384826428E+02  0.81828799157E+03  0.12253282743E+04  0.89908510001E+03 0.  0.
         23    2    4    4    0    0  0.25201116239E+03  0.21229033321E+03  0.60809288015E+03  0.69747277289E+03  0.90080555570E+02 0.  0.
         23    2    4    4    0    0 -0.39805421597E+03 -0.25867515964E+03  0.21019511142E+03  0.52785550142E+03  0.95338598944E+02 0.  0.
          4    1    3    3  502    0  0.97150919449E+01  0.33583245098E+02 -0.56633156771E+02  0.66554727922E+02  0.00000000000E+00 0. -1.
         -3    1    3    3    0  502  0.13632796163E+03  0.12801581329E+02 -0.26307420322E+03  0.29657584191E+03  0.00000000000E+00 0.  1.
         13    1    5    5    0    0  0.67035317347E+02  0.11010499559E+03  0.20069726059E+03  0.23852931525E+03  0.00000000000E+00 0. -1.
        -13    1    5    5    0    0  0.18497584505E+03  0.10218533762E+03  0.40739561956E+03  0.45894345764E+03  0.00000000000E+00 0.  1.
          4    1    6    6  503    0 -0.13580072628E+03 -0.36890019777E+02  0.63076808985E+02  0.15421217413E+03  0.00000000000E+00 0. -1.
         -4    1    6    6    0  503 -0.26225348968E+03 -0.22178513987E+03  0.14711830244E+03  0.37364332729E+03  0.00000000000E+00 0.  1.
<mgrwt>
<rscale>  0 0.15081840E+04</rscale>
<asrwt>0</asrwt>
<pdfrwt beam="1">  1        2 0.16054150E+00 0.15081840E+04</pdfrwt>
<pdfrwt beam="2">  1       -1 0.83836786E-01 0.15081840E+04</pdfrwt>
<totfact> 0.36723766E+01</totfact>
</mgrwt>
</event>
<event>
12    7  0.1606355E-007  0.1001405E+04  0.7818608E-02  0.9307005E-01
         -1   -1    0    0    0  501 -0.00000000000E+00  0.00000000000E+00  0.18339963773E+03  0.18339963773E+03  0.00000000000E+00 0.  1.
          2   -1    0    0  501    0  0.00000000000E+00 -0.00000000000E+00 -0.13669758844E+04  0.13669758844E+04  0.00000000000E+00 0. -1.
         24    2    1    2    0    0  0.21086552865E+02  0.85776502820E+01 -0.80966318870E+02  0.12359442272E+03  0.90563887610E+02 0.  0.
        254    2    1    2    0    0 -0.21086552865E+02 -0.85776502820E+01 -0.11026099278E+04  0.14267810995E+04  0.90522783540E+03 0.  0.
         23    2    4    4    0    0  0.28255622707E+03 -0.14931857460E+03 -0.10162241050E+04  0.10693001808E+04  0.92506145399E+02 0.  0.
         23    2    4    4    0    0 -0.30364277993E+03  0.14074092432E+03 -0.86385822823E+02  0.35748091862E+03  0.91231306064E+02 0.  0.
          4    1    3    3  502    0  0.18260504171E+02  0.25893760104E+01 -0.10090930424E+03  0.10258088790E+03  0.00000000000E+00 0. -1.
         -3    1    3    3    0  502  0.28260486948E+01  0.59882742716E+01  0.19942985369E+02  0.21013534815E+02  0.00000000000E+00 0.  1.
         13    1    5    5    0    0  0.24419463348E+03 -0.16105830221E+03 -0.88687397762E+03  0.93387164423E+03  0.00000000000E+00 0.  1.
        -13    1    5    5    0    0  0.38361593584E+02  0.11739727609E+02 -0.12935012740E+03  0.13542853660E+03  0.00000000000E+00 0. -1.
          4    1    6    6  503    0 -0.69796898065E+02  0.77229486369E+02 -0.34564137813E+02  0.10968445727E+03  0.00000000000E+00 0. -1.
         -4    1    6    6    0  503 -0.23384588187E+03  0.63511437946E+02 -0.51821685010E+02  0.24779646134E+03  0.00000000000E+00 0.  1.
<mgrwt>
<rscale>  0 0.10014048E+04</rscale>
<asrwt>0</asrwt>
<pdfrwt beam="1">  1        2 0.21030399E+00 0.10014048E+04</pdfrwt>
<pdfrwt beam="2">  1       -1 0.28215328E-01 0.10014048E+04</pdfrwt>
<totfact> 0.19511876E+02</totfact>
</mgrwt>
</event>
<event>
12    7  0.1606355E-007  0.1457788E+04  0.7818608E-02  0.8913019E-01
          2   -1    0    0  501    0  0.00000000000E+00  0.00000000000E+00  0.69148157853E+03  0.69148157853E+03  0.00000000000E+00 0. -1.
         -1   -1    0    0    0  501 -0.00000000000E+00 -0.00000000000E+00 -0.76833055767E+03  0.76833055767E+03  0.00000000000E+00 0.  1.
         24    2    1    2    0    0 -0.42501900365E+03 -0.11522537514E+03 -0.80930493748E+02  0.45478699690E+03  0.79771092449E+02 0.  0.
        254    2    1    2    0    0  0.42501900365E+03  0.11522537514E+03  0.40815146172E+01  0.10050251393E+04  0.90340513133E+03 0.  0.
         23    2    4    4    0    0  0.41422111225E+03  0.47057669361E+03 -0.43351580019E+02  0.63497565177E+03  0.91066813119E+02 0.  0.
         23    2    4    4    0    0  0.10797891405E+02 -0.35535131848E+03  0.47433094637E+02  0.37004948752E+03  0.91080023871E+02 0.  0.
          2    1    3    3  502    0 -0.11275309096E+03 -0.39910472314E+02 -0.57505473011E+02  0.13271392070E+03  0.00000000000E+00 0. -1.
         -1    1    3    3    0  502 -0.31226591269E+03 -0.75314902822E+02 -0.23425020738E+02  0.32207307620E+03  0.00000000000E+00 0.  1.
         13    1    5    5    0    0  0.28112483968E+03  0.29832259093E+03 -0.69379765945E+02  0.41574162128E+03  0.00000000000E+00 0.  1.
        -13    1    5    5    0    0  0.13309627257E+03  0.17225410268E+03  0.26028185926E+02  0.21923403049E+03  0.00000000000E+00 0. -1.
          1    1    6    6  503    0  0.20508777234E+02 -0.18297879202E+03 -0.18915215481E+02  0.18509358079E+03  0.00000000000E+00 0. -1.
         -1    1    6    6    0  503 -0.97108858287E+01 -0.17237252645E+03  0.66348310118E+02  0.18495590673E+03  0.00000000000E+00 0.  1.
<mgrwt>
<rscale>  0 0.14577880E+04</rscale>
<asrwt>0</asrwt>
<pdfrwt beam="1">  1        2 0.10638178E+00 0.14577880E+04</pdfrwt>
<pdfrwt beam="2">  1       -1 0.11820470E+00 0.14577880E+04</pdfrwt>
<totfact> 0.29601504E+01</totfact>
</mgrwt>
</event>
<event>
12    7  0.1606355E-007  0.1517208E+04  0.7818608E-02  0.8873090E-01
         -1   -1    0    0    0  501 -0.00000000000E+00  0.00000000000E+00  0.25582963117E+03  0.25582963117E+03  0.00000000000E+00 0.  1.
          2   -1    0    0  501    0  0.00000000000E+00 -0.00000000000E+00 -0.22494665730E+04  0.22494665730E+04  0.00000000000E+00 0. -1.
         24    2    1    2    0    0 -0.39095255530E+03  0.25251519153E+03 -0.40145477536E+03  0.61980752423E+03  0.79922512427E+02 0.  0.
        254    2    1    2    0    0  0.39095255530E+03 -0.25251519153E+03 -0.15921821665E+04  0.18854886800E+04  0.89633458515E+03 0.  0.
         23    2    4    4    0    0  0.62541462366E+03 -0.29539843849E+03 -0.14083257583E+04  0.15716523568E+04  0.91137259071E+02 0.  0.
         23    2    4    4    0    0 -0.23446206836E+03  0.42883246965E+02 -0.18385640816E+03  0.31383632320E+03  0.88761616519E+02 0.  0.
          4    1    3    3  502    0 -0.26159604426E+03  0.16364270248E+03 -0.31358370312E+03  0.43993881769E+03  0.00000000000E+00 0. -1.
         -1    1    3    3    0  502 -0.12935651104E+03  0.88872489046E+02 -0.87871072235E+02  0.17986870654E+03  0.00000000000E+00 0.  1.
         13    1    5    5    0    0  0.60288843970E+03 -0.26374742548E+03 -0.13118023436E+04  0.14676043621E+04  0.00000000000E+00 0. -1.
        -13    1    5    5    0    0  0.22526183960E+02 -0.31651013011E+02 -0.96523414764E+02  0.10404799463E+03  0.00000000000E+00 0.  1.
          2    1    6    6  503    0 -0.11072191064E+03 -0.19504717232E+02 -0.10780348565E+03  0.15576060801E+03  0.00000000000E+00 0. -1.
         -2    1    6    6    0  503 -0.12374015772E+03  0.62387964197E+02 -0.76052922508E+02  0.15807571518E+03  0.00000000000E+00 0.  1.
<mgrwt>
<rscale>  0 0.15172082E+04</rscale>
<asrwt>0</asrwt>
<pdfrwt beam="1">  1        2 0.34607177E+00 0.15172082E+04</pdfrwt>
<pdfrwt beam="2">  1       -1 0.39358406E-01 0.15172082E+04</pdfrwt>
<totfact> 0.33431226E+01</totfact>
</mgrwt>
</event>
<event>
12    7  0.1606355E-007  0.1443716E+04  0.7818608E-02  0.8922768E-01
          2   -1    0    0  501    0  0.00000000000E+00  0.00000000000E+00  0.15164952175E+04  0.15164952175E+04  0.00000000000E+00 0. -1.
         -1   -1    0    0    0  501 -0.00000000000E+00 -0.00000000000E+00 -0.34360754924E+03  0.34360754924E+03  0.00000000000E+00 0.  1.
         24    2    1    2    0    0 -0.12580619766E+02  0.42128803953E+03  0.49921309895E+03  0.65797858568E+03  0.77975745050E+02 0.  0.
        254    2    1    2    0    0  0.12580619766E+02 -0.42128803953E+03  0.67367456932E+03  0.12021241810E+04  0.90201066350E+03 0.  0.
         23    2    4    4    0    0  0.41190658472E+02  0.12952737668E+03  0.61963985469E+03  0.63937688418E+03  0.79845092845E+02 0.  0.
         23    2    4    4    0    0 -0.28610038706E+02 -0.55081541621E+03  0.54034714628E+02  0.56274729687E+03  0.97717003116E+02 0.  0.
          2    1    3    3  502    0 -0.30863413555E+02  0.10027154828E+03  0.15267844681E+03  0.18525021407E+03  0.00000000000E+00 0. -1.
         -1    1    3    3    0  502  0.18282793789E+02  0.32101649125E+03  0.34653465213E+03  0.47272837162E+03  0.00000000000E+00 0.  1.
         13    1    5    5    0    0 -0.53820755360E+01  0.99286896533E+02  0.45096215213E+03  0.46179402033E+03  0.00000000000E+00 0. -1.
        -13    1    5    5    0    0  0.46572734008E+02  0.30240480147E+02  0.16867770256E+03  0.17758286385E+03  0.00000000000E+00 0.  1.
          2    1    6    6  503    0  0.24123340356E+02 -0.39329229687E+03  0.37782824923E+02  0.39583874013E+03  0.00000000000E+00 0. -1.
         -2    1    6    6    0  503 -0.52733379062E+02 -0.15752311934E+03  0.16251889705E+02  0.16690855674E+03  0.00000000000E+00 0.  1.
<mgrwt>
<rscale>  0 0.14437163E+04</rscale>
<asrwt>0</asrwt>
<pdfrwt beam="1">  1        2 0.23330695E+00 0.14437163E+04</pdfrwt>
<pdfrwt beam="2">  1       -1 0.52862701E-01 0.14437163E+04</pdfrwt>
<totfact> 0.49546953E+01</totfact>
</mgrwt>
</event>
<event>
12    7  0.1606355E-007  0.2213424E+04  0.7818608E-02  0.8512862E-01
         -1   -1    0    0    0  501 -0.00000000000E+00  0.00000000000E+00  0.51053856092E+03  0.51053856092E+03  0.00000000000E+00 0.  1.
          2   -1    0    0  501    0  0.00000000000E+00 -0.00000000000E+00 -0.23990571326E+04  0.23990571326E+04  0.00000000000E+00 0. -1.
         24    2    1    2    0    0  0.71471372932E+03  0.23652325299E+03 -0.14468896660E+04  0.16329523363E+04  0.79275866340E+02 0.  0.
        254    2    1    2    0    0 -0.71471372932E+03 -0.23652325299E+03 -0.44162890568E+03  0.12766433572E+04  0.93167763047E+03 0.  0.
         23    2    4    4    0    0 -0.63410502280E+03 -0.55220164629E+03 -0.22605256257E+03  0.87552783868E+03  0.91833529561E+02 0.  0.
         23    2    4    4    0    0 -0.80608706524E+02  0.31567839330E+03 -0.21557634310E+03  0.40111551854E+03  0.90938924260E+02 0.  0.
          4    1    3    3  502    0  0.30281214625E+03  0.81322137660E+02 -0.67785107590E+03  0.74685377892E+03  0.00000000000E+00 0. -1.
         -3    1    3    3    0  502  0.41190158308E+03  0.15520111533E+03 -0.76903859011E+03  0.88609855739E+03  0.00000000000E+00 0.  1.
         13    1    5    5    0    0 -0.30601604735E+03 -0.27891354355E+03 -0.64783218163E+02  0.41908883470E+03  0.00000000000E+00 0.  1.
        -13    1    5    5    0    0 -0.32808897545E+03 -0.27328810274E+03 -0.16126934441E+03  0.45643900398E+03  0.00000000000E+00 0. -1.
          4    1    6    6  503    0 -0.86156679044E+02  0.31151594910E+03 -0.19066718599E+03  0.37525875833E+03  0.00000000000E+00 0. -1.
         -4    1    6    6    0  503  0.55479725196E+01  0.41624442019E+01 -0.24909157114E+02  0.25856760217E+02  0.00000000000E+00 0.  1.
<mgrwt>
<rscale>  0 0.22134238E+04</rscale>
<asrwt>0</asrwt>
<pdfrwt beam="1">  1        2 0.36908571E+00 0.22134238E+04</pdfrwt>
<pdfrwt beam="2">  1       -1 0.78544394E-01 0.22134238E+04</pdfrwt>
<totfact> 0.67081764E+00</totfact>
</mgrwt>
</event>
<event>
12    7  0.1606355E-007  0.1729554E+04  0.7818608E-02  0.8744686E-01
         -1   -1    0    0    0  501 -0.00000000000E+00  0.00000000000E+00  0.76297357050E+03  0.76297357050E+03  0.00000000000E+00 0.  1.
          2   -1    0    0  501    0  0.00000000000E+00 -0.00000000000E+00 -0.98016420799E+03  0.98016420799E+03  0.00000000000E+00 0. -1.
         24    2    1    2    0    0 -0.57067380063E+03  0.22443531234E+03 -0.20097287781E+03  0.65003131549E+03  0.78171717114E+02 0.  0.
        254    2    1    2    0    0  0.57067380063E+03 -0.22443531234E+03 -0.16217759688E+02  0.10931064630E+04  0.90475351758E+03 0.  0.
         23    2    4    4    0    0  0.40929369880E+02 -0.48496387621E+03  0.18217346053E+02  0.49466295038E+03  0.86570134757E+02 0.  0.
         23    2    4    4    0    0  0.52974443075E+03  0.26052856387E+03 -0.34435105741E+02  0.59844351262E+03  0.91894323997E+02 0.  0.
          4    1    3    3  502    0 -0.37401472316E+03  0.14689889480E+03 -0.17029389517E+03  0.43642445986E+03  0.00000000000E+00 0. -1.
         -3    1    3    3    0  502 -0.19665907747E+03  0.77536417543E+02 -0.30678982633E+02  0.21360685563E+03  0.00000000000E+00 0.  1.
         13    1    5    5    0    0  0.29387951327E+02 -0.44580897764E+03 -0.67216995766E+01  0.44682712258E+03  0.00000000000E+00 0.  1.
        -13    1    5    5    0    0  0.11541418553E+02 -0.39154898573E+02  0.24939045630E+02  0.47835827801E+02  0.00000000000E+00 0. -1.
          1    1    6    6  503    0  0.24954017400E+03  0.84717917586E+02 -0.45685724868E+02  0.26745954733E+03  0.00000000000E+00 0. -1.
         -1    1    6    6    0  503  0.28020425675E+03  0.17581064629E+03  0.11250619127E+02  0.33098396529E+03  0.00000000000E+00 0.  1.
<mgrwt>
<rscale>  0 0.17295541E+04</rscale>
<asrwt>0</asrwt>
<pdfrwt beam="1">  1        2 0.15079449E+00 0.17295541E+04</pdfrwt>
<pdfrwt beam="2">  1       -1 0.11738055E+00 0.17295541E+04</pdfrwt>
<totfact> 0.18361944E+01</totfact>
</mgrwt>
</event>
<event>
12    7  0.1606355E-007  0.1725850E+04  0.7818608E-02  0.8746757E-01
          2   -1    0    0  501    0  0.00000000000E+00  0.00000000000E+00  0.15192969628E+04  0.15192969628E+04  0.00000000000E+00 0. -1.
         -1   -1    0    0    0  501 -0.00000000000E+00 -0.00000000000E+00 -0.49012097225E+03  0.49012097225E+03  0.00000000000E+00 0.  1.
         24    2    1    2    0    0 -0.11426271099E+03 -0.47454627431E+03 -0.96308030798E+02  0.50422455551E+03  0.81957501158E+02 0.  0.
        254    2    1    2    0    0  0.11426271099E+03  0.47454627431E+03  0.11254840213E+04  0.15051933795E+04  0.87214832104E+03 0.  0.
         23    2    4    4    0    0 -0.26901892106E+03 -0.77383549660E+02  0.51317127472E+03  0.59154722039E+03  0.90686068917E+02 0.  0.
         23    2    4    4    0    0  0.38328163205E+03  0.55192982397E+03  0.61231274661E+03  0.91364615914E+03  0.91055282035E+02 0.  0.
          4    1    3    3  502    0 -0.56818317196E+02 -0.93867894141E+02 -0.27754789815E+02  0.11318052428E+03  0.00000000000E+00 0. -1.
         -3    1    3    3    0  502 -0.57444393795E+02 -0.38067838017E+03 -0.68553240983E+02  0.39104403122E+03  0.00000000000E+00 0.  1.
         13    1    5    5    0    0 -0.20509319085E+02  0.14978214282E+02  0.77447066955E+02  0.81504768280E+02  0.00000000000E+00 0.  1.
        -13    1    5    5    0    0 -0.24850960198E+03 -0.92361763941E+02  0.43572420777E+03  0.51004245211E+03  0.00000000000E+00 0. -1.
          4    1    6    6  503    0  0.34996134064E+03  0.52486034819E+03  0.59560029816E+03  0.86757768541E+03  0.00000000000E+00 0. -1.
         -4    1    6    6    0  503  0.33320291411E+02  0.27069475777E+02  0.16712448453E+02  0.46068473730E+02  0.00000000000E+00 0.  1.
<mgrwt>
<rscale>  0 0.17258497E+04</rscale>
<asrwt>0</asrwt>
<pdfrwt beam="1">  1        2 0.23373799E+00 0.17258497E+04</pdfrwt>
<pdfrwt beam="2">  1       -1 0.75403227E-01 0.17258497E+04</pdfrwt>
<totfact> 0.23681077E+01</totfact>
</mgrwt>
</event>
<event>
12    7  0.1606355E-007  0.1520139E+04  0.7818608E-02  0.8871170E-01
         -1   -1    0    0    0  501 -0.00000000000E+00  0.00000000000E+00  0.20160550094E+03  0.20160550094E+03  0.00000000000E+00 0.  1.
          2   -1    0    0  501    0  0.00000000000E+00 -0.00000000000E+00 -0.28655266201E+04  0.28655266201E+04  0.00000000000E+00 0. -1.
         24    2    1    2    0    0  0.24226948931E+03 -0.38612848444E+03 -0.12968438658E+04  0.13769850609E+04  0.80586189052E+02 0.  0.
        254    2    1    2    0    0 -0.24226948931E+03  0.38612848444E+03 -0.13670772534E+04  0.16901470601E+04  0.88312352259E+03 0.  0.
         23    2    4    4    0    0 -0.55190359338E+03  0.19056314602E+03 -0.64185871643E+03  0.87242515366E+03  0.90725673711E+02 0.  0.
         23    2    4    4    0    0  0.30963410407E+03  0.19556533842E+03 -0.72521853699E+03  0.81772190649E+03  0.92779900633E+02 0.  0.
          2    1    3    3  502    0  0.48290643487E+02 -0.46377834089E+02 -0.12879641141E+03  0.14515993020E+03  0.00000000000E+00 0. -1.
         -1    1    3    3    0  502  0.19397884582E+03 -0.33975065035E+03 -0.11680474544E+04  0.12318251307E+04  0.00000000000E+00 0.  1.
         13    1    5    5    0    0 -0.20650018683E+03  0.59169421232E+02 -0.17543317792E+03  0.27734481694E+03  0.00000000000E+00 0.  1.
        -13    1    5    5    0    0 -0.34540340655E+03  0.13139372479E+03 -0.46642553852E+03  0.59508033672E+03  0.00000000000E+00 0. -1.
          1    1    6    6  503    0  0.17312103140E+03  0.10663032387E+03 -0.30048828781E+03  0.36281417916E+03  0.00000000000E+00 0. -1.
         -1    1    6    6    0  503  0.13651307267E+03  0.88935014544E+02 -0.42473024918E+03  0.45490772733E+03  0.00000000000E+00 0.  1.
<mgrwt>
<rscale>  0 0.15201394E+04</rscale>
<asrwt>0</asrwt>
<pdfrwt beam="1">  1        2 0.44085024E+00 0.15201394E+04</pdfrwt>
<pdfrwt beam="2">  1       -1 0.31016232E-01 0.15201394E+04</pdfrwt>
<totfact> 0.22424662E+01</totfact>
</mgrwt>
</event>
<event>
12    7  0.1606355E-007  0.1455648E+04  0.7818608E-02  0.8914494E-01
          2   -1    0    0  501    0  0.00000000000E+00  0.00000000000E+00  0.88056036132E+03  0.88056036132E+03  0.00000000000E+00 0. -1.
         -1   -1    0    0    0  501 -0.00000000000E+00 -0.00000000000E+00 -0.60158011305E+03  0.60158011305E+03  0.00000000000E+00 0.  1.
         24    2    1    2    0    0 -0.30035448110E+03 -0.29981949125E+03  0.20289787847E+03  0.47711095971E+03  0.79767017840E+02 0.  0.
        254    2    1    2    0    0  0.30035448110E+03  0.29981949125E+03  0.76082369805E+02  0.10050295147E+04  0.90784979853E+03 0.  0.
         23    2    4    4    0    0  0.54157138404E+02  0.45548752672E+03  0.35842604201E+03  0.58918966466E+03  0.90957961255E+02 0.  0.
         23    2    4    4    0    0  0.24619734269E+03 -0.15566803546E+03 -0.28234367220E+03  0.41583985000E+03  0.91428457281E+02 0.  0.
          2    1    3    3  502    0 -0.12314318301E+03 -0.12203911752E+03  0.40178175881E+02  0.17796650118E+03  0.00000000000E+00 0. -1.
         -1    1    3    3    0  502 -0.17721129809E+03 -0.17778037374E+03  0.16271970259E+03  0.29914445853E+03  0.00000000000E+00 0.  1.
         13    1    5    5    0    0  0.68298377879E+02  0.27481535292E+03  0.18429456957E+03  0.33786481763E+03  0.00000000000E+00 0. -1.
        -13    1    5    5    0    0 -0.14141239475E+02  0.18067217380E+03  0.17413147244E+03  0.25132484703E+03  0.00000000000E+00 0.  1.
          3    1    6    6  503    0  0.15793924603E+03 -0.14777764572E+03 -0.19058707862E+03  0.28828193240E+03  0.00000000000E+00 0. -1.
         -3    1    6    6    0  503  0.88258096662E+02 -0.78903897458E+01 -0.91756593582E+02  0.12755791760E+03  0.00000000000E+00 0.  1.
<mgrwt>
<rscale>  0 0.14556478E+04</rscale>
<asrwt>0</asrwt>
<pdfrwt beam="1">  1        2 0.13547082E+00 0.14556478E+04</pdfrwt>
<pdfrwt beam="2">  1       -1 0.92550787E-01 0.14556478E+04</pdfrwt>
<totfact> 0.37984344E+01</totfact>
</mgrwt>
</event>
<event>
12    7  0.1606355E-007  0.1367460E+04  0.7818608E-02  0.8977716E-01
         -1   -1    0    0    0  501 -0.00000000000E+00  0.00000000000E+00  0.24366783785E+03  0.24366783785E+03  0.00000000000E+00 0.  1.
          2   -1    0    0  501    0  0.00000000000E+00 -0.00000000000E+00 -0.19185402091E+04  0.19185402091E+04  0.00000000000E+00 0. -1.
         24    2    1    2    0    0 -0.10620778457E+03 -0.39420724260E+02  0.95763182635E+02  0.16858538421E+03  0.80102169859E+02 0.  0.
        254    2    1    2    0    0  0.10620778457E+03  0.39420724260E+02 -0.17706355539E+04  0.19936226628E+04  0.90914628622E+03 0.  0.
         23    2    4    4    0    0 -0.25400618442E+03  0.13252237278E+03 -0.16488478802E+03  0.34284751529E+03  0.90973097158E+02 0.  0.
         23    2    4    4    0    0  0.36021396899E+03 -0.93101648520E+02 -0.16057507659E+04  0.16507751475E+04  0.90559621216E+02 0.  0.
          4    1    3    3  502    0 -0.58017608245E+02 -0.57865396410E+02  0.35642529432E+02  0.89357914437E+02  0.00000000000E+00 0. -1.
         -3    1    3    3    0  502 -0.48190176321E+02  0.18444672150E+02  0.60120653203E+02  0.79227469769E+02  0.00000000000E+00 0.  1.
         13    1    5    5    0    0 -0.61493196666E+02  0.74342004674E+02 -0.76694438957E+02  0.12324846393E+03  0.00000000000E+00 0.  1.
        -13    1    5    5    0    0 -0.19251298775E+03  0.58180368107E+02 -0.88190349061E+02  0.21959905135E+03  0.00000000000E+00 0. -1.
          4    1    6    6  503    0  0.19716235462E+03 -0.93617094169E+02 -0.99278303002E+03  0.10164916621E+04  0.00000000000E+00 0. -1.
         -4    1    6    6    0  503  0.16305161436E+03  0.51544564885E+00 -0.61296773586E+03  0.63428348539E+03  0.00000000000E+00 0.  1.
<mgrwt>
<rscale>  0 0.13674598E+04</rscale>
<asrwt>0</asrwt>
<pdfrwt beam="1">  1        2 0.29516001E+00 0.13674598E+04</pdfrwt>
<pdfrwt beam="2">  1       -1 0.37487362E-01 0.13674598E+04</pdfrwt>
<totfact> 0.56521328E+01</totfact>
</mgrwt>
</event>
<event>
12    7  0.1606355E-007  0.1960288E+04  0.7818608E-02  0.8625416E-01
         -1   -1    0    0    0  501 -0.00000000000E+00  0.00000000000E+00  0.82167466845E+03  0.82167466845E+03  0.00000000000E+00 0.  1.
          2   -1    0    0  501    0  0.00000000000E+00 -0.00000000000E+00 -0.11691754649E+04  0.11691754649E+04  0.00000000000E+00 0. -1.
         24    2    1    2    0    0 -0.34642450386E+03  0.28318218273E+03  0.50268460744E+03  0.67762858628E+03  0.79288087971E+02 0.  0.
        254    2    1    2    0    0  0.34642450386E+03 -0.28318218273E+03 -0.85018540387E+03  0.13132215471E+04  0.89528404721E+03 0.  0.
         23    2    4    4    0    0 -0.16708234987E+02 -0.46021925966E+03 -0.13699358568E+03  0.48885413503E+03  0.90167570329E+02 0.  0.
         23    2    4    4    0    0  0.36313273885E+03  0.17703707693E+03 -0.71319181819E+03  0.82436741202E+03  0.87929220639E+02 0.  0.
          2    1    3    3  502    0 -0.15918591260E+01  0.41119553510E+00 -0.29863176020E+01  0.34089866625E+01  0.00000000000E+00 0. -1.
         -1    1    3    3    0  502 -0.34483264473E+03  0.28277098720E+03  0.50567092505E+03  0.67421959962E+03  0.00000000000E+00 0.  1.
         13    1    5    5    0    0  0.28006156921E+02 -0.27891122255E+03 -0.10532159326E+03  0.29944691165E+03  0.00000000000E+00 0. -1.
        -13    1    5    5    0    0 -0.44714391908E+02 -0.18130803711E+03 -0.31671992424E+02  0.18940722338E+03  0.00000000000E+00 0.  1.
          1    1    6    6  503    0  0.34518637384E+03  0.18499162095E+03 -0.65727768440E+03  0.76510750023E+03  0.00000000000E+00 0. -1.
         -1    1    6    6    0  503  0.17946365008E+02 -0.79545440212E+01 -0.55914133794E+02  0.59259911791E+02  0.00000000000E+00 0.  1.
<mgrwt>
<rscale>  0 0.19602876E+04</rscale>
<asrwt>0</asrwt>
<pdfrwt beam="1">  1        2 0.17987315E+00 0.19602876E+04</pdfrwt>
<pdfrwt beam="2">  1       -1 0.12641149E+00 0.19602876E+04</pdfrwt>
<totfact> 0.11432355E+01</totfact>
</mgrwt>
</event>
<event>
12    7  0.1606355E-007  0.1544905E+04  0.7818608E-02  0.8855128E-01
          2   -1    0    0  501    0  0.00000000000E+00  0.00000000000E+00  0.68707276976E+03  0.68707276976E+03  0.00000000000E+00 0. -1.
         -1   -1    0    0    0  501 -0.00000000000E+00 -0.00000000000E+00 -0.86844254192E+03  0.86844254192E+03  0.00000000000E+00 0.  1.
         24    2    1    2    0    0  0.24492679198E+03 -0.30356709806E+03  0.26896063019E+03  0.48090574192E+03  0.82391720215E+02 0.  0.
        254    2    1    2    0    0 -0.24492679198E+03  0.30356709806E+03 -0.45033040235E+03  0.10746095698E+04  0.89434117634E+03 0.  0.
         23    2    4    4    0    0  0.26775143999E+02  0.57354187083E+03 -0.25503228559E+03  0.63475878981E+03  0.90609428956E+02 0.  0.
         23    2    4    4    0    0 -0.27170193598E+03 -0.26997477277E+03 -0.19529811676E+03  0.43985077996E+03  0.92838754182E+02 0.  0.
          4    1    3    3  502    0  0.15197486423E+03 -0.12700319752E+03  0.15157318106E+03  0.24940048267E+03  0.00000000000E+00 0. -1.
         -3    1    3    3    0  502  0.92951927751E+02 -0.17656390054E+03  0.11738744913E+03  0.23150525925E+03  0.00000000000E+00 0.  1.
         13    1    5    5    0    0  0.33754360138E+02  0.78539018122E+02 -0.26461106580E+02  0.89487006640E+02  0.00000000000E+00 0. -1.
        -13    1    5    5    0    0 -0.69792161389E+01  0.49500285270E+03 -0.22857117901E+03  0.54527178317E+03  0.00000000000E+00 0.  1.
          4    1    6    6  503    0 -0.11383396905E+03 -0.13704636676E+03 -0.13889849644E+03  0.22590412007E+03  0.00000000000E+00 0. -1.
         -4    1    6    6    0  503 -0.15786796694E+03 -0.13292840600E+03 -0.56399620319E+02  0.21394665989E+03  0.00000000000E+00 0.  1.
<mgrwt>
<rscale>  0 0.15449055E+04</rscale>
<asrwt>0</asrwt>
<pdfrwt beam="1">  1        2 0.10570350E+00 0.15449055E+04</pdfrwt>
<pdfrwt beam="2">  1       -1 0.13360654E+00 0.15449055E+04</pdfrwt>
<totfact> 0.21830827E+01</totfact>
</mgrwt>
</event>
<event>
12    7  0.1606355E-007  0.1805197E+04  0.7818608E-02  0.8703540E-01
         -1   -1    0    0    0  501 -0.00000000000E+00  0.00000000000E+00  0.12056813986E+04  0.12056813986E+04  0.00000000000E+00 0.  1.
          2   -1    0    0  501    0  0.00000000000E+00 -0.00000000000E+00 -0.67570461475E+03  0.67570461475E+03  0.00000000000E+00 0. -1.
         24    2    1    2    0    0  0.10165253438E+03  0.28055980514E+02  0.90201072079E+03  0.91163896589E+03  0.79635971262E+02 0.  0.
        254    2    1    2    0    0 -0.10165253438E+03 -0.28055980514E+02 -0.37203393692E+03  0.96974704748E+03  0.88931417963E+03 0.  0.
         23    2    4    4    0    0  0.10397414226E+03 -0.38975385071E+03 -0.35302047500E+03  0.54373904956E+03  0.91159266427E+02 0.  0.
         23    2    4    4    0    0 -0.20562667663E+03  0.36169787019E+03 -0.19013461921E+02  0.42600799791E+03  0.89518842185E+02 0.  0.
          4    1    3    3  502    0  0.31032259891E+01  0.22988763009E+02  0.35800340798E+03  0.35875416843E+03  0.00000000000E+00 0. -1.
         -3    1    3    3    0  502  0.98549308388E+02  0.50672175044E+01  0.54400731281E+03  0.55288479746E+03  0.00000000000E+00 0.  1.
         13    1    5    5    0    0  0.11678519424E+03 -0.31164132403E+03 -0.30319440883E+03  0.45020655923E+03  0.00000000000E+00 0.  1.
        -13    1    5    5    0    0 -0.12811051983E+02 -0.78112526681E+02 -0.49826066173E+02  0.93532490331E+02  0.00000000000E+00 0. -1.
          4    1    6    6  503    0 -0.23795857580E+02  0.12257332056E+03  0.18994967111E+01  0.12487621806E+03  0.00000000000E+00 0. -1.
         -4    1    6    6    0  503 -0.18183081905E+03  0.23912454964E+03 -0.20912958632E+02  0.30113177985E+03  0.00000000000E+00 0.  1.
<mgrwt>
<rscale>  0 0.18051975E+04</rscale>
<asrwt>0</asrwt>
<pdfrwt beam="1">  1        2 0.10395456E+00 0.18051975E+04</pdfrwt>
<pdfrwt beam="2">  1       -1 0.18548945E+00 0.18051975E+04</pdfrwt>
<totfact> 0.87769657E+00</totfact>
</mgrwt>
</event>
<event>
12    7  0.1606355E-007  0.1529311E+04  0.7818608E-02  0.8865192E-01
         -1   -1    0    0    0  501 -0.00000000000E+00  0.00000000000E+00  0.16266252238E+03  0.16266252238E+03  0.00000000000E+00 0.  1.
          2   -1    0    0  501    0  0.00000000000E+00 -0.00000000000E+00 -0.35945444678E+04  0.35945444678E+04  0.00000000000E+00 0. -1.
         24    2    1    2    0    0 -0.46797061887E+03  0.84396270494E+02 -0.14653770529E+04  0.15426951600E+04  0.80369265547E+02 0.  0.
        254    2    1    2    0    0  0.46797061887E+03 -0.84396270494E+02 -0.19665048925E+04  0.22145118301E+04  0.90044540269E+03 0.  0.
         23    2    4    4    0    0  0.43718452022E+03 -0.88641296179E+02 -0.20423754152E+04  0.20925090765E+04  0.91155442113E+02 0.  0.
         23    2    4    4    0    0  0.30786098652E+02  0.42450256847E+01  0.75870522734E+02  0.12200275364E+03  0.90346729667E+02 0.  0.
          2    1    3    3  502    0 -0.16647016512E+03  0.54567896360E+02 -0.63704829886E+03  0.66069698521E+03  0.00000000000E+00 0. -1.
         -1    1    3    3    0  502 -0.30150045375E+03  0.29828374134E+02 -0.82832875406E+03  0.88199817478E+03  0.00000000000E+00 0.  1.
         13    1    5    5    0    0  0.32592672857E+03 -0.10488670220E+03 -0.14952450248E+04  0.15339449588E+04  0.00000000000E+00 0. -1.
        -13    1    5    5    0    0  0.11125779165E+03  0.16245406022E+02 -0.54713039043E+03  0.55856411767E+03  0.00000000000E+00 0.  1.
          3    1    6    6  503    0  0.17098772840E+02 -0.14514936148E+02  0.91370285108E+02  0.94082837993E+02  0.00000000000E+00 0. -1.
         -3    1    6    6    0  503  0.13687325813E+02  0.18759961833E+02 -0.15499762374E+02  0.27919915643E+02  0.00000000000E+00 0.  1.
<mgrwt>
<rscale>  0 0.15293105E+04</rscale>
<asrwt>0</asrwt>
<pdfrwt beam="1">  1        2 0.55300678E+00 0.15293105E+04</pdfrwt>
<pdfrwt beam="2">  1       -1 0.25025006E-01 0.15293105E+04</pdfrwt>
<totfact> 0.10855197E+01</totfact>
</mgrwt>
</event>
<event>
12    7  0.1606355E-007  0.1616223E+04  0.7818608E-02  0.8810643E-01
         -1   -1    0    0    0  501 -0.00000000000E+00  0.00000000000E+00  0.90263733352E+03  0.90263733352E+03  0.00000000000E+00 0.  1.
          2   -1    0    0  501    0  0.00000000000E+00 -0.00000000000E+00 -0.72348458479E+03  0.72348458479E+03  0.00000000000E+00 0. -1.
         24    2    1    2    0    0  0.25602638389E+03 -0.40958395181E+03  0.24003877395E+03  0.54565987413E+03  0.82568531545E+02 0.  0.
        254    2    1    2    0    0 -0.25602638389E+03  0.40958395181E+03 -0.60886025225E+02  0.10804620442E+04  0.96456342354E+03 0.  0.
         23    2    4    4    0    0 -0.58967600687E+02  0.32236176465E+03  0.42271524208E+03  0.54263004845E+03  0.91459872916E+02 0.  0.
         23    2    4    4    0    0 -0.19705878320E+03  0.87222187165E+02 -0.48360126731E+03  0.53783199574E+03  0.94621329151E+02 0.  0.
          2    1    3    3  502    0  0.56339286088E+02 -0.72797127970E+02  0.82524632963E+02  0.12362787729E+03  0.00000000000E+00 0. -1.
         -1    1    3    3    0  502  0.19968709780E+03 -0.33678682384E+03  0.15751414099E+03  0.42203199684E+03  0.00000000000E+00 0.  1.
         13    1    5    5    0    0 -0.13316725806E+02 -0.64324142789E+00  0.10614818239E+02  0.17041810701E+02  0.00000000000E+00 0.  1.
        -13    1    5    5    0    0 -0.45650874881E+02  0.32300500608E+03  0.41210042384E+03  0.52558823775E+03  0.00000000000E+00 0. -1.
          1    1    6    6  503    0 -0.19050096158E+03  0.56463707686E+02 -0.44942453111E+03  0.49138699190E+03  0.00000000000E+00 0. -1.
         -1    1    6    6    0  503 -0.65578216184E+01  0.30758479479E+02 -0.34176736200E+02  0.46445003838E+02  0.00000000000E+00 0.  1.
<mgrwt>
<rscale>  0 0.16162230E+04</rscale>
<asrwt>0</asrwt>
<pdfrwt beam="1">  1        2 0.11130532E+00 0.16162230E+04</pdfrwt>
<pdfrwt beam="2">  1       -1 0.13886728E+00 0.16162230E+04</pdfrwt>
<totfact> 0.18398642E+01</totfact>
</mgrwt>
</event>
<event>
12    7  0.1606355E-007  0.1896371E+04  0.7818608E-02  0.8656665E-01
          2   -1    0    0  501    0  0.00000000000E+00  0.00000000000E+00  0.14379742242E+04  0.14379742242E+04  0.00000000000E+00 0. -1.
         -1   -1    0    0    0  501 -0.00000000000E+00 -0.00000000000E+00 -0.62522362162E+03  0.62522362162E+03  0.00000000000E+00 0.  1.
         24    2    1    2    0    0 -0.48879544007E+03  0.44485344833E+03 -0.23354927888E+02  0.66630774146E+03  0.81271033887E+02 0.  0.
        254    2    1    2    0    0  0.48879544007E+03 -0.44485344833E+03  0.83610553045E+03  0.13968901043E+04  0.90300273136E+03 0.  0.
         23    2    4    4    0    0  0.47671345037E+03 -0.69758049512E+03  0.62695032639E+03  0.10559966904E+04  0.90487775424E+02 0.  0.
         23    2    4    4    0    0  0.12081989699E+02  0.25272704679E+03  0.20915520405E+03  0.34089341391E+03  0.91899323223E+02 0.  0.
          4    1    3    3  502    0 -0.18038467168E+03  0.11728170644E+03  0.79686993255E+01  0.21530705658E+03  0.00000000000E+00 0. -1.
         -3    1    3    3    0  502 -0.30841076838E+03  0.32757174189E+03 -0.31323627214E+02  0.45100068488E+03  0.00000000000E+00 0.  1.
         13    1    5    5    0    0  0.31587849782E+02 -0.18297075469E+02  0.38698285804E+02  0.53198990110E+02  0.00000000000E+00 0.  1.
        -13    1    5    5    0    0  0.44512560059E+03 -0.67928341965E+03  0.58825204059E+03  0.10027977003E+04  0.00000000000E+00 0. -1.
          4    1    6    6  503    0  0.29856262754E+02  0.23663013510E+03  0.20867662745E+03  0.31690874413E+03  0.00000000000E+00 0. -1.
         -4    1    6    6    0  503 -0.17774273055E+02  0.16096911695E+02  0.47857659890E+00  0.23984669777E+02  0.00000000000E+00 0.  1.
<mgrwt>
<rscale>  0 0.18963707E+04</rscale>
<asrwt>0</asrwt>
<pdfrwt beam="1">  1        2 0.22122680E+00 0.18963707E+04</pdfrwt>
<pdfrwt beam="2">  1       -1 0.96188250E-01 0.18963707E+04</pdfrwt>
<totfact> 0.15301445E+01</totfact>
</mgrwt>
</event>
<event>
12    7  0.1606355E-007  0.1180257E+04  0.7818608E-02  0.9130316E-01
         -1   -1    0    0    0  501 -0.00000000000E+00  0.00000000000E+00  0.62535882106E+03  0.62535882106E+03  0.00000000000E+00 0.  1.
          2   -1    0    0  501    0  0.00000000000E+00 -0.00000000000E+00 -0.55688256300E+03  0.55688256300E+03  0.00000000000E+00 0. -1.
         24    2    1    2    0    0 -0.12338490789E+03 -0.10908931514E+03 -0.15756126824E+03  0.24323639093E+03  0.84935707755E+02 0.  0.
        254    2    1    2    0    0  0.12338490789E+03  0.10908931514E+03  0.22603752630E+03  0.93900499312E+03  0.89638892208E+03 0.  0.
         23    2    4    4    0    0  0.82318514582E+02  0.11393676972E+03  0.56290446553E+03  0.58751464889E+03  0.92488377678E+02 0.  0.
         23    2    4    4    0    0  0.41066393312E+02 -0.48474545772E+01 -0.33686693924E+03  0.35149034423E+03  0.91412148328E+02 0.  0.
          2    1    3    3  502    0 -0.50006934198E+02 -0.31792650245E+02 -0.11324299074E+03  0.12781017576E+03  0.00000000000E+00 0. -1.
         -1    1    3    3    0  502 -0.73377973696E+02 -0.77296664897E+02 -0.44318277499E+02  0.11542621517E+03  0.00000000000E+00 0.  1.
         13    1    5    5    0    0  0.93939895720E+02  0.10069079360E+03  0.54599262780E+03  0.56309083595E+03  0.00000000000E+00 0. -1.
        -13    1    5    5    0    0 -0.11621381137E+02  0.13245976116E+02  0.16911837736E+02  0.24423812938E+02  0.00000000000E+00 0.  1.
          1    1    6    6  503    0  0.39250655234E+02  0.57393953221E+01 -0.33833194803E+03  0.34064947036E+03  0.00000000000E+00 0. -1.
         -1    1    6    6    0  503  0.18157380783E+01 -0.10586849899E+02  0.14650087976E+01  0.10840873873E+02  0.00000000000E+00 0.  1.
<mgrwt>
<rscale>  0 0.11802566E+04</rscale>
<asrwt>0</asrwt>
<pdfrwt beam="1">  1        2 0.85674240E-01 0.11802566E+04</pdfrwt>
<pdfrwt beam="2">  1       -1 0.96209050E-01 0.11802566E+04</pdfrwt>
<totfact> 0.63792086E+01</totfact>
</mgrwt>
</event>
<event>
12    7  0.1606355E-007  0.1323707E+04  0.7818608E-02  0.9010973E-01
         -1   -1    0    0    0  501 -0.00000000000E+00  0.00000000000E+00  0.18788450731E+03  0.18788450731E+03  0.00000000000E+00 0.  1.
          2   -1    0    0  501    0  0.00000000000E+00 -0.00000000000E+00 -0.23314872815E+04  0.23314872815E+04  0.00000000000E+00 0. -1.
         24    2    1    2    0    0  0.62608500356E+02 -0.13125476230E+03  0.23133935207E+02  0.16793197518E+03  0.80736190065E+02 0.  0.
        254    2    1    2    0    0 -0.62608500356E+02  0.13125476230E+03 -0.21667367094E+04  0.23514398137E+04  0.90187227055E+03 0.  0.
         23    2    4    4    0    0 -0.76055693133E+02  0.37481863549E+03 -0.38501868504E+03  0.55080288377E+03  0.94185725945E+02 0.  0.
         23    2    4    4    0    0  0.13447192777E+02 -0.24356387318E+03 -0.17817180244E+04  0.18006369299E+04  0.90939801948E+02 0.  0.
          2    1    3    3  502    0 -0.18989553571E+02 -0.21777052266E+02  0.10754918335E+02  0.30830365204E+02  0.00000000000E+00 0. -1.
         -1    1    3    3    0  502  0.81598053927E+02 -0.10947771004E+03  0.12379016872E+02  0.13710160998E+03  0.00000000000E+00 0.  1.
         13    1    5    5    0    0 -0.80861017994E+01 -0.32418206573E+01 -0.34354045224E+01  0.93646381520E+01  0.00000000000E+00 0. -1.
        -13    1    5    5    0    0 -0.67969591334E+02  0.37806045614E+03 -0.38158328052E+03  0.54143824562E+03  0.00000000000E+00 0.  1.
          1    1    6    6  503    0  0.11817866341E+02 -0.19193057434E+01 -0.29542566192E+02  0.31876463364E+02  0.00000000000E+00 0. -1.
         -1    1    6    6    0  503  0.16293264366E+01 -0.24164456744E+03 -0.17521754582E+04  0.17687604665E+04  0.00000000000E+00 0.  1.
<mgrwt>
<rscale>  0 0.13237074E+04</rscale>
<asrwt>0</asrwt>
<pdfrwt beam="1">  1        2 0.35869037E+00 0.13237074E+04</pdfrwt>
<pdfrwt beam="2">  1       -1 0.28905308E-01 0.13237074E+04</pdfrwt>
<totfact> 0.52967977E+01</totfact>
</mgrwt>
</event>
<event>
12    7  0.1606355E-007  0.3017700E+04  0.7818608E-02  0.8238694E-01
          2   -1    0    0  501    0  0.00000000000E+00  0.00000000000E+00  0.42430906334E+04  0.42430906334E+04  0.00000000000E+00 0. -1.
         -1   -1    0    0    0  501 -0.00000000000E+00 -0.00000000000E+00 -0.53654962197E+03  0.53654962197E+03  0.00000000000E+00 0.  1.
         24    2    1    2    0    0  0.52853087662E+03 -0.71789157911E+03  0.34431477248E+02  0.89583248109E+03  0.81345563192E+02 0.  0.
        254    2    1    2    0    0 -0.52853087662E+03  0.71789157911E+03  0.36721095342E+04  0.38838077743E+04  0.89714056292E+03 0.  0.
         23    2    4    4    0    0  0.22348297743E+03  0.54351785821E+02  0.94035604267E+03  0.97225294278E+03  0.90041878814E+02 0.  0.
         23    2    4    4    0    0 -0.75201385405E+03  0.66353979329E+03  0.27317534915E+04  0.29115548315E+04  0.94151497510E+02 0.  0.
          2    1    3    3  502    0  0.12496435266E+03 -0.14957565737E+03  0.39087311490E+02  0.19878829099E+03  0.00000000000E+00 0. -1.
         -1    1    3    3    0  502  0.40356652396E+03 -0.56831592174E+03 -0.46558342420E+01  0.69704419010E+03  0.00000000000E+00 0.  1.
         13    1    5    5    0    0  0.19670008143E+03  0.77030716104E+02  0.77982656793E+03  0.80793200785E+03  0.00000000000E+00 0.  1.
        -13    1    5    5    0    0  0.26782895995E+02 -0.22678930283E+02  0.16052947473E+03  0.16432093493E+03  0.00000000000E+00 0. -1.
          1    1    6    6  503    0 -0.39646217474E+02  0.12767232009E+02  0.13806634393E+03  0.14421213576E+03  0.00000000000E+00 0. -1.
         -1    1    6    6    0  503 -0.71236763657E+03  0.65077256128E+03  0.25936871476E+04  0.27673426958E+04  0.00000000000E+00 0.  1.
<mgrwt>
<rscale>  0 0.30177002E+04</rscale>
<asrwt>0</asrwt>
<pdfrwt beam="1">  1        2 0.65278315E+00 0.30177002E+04</pdfrwt>
<pdfrwt beam="2">  1       -1 0.82546098E-01 0.30177002E+04</pdfrwt>
<totfact> 0.30173709E-01</totfact>
</mgrwt>
</event>
<event>
12    7  0.1606355E-007  0.1172375E+04  0.7818608E-02  0.9137386E-01
          2   -1    0    0  501    0  0.00000000000E+00  0.00000000000E+00  0.41140303876E+03  0.41140303876E+03  0.00000000000E+00 0. -1.
         -1   -1    0    0    0  501 -0.00000000000E+00 -0.00000000000E+00 -0.83522943753E+03  0.83522943753E+03  0.00000000000E+00 0.  1.
         24    2    1    2    0    0 -0.12371473146E+03 -0.20148547060E+03 -0.14285880047E+03  0.28766514966E+03  0.80255042282E+02 0.  0.
        254    2    1    2    0    0  0.12371473146E+03  0.20148547060E+03 -0.28096759830E+03  0.95896732663E+03  0.88587460320E+03 0.  0.
         23    2    4    4    0    0 -0.11591300015E+03 -0.25549646864E+03 -0.31791233087E+03  0.43368286636E+03  0.91095056754E+02 0.  0.
         23    2    4    4    0    0  0.23962773161E+03  0.45698193924E+03  0.36944732573E+02  0.52528446026E+03  0.91131270030E+02 0.  0.
          4    1    3    3  502    0 -0.52297699759E+02 -0.14900032933E+03 -0.69139336134E+02  0.17238444055E+03  0.00000000000E+00 0. -1.
         -3    1    3    3    0  502 -0.71417031701E+02 -0.52485141269E+02 -0.73719464339E+02  0.11528070911E+03  0.00000000000E+00 0.  1.
         13    1    5    5    0    0 -0.69636574147E+01 -0.10337848194E+03 -0.79406318293E+02  0.13054105269E+03  0.00000000000E+00 0.  1.
        -13    1    5    5    0    0 -0.10894934273E+03 -0.15211798670E+03 -0.23850601258E+03  0.30314181367E+03  0.00000000000E+00 0. -1.
          4    1    6    6  503    0  0.16865756662E+03  0.37701735514E+03  0.27448071431E+01  0.41303146953E+03  0.00000000000E+00 0. -1.
         -4    1    6    6    0  503  0.70970164988E+02  0.79964584108E+02  0.34199925430E+02  0.11225299074E+03  0.00000000000E+00 0.  1.
<mgrwt>
<rscale>  0 0.11723752E+04</rscale>
<asrwt>0</asrwt>
<pdfrwt beam="1">  1        2 0.63292775E-01 0.11723752E+04</pdfrwt>
<pdfrwt beam="2">  1       -1 0.12849684E+00 0.11723752E+04</pdfrwt>
<totfact> 0.45523385E+01</totfact>
</mgrwt>
</event>
<event>
12    7  0.1606355E-007  0.1829540E+04  0.7818608E-02  0.8690747E-01
          2   -1    0    0  501    0  0.00000000000E+00  0.00000000000E+00  0.15255431693E+04  0.15255431693E+04  0.00000000000E+00 0. -1.
         -1   -1    0    0    0  501 -0.00000000000E+00 -0.00000000000E+00 -0.54852839565E+03  0.54852839565E+03  0.00000000000E+00 0.  1.
         24    2    1    2    0    0  0.65021431295E+03  0.94422058277E+02  0.11241737261E+03  0.67142343511E+03  0.80483449822E+02 0.  0.
        254    2    1    2    0    0 -0.65021431295E+03 -0.94422058277E+02  0.86459740108E+03  0.14026481299E+04  0.88780568396E+03 0.  0.
         23    2    4    4    0    0 -0.44968221206E+03 -0.39486115106E+03  0.19403294826E+03  0.63574777084E+03  0.91635269738E+02 0.  0.
         23    2    4    4    0    0 -0.20053210089E+03  0.30043909278E+03  0.67056445282E+03  0.76690035905E+03  0.89457830096E+02 0.  0.
          4    1    3    3  502    0  0.64938321759E+01 -0.78015282206E+01  0.13113239039E+01  0.10234904459E+02  0.00000000000E+00 0. -1.
         -3    1    3    3    0  502  0.64372048077E+03  0.10222358650E+03  0.11110604871E+03  0.66118853065E+03  0.00000000000E+00 0.  1.
         13    1    5    5    0    0 -0.40979911305E+03 -0.37907865204E+03  0.19881356505E+03  0.59258988444E+03  0.00000000000E+00 0. -1.
        -13    1    5    5    0    0 -0.39883099007E+02 -0.15782499013E+02 -0.47806167892E+01  0.43157886399E+02  0.00000000000E+00 0.  1.
          1    1    6    6  503    0 -0.19925865579E+03  0.26054716979E+03  0.55551643709E+03  0.64512584158E+03  0.00000000000E+00 0. -1.
         -1    1    6    6    0  503 -0.12734451040E+01  0.39891922986E+02  0.11504801573E+03  0.12177451748E+03  0.00000000000E+00 0.  1.
<mgrwt>
<rscale>  0 0.18295396E+04</rscale>
<asrwt>0</asrwt>
<pdfrwt beam="1">  1        2 0.23469895E+00 0.18295396E+04</pdfrwt>
<pdfrwt beam="2">  1       -1 0.84388984E-01 0.18295396E+04</pdfrwt>
<totfact> 0.18325455E+01</totfact>
</mgrwt>
</event>
<event>
12    7  0.1606355E-007  0.1243866E+04  0.7818608E-02  0.9075304E-01
          2   -1    0    0  501    0  0.00000000000E+00  0.00000000000E+00  0.13096010854E+04  0.13096010854E+04  0.00000000000E+00 0. -1.
         -1   -1    0    0    0  501 -0.00000000000E+00 -0.00000000000E+00 -0.29535766548E+03  0.29535766548E+03  0.00000000000E+00 0.  1.
         24    2    1    2    0    0  0.11338402048E+02  0.24690215498E+03  0.51016916502E+02  0.26478941206E+03  0.80134096836E+02 0.  0.
        254    2    1    2    0    0 -0.11338402048E+02 -0.24690215498E+03  0.96322650340E+03  0.13401693388E+04  0.89842046188E+03 0.  0.
         23    2    4    4    0    0  0.35268274610E+03 -0.21498086522E+02  0.78752744406E+03  0.86795237870E+03  0.91074526741E+02 0.  0.
         23    2    4    4    0    0 -0.36402114815E+03 -0.22540406845E+03  0.17569905935E+03  0.47221696011E+03  0.93809954620E+02 0.  0.
          4    1    3    3  502    0  0.64161165909E+01 -0.38246575336E+01  0.68890679482E+01  0.10161388417E+02  0.00000000000E+00 0. -1.
         -3    1    3    3    0  502  0.49222854575E+01  0.25072681251E+03  0.44127848553E+02  0.25462802364E+03  0.00000000000E+00 0.  1.
         13    1    5    5    0    0  0.15268436225E+03  0.34663568646E+02  0.31437472330E+03  0.35120584295E+03  0.00000000000E+00 0.  1.
        -13    1    5    5    0    0  0.19999838385E+03 -0.56161655168E+02  0.47315272075E+03  0.51674653575E+03  0.00000000000E+00 0. -1.
          1    1    6    6  503    0 -0.15791300767E+03 -0.44618014238E+02  0.69487152158E+02  0.17820142957E+03  0.00000000000E+00 0. -1.
         -1    1    6    6    0  503 -0.20610814048E+03 -0.18078605422E+03  0.10621190719E+03  0.29401553054E+03  0.00000000000E+00 0.  1.
<mgrwt>
<rscale>  0 0.12438661E+04</rscale>
<asrwt>0</asrwt>
<pdfrwt beam="1">  1        2 0.20147709E+00 0.12438661E+04</pdfrwt>
<pdfrwt beam="2">  1       -1 0.45439642E-01 0.12438661E+04</pdfrwt>
<totfact> 0.87978501E+01</totfact>
</mgrwt>
</event>
<event>
12    7  0.1606355E-007  0.2422664E+04  0.7818608E-02  0.8431067E-01
          2   -1    0    0  501    0  0.00000000000E+00  0.00000000000E+00  0.99901181776E+03  0.99901181776E+03  0.00000000000E+00 0. -1.
         -1   -1    0    0    0  501 -0.00000000000E+00 -0.00000000000E+00 -0.14687760726E+04  0.14687760726E+04  0.00000000000E+00 0.  1.
         24    2    1    2    0    0  0.31456498115E+03 -0.23677516225E+03  0.76272356348E+03  0.86204701116E+03  0.79776000919E+02 0.  0.
        254    2    1    2    0    0 -0.31456498115E+03  0.23677516225E+03 -0.12324878183E+04  0.16057408792E+04  0.95098051716E+03 0.  0.
         23    2    4    4    0    0 -0.11963255997E+03  0.48863398904E+03 -0.25100196603E+03  0.56954256888E+03  0.91113260123E+02 0.  0.
         23    2    4    4    0    0 -0.19493242119E+03 -0.25185882679E+03 -0.98148585229E+03  0.10361983103E+04  0.94662255432E+02 0.  0.
          4    1    3    3  502    0  0.19100705539E+03 -0.94608299208E+02  0.41876790643E+03  0.46989465303E+03  0.00000000000E+00 0. -1.
         -3    1    3    3    0  502  0.12355792576E+03 -0.14216686304E+03  0.34395565706E+03  0.39215235813E+03  0.00000000000E+00 0.  1.
         13    1    5    5    0    0 -0.19303302577E+02  0.26847763095E+03 -0.13883534408E+03  0.30286648639E+03  0.00000000000E+00 0.  1.
        -13    1    5    5    0    0 -0.10032925739E+03  0.22015635809E+03 -0.11216662195E+03  0.26667608250E+03  0.00000000000E+00 0. -1.
          1    1    6    6  503    0 -0.58675307823E+01 -0.56950428113E+02 -0.23452388811E+03  0.24141092202E+03  0.00000000000E+00 0. -1.
         -1    1    6    6    0  503 -0.18906489040E+03 -0.19490839868E+03 -0.74696196419E+03  0.79478738830E+03  0.00000000000E+00 0.  1.
<mgrwt>
<rscale>  0 0.24226635E+04</rscale>
<asrwt>0</asrwt>
<pdfrwt beam="1">  1        2 0.15369413E+00 0.24226635E+04</pdfrwt>
<pdfrwt beam="2">  1       -1 0.22596555E+00 0.24226635E+04</pdfrwt>
<totfact> 0.25918265E+00</totfact>
</mgrwt>
</event>
<event>
12    7  0.1606355E-007  0.2160549E+04  0.7818608E-02  0.8535030E-01
          2   -1    0    0  501    0  0.00000000000E+00  0.00000000000E+00  0.21565502036E+04  0.21565502036E+04  0.00000000000E+00 0. -1.
         -3   -1    0    0    0  501 -0.00000000000E+00 -0.00000000000E+00 -0.54113871050E+03  0.54113871050E+03  0.00000000000E+00 0.  1.
         24    2    1    2    0    0  0.20809549154E+03  0.45772662346E+02 -0.40970894935E+03  0.46891446738E+03  0.81366358689E+02 0.  0.
        254    2    1    2    0    0 -0.20809549154E+03 -0.45772662346E+02  0.20251204424E+04  0.22287744467E+04  0.90604848532E+03 0.  0.
         23    2    4    4    0    0 -0.10625413332E+03  0.37770085120E+03  0.51450912369E+03  0.65387803396E+03  0.94281340139E+02 0.  0.
         23    2    4    4    0    0 -0.10184135822E+03 -0.42347351354E+03  0.15106113188E+04  0.15748964128E+04  0.93009008490E+02 0.  0.
          2    1    3    3  502    0  0.32222010542E+01  0.59256050896E+01  0.22427958311E+01  0.71081297436E+01  0.00000000000E+00 0. -1.
         -1    1    3    3    0  502  0.20487329048E+03  0.39847057256E+02 -0.41195174518E+03  0.46180633764E+03  0.00000000000E+00 0.  1.
         13    1    5    5    0    0 -0.61630597918E+02  0.17151554613E+03  0.31269964174E+03  0.36193504819E+03  0.00000000000E+00 0. -1.
        -13    1    5    5    0    0 -0.44623535401E+02  0.20618530507E+03  0.20180948195E+03  0.29194298577E+03  0.00000000000E+00 0.  1.
          3    1    6    6  503    0 -0.30299285095E+02 -0.46320982128E+02  0.11785928032E+03  0.13020940834E+03  0.00000000000E+00 0. -1.
         -3    1    6    6    0  503 -0.71542073125E+02 -0.37715253141E+03  0.13927520384E+04  0.14446870044E+04  0.00000000000E+00 0.  1.
<mgrwt>
<rscale>  0 0.21605488E+04</rscale>
<asrwt>0</asrwt>
<pdfrwt beam="1">  1        2 0.33177695E+00 0.21605488E+04</pdfrwt>
<pdfrwt beam="2">  1       -3 0.83252110E-01 0.21605488E+04</pdfrwt>
<totfact> 0.42604505E+00</totfact>
</mgrwt>
</event>
<event>
12    7  0.1606355E-007  0.2356784E+04  0.7818608E-02  0.8455863E-01
         -1   -1    0    0    0  501 -0.00000000000E+00  0.00000000000E+00  0.13061654662E+04  0.13061654662E+04  0.00000000000E+00 0.  1.
          2   -1    0    0  501    0  0.00000000000E+00 -0.00000000000E+00 -0.10631173456E+04  0.10631173456E+04  0.00000000000E+00 0. -1.
         24    2    1    2    0    0  0.70075132212E+03  0.68040684562E+03 -0.12636981071E+03  0.98831624192E+03  0.82424353054E+02 0.  0.
        254    2    1    2    0    0 -0.70075132212E+03 -0.68040684562E+03  0.36941793128E+03  0.13809665699E+04  0.90365544767E+03 0.  0.
         23    2    4    4    0    0 -0.65982258535E+03 -0.27132258569E+03 -0.12783745703E+03  0.72915392048E+03  0.79631869835E+02 0.  0.
         23    2    4    4    0    0 -0.40928736764E+02 -0.40908425993E+03  0.49725538831E+03  0.65181264938E+03  0.92583559400E+02 0.  0.
          4    1    3    3  502    0  0.25739409879E+03  0.24841898947E+03 -0.63663158806E+01  0.35777681087E+03  0.00000000000E+00 0. -1.
         -3    1    3    3    0  502  0.44335722332E+03  0.43198785615E+03 -0.12000349483E+03  0.63053943105E+03  0.00000000000E+00 0.  1.
         13    1    5    5    0    0 -0.57797791627E+03 -0.22082109905E+03 -0.87563965274E+02  0.62489029237E+03  0.00000000000E+00 0. -1.
        -13    1    5    5    0    0 -0.81844669081E+02 -0.50501486643E+02 -0.40273491753E+02  0.10426362812E+03  0.00000000000E+00 0.  1.
          4    1    6    6  503    0 -0.19931872161E+02 -0.29413144063E+03  0.28796492206E+03  0.41210967015E+03  0.00000000000E+00 0. -1.
         -4    1    6    6    0  503 -0.20996864603E+02 -0.11495281930E+03  0.20929046624E+03  0.23970297922E+03  0.00000000000E+00 0.  1.
<mgrwt>
<rscale>  0 0.23567835E+04</rscale>
<asrwt>0</asrwt>
<pdfrwt beam="1">  1        2 0.16355651E+00 0.23567835E+04</pdfrwt>
<pdfrwt beam="2">  1       -1 0.20094853E+00 0.23567835E+04</pdfrwt>
<totfact> 0.35034074E+00</totfact>
</mgrwt>
</event>
<event>
12    7  0.1606355E-007  0.3439967E+04  0.7818608E-02  0.8128166E-01
          2   -1    0    0  501    0  0.00000000000E+00  0.00000000000E+00  0.16184220378E+04  0.16184220378E+04  0.00000000000E+00 0. -1.
         -1   -1    0    0    0  501 -0.00000000000E+00 -0.00000000000E+00 -0.18279185355E+04  0.18279185355E+04  0.00000000000E+00 0.  1.
         24    2    1    2    0    0  0.66445303124E+03 -0.66157132716E+02 -0.15586857024E+04  0.16974751164E+04  0.77756382865E+02 0.  0.
        254    2    1    2    0    0 -0.66445303124E+03  0.66157132716E+02  0.13491892046E+04  0.17488654569E+04  0.89013722511E+03 0.  0.
         23    2    4    4    0    0  0.26843676194E+02 -0.24413945322E+03  0.70033246729E+03  0.74770133094E+03  0.90923374179E+02 0.  0.
         23    2    4    4    0    0 -0.69129670744E+03  0.31029658593E+03  0.64885673735E+03  0.10011641260E+04  0.84495163111E+02 0.  0.
          4    1    3    3  502    0  0.42120459770E+03 -0.52771497027E+02 -0.89720688597E+03  0.99256150452E+03  0.00000000000E+00 0. -1.
         -3    1    3    3    0  502  0.24324843354E+03 -0.13385635689E+02 -0.66147881638E+03  0.70491361186E+03  0.00000000000E+00 0.  1.
         13    1    5    5    0    0 -0.25334887165E+02 -0.40958686012E+02  0.86358319406E+02  0.98879875597E+02  0.00000000000E+00 0.  1.
        -13    1    5    5    0    0  0.52178563359E+02 -0.20318076720E+03  0.61397414789E+03  0.64882145534E+03  0.00000000000E+00 0. -1.
          3    1    6    6  503    0 -0.60536210614E+03  0.29742568383E+03  0.59096179275E+03  0.89675033172E+03  0.00000000000E+00 0. -1.
         -3    1    6    6    0  503 -0.85934601299E+02  0.12870902104E+02  0.57894944592E+02  0.10441379425E+03  0.00000000000E+00 0.  1.
<mgrwt>
<rscale>  0 0.34399672E+04</rscale>
<asrwt>0</asrwt>
<pdfrwt beam="1">  1        2 0.24898800E+00 0.34399672E+04</pdfrwt>
<pdfrwt beam="2">  1       -1 0.28121824E+00 0.34399672E+04</pdfrwt>
<totfact> 0.44735454E-01</totfact>
</mgrwt>
</event>
<event>
12    7  0.1606355E-007  0.1099080E+04  0.7818608E-02  0.9206089E-01
         -1   -1    0    0    0  501 -0.00000000000E+00  0.00000000000E+00  0.12451530254E+04  0.12451530254E+04  0.00000000000E+00 0.  1.
          2   -1    0    0  501    0  0.00000000000E+00 -0.00000000000E+00 -0.24253593626E+03  0.24253593626E+03  0.00000000000E+00 0. -1.
         24    2    1    2    0    0 -0.91200408352E+02 -0.89141679429E-01  0.31671821123E+03  0.33771127802E+03  0.73627165787E+02 0.  0.
        254    2    1    2    0    0  0.91200408352E+02  0.89141679429E-01  0.68589887790E+03  0.11499776836E+04  0.91851721798E+03 0.  0.
         23    2    4    4    0    0 -0.29815189266E+03 -0.18084553822E+03  0.60444671339E+03  0.70379402799E+03  0.91490681042E+02 0.  0.
         23    2    4    4    0    0  0.38935230101E+03  0.18093467990E+03  0.81452164509E+02  0.44618365564E+03  0.90071231615E+02 0.  0.
          4    1    3    3  502    0  0.47236392332E+00  0.20370012473E+02  0.32348287213E+02  0.38230514271E+02  0.00000000000E+00 0. -1.
         -3    1    3    3    0  502 -0.91672772276E+02 -0.20459154152E+02  0.28436992402E+03  0.29948076375E+03  0.00000000000E+00 0.  1.
         13    1    5    5    0    0 -0.29395511034E+03 -0.19006162014E+03  0.59200433536E+03  0.68775152448E+03  0.00000000000E+00 0.  1.
        -13    1    5    5    0    0 -0.41967823211E+01  0.92160819189E+01  0.12442378039E+02  0.16042503516E+02  0.00000000000E+00 0. -1.
          4    1    6    6  503    0  0.16490389016E+03  0.74418169961E+02  0.79804125081E+02  0.19773733939E+03  0.00000000000E+00 0. -1.
         -4    1    6    6    0  503  0.22444841085E+03  0.10651650994E+03  0.16480394284E+01  0.24844631625E+03  0.00000000000E+00 0.  1.
<mgrwt>
<rscale>  0 0.10990803E+04</rscale>
<asrwt>0</asrwt>
<pdfrwt beam="1">  1        2 0.37313222E-01 0.10990803E+04</pdfrwt>
<pdfrwt beam="2">  1       -1 0.19156200E+00 0.10990803E+04</pdfrwt>
<totfact> 0.27337449E+01</totfact>
</mgrwt>
</event>
<event>
12    7  0.1606355E-007  0.1677294E+04  0.7818608E-02  0.8774422E-01
          2   -1    0    0  501    0  0.00000000000E+00  0.00000000000E+00  0.24949199995E+04  0.24949199995E+04  0.00000000000E+00 0. -1.
         -1   -1    0    0    0  501 -0.00000000000E+00 -0.00000000000E+00 -0.28190419743E+03  0.28190419743E+03  0.00000000000E+00 0.  1.
         24    2    1    2    0    0  0.82959195862E+01  0.48536457924E+02  0.17667639960E+04  0.17688264912E+04  0.69767674902E+02 0.  0.
        254    2    1    2    0    0 -0.82959195862E+01 -0.48536457924E+02  0.44625180607E+03  0.10079977057E+04  0.90249326329E+03 0.  0.
         23    2    4    4    0    0 -0.32201481267E+03 -0.32944802642E+03  0.26613566312E+03  0.53944560235E+03  0.89128138240E+02 0.  0.
         23    2    4    4    0    0  0.31371889308E+03  0.28091156849E+03  0.18011614296E+03  0.46855210337E+03  0.98835193265E+02 0.  0.
          2    1    3    3  502    0  0.32860070994E+02  0.51039188182E+02  0.12538266964E+04  0.12552952512E+04  0.00000000000E+00 0. -1.
         -1    1    3    3    0  502 -0.24564151408E+02 -0.25027302571E+01  0.51293729960E+03  0.51353124006E+03  0.00000000000E+00 0.  1.
         13    1    5    5    0    0 -0.16427786411E+03 -0.12603473605E+03  0.15705287572E+03  0.25987992824E+03  0.00000000000E+00 0. -1.
        -13    1    5    5    0    0 -0.15773694856E+03 -0.20341329036E+03  0.10908278740E+03  0.27956567411E+03  0.00000000000E+00 0.  1.
          3    1    6    6  503    0  0.13542395973E+03  0.77414804159E+02  0.29023117893E+02  0.15866644934E+03  0.00000000000E+00 0. -1.
         -3    1    6    6    0  503  0.17829493335E+03  0.20349676433E+03  0.15109302506E+03  0.30988565403E+03  0.00000000000E+00 0.  1.
<mgrwt>
<rscale>  0 0.16772936E+04</rscale>
<asrwt>0</asrwt>
<pdfrwt beam="1">  1        2 0.38383383E+00 0.16772936E+04</pdfrwt>
<pdfrwt beam="2">  1       -1 0.43369878E-01 0.16772936E+04</pdfrwt>
<totfact> 0.19992960E+01</totfact>
</mgrwt>
</event>
<event>
12    7  0.1606355E-007  0.2570640E+04  0.7818608E-02  0.8378243E-01
         -1   -1    0    0    0  501 -0.00000000000E+00  0.00000000000E+00  0.36805111727E+03  0.36805111727E+03  0.00000000000E+00 0.  1.
          2   -1    0    0  501    0  0.00000000000E+00 -0.00000000000E+00 -0.44886368215E+04  0.44886368215E+04  0.00000000000E+00 0. -1.
         24    2    1    2    0    0  0.97842565728E+03  0.61765261474E+02 -0.28573853655E+04  0.30219167909E+04  0.78728964223E+02 0.  0.
        254    2    1    2    0    0 -0.97842565728E+03 -0.61765261474E+02 -0.12632003388E+04  0.18347711479E+04  0.89976572225E+03 0.  0.
         23    2    4    4    0    0 -0.76538322430E+03 -0.19890191148E+03 -0.32581884817E+03  0.86004175554E+03  0.90224436991E+02 0.  0.
         23    2    4    4    0    0 -0.21304243299E+03  0.13713665000E+03 -0.93738149059E+03  0.97472939235E+03  0.84969349685E+02 0.  0.
          2    1    3    3  502    0  0.85694555090E+03  0.27863927068E+02 -0.24952886767E+04  0.26384839692E+04  0.00000000000E+00 0. -1.
         -1    1    3    3    0  502  0.12148010639E+03  0.33901334406E+02 -0.36209668882E+03  0.38343282172E+03  0.00000000000E+00 0.  1.
         13    1    5    5    0    0 -0.42839092415E+03 -0.12128297325E+03 -0.23036141556E+03  0.50129305328E+03  0.00000000000E+00 0.  1.
        -13    1    5    5    0    0 -0.33699230015E+03 -0.77618938231E+02 -0.95457432608E+02  0.35874870226E+03  0.00000000000E+00 0. -1.
          4    1    6    6  503    0 -0.81895470434E+02  0.17798272740E+02 -0.40549862053E+03  0.41406856660E+03  0.00000000000E+00 0. -1.
         -4    1    6    6    0  503 -0.13114696255E+03  0.11933837726E+03 -0.53188287005E+03  0.56066082575E+03  0.00000000000E+00 0.  1.
<mgrwt>
<rscale>  0 0.25706402E+04</rscale>
<asrwt>0</asrwt>
<pdfrwt beam="1">  1        2 0.69055947E+00 0.25706402E+04</pdfrwt>
<pdfrwt beam="2">  1       -1 0.56623252E-01 0.25706402E+04</pdfrwt>
<totfact> 0.40382136E-01</totfact>
</mgrwt>
</event>
<event>
12    7  0.1606355E-007  0.1665745E+04  0.7818608E-02  0.8781146E-01
          2   -1    0    0  501    0  0.00000000000E+00  0.00000000000E+00  0.90650341590E+03  0.90650341590E+03  0.00000000000E+00 0. -1.
         -1   -1    0    0    0  501 -0.00000000000E+00 -0.00000000000E+00 -0.76522224888E+03  0.76522224888E+03  0.00000000000E+00 0.  1.
         24    2    1    2    0    0 -0.17289811255E+03 -0.56639717553E+03  0.15423289196E+03  0.61710792743E+03  0.79592030714E+02 0.  0.
        254    2    1    2    0    0  0.17289811255E+03  0.56639717553E+03 -0.12951724939E+02  0.10546177374E+04  0.87255447221E+03 0.  0.
         23    2    4    4    0    0  0.10872880135E+03  0.51902273846E+03  0.36964929206E+03  0.65313332006E+03  0.93466461172E+02 0.  0.
         23    2    4    4    0    0  0.64169311196E+02  0.47374437072E+02 -0.38260101700E+03  0.40148441729E+03  0.91892117887E+02 0.  0.
          4    1    3    3  502    0 -0.16338321874E+03 -0.47932070127E+03  0.15472649766E+03  0.52951175616E+03  0.00000000000E+00 0. -1.
         -3    1    3    3    0  502 -0.95148938127E+01 -0.87076474262E+02 -0.49360569510E+00  0.87596171268E+02  0.00000000000E+00 0.  1.
         13    1    5    5    0    0  0.51567004873E+01  0.95680610138E+02  0.10975963541E+03  0.14570020001E+03  0.00000000000E+00 0. -1.
        -13    1    5    5    0    0  0.10357210087E+03  0.42334212832E+03  0.25988965665E+03  0.50743312005E+03  0.00000000000E+00 0.  1.
          2    1    6    6  503    0  0.39109369666E+01  0.29208104797E+02 -0.25775023741E+02  0.39150487387E+02  0.00000000000E+00 0. -1.
         -2    1    6    6    0  503  0.60258374229E+02  0.18166332274E+02 -0.35682599326E+03  0.36233392991E+03  0.00000000000E+00 0.  1.
<mgrwt>
<rscale>  0 0.16657450E+04</rscale>
<asrwt>0</asrwt>
<pdfrwt beam="1">  1        2 0.13946206E+00 0.16657450E+04</pdfrwt>
<pdfrwt beam="2">  1       -1 0.11772650E+00 0.16657450E+04</pdfrwt>
<totfact> 0.20505538E+01</totfact>
</mgrwt>
</event>
<event>
12    7  0.1606355E-007  0.1836879E+04  0.7818608E-02  0.8686930E-01
          2   -1    0    0  501    0  0.00000000000E+00  0.00000000000E+00  0.26035651506E+04  0.26035651506E+04  0.00000000000E+00 0. -1.
         -1   -1    0    0    0  501 -0.00000000000E+00 -0.00000000000E+00 -0.32399075903E+03  0.32399075903E+03  0.00000000000E+00 0.  1.
         24    2    1    2    0    0  0.27975698768E+03 -0.27320901511E+03 -0.47671665461E+02  0.40160815225E+03  0.78162536855E+02 0.  0.
        254    2    1    2    0    0 -0.27975698768E+03  0.27320901511E+03  0.23272460570E+04  0.25259477573E+04  0.90079449653E+03 0.  0.
         23    2    4    4    0    0 -0.86162921739E+02 -0.81521393892E+02  0.19802955237E+04  0.19858366715E+04  0.88922089397E+02 0.  0.
         23    2    4    4    0    0 -0.19359406594E+03  0.35473040901E+03  0.34695053334E+03  0.54011108589E+03  0.89626932742E+02 0.  0.
          2    1    3    3  502    0  0.70427150434E+02 -0.48370181070E+02 -0.39937189357E+02  0.94311383346E+02  0.00000000000E+00 0. -1.
         -1    1    3    3    0  502  0.20932983725E+03 -0.22483883404E+03 -0.77344761041E+01  0.30729676890E+03  0.00000000000E+00 0.  1.
         13    1    5    5    0    0  0.12783186309E+02 -0.37244713803E+02  0.46083077934E+03  0.46251009259E+03  0.00000000000E+00 0.  1.
        -13    1    5    5    0    0 -0.98946108048E+02 -0.44276680089E+02  0.15194647443E+04  0.15233265789E+04  0.00000000000E+00 0. -1.
          1    1    6    6  503    0 -0.20153226448E+03  0.34825048570E+03  0.33033996712E+03  0.52059403406E+03  0.00000000000E+00 0. -1.
         -1    1    6    6    0  503  0.79381985390E+01  0.64799233040E+01  0.16610566216E+02  0.19517051829E+02  0.00000000000E+00 0.  1.
<mgrwt>
<rscale>  0 0.18368789E+04</rscale>
<asrwt>0</asrwt>
<pdfrwt beam="1">  1        2 0.40054847E+00 0.18368789E+04</pdfrwt>
<pdfrwt beam="2">  1       -1 0.49844734E-01 0.18368789E+04</pdfrwt>
<totfact> 0.13123876E+01</totfact>
</mgrwt>
</event>
<event>
12    7  0.1606355E-007  0.1087510E+04  0.7818608E-02  0.9217451E-01
          2   -1    0    0  501    0  0.00000000000E+00  0.00000000000E+00  0.22931863734E+04  0.22931863734E+04  0.00000000000E+00 0. -1.
         -1   -1    0    0    0  501 -0.00000000000E+00 -0.00000000000E+00 -0.12893399027E+03  0.12893399027E+03  0.00000000000E+00 0.  1.
         24    2    1    2    0    0 -0.10254281754E+03  0.79945403220E+02  0.25930988956E+03  0.30332756696E+03  0.88654932917E+02 0.  0.
        254    2    1    2    0    0  0.10254281754E+03 -0.79945403220E+02  0.19049424936E+04  0.21187927967E+04  0.91846105778E+03 0.  0.
         23    2    4    4    0    0  0.38590533949E+03  0.15089712401E+03  0.15303391131E+04  0.15880064701E+04  0.90187997744E+02 0.  0.
         23    2    4    4    0    0 -0.28336252195E+03 -0.23084252723E+03  0.37460338054E+03  0.53078632667E+03  0.88452476772E+02 0.  0.
          2    1    3    3  502    0 -0.78376577520E+02  0.55664608963E+01  0.14309710590E+03  0.16325028363E+03  0.00000000000E+00 0. -1.
         -1    1    3    3    0  502 -0.24166240022E+02  0.74378942323E+02  0.11621278367E+03  0.14007728333E+03  0.00000000000E+00 0.  1.
         13    1    5    5    0    0  0.22091079636E+03  0.11049007688E+03  0.75883827677E+03  0.79802579365E+03  0.00000000000E+00 0.  1.
        -13    1    5    5    0    0  0.16499454313E+03  0.40407047131E+02  0.77150083629E+03  0.78998067642E+03  0.00000000000E+00 0. -1.
          1    1    6    6  503    0 -0.15431545327E+03 -0.10610583199E+03  0.13248121404E+03  0.22939698946E+03  0.00000000000E+00 0. -1.
         -1    1    6    6    0  503 -0.12904706867E+03 -0.12473669524E+03  0.24212216650E+03  0.30138933721E+03  0.00000000000E+00 0.  1.
<mgrwt>
<rscale>  0 0.10875103E+04</rscale>
<asrwt>0</asrwt>
<pdfrwt beam="1">  1        2 0.35279787E+00 0.10875103E+04</pdfrwt>
<pdfrwt beam="2">  1       -1 0.19836000E-01 0.10875103E+04</pdfrwt>
<totfact> 0.10800077E+02</totfact>
</mgrwt>
</event>
<event>
12    7  0.1606355E-007  0.1450385E+04  0.7818608E-02  0.8918133E-01
         -1   -1    0    0    0  501 -0.00000000000E+00  0.00000000000E+00  0.44870340011E+03  0.44870340011E+03  0.00000000000E+00 0.  1.
          2   -1    0    0  501    0  0.00000000000E+00 -0.00000000000E+00 -0.11720533808E+04  0.11720533808E+04  0.00000000000E+00 0. -1.
         24    2    1    2    0    0  0.40144395464E+03  0.12867993878E+03 -0.35584057404E+03  0.55736928655E+03  0.79512465058E+02 0.  0.
        254    2    1    2    0    0 -0.40144395464E+03 -0.12867993878E+03 -0.36750940662E+03  0.10633874943E+04  0.90444127715E+03 0.  0.
         23    2    4    4    0    0  0.95952386099E+02 -0.67175161580E+02  0.23249764866E+03  0.27624894814E+03  0.92406504032E+02 0.  0.
         23    2    4    4    0    0 -0.49739634074E+03 -0.61504777197E+02 -0.60000705528E+03  0.78713854620E+03  0.91611501061E+02 0.  0.
          2    1    3    3  502    0  0.29061149043E+03  0.69379399817E+02 -0.28585874929E+03  0.41350183076E+03  0.00000000000E+00 0. -1.
         -1    1    3    3    0  502  0.11083246420E+03  0.59300538960E+02 -0.69981824749E+02  0.14386745580E+03  0.00000000000E+00 0.  1.
         13    1    5    5    0    0  0.72789051664E+02  0.53421326058E+01  0.11833949816E+03  0.13903604298E+03  0.00000000000E+00 0. -1.
        -13    1    5    5    0    0  0.23163334436E+02 -0.72517294186E+02  0.11415815050E+03  0.13721290516E+03  0.00000000000E+00 0.  1.
          3    1    6    6  503    0 -0.23920407395E+03 -0.55067364550E+02 -0.23357424653E+03  0.33883319241E+03  0.00000000000E+00 0. -1.
         -3    1    6    6    0  503 -0.25819226678E+03 -0.64374126474E+01 -0.36643280875E+03  0.44830535379E+03  0.00000000000E+00 0.  1.
<mgrwt>
<rscale>  0 0.14503852E+04</rscale>
<asrwt>0</asrwt>
<pdfrwt beam="1">  1        2 0.18031591E+00 0.14503852E+04</pdfrwt>
<pdfrwt beam="2">  1       -1 0.69031292E-01 0.14503852E+04</pdfrwt>
<totfact> 0.46226677E+01</totfact>
</mgrwt>
</event>
<event>
12    7  0.1606355E-007  0.2095173E+04  0.7818608E-02  0.8563373E-01
          2   -1    0    0  501    0  0.00000000000E+00  0.00000000000E+00  0.29063473092E+04  0.29063473092E+04  0.00000000000E+00 0. -1.
         -1   -1    0    0    0  501 -0.00000000000E+00 -0.00000000000E+00 -0.37760009018E+03  0.37760009018E+03  0.00000000000E+00 0.  1.
         24    2    1    2    0    0  0.67738071317E+03  0.78319364364E+02  0.23435108224E+03  0.72518406442E+03  0.77414108071E+02 0.  0.
        254    2    1    2    0    0 -0.67738071317E+03 -0.78319364364E+02  0.22943961367E+04  0.25587633349E+04  0.90445432081E+03 0.  0.
         23    2    4    4    0    0 -0.36234093413E+03  0.39219195506E+03  0.13424401418E+04  0.14476292002E+04  0.91538432973E+02 0.  0.
         23    2    4    4    0    0 -0.31503977903E+03 -0.47051131942E+03  0.95195599493E+03  0.11111341347E+04  0.88135605848E+02 0.  0.
          4    1    3    3  502    0  0.12509310104E+03 -0.98843493386E+01  0.24678359028E+02  0.12788669084E+03  0.00000000000E+00 0. -1.
         -3    1    3    3    0  502  0.55228761213E+03  0.88203713703E+02  0.20967272321E+03  0.59729737358E+03  0.00000000000E+00 0.  1.
         13    1    5    5    0    0 -0.27704866959E+03  0.24232539399E+03  0.86756849333E+03  0.94241851240E+03  0.00000000000E+00 0.  1.
        -13    1    5    5    0    0 -0.85292264539E+02  0.14986656107E+03  0.47487164849E+03  0.50521068779E+03  0.00000000000E+00 0. -1.
          1    1    6    6  503    0 -0.26055853268E+03 -0.38618641076E+03  0.84166642275E+03  0.96199431391E+03  0.00000000000E+00 0. -1.
         -1    1    6    6    0  503 -0.54481246352E+02 -0.84324908665E+02  0.11028957218E+03  0.14913982083E+03  0.00000000000E+00 0.  1.
<mgrwt>
<rscale>  0 0.20951726E+04</rscale>
<asrwt>0</asrwt>
<pdfrwt beam="1">  1        2 0.44713034E+00 0.20951726E+04</pdfrwt>
<pdfrwt beam="2">  1       -1 0.58092324E-01 0.20951726E+04</pdfrwt>
<totfact> 0.62806248E+00</totfact>
</mgrwt>
</event>
<event>
12    7  0.1606355E-007  0.1822321E+04  0.7818608E-02  0.8694519E-01
         -1   -1    0    0    0  501 -0.00000000000E+00  0.00000000000E+00  0.88426202935E+03  0.88426202935E+03  0.00000000000E+00 0.  1.
          2   -1    0    0  501    0  0.00000000000E+00 -0.00000000000E+00 -0.93887686972E+03  0.93887686972E+03  0.00000000000E+00 0. -1.
         24    2    1    2    0    0 -0.49735898480E+02  0.68428716228E+03 -0.14632810304E+01  0.69075294964E+03  0.80093171896E+02 0.  0.
        254    2    1    2    0    0  0.49735898480E+02 -0.68428716228E+03 -0.53151559343E+02  0.11323859494E+04  0.89930543763E+03 0.  0.
         23    2    4    4    0    0  0.12446321808E+03 -0.85763075636E+02 -0.39475688455E+03  0.43226426896E+03  0.90404659831E+02 0.  0.
         23    2    4    4    0    0 -0.74727319598E+02 -0.59852408664E+03  0.34160532521E+03  0.70012168047E+03  0.98289952009E+02 0.  0.
          2    1    3    3  502    0 -0.18042642081E+02  0.23212389376E+03 -0.38434201993E+02  0.23597505561E+03  0.00000000000E+00 0. -1.
         -1    1    3    3    0  502 -0.31693256400E+02  0.45216326852E+03  0.36970920963E+02  0.45477789403E+03  0.00000000000E+00 0.  1.
         13    1    5    5    0    0  0.36465215038E+02 -0.40816635458E+02 -0.25681595561E+03  0.26258359563E+03  0.00000000000E+00 0.  1.
        -13    1    5    5    0    0  0.87998003041E+02 -0.44946440178E+02 -0.13794092895E+03  0.16968067333E+03  0.00000000000E+00 0. -1.
          1    1    6    6  503    0 -0.56464777275E+02 -0.22708529416E+03  0.88033820991E+02  0.25001191078E+03  0.00000000000E+00 0. -1.
         -1    1    6    6    0  503 -0.18262542324E+02 -0.37143879249E+03  0.25357150422E+03  0.45010976969E+03  0.00000000000E+00 0.  1.
<mgrwt>
<rscale>  0 0.18223207E+04</rscale>
<asrwt>0</asrwt>
<pdfrwt beam="1">  1        2 0.14444259E+00 0.18223207E+04</pdfrwt>
<pdfrwt beam="2">  1       -1 0.13604031E+00 0.18223207E+04</pdfrwt>
<totfact> 0.13411843E+01</totfact>
</mgrwt>
</event>
<event>
12    7  0.1606355E-007  0.1688856E+04  0.7818608E-02  0.8767746E-01
         -1   -1    0    0    0  501 -0.00000000000E+00  0.00000000000E+00  0.58558567104E+03  0.58558567104E+03  0.00000000000E+00 0.  1.
          2   -1    0    0  501    0  0.00000000000E+00 -0.00000000000E+00 -0.12176842335E+04  0.12176842335E+04  0.00000000000E+00 0. -1.
         24    2    1    2    0    0  0.36877504900E+03 -0.40191800886E+02 -0.73844584998E+03  0.83061064923E+03  0.83674127617E+02 0.  0.
        254    2    1    2    0    0 -0.36877504900E+03  0.40191800886E+02  0.10634728749E+03  0.97265925534E+03  0.89283025476E+03 0.  0.
         23    2    4    4    0    0 -0.51043957704E+03  0.50155664593E+02  0.38532731425E+03  0.64740254980E+03  0.87113545885E+02 0.  0.
         23    2    4    4    0    0  0.14166452804E+03 -0.99638637062E+01 -0.27898002676E+03  0.32525670554E+03  0.88283362432E+02 0.  0.
          2    1    3    3  502    0  0.34600620083E+03 -0.20188824416E+02 -0.70424569286E+03  0.78491392876E+03  0.00000000000E+00 0. -1.
         -1    1    3    3    0  502  0.22768848172E+02 -0.20002976471E+02 -0.34200157119E+02  0.45696720470E+02  0.00000000000E+00 0.  1.
         13    1    5    5    0    0 -0.10865753695E+03  0.38346849123E+02  0.57841306571E+02  0.12892849926E+03  0.00000000000E+00 0.  1.
        -13    1    5    5    0    0 -0.40178204009E+03  0.11808815469E+02  0.32748600768E+03  0.51847405054E+03  0.00000000000E+00 0. -1.
          3    1    6    6  503    0  0.20767685391E+02  0.23041714494E+02 -0.18295360983E+02  0.36013019824E+02  0.00000000000E+00 0. -1.
         -3    1    6    6    0  503  0.12089684265E+03 -0.33005578200E+02 -0.26068466578E+03  0.28924368572E+03  0.00000000000E+00 0.  1.
<mgrwt>
<rscale>  0 0.16888558E+04</rscale>
<asrwt>0</asrwt>
<pdfrwt beam="1">  1        2 0.18733604E+00 0.16888558E+04</pdfrwt>
<pdfrwt beam="2">  1       -1 0.90090103E-01 0.16888558E+04</pdfrwt>
<totfact> 0.24197690E+01</totfact>
</mgrwt>
</event>
<event>
12    7  0.1606355E-007  0.1975548E+04  0.7818608E-02  0.8618139E-01
         -1   -1    0    0    0  501 -0.00000000000E+00  0.00000000000E+00  0.82241165057E+03  0.82241165057E+03  0.00000000000E+00 0.  1.
          2   -1    0    0  501    0  0.00000000000E+00 -0.00000000000E+00 -0.11863855077E+04  0.11863855077E+04  0.00000000000E+00 0. -1.
         24    2    1    2    0    0 -0.56815156000E+03 -0.19250700795E+03 -0.65383921509E+03  0.89097340240E+03  0.80453349021E+02 0.  0.
        254    2    1    2    0    0  0.56815156000E+03  0.19250700795E+03  0.28986535799E+03  0.11178237558E+04  0.89758168436E+03 0.  0.
         23    2    4    4    0    0  0.66169517136E+03  0.14012864043E+03  0.51301106714E+03  0.85408750126E+03  0.93853977736E+02 0.  0.
         23    2    4    4    0    0 -0.93543611361E+02  0.52378367520E+02 -0.22314570915E+03  0.26373625457E+03  0.90933513356E+02 0.  0.
          4    1    3    3  502    0 -0.49046483654E+03 -0.19399261814E+03 -0.56402842108E+03  0.77221561209E+03  0.00000000000E+00 0. -1.
         -3    1    3    3    0  502 -0.77686723461E+02  0.14856101914E+01 -0.89810794010E+02  0.11875779032E+03  0.00000000000E+00 0.  1.
         13    1    5    5    0    0  0.42664749974E+02  0.27616326898E+01  0.80648108747E+01  0.43508030063E+02  0.00000000000E+00 0.  1.
        -13    1    5    5    0    0  0.61903042139E+03  0.13736700774E+03  0.50494625626E+03  0.81057947120E+03  0.00000000000E+00 0. -1.
          2    1    6    6  503    0 -0.10779341664E+03  0.39094589280E+02 -0.21268269249E+03  0.24162312651E+03  0.00000000000E+00 0. -1.
         -2    1    6    6    0  503  0.14249805277E+02  0.13283778240E+02 -0.10463016663E+02  0.22113128057E+02  0.00000000000E+00 0.  1.
<mgrwt>
<rscale>  0 0.19755478E+04</rscale>
<asrwt>0</asrwt>
<pdfrwt beam="1">  1        2 0.18252085E+00 0.19755478E+04</pdfrwt>
<pdfrwt beam="2">  1       -1 0.12652487E+00 0.19755478E+04</pdfrwt>
<totfact> 0.11123361E+01</totfact>
</mgrwt>
</event>
<event>
12    7  0.1606355E-007  0.2117459E+04  0.7818608E-02  0.8553591E-01
          2   -1    0    0  501    0  0.00000000000E+00  0.00000000000E+00  0.99860317529E+03  0.99860317529E+03  0.00000000000E+00 0. -1.
         -1   -1    0    0    0  501 -0.00000000000E+00 -0.00000000000E+00 -0.11224763585E+04  0.11224763585E+04  0.00000000000E+00 0.  1.
         24    2    1    2    0    0 -0.18597612084E+03 -0.73865527392E+03  0.36681898669E+03  0.84934304393E+03  0.81416866042E+02 0.  0.
        254    2    1    2    0    0  0.18597612084E+03  0.73865527392E+03 -0.49069216993E+03  0.12717364899E+04  0.89237669337E+03 0.  0.
         23    2    4    4    0    0 -0.10530408984E+02 -0.18976651753E+03 -0.15482910664E+03  0.26112117045E+03  0.89944386746E+02 0.  0.
         23    2    4    4    0    0  0.19650652983E+03  0.92842179145E+03 -0.33586306329E+03  0.10106153194E+04  0.89204750385E+02 0.  0.
          2    1    3    3  502    0 -0.11732138080E+03 -0.59607819204E+03  0.28152434484E+03  0.66957409908E+03  0.00000000000E+00 0. -1.
         -1    1    3    3    0  502 -0.68654740044E+02 -0.14257708188E+03  0.85294641844E+02  0.17976894486E+03  0.00000000000E+00 0.  1.
         13    1    5    5    0    0  0.23077196352E+02 -0.33888468000E+02 -0.68394575286E+02  0.79742104208E+02  0.00000000000E+00 0.  1.
        -13    1    5    5    0    0 -0.33607605336E+02 -0.15587804953E+03 -0.86434531350E+02  0.18137906624E+03  0.00000000000E+00 0. -1.
          3    1    6    6  503    0  0.19100319907E+03  0.72897774945E+03 -0.27045385525E+03  0.80064728131E+03  0.00000000000E+00 0. -1.
         -3    1    6    6    0  503  0.55033307612E+01  0.19944404199E+03 -0.65409208045E+02  0.20996803812E+03  0.00000000000E+00 0.  1.
<mgrwt>
<rscale>  0 0.21174593E+04</rscale>
<asrwt>0</asrwt>
<pdfrwt beam="1">  1        2 0.15363126E+00 0.21174593E+04</pdfrwt>
<pdfrwt beam="2">  1       -1 0.17268867E+00 0.21174593E+04</pdfrwt>
<totfact> 0.62295956E+00</totfact>
</mgrwt>
</event>
<event>
12    7  0.1606355E-007  0.1933462E+04  0.7818608E-02  0.8638377E-01
         -3   -1    0    0    0  501 -0.00000000000E+00  0.00000000000E+00  0.34246863828E+03  0.34246863828E+03  0.00000000000E+00 0.  1.
          2   -1    0    0  501    0  0.00000000000E+00 -0.00000000000E+00 -0.27289175081E+04  0.27289175081E+04  0.00000000000E+00 0. -1.
         24    2    1    2    0    0 -0.12004630559E+02 -0.54329557546E+03 -0.10636132878E+03  0.55969856972E+03  0.81458966470E+02 0.  0.
        254    2    1    2    0    0  0.12004630559E+02  0.54329557546E+03 -0.22800875410E+04  0.25116875766E+04  0.90247498275E+03 0.  0.
         23    2    4    4    0    0  0.19496126149E+03  0.17122448034E+03 -0.10521000614E+03  0.29573072800E+03  0.95182991865E+02 0.  0.
         23    2    4    4    0    0 -0.18295663093E+03  0.37207109511E+03 -0.21748775349E+04  0.22159568486E+04  0.91991492628E+02 0.  0.
          4    1    3    3  502    0  0.28124907900E+02 -0.11521156019E+03 -0.36608592212E+02  0.12411648991E+03  0.00000000000E+00 0. -1.
         -3    1    3    3    0  502 -0.40129538459E+02 -0.42808401527E+03 -0.69752736570E+02  0.43558207980E+03  0.00000000000E+00 0.  1.
         13    1    5    5    0    0  0.16896830322E+03  0.97257839079E+02 -0.94320165832E+02  0.21657716509E+03  0.00000000000E+00 0. -1.
        -13    1    5    5    0    0  0.25992958270E+02  0.73966641265E+02 -0.10889840312E+02  0.79153562912E+02  0.00000000000E+00 0.  1.
          1    1    6    6  503    0 -0.19003794353E+03  0.32568431599E+03 -0.18912388787E+04  0.19284629086E+04  0.00000000000E+00 0. -1.
         -1    1    6    6    0  503  0.70813125955E+01  0.46386779128E+02 -0.28363865618E+03  0.28749394001E+03  0.00000000000E+00 0.  1.
<mgrwt>
<rscale>  0 0.19334618E+04</rscale>
<asrwt>0</asrwt>
<pdfrwt beam="1">  1        2 0.41983348E+00 0.19334618E+04</pdfrwt>
<pdfrwt beam="2">  1       -3 0.52687481E-01 0.19334618E+04</pdfrwt>
<totfact> 0.54794697E+00</totfact>
</mgrwt>
</event>
<event>
12    7  0.1606355E-007  0.1276264E+04  0.7818608E-02  0.9048602E-01
         -1   -1    0    0    0  501 -0.00000000000E+00  0.00000000000E+00  0.19227360583E+03  0.19227360583E+03  0.00000000000E+00 0.  1.
          2   -1    0    0  501    0  0.00000000000E+00 -0.00000000000E+00 -0.21178813022E+04  0.21178813022E+04  0.00000000000E+00 0. -1.
         24    2    1    2    0    0 -0.12543376411E+03 -0.14503193321E+03 -0.93057872835E+03  0.95349840530E+03  0.80090876095E+02 0.  0.
        254    2    1    2    0    0  0.12543376411E+03  0.14503193321E+03 -0.99502896803E+03  0.13566565027E+04  0.90203454943E+03 0.  0.
         23    2    4    4    0    0  0.14349762493E+03 -0.22905709546E+03 -0.92179768130E+03  0.96478872394E+03  0.89708389987E+02 0.  0.
         23    2    4    4    0    0 -0.18063860824E+02  0.37408902868E+03 -0.73231286727E+02  0.39186777880E+03  0.89042856313E+02 0.  0.
          4    1    3    3  502    0 -0.10436191201E+03 -0.11271585350E+03 -0.85449724440E+03  0.86819457093E+03  0.00000000000E+00 0. -1.
         -3    1    3    3    0  502 -0.21071852101E+02 -0.32316079712E+02 -0.76081483952E+02  0.85303834376E+02  0.00000000000E+00 0.  1.
         13    1    5    5    0    0  0.10139937346E+03 -0.17037536727E+03 -0.79001373952E+03  0.81451292644E+03  0.00000000000E+00 0. -1.
        -13    1    5    5    0    0  0.42098251472E+02 -0.58681728190E+02 -0.13178394179E+03  0.15027579750E+03  0.00000000000E+00 0.  1.
          2    1    6    6  503    0  0.24398158117E+02  0.24859052345E+03 -0.25663226939E+02  0.25109982016E+03  0.00000000000E+00 0. -1.
         -2    1    6    6    0  503 -0.42462018941E+02  0.12549850523E+03 -0.47568059788E+02  0.14076795864E+03  0.00000000000E+00 0.  1.
<mgrwt>
<rscale>  0 0.12762644E+04</rscale>
<asrwt>0</asrwt>
<pdfrwt beam="1">  1        2 0.32582790E+00 0.12762644E+04</pdfrwt>
<pdfrwt beam="2">  1       -1 0.29580554E-01 0.12762644E+04</pdfrwt>
<totfact> 0.67276590E+01</totfact>
</mgrwt>
</event>
<event>
12    7  0.1606355E-007  0.2174357E+04  0.7818608E-02  0.8529178E-01
         -1   -1    0    0    0  501 -0.00000000000E+00  0.00000000000E+00  0.17752223040E+04  0.17752223040E+04  0.00000000000E+00 0.  1.
          2   -1    0    0  501    0  0.00000000000E+00 -0.00000000000E+00 -0.66580779608E+03  0.66580779608E+03  0.00000000000E+00 0. -1.
         24    2    1    2    0    0 -0.44947781046E+03 -0.70598088159E+03  0.84573973885E+03  0.11926028351E+04  0.81157311215E+02 0.  0.
        254    2    1    2    0    0  0.44947781046E+03  0.70598088159E+03  0.26367476903E+03  0.12484272649E+04  0.88803544115E+03 0.  0.
         23    2    4    4    0    0 -0.25008754349E+03  0.31844060851E+03  0.10032215936E+03  0.42707677351E+03  0.91552358007E+02 0.  0.
         23    2    4    4    0    0  0.69956535396E+03  0.38754027308E+03  0.16335260967E+03  0.82135049142E+03  0.91396974545E+02 0.  0.
          2    1    3    3  502    0 -0.36348605108E+03 -0.52744680872E+03  0.60880743332E+03  0.88372435535E+03  0.00000000000E+00 0. -1.
         -1    1    3    3    0  502 -0.85991759378E+02 -0.17853407287E+03  0.23693230553E+03  0.30887847976E+03  0.00000000000E+00 0.  1.
         13    1    5    5    0    0 -0.79830642203E+02  0.60554230976E+02 -0.57401410823E+01  0.10036281953E+03  0.00000000000E+00 0.  1.
        -13    1    5    5    0    0 -0.17025690129E+03  0.25788637753E+03  0.10606230044E+03  0.32671395399E+03  0.00000000000E+00 0. -1.
          3    1    6    6  503    0  0.69913891180E+03  0.38059697878E+03  0.15587762684E+03  0.81113939172E+03  0.00000000000E+00 0. -1.
         -3    1    6    6    0  503  0.42644215204E+00  0.69432943041E+01  0.74749828361E+01  0.10211099701E+02  0.00000000000E+00 0.  1.
<mgrwt>
<rscale>  0 0.21743568E+04</rscale>
<asrwt>0</asrwt>
<pdfrwt beam="1">  1        2 0.10243197E+00 0.21743568E+04</pdfrwt>
<pdfrwt beam="2">  1       -1 0.27311112E+00 0.21743568E+04</pdfrwt>
<totfact> 0.22505586E+00</totfact>
</mgrwt>
</event>
<event>
12    7  0.1606355E-007  0.3903738E+04  0.7818608E-02  0.8024252E-01
         -1   -1    0    0    0  501 -0.00000000000E+00  0.00000000000E+00  0.16076570960E+04  0.16076570960E+04  0.00000000000E+00 0.  1.
          2   -1    0    0  501    0  0.00000000000E+00 -0.00000000000E+00 -0.23697792044E+04  0.23697792044E+04  0.00000000000E+00 0. -1.
         24    2    1    2    0    0  0.10972058465E+04 -0.44778788068E+03  0.10815858400E+04  0.16064133172E+04  0.79756885274E+02 0.  0.
        254    2    1    2    0    0 -0.10972058465E+04  0.44778788068E+03 -0.18437079484E+04  0.23710229833E+04  0.90449783436E+03 0.  0.
         23    2    4    4    0    0 -0.60493244322E+03  0.69960211069E+03 -0.11084649949E+04  0.14465763728E+04  0.92207284770E+02 0.  0.
         23    2    4    4    0    0 -0.49227340325E+03 -0.25181423001E+03 -0.73524295359E+03  0.92444661046E+03  0.90971560451E+02 0.  0.
          2    1    3    3  502    0  0.27527292611E+02 -0.25844333647E+02  0.38036393187E+02  0.53595229515E+02  0.00000000000E+00 0. -1.
         -1    1    3    3    0  502  0.10696785539E+04 -0.42194354703E+03  0.10435494468E+04  0.15528180877E+04  0.00000000000E+00 0.  1.
         13    1    5    5    0    0 -0.57597851032E+03  0.63888950878E+03 -0.10507809088E+04  0.13579659668E+04  0.00000000000E+00 0.  1.
        -13    1    5    5    0    0 -0.28953932905E+02  0.60712601910E+02 -0.57684086079E+02  0.88610405981E+02  0.00000000000E+00 0. -1.
          2    1    6    6  503    0 -0.11998224343E+03 -0.36844509554E+02 -0.22124503592E+03  0.25436710192E+03  0.00000000000E+00 0. -1.
         -2    1    6    6    0  503 -0.37229115982E+03 -0.21496972045E+03 -0.51399791767E+03  0.67007950854E+03  0.00000000000E+00 0.  1.
<mgrwt>
<rscale>  0 0.39037379E+04</rscale>
<asrwt>0</asrwt>
<pdfrwt beam="1">  1        2 0.36458142E+00 0.39037379E+04</pdfrwt>
<pdfrwt beam="2">  1       -1 0.24733186E+00 0.39037379E+04</pdfrwt>
<totfact> 0.27139058E-01</totfact>
</mgrwt>
</event>
<event>
12    7  0.1606355E-007  0.1108904E+04  0.7818608E-02  0.9196557E-01
          2   -1    0    0  501    0  0.00000000000E+00  0.00000000000E+00  0.92931045346E+03  0.92931045346E+03  0.00000000000E+00 0. -1.
         -1   -1    0    0    0  501 -0.00000000000E+00 -0.00000000000E+00 -0.33080095425E+03  0.33080095425E+03  0.00000000000E+00 0.  1.
         24    2    1    2    0    0  0.81295910901E+01 -0.49564028015E+02 -0.10820210875E+03  0.14415205292E+03  0.80928579008E+02 0.  0.
        254    2    1    2    0    0 -0.81295910901E+01  0.49564028015E+02  0.70671160796E+03  0.11159593548E+04  0.86220722659E+03 0.  0.
         23    2    4    4    0    0 -0.16241923611E+03  0.33509500705E+03  0.67678377031E+03  0.77794388988E+03  0.92150702878E+02 0.  0.
         23    2    4    4    0    0  0.15428964502E+03 -0.28553097903E+03  0.29927837652E+02  0.33801546491E+03  0.89585403392E+02 0.  0.
          2    1    3    3  502    0  0.37575286661E+02 -0.16238881129E+02 -0.20412143313E+02  0.45741217983E+02  0.00000000000E+00 0. -1.
         -1    1    3    3    0  502 -0.29445695571E+02 -0.33325146886E+02 -0.87789965433E+02  0.98410834939E+02  0.00000000000E+00 0.  1.
         13    1    5    5    0    0 -0.51412122297E+02  0.19295022596E+03  0.30234561771E+03  0.36233391860E+03  0.00000000000E+00 0.  1.
        -13    1    5    5    0    0 -0.11100711381E+03  0.14214478108E+03  0.37443815260E+03  0.41560997128E+03  0.00000000000E+00 0. -1.
          1    1    6    6  503    0  0.25697139884E+02 -0.14059363621E+03  0.11759465015E+02  0.14340571313E+03  0.00000000000E+00 0.  1.
         -1    1    6    6    0  503  0.12859250514E+03 -0.14493734282E+03  0.18168372638E+02  0.19460975178E+03  0.00000000000E+00 0. -1.
<mgrwt>
<rscale>  0 0.11089036E+04</rscale>
<asrwt>0</asrwt>
<pdfrwt beam="1">  1        2 0.14297084E+00 0.11089036E+04</pdfrwt>
<pdfrwt beam="2">  1       -1 0.50892455E-01 0.11089036E+04</pdfrwt>
<totfact> 0.12306344E+02</totfact>
</mgrwt>
</event>
<event>
12    7  0.1606355E-007  0.1534367E+04  0.7818608E-02  0.8861916E-01
          2   -1    0    0  501    0  0.00000000000E+00  0.00000000000E+00  0.41476796333E+04  0.41476796333E+04  0.00000000000E+00 0. -1.
         -1   -1    0    0    0  501 -0.00000000000E+00 -0.00000000000E+00 -0.14190351451E+03  0.14190351451E+03  0.00000000000E+00 0.  1.
         24    2    1    2    0    0  0.45136405106E+03  0.18379744524E+03  0.16099781968E+04  0.16840739359E+04  0.81019873655E+02 0.  0.
        254    2    1    2    0    0 -0.45136405106E+03 -0.18379744524E+03  0.23957979220E+04  0.26055092119E+04  0.90073279220E+03 0.  0.
         23    2    4    4    0    0  0.84388743416E+02  0.15629309976E+03  0.10242289714E+03  0.22423793769E+03  0.90792124064E+02 0.  0.
         23    2    4    4    0    0 -0.53575279447E+03 -0.34009054499E+03  0.22933750249E+04  0.23812712743E+04  0.90505476739E+02 0.  0.
          4    1    3    3  502    0  0.32540564606E+03  0.16236896050E+03  0.12632260896E+04  0.13145313489E+04  0.00000000000E+00 0. -1.
         -3    1    3    3    0  502  0.12595840500E+03  0.21428484738E+02  0.34675210718E+03  0.36954258697E+03  0.00000000000E+00 0.  1.
         13    1    5    5    0    0  0.14536594591E+02  0.10428380821E+03  0.26195911328E+02  0.10850184794E+03  0.00000000000E+00 0.  1.
        -13    1    5    5    0    0  0.69852148825E+02  0.52009291547E+02  0.76226985812E+02  0.11573608974E+03  0.00000000000E+00 0. -1.
          2    1    6    6  503    0 -0.16208697187E+03 -0.56246362616E+02  0.58895750157E+03  0.61343848788E+03  0.00000000000E+00 0. -1.
         -2    1    6    6    0  503 -0.37366582260E+03 -0.28384418238E+03  0.17044175233E+04  0.17678327864E+04  0.00000000000E+00 0.  1.
<mgrwt>
<rscale>  0 0.15343667E+04</rscale>
<asrwt>0</asrwt>
<pdfrwt beam="1">  1        2 0.63810447E+00 0.15343667E+04</pdfrwt>
<pdfrwt beam="2">  1       -1 0.21831313E-01 0.15343667E+04</pdfrwt>
<totfact> 0.51243156E+00</totfact>
</mgrwt>
</event>
<event>
12    7  0.1606355E-007  0.1995606E+04  0.7818608E-02  0.8608678E-01
          2   -1    0    0  501    0  0.00000000000E+00  0.00000000000E+00  0.23448289117E+04  0.23448289117E+04  0.00000000000E+00 0. -1.
         -1   -1    0    0    0  501 -0.00000000000E+00 -0.00000000000E+00 -0.42459829274E+03  0.42459829274E+03  0.00000000000E+00 0.  1.
         24    2    1    2    0    0  0.16553640467E+03 -0.15549567214E+03  0.18234097978E+04  0.18393126245E+04  0.81648234980E+02 0.  0.
        254    2    1    2    0    0 -0.16553640467E+03  0.15549567214E+03  0.96820821125E+02  0.93011458000E+03  0.89674837897E+03 0.  0.
         23    2    4    4    0    0 -0.47572057113E+03  0.26217189963E+03  0.17825626023E+03  0.58019187197E+03  0.99010844043E+02 0.  0.
         23    2    4    4    0    0  0.31018416646E+03 -0.10667622749E+03 -0.81435439110E+02  0.34992270803E+03  0.90664966879E+02 0.  0.
          4    1    3    3  502    0  0.16070053704E+03 -0.14186794457E+03  0.17915008969E+04  0.18042800891E+04  0.00000000000E+00 0. -1.
         -3    1    3    3    0  502  0.48358676304E+01 -0.13627727574E+02  0.31908900971E+02  0.35032535388E+02  0.00000000000E+00 0.  1.
         13    1    5    5    0    0 -0.92827191080E+01  0.29189211933E+02  0.12604218122E+02  0.33121673898E+02  0.00000000000E+00 0.  1.
        -13    1    5    5    0    0 -0.46643785202E+03  0.23298268769E+03  0.16565204211E+03  0.54707019807E+03  0.00000000000E+00 0. -1.
          2    1    6    6  503    0  0.26040721300E+03 -0.11033933075E+03 -0.94744792624E+02  0.29826709544E+03  0.00000000000E+00 0. -1.
         -2    1    6    6    0  503  0.49776953450E+02  0.36631032630E+01  0.13309353514E+02  0.51655612582E+02  0.00000000000E+00 0.  1.
<mgrwt>
<rscale>  0 0.19956055E+04</rscale>
<asrwt>0</asrwt>
<pdfrwt beam="1">  1        2 0.36074290E+00 0.19956055E+04</pdfrwt>
<pdfrwt beam="2">  1       -1 0.65322816E-01 0.19956055E+04</pdfrwt>
<totfact> 0.10748218E+01</totfact>
</mgrwt>
</event>
<event>
12    7  0.1606355E-007  0.3607301E+04  0.7818608E-02  0.8088821E-01
          2   -1    0    0  501    0  0.00000000000E+00  0.00000000000E+00  0.18496671342E+04  0.18496671342E+04  0.00000000000E+00 0. -1.
         -1   -1    0    0    0  501 -0.00000000000E+00 -0.00000000000E+00 -0.17587789562E+04  0.17587789562E+04  0.00000000000E+00 0.  1.
         24    2    1    2    0    0 -0.27008995274E+03 -0.15806173602E+04  0.56674846548E+03  0.17026451038E+04  0.80602135804E+02 0.  0.
        254    2    1    2    0    0  0.27008995274E+03  0.15806173602E+04 -0.47586028744E+03  0.19058009867E+04  0.91341916209E+03 0.  0.
         23    2    4    4    0    0  0.39879487114E+03  0.16206617215E+04 -0.37228988392E+03  0.17125015483E+04  0.92087081738E+02 0.  0.
         23    2    4    4    0    0 -0.12870491841E+03 -0.40044361257E+02 -0.10357040352E+03  0.19329943836E+03  0.92029003554E+02 0.  0.
          4    1    3    3  502    0 -0.15744848418E+03 -0.73140335097E+03  0.29004590154E+03  0.80241355421E+03  0.00000000000E+00 0. -1.
         -3    1    3    3    0  502 -0.11264146856E+03 -0.84921400923E+03  0.27670256393E+03  0.90023154955E+03  0.00000000000E+00 0.  1.
         13    1    5    5    0    0  0.40302209672E+03  0.15781414748E+04 -0.36129711513E+03  0.16683803314E+04  0.00000000000E+00 0. -1.
        -13    1    5    5    0    0 -0.42272255775E+01  0.42520246674E+02 -0.10992768795E+02  0.44121216881E+02  0.00000000000E+00 0.  1.
          4    1    6    6  503    0 -0.73004060306E+02  0.85131251866E+01 -0.10164431555E+02  0.74198260023E+02  0.00000000000E+00 0. -1.
         -4    1    6    6    0  503 -0.55700858102E+02 -0.48557486444E+02 -0.93405971966E+02  0.11910117834E+03  0.00000000000E+00 0.  1.
<mgrwt>
<rscale>  0 0.36073013E+04</rscale>
<asrwt>0</asrwt>
<pdfrwt beam="1">  1        2 0.28456417E+00 0.36073013E+04</pdfrwt>
<pdfrwt beam="2">  1       -1 0.27058138E+00 0.36073013E+04</pdfrwt>
<totfact> 0.38443940E-01</totfact>
</mgrwt>
</event>
<event>
12    7  0.1606355E-007  0.1803470E+04  0.7818608E-02  0.8704456E-01
          2   -1    0    0  501    0  0.00000000000E+00  0.00000000000E+00  0.29838228710E+04  0.29838228710E+04  0.00000000000E+00 0. -1.
         -1   -1    0    0    0  501 -0.00000000000E+00 -0.00000000000E+00 -0.27251143163E+03  0.27251143163E+03  0.00000000000E+00 0.  1.
         24    2    1    2    0    0 -0.65470474975E+03  0.15679593929E+03  0.10944453830E+04  0.12874021005E+04  0.79813508330E+02 0.  0.
        254    2    1    2    0    0  0.65470474975E+03 -0.15679593929E+03  0.16168660563E+04  0.19689322021E+04  0.89956372557E+03 0.  0.
         23    2    4    4    0    0  0.64676705582E+03 -0.27023290962E+03  0.55976867935E+03  0.90179725322E+03  0.92541134722E+02 0.  0.
         23    2    4    4    0    0  0.79376939329E+01  0.11343697033E+03  0.10570973770E+04  0.10671349489E+04  0.91603391994E+02 0.  0.
          2    1    3    3  502    0 -0.20241051451E+03  0.16627705848E+02  0.29247743581E+03  0.35607519914E+03  0.00000000000E+00 0. -1.
         -1    1    3    3    0  502 -0.45229423524E+03  0.14016823344E+03  0.80196794718E+03  0.93132690136E+03  0.00000000000E+00 0.  1.
         13    1    5    5    0    0  0.17335383606E+01 -0.82666376676E+01 -0.35717902720E-01  0.84465217305E+01  0.00000000000E+00 0. -1.
        -13    1    5    5    0    0  0.64503351746E+03 -0.26196627195E+03  0.55980439725E+03  0.89335073149E+03  0.00000000000E+00 0.  1.
          3    1    6    6  503    0  0.44645580642E+01 -0.13157710284E+02  0.22781581640E+03  0.22823913736E+03  0.00000000000E+00 0. -1.
         -3    1    6    6    0  503  0.34731358688E+01  0.12659468061E+03  0.82928156058E+03  0.83889581150E+03  0.00000000000E+00 0.  1.
<mgrwt>
<rscale>  0 0.18034698E+04</rscale>
<asrwt>0</asrwt>
<pdfrwt beam="1">  1        2 0.45904965E+00 0.18034698E+04</pdfrwt>
<pdfrwt beam="2">  1       -1 0.41924838E-01 0.18034698E+04</pdfrwt>
<totfact> 0.10737661E+01</totfact>
</mgrwt>
</event>
<event>
12    7  0.1606355E-007  0.1741863E+04  0.7818608E-02  0.8737842E-01
         -1   -1    0    0    0  501 -0.00000000000E+00  0.00000000000E+00  0.59415972354E+03  0.59415972354E+03  0.00000000000E+00 0.  1.
          2   -1    0    0  501    0  0.00000000000E+00 -0.00000000000E+00 -0.12766291154E+04  0.12766291154E+04  0.00000000000E+00 0. -1.
         24    2    1    2    0    0 -0.23220001129E+03 -0.52613308804E+03  0.42529637489E+02  0.58212106984E+03  0.79519169477E+02 0.  0.
        254    2    1    2    0    0  0.23220001129E+03  0.52613308804E+03 -0.72499902940E+03  0.12886677692E+04  0.89683228925E+03 0.  0.
         23    2    4    4    0    0  0.16523199714E+03  0.14229813600E+03  0.18199734170E+03  0.29712754325E+03  0.87243178448E+02 0.  0.
         23    2    4    4    0    0  0.66968014155E+02  0.38383495203E+03 -0.90699637109E+03  0.99154022590E+03  0.93250292650E+02 0.  0.
          2    1    3    3  502    0 -0.11533914678E+02 -0.30865156146E+01  0.57209570950E+01  0.13239604092E+02  0.00000000000E+00 0. -1.
         -1    1    3    3    0  502 -0.22066609661E+03 -0.52304657242E+03  0.36808680394E+02  0.56888146575E+03  0.00000000000E+00 0.  1.
         13    1    5    5    0    0  0.73851693008E+02  0.17110029489E+02  0.34937675118E+02  0.83471353241E+02  0.00000000000E+00 0. -1.
        -13    1    5    5    0    0  0.91380304129E+02  0.12518810651E+03  0.14705966658E+03  0.21365619001E+03  0.00000000000E+00 0.  1.
          4    1    6    6  503    0  0.23197772499E+02  0.23126082888E+02 -0.41532217225E+02  0.52894965983E+02  0.00000000000E+00 0. -1.
         -4    1    6    6    0  503  0.43770241655E+02  0.36070886915E+03 -0.86546415387E+03  0.93864525992E+03  0.00000000000E+00 0.  1.
<mgrwt>
<rscale>  0 0.17418629E+04</rscale>
<asrwt>0</asrwt>
<pdfrwt beam="1">  1        2 0.19640448E+00 0.17418629E+04</pdfrwt>
<pdfrwt beam="2">  1       -1 0.91409190E-01 0.17418629E+04</pdfrwt>
<totfact> 0.21530388E+01</totfact>
</mgrwt>
</event>
<event>
12    7  0.1606355E-007  0.1207996E+04  0.7818608E-02  0.9105886E-01
         -3   -1    0    0    0  501 -0.00000000000E+00  0.00000000000E+00  0.17419835261E+03  0.17419835261E+03  0.00000000000E+00 0.  1.
          4   -1    0    0  501    0  0.00000000000E+00 -0.00000000000E+00 -0.20942421549E+04  0.20942421549E+04  0.00000000000E+00 0. -1.
         24    2    1    2    0    0 -0.12034432464E+02  0.46433631871E+02  0.51872873364E+02  0.10629785083E+03  0.79419949426E+02 0.  0.
        254    2    1    2    0    0  0.12034432464E+02 -0.46433631871E+02 -0.19719166756E+04  0.21621426566E+04  0.88549679976E+03 0.  0.
         23    2    4    4    0    0  0.10442470490E+03 -0.41715435657E+03 -0.14067963243E+04  0.14738270512E+04  0.90377002203E+02 0.  0.
         23    2    4    4    0    0 -0.92390272433E+02  0.37072072470E+03 -0.56512035127E+03  0.68831560543E+03  0.91910516731E+02 0.  0.
          4    1    3    3  502    0 -0.26084135625E+02  0.13853107697E+02 -0.13067997206E+02  0.32296490136E+02  0.00000000000E+00 0. -1.
         -3    1    3    3    0  502  0.14049703160E+02  0.32580524174E+02  0.64940870570E+02  0.74001360695E+02  0.00000000000E+00 0.  1.
         13    1    5    5    0    0  0.49456080254E+02 -0.31585162524E+03 -0.93458408981E+03  0.98775278990E+03  0.00000000000E+00 0. -1.
        -13    1    5    5    0    0  0.54968624644E+02 -0.10130273133E+03 -0.47221223454E+03  0.48607426132E+03  0.00000000000E+00 0.  1.
          2    1    6    6  503    0  0.11119925530E+02  0.13566904760E+03 -0.19475945909E+03  0.23761521442E+03  0.00000000000E+00 0. -1.
         -2    1    6    6    0  503 -0.10351019796E+03  0.23505167710E+03 -0.37036089218E+03  0.45070039100E+03  0.00000000000E+00 0.  1.
<mgrwt>
<rscale>  0 0.12079959E+04</rscale>
<asrwt>0</asrwt>
<pdfrwt beam="1">  1        4 0.32219110E+00 0.12079959E+04</pdfrwt>
<pdfrwt beam="2">  1       -3 0.26799746E-01 0.12079959E+04</pdfrwt>
<totfact> 0.68741617E-01</totfact>
</mgrwt>
</event>
<event>
12    7  0.1606355E-007  0.1362346E+04  0.7818608E-02  0.8981535E-01
          2   -1    0    0  501    0  0.00000000000E+00  0.00000000000E+00  0.29703812391E+03  0.29703812391E+03  0.00000000000E+00 0. -1.
         -1   -1    0    0    0  501 -0.00000000000E+00 -0.00000000000E+00 -0.15620773670E+04  0.15620773670E+04  0.00000000000E+00 0.  1.
         24    2    1    2    0    0 -0.88288929268E+02  0.37817974312E+03 -0.31213153101E+03  0.50455071018E+03  0.79564271826E+02 0.  0.
        254    2    1    2    0    0  0.88288929268E+02 -0.37817974312E+03 -0.95290771208E+03  0.13545647807E+04  0.88090736422E+03 0.  0.
         23    2    4    4    0    0 -0.35686286208E+03 -0.34475146020E+03 -0.50084133308E+03  0.71083739030E+03  0.90791425221E+02 0.  0.
         23    2    4    4    0    0  0.44515179134E+03 -0.33428282929E+02 -0.45206637900E+03  0.64372739043E+03  0.10365025200E+03 0.  0.
          4    1    3    3  502    0 -0.72465702256E+02  0.36319413987E+03 -0.27422493862E+03  0.46082597388E+03  0.00000000000E+00 0. -1.
         -3    1    3    3    0  502 -0.15823227012E+02  0.14985603251E+02 -0.37906592388E+02  0.43724736298E+02  0.00000000000E+00 0.  1.
         13    1    5    5    0    0  0.16555662692E+01 -0.21688523739E+02 -0.19190827574E+02  0.29007254689E+02  0.00000000000E+00 0.  1.
        -13    1    5    5    0    0 -0.35851842834E+03 -0.32306293646E+03 -0.48165050551E+03  0.68183013561E+03  0.00000000000E+00 0. -1.
          2    1    6    6  503    0  0.22172283911E+03  0.33787457706E+02 -0.20409046119E+03  0.30324169573E+03  0.00000000000E+00 0.  1.
         -2    1    6    6    0  503  0.22342895224E+03 -0.67215740634E+02 -0.24797591781E+03  0.34048569470E+03  0.00000000000E+00 0. -1.
<mgrwt>
<rscale>  0 0.13623458E+04</rscale>
<asrwt>0</asrwt>
<pdfrwt beam="1">  1        2 0.45698173E-01 0.13623458E+04</pdfrwt>
<pdfrwt beam="2">  1       -1 0.24031960E+00 0.13623458E+04</pdfrwt>
<totfact> 0.10021246E+01</totfact>
</mgrwt>
</event>
<event>
12    7  0.1606355E-007  0.2602409E+04  0.7818608E-02  0.8367383E-01
          2   -1    0    0  501    0  0.00000000000E+00  0.00000000000E+00  0.39038291953E+04  0.39038291953E+04  0.00000000000E+00 0. -1.
         -1   -1    0    0    0  501 -0.00000000000E+00 -0.00000000000E+00 -0.43371088654E+03  0.43371088654E+03  0.00000000000E+00 0.  1.
         24    2    1    2    0    0  0.86806532148E+03  0.15295431936E+03  0.27660908995E+04  0.29042205098E+04  0.79407048778E+02 0.  0.
        254    2    1    2    0    0 -0.86806532148E+03 -0.15295431936E+03  0.70402740931E+03  0.14333195720E+04  0.88420471406E+03 0.  0.
         23    2    4    4    0    0 -0.91099881428E+03 -0.83153607718E+02  0.84318608901E+03  0.12475267201E+04  0.92340535867E+02 0.  0.
         23    2    4    4    0    0  0.42933492802E+02 -0.69800711641E+02 -0.13915867971E+03  0.18579285193E+03  0.91860881458E+02 0.  0.
          4    1    3    3  502    0  0.67786996610E+03  0.86296101849E+02  0.21566204780E+04  0.22622923317E+04  0.00000000000E+00 0. -1.
         -3    1    3    3    0  502  0.19019535537E+03  0.66658217511E+02  0.60947042148E+03  0.64192817809E+03  0.00000000000E+00 0.  1.
         13    1    5    5    0    0 -0.38795243044E+03 -0.97208553272E+01  0.30630952988E+03  0.49439570327E+03  0.00000000000E+00 0. -1.
        -13    1    5    5    0    0 -0.52304638383E+03 -0.73432752391E+02  0.53687655913E+03  0.75313101683E+03  0.00000000000E+00 0.  1.
          1    1    6    6  503    0  0.41534253151E+02 -0.45358798744E+02 -0.20793199270E+02  0.64922045133E+02  0.00000000000E+00 0. -1.
         -1    1    6    6    0  503  0.13992396504E+01 -0.24441912897E+02 -0.11836548044E+03  0.12087080680E+03  0.00000000000E+00 0.  1.
<mgrwt>
<rscale>  0 0.26024091E+04</rscale>
<asrwt>0</asrwt>
<pdfrwt beam="1">  1        2 0.60058908E+00 0.26024091E+04</pdfrwt>
<pdfrwt beam="2">  1       -1 0.66724754E-01 0.26024091E+04</pdfrwt>
<totfact> 0.93604666E-01</totfact>
</mgrwt>
</event>
<event>
12    7  0.1606355E-007  0.2557079E+04  0.7818608E-02  0.8382928E-01
         -1   -1    0    0    0  501 -0.00000000000E+00  0.00000000000E+00  0.89768511682E+03  0.89768511682E+03  0.00000000000E+00 0.  1.
          2   -1    0    0  501    0  0.00000000000E+00 -0.00000000000E+00 -0.18209768836E+04  0.18209768836E+04  0.00000000000E+00 0. -1.
         24    2    1    2    0    0  0.61734679807E+03  0.92027692571E+03 -0.60065166615E+03  0.12628988969E+04  0.78131368465E+02 0.  0.
        254    2    1    2    0    0 -0.61734679807E+03 -0.92027692571E+03 -0.32264010066E+03  0.14557631035E+04  0.88719946459E+03 0.  0.
         23    2    4    4    0    0 -0.81827507276E+03 -0.64726921827E+03 -0.34344127071E+03  0.11021861556E+04  0.91273651904E+02 0.  0.
         23    2    4    4    0    0  0.20092827469E+03 -0.27300770744E+03  0.20801170050E+02  0.35357694794E+03  0.98379822866E+02 0.  0.
          2    1    3    3  502    0  0.27782265696E+03  0.45639481342E+03 -0.25396985580E+03  0.59159305447E+03  0.00000000000E+00 0. -1.
         -1    1    3    3    0  502  0.33952414111E+03  0.46388211228E+03 -0.34668181035E+03  0.67130584246E+03  0.00000000000E+00 0.  1.
         13    1    5    5    0    0 -0.78040310952E+03 -0.63012595813E+03 -0.34464353223E+03  0.10605974263E+04  0.00000000000E+00 0. -1.
        -13    1    5    5    0    0 -0.37871963235E+02 -0.17143260140E+02  0.12022615194E+01  0.41588729245E+02  0.00000000000E+00 0.  1.
          2    1    6    6  503    0  0.17867522970E+03 -0.22618292772E+03 -0.18026717370E+02  0.28880532724E+03  0.00000000000E+00 0. -1.
         -2    1    6    6    0  503  0.22253044991E+02 -0.46824779714E+02  0.38827887420E+02  0.64771620700E+02  0.00000000000E+00 0.  1.
<mgrwt>
<rscale>  0 0.25570795E+04</rscale>
<asrwt>0</asrwt>
<pdfrwt beam="1">  1        2 0.28015029E+00 0.25570795E+04</pdfrwt>
<pdfrwt beam="2">  1       -1 0.13810540E+00 0.25570795E+04</pdfrwt>
<totfact> 0.36865615E+00</totfact>
</mgrwt>
</event>
<event>
12    7  0.1606355E-007  0.1291270E+04  0.7818608E-02  0.9036517E-01
         -1   -1    0    0    0  501 -0.00000000000E+00  0.00000000000E+00  0.28122364902E+03  0.28122364902E+03  0.00000000000E+00 0.  1.
          2   -1    0    0  501    0  0.00000000000E+00 -0.00000000000E+00 -0.14822526627E+04  0.14822526627E+04  0.00000000000E+00 0. -1.
         24    2    1    2    0    0 -0.74392020000E+02 -0.27985136256E+03 -0.10115042182E+03  0.31595681552E+03  0.75804641516E+02 0.  0.
        254    2    1    2    0    0  0.74392020000E+02  0.27985136256E+03 -0.10998785919E+04  0.14475194962E+04  0.89539310769E+03 0.  0.
         23    2    4    4    0    0  0.45242054646E+03  0.27626860195E+03 -0.51033808351E+03  0.74127890648E+03  0.89670320741E+02 0.  0.
         23    2    4    4    0    0 -0.37802852646E+03  0.35827606060E+01 -0.58954050838E+03  0.70624058976E+03  0.91100804646E+02 0.  0.
          2    1    3    3  502    0 -0.33869542753E+02 -0.10025434704E+03 -0.75665008087E+02  0.13008948257E+03  0.00000000000E+00 0. -1.
         -1    1    3    3    0  502 -0.40522477246E+02 -0.17959701552E+03 -0.25485413735E+02  0.18586733296E+03  0.00000000000E+00 0.  1.
         13    1    5    5    0    0  0.17407427516E+03  0.80743443613E+02 -0.23675941035E+03  0.30475625563E+03  0.00000000000E+00 0. -1.
        -13    1    5    5    0    0  0.27834627130E+03  0.19552515834E+03 -0.27357867317E+03  0.43652265084E+03  0.00000000000E+00 0.  1.
          1    1    6    6  503    0 -0.24292553353E+03  0.44013478284E+02 -0.35090559748E+03  0.42905097536E+03  0.00000000000E+00 0. -1.
         -1    1    6    6    0  503 -0.13510299293E+03 -0.40430717678E+02 -0.23863491090E+03  0.27718961440E+03  0.00000000000E+00 0.  1.
<mgrwt>
<rscale>  0 0.12912699E+04</rscale>
<asrwt>0</asrwt>
<pdfrwt beam="1">  1        2 0.22803887E+00 0.12912699E+04</pdfrwt>
<pdfrwt beam="2">  1       -1 0.43265177E-01 0.12912699E+04</pdfrwt>
<totfact> 0.76483115E+01</totfact>
</mgrwt>
</event>
<event>
12    7  0.1606355E-007  0.1402889E+04  0.7818608E-02  0.8951730E-01
         -1   -1    0    0    0  501 -0.00000000000E+00  0.00000000000E+00  0.38135060128E+03  0.38135060128E+03  0.00000000000E+00 0.  1.
          2   -1    0    0  501    0  0.00000000000E+00 -0.00000000000E+00 -0.12902154912E+04  0.12902154912E+04  0.00000000000E+00 0. -1.
         24    2    1    2    0    0 -0.22692792346E+03 -0.20431578064E+03 -0.47722911977E+03  0.57217144266E+03  0.79945646369E+02 0.  0.
        254    2    1    2    0    0  0.22692792346E+03  0.20431578064E+03 -0.43163577015E+03  0.10993946498E+04  0.96390763941E+03 0.  0.
         23    2    4    4    0    0  0.42596501223E+03 -0.11903105707E+03  0.78422413455E+02  0.45691312518E+03  0.83695548479E+02 0.  0.
         23    2    4    4    0    0 -0.19903708877E+03  0.32334683771E+03 -0.51005818361E+03  0.64248152464E+03  0.91946825308E+02 0.  0.
          2    1    3    3  502    0 -0.21458892146E+03 -0.19516794534E+03 -0.47512050034E+03  0.55666724526E+03  0.00000000000E+00 0. -1.
         -1    1    3    3    0  502 -0.12339002005E+02 -0.91478352954E+01 -0.21086194287E+01  0.15504197398E+02  0.00000000000E+00 0.  1.
         13    1    5    5    0    0  0.82043458752E+02 -0.24684352177E+02 -0.17857120623E+02  0.87517558943E+02  0.00000000000E+00 0. -1.
        -13    1    5    5    0    0  0.34392155348E+03 -0.94346704896E+02  0.96279534078E+02  0.36939556623E+03  0.00000000000E+00 0.  1.
          3    1    6    6  503    0 -0.29629984313E+02  0.57302073286E+02 -0.15314637721E+03  0.16617844754E+03  0.00000000000E+00 0. -1.
         -3    1    6    6    0  503 -0.16940710445E+03  0.26604476442E+03 -0.35691180639E+03  0.47630307711E+03  0.00000000000E+00 0.  1.
<mgrwt>
<rscale>  0 0.14028891E+04</rscale>
<asrwt>0</asrwt>
<pdfrwt beam="1">  1        2 0.19849469E+00 0.14028891E+04</pdfrwt>
<pdfrwt beam="2">  1       -1 0.58669324E-01 0.14028891E+04</pdfrwt>
<totfact> 0.54704840E+01</totfact>
</mgrwt>
</event>
<event>
12    7  0.1606355E-007  0.1904586E+04  0.7818608E-02  0.8652577E-01
          2   -1    0    0  501    0  0.00000000000E+00  0.00000000000E+00  0.13832471030E+04  0.13832471030E+04  0.00000000000E+00 0. -1.
         -1   -1    0    0    0  501 -0.00000000000E+00 -0.00000000000E+00 -0.65560366966E+03  0.65560366966E+03  0.00000000000E+00 0.  1.
         24    2    1    2    0    0 -0.56086982054E+03 -0.44014764849E+03  0.49620502232E+03  0.87225685879E+03  0.79421001408E+02 0.  0.
        254    2    1    2    0    0  0.56086982054E+03  0.44014764849E+03  0.23143841100E+03  0.11665939138E+04  0.89390867188E+03 0.  0.
         23    2    4    4    0    0  0.18185119445E+02  0.48668457851E+03 -0.12152850476E+03  0.51009835056E+03  0.90766581136E+02 0.  0.
         23    2    4    4    0    0  0.54268470109E+03 -0.46536930020E+02  0.35296691576E+03  0.65649556328E+03  0.98632704135E+02 0.  0.
          4    1    3    3  502    0 -0.29149605039E+03 -0.18788918272E+03  0.26873060578E+03  0.43873503491E+03  0.00000000000E+00 0. -1.
         -3    1    3    3    0  502 -0.26937377015E+03 -0.25225846577E+03  0.22747441654E+03  0.43352182387E+03  0.00000000000E+00 0.  1.
         13    1    5    5    0    0 -0.28666471864E+02  0.10881805765E+03 -0.47819425000E+02  0.12226951250E+03  0.00000000000E+00 0. -1.
        -13    1    5    5    0    0  0.46851591309E+02  0.37786652086E+03 -0.73709079763E+02  0.38782883806E+03  0.00000000000E+00 0.  1.
          1    1    6    6  503    0  0.20030174463E+03 -0.16754154015E+02  0.75211445818E+02  0.21461186397E+03  0.00000000000E+00 0. -1.
         -1    1    6    6    0  503  0.34238295647E+03 -0.29782776005E+02  0.27775546994E+03  0.44188369930E+03  0.00000000000E+00 0.  1.
<mgrwt>
<rscale>  0 0.19045859E+04</rscale>
<asrwt>0</asrwt>
<pdfrwt beam="1">  1        2 0.21280725E+00 0.19045859E+04</pdfrwt>
<pdfrwt beam="2">  1       -1 0.10086210E+00 0.19045859E+04</pdfrwt>
<totfact> 0.14752865E+01</totfact>
</mgrwt>
</event>
<event>
12    7  0.1606355E-007  0.1414163E+04  0.7818608E-02  0.8943630E-01
         -1   -1    0    0    0  501 -0.00000000000E+00  0.00000000000E+00  0.41836745639E+03  0.41836745639E+03  0.00000000000E+00 0.  1.
          2   -1    0    0  501    0  0.00000000000E+00 -0.00000000000E+00 -0.11950370077E+04  0.11950370077E+04  0.00000000000E+00 0. -1.
         24    2    1    2    0    0  0.21068832108E+03  0.14930590022E+03  0.14090631091E+03  0.30428433144E+03  0.77798106833E+02 0.  0.
        254    2    1    2    0    0 -0.21068832108E+03 -0.14930590022E+03 -0.91757586224E+03  0.13091201327E+04  0.89731167289E+03 0.  0.
         23    2    4    4    0    0 -0.32245468701E+03  0.11349089069E+03 -0.94418210118E+03  0.10083327732E+04  0.91640241951E+02 0.  0.
         23    2    4    4    0    0  0.11176636593E+03 -0.26279679091E+03  0.26606238938E+02  0.30078735943E+03  0.90616056938E+02 0.  0.
          4    1    3    3  502    0  0.27772551536E+02  0.57273401887E+02  0.21159394485E+02  0.67076651359E+02  0.00000000000E+00 0. -1.
         -3    1    3    3    0  502  0.18291576954E+03  0.92032498335E+02  0.11974691643E+03  0.23720768009E+03  0.00000000000E+00 0.  1.
         13    1    5    5    0    0 -0.30247843565E+03  0.10599815588E+03 -0.92729142370E+03  0.98112088835E+03  0.00000000000E+00 0. -1.
        -13    1    5    5    0    0 -0.19976251359E+02  0.74927348084E+01 -0.16890677476E+02  0.27211884883E+02  0.00000000000E+00 0.  1.
          2    1    6    6  503    0 -0.19776580246E+01 -0.49650998102E+02 -0.22011977223E+02  0.54347583985E+02  0.00000000000E+00 0.  1.
         -2    1    6    6    0  503  0.11374402395E+03 -0.21314579281E+03  0.48618216161E+02  0.24643977544E+03  0.00000000000E+00 0. -1.
<mgrwt>
<rscale>  0 0.14141635E+04</rscale>
<asrwt>0</asrwt>
<pdfrwt beam="1">  1        2 0.18385185E+00 0.14141635E+04</pdfrwt>
<pdfrwt beam="2">  1       -1 0.64364224E-01 0.14141635E+04</pdfrwt>
<totfact> 0.51754715E+01</totfact>
</mgrwt>
</event>
<event>
12    7  0.1606355E-007  0.1566732E+04  0.7818608E-02  0.8841251E-01
         -1   -1    0    0    0  501 -0.00000000000E+00  0.00000000000E+00  0.26793469695E+03  0.26793469695E+03  0.00000000000E+00 0.  1.
          2   -1    0    0  501    0  0.00000000000E+00 -0.00000000000E+00 -0.22903422963E+04  0.22903422963E+04  0.00000000000E+00 0. -1.
         24    2    1    2    0    0  0.67246279042E+01  0.20195869265E+03  0.10483819683E+03  0.24090344960E+03  0.78809202225E+02 0.  0.
        254    2    1    2    0    0 -0.67246279042E+01 -0.20195869265E+03 -0.21272457962E+04  0.23173735436E+04  0.89677919761E+03 0.  0.
         23    2    4    4    0    0 -0.60527886223E+02  0.15526256721E+03 -0.36109141036E+02  0.19320107771E+03  0.90844353564E+02 0.  0.
         23    2    4    4    0    0  0.53803258319E+02 -0.35722125986E+03 -0.20911366551E+04  0.21241724659E+04  0.93564605827E+02 0.  0.
          2    1    3    3  502    0 -0.78770665894E+01  0.46023296484E+02  0.63687198291E+02  0.78969938733E+02  0.00000000000E+00 0. -1.
         -1    1    3    3    0  502  0.14601694494E+02  0.15593539617E+03  0.41150998539E+02  0.16193351087E+03  0.00000000000E+00 0.  1.
         13    1    5    5    0    0 -0.39461734033E+02  0.10485118744E+03  0.21202075999E+02  0.11401985786E+03  0.00000000000E+00 0.  1.
        -13    1    5    5    0    0 -0.21066152190E+02  0.50411379771E+02 -0.57311217035E+02  0.79181219848E+02  0.00000000000E+00 0. -1.
          3    1    6    6  503    0 -0.14067505615E+02 -0.59174707003E+01 -0.75919531284E+02  0.77438274801E+02  0.00000000000E+00 0. -1.
         -3    1    6    6    0  503  0.67870763934E+02 -0.35130378916E+03 -0.20152171238E+04  0.20467341911E+04  0.00000000000E+00 0.  1.
<mgrwt>
<rscale>  0 0.15667318E+04</rscale>
<asrwt>0</asrwt>
<pdfrwt beam="1">  1        2 0.35236034E+00 0.15667318E+04</pdfrwt>
<pdfrwt beam="2">  1       -1 0.41220724E-01 0.15667318E+04</pdfrwt>
<totfact> 0.29007891E+01</totfact>
</mgrwt>
</event>
<event>
12    7  0.1606355E-007  0.3650783E+04  0.7818608E-02  0.8078957E-01
          2   -1    0    0  501    0  0.00000000000E+00  0.00000000000E+00  0.26591458789E+04  0.26591458789E+04  0.00000000000E+00 0. -1.
         -1   -1    0    0    0  501 -0.00000000000E+00 -0.00000000000E+00 -0.12530545539E+04  0.12530545539E+04  0.00000000000E+00 0.  1.
         24    2    1    2    0    0 -0.12034977472E+03 -0.96393841916E+03  0.21238902967E+04  0.23368832330E+04  0.80323769848E+02 0.  0.
        254    2    1    2    0    0  0.12034977472E+03  0.96393841916E+03 -0.71779897175E+03  0.15753171997E+04  0.10112999415E+04 0.  0.
         23    2    4    4    0    0 -0.20549714577E+03  0.37622068877E+03  0.15970690509E+03  0.46642609671E+03  0.90972108778E+02 0.  0.
         23    2    4    4    0    0  0.32584692049E+03  0.58771773039E+03 -0.87750587684E+03  0.11088911030E+04  0.89635752729E+02 0.  0.
          4    1    3    3  502    0 -0.66324399386E+02 -0.63279766965E+03  0.14750769786E+04  0.16064507180E+04  0.00000000000E+00 0. -1.
         -3    1    3    3    0  502 -0.54025375335E+02 -0.33114074951E+03  0.64881331817E+03  0.73043251502E+03  0.00000000000E+00 0.  1.
         13    1    5    5    0    0 -0.92177458738E+02  0.14169288754E+03  0.10880893461E+03  0.20102970559E+03  0.00000000000E+00 0.  1.
        -13    1    5    5    0    0 -0.11331968704E+03  0.23452780123E+03  0.50897970488E+02  0.26539639112E+03  0.00000000000E+00 0. -1.
          3    1    6    6  503    0  0.32914181018E+03  0.56499731450E+03 -0.85804586109E+03  0.10787951596E+04  0.00000000000E+00 0. -1.
         -3    1    6    6    0  503 -0.32948896821E+01  0.22720415887E+02 -0.19460015756E+02  0.30095943403E+02  0.00000000000E+00 0.  1.
<mgrwt>
<rscale>  0 0.36507834E+04</rscale>
<asrwt>0</asrwt>
<pdfrwt beam="1">  1        2 0.40909936E+00 0.36507834E+04</pdfrwt>
<pdfrwt beam="2">  1       -1 0.19277762E+00 0.36507834E+04</pdfrwt>
<totfact> 0.43742336E-01</totfact>
</mgrwt>
</event>
<event>
12    7  0.1606355E-007  0.1778203E+04  0.7818608E-02  0.8717977E-01
          2   -1    0    0  501    0  0.00000000000E+00  0.00000000000E+00  0.68457225229E+03  0.68457225229E+03  0.00000000000E+00 0. -1.
         -1   -1    0    0    0  501 -0.00000000000E+00 -0.00000000000E+00 -0.11547380310E+04  0.11547380310E+04  0.00000000000E+00 0.  1.
         24    2    1    2    0    0  0.28867124932E+03 -0.34736473857E+03  0.31920416582E+03  0.55878539732E+03  0.79727466985E+02 0.  0.
        254    2    1    2    0    0 -0.28867124932E+03  0.34736473857E+03 -0.78936994454E+03  0.12805248860E+04  0.90146864754E+03 0.  0.
         23    2    4    4    0    0  0.23669105567E+03 -0.13550834562E+03 -0.26264088565E+03  0.38916785178E+03  0.89923381150E+02 0.  0.
         23    2    4    4    0    0 -0.52536230499E+03  0.48287308418E+03 -0.52672905890E+03  0.89135703421E+03  0.88892598171E+02 0.  0.
          2    1    3    3  502    0  0.25275246133E+03 -0.28836488646E+03  0.30064157536E+03  0.48726119411E+03  0.00000000000E+00 0. -1.
         -1    1    3    3    0  502  0.35918787993E+02 -0.58999852109E+02  0.18562590460E+02  0.71524203206E+02  0.00000000000E+00 0.  1.
         13    1    5    5    0    0  0.10114256270E+03 -0.28501142798E+02 -0.14940473042E+03  0.18265789499E+03  0.00000000000E+00 0. -1.
        -13    1    5    5    0    0  0.13554849297E+03 -0.10700720282E+03 -0.11323615523E+03  0.20650995679E+03  0.00000000000E+00 0.  1.
          3    1    6    6  503    0 -0.39638021249E+03  0.32394588598E+03 -0.34205510521E+03  0.61567841029E+03  0.00000000000E+00 0. -1.
         -3    1    6    6    0  503 -0.12898209250E+03  0.15892719820E+03 -0.18467395368E+03  0.27567862392E+03  0.00000000000E+00 0.  1.
<mgrwt>
<rscale>  0 0.17782032E+04</rscale>
<asrwt>0</asrwt>
<pdfrwt beam="1">  1        2 0.10531881E+00 0.17782032E+04</pdfrwt>
<pdfrwt beam="2">  1       -1 0.17765200E+00 0.17782032E+04</pdfrwt>
<totfact> 0.98473037E+00</totfact>
</mgrwt>
</event>
<event>
12    7  0.1606355E-007  0.2245253E+04  0.7818608E-02  0.8499826E-01
         -1   -1    0    0    0  501 -0.00000000000E+00  0.00000000000E+00  0.24209003563E+04  0.24209003563E+04  0.00000000000E+00 0.  1.
          2   -1    0    0  501    0  0.00000000000E+00 -0.00000000000E+00 -0.52058725167E+03  0.52058725167E+03  0.00000000000E+00 0. -1.
         24    2    1    2    0    0 -0.35751123548E+03 -0.45316490404E+03  0.17556755059E+04  0.18498837398E+04  0.80626639300E+02 0.  0.
        254    2    1    2    0    0  0.35751123548E+03  0.45316490404E+03  0.14463759872E+03  0.10916038682E+04  0.91515367907E+03 0.  0.
         23    2    4    4    0    0 -0.13852889582E+03 -0.16513052208E+03  0.17740780228E+03  0.29313052553E+03  0.89407115988E+02 0.  0.
         23    2    4    4    0    0  0.49604013130E+03  0.61829542612E+03 -0.32770203555E+02  0.79847334265E+03  0.90226087462E+02 0.  0.
          2    1    3    3  502    0 -0.36585881505E+02 -0.90020893107E+02  0.33598399747E+03  0.34975353390E+03  0.00000000000E+00 0. -1.
         -1    1    3    3    0  502 -0.32092535397E+03 -0.36314401094E+03  0.14196915084E+04  0.15001302058E+04  0.00000000000E+00 0.  1.
         13    1    5    5    0    0 -0.22585377289E+02 -0.88007832430E+02  0.94370084334E+02  0.13100072768E+03  0.00000000000E+00 0. -1.
        -13    1    5    5    0    0 -0.11594351854E+03 -0.77122689645E+02  0.83037717943E+02  0.16212979785E+03  0.00000000000E+00 0.  1.
          1    1    6    6  503    0  0.23005416300E+03  0.30874480222E+03 -0.58892681701E+02  0.38950817548E+03  0.00000000000E+00 0. -1.
         -1    1    6    6    0  503  0.26598596830E+03  0.30955062390E+03  0.26122478146E+02  0.40896516717E+03  0.00000000000E+00 0.  1.
<mgrwt>
<rscale>  0 0.22452526E+04</rscale>
<asrwt>0</asrwt>
<pdfrwt beam="1">  1        2 0.80090348E-01 0.22452526E+04</pdfrwt>
<pdfrwt beam="2">  1       -1 0.37244620E+00 0.22452526E+04</pdfrwt>
<totfact> 0.67254015E-01</totfact>
</mgrwt>
</event>
<event>
12    7  0.1606355E-007  0.2049499E+04  0.7818608E-02  0.8583822E-01
         -1   -1    0    0    0  501 -0.00000000000E+00  0.00000000000E+00  0.32849807437E+03  0.32849807437E+03  0.00000000000E+00 0.  1.
          2   -1    0    0  501    0  0.00000000000E+00 -0.00000000000E+00 -0.31967038939E+04  0.31967038939E+04  0.00000000000E+00 0. -1.
         24    2    1    2    0    0  0.75375235885E+03 -0.32840694945E+03 -0.12079267736E+04  0.14634610348E+04  0.81470037864E+02 0.  0.
        254    2    1    2    0    0 -0.75375235885E+03  0.32840694945E+03 -0.16602790459E+04  0.20617409335E+04  0.90457471968E+03 0.  0.
         23    2    4    4    0    0 -0.69761113266E+03  0.15981278342E+02 -0.15678560082E+04  0.17185458061E+04  0.91162117311E+02 0.  0.
         23    2    4    4    0    0 -0.56141226196E+02  0.31242567111E+03 -0.92423037759E+02  0.34319512738E+03  0.92082790474E+02 0.  0.
          2    1    3    3  502    0  0.71911918621E+03 -0.29250864245E+03 -0.11351842655E+04  0.13752588943E+04  0.00000000000E+00 0. -1.
         -1    1    3    3    0  502  0.34633172639E+02 -0.35898306999E+02 -0.72742508094E+02  0.88202140429E+02  0.00000000000E+00 0.  1.
         13    1    5    5    0    0  0.11377742658E+01  0.17217962379E+01 -0.10336169561E+00  0.20663485197E+01  0.00000000000E+00 0.  1.
        -13    1    5    5    0    0 -0.69874890692E+03  0.14259482104E+02 -0.15677526465E+04  0.17164794576E+04  0.00000000000E+00 0. -1.
          1    1    6    6  503    0 -0.78786991220E+02  0.20704177871E+03 -0.48335147236E+02  0.22673767789E+03  0.00000000000E+00 0. -1.
         -1    1    6    6    0  503  0.22645765023E+02  0.10538389240E+03 -0.44087890523E+02  0.11645744949E+03  0.00000000000E+00 0.  1.
<mgrwt>
<rscale>  0 0.20494985E+04</rscale>
<asrwt>0</asrwt>
<pdfrwt beam="1">  1        2 0.49180060E+00 0.20494985E+04</pdfrwt>
<pdfrwt beam="2">  1       -1 0.50538165E-01 0.20494985E+04</pdfrwt>
<totfact> 0.54142431E+00</totfact>
</mgrwt>
</event>
<event>
12    7  0.1606355E-007  0.2574886E+04  0.7818608E-02  0.8376782E-01
         -1   -1    0    0    0  501 -0.00000000000E+00  0.00000000000E+00  0.54414754373E+03  0.54414754373E+03  0.00000000000E+00 0.  1.
          2   -1    0    0  501    0  0.00000000000E+00 -0.00000000000E+00 -0.30460663948E+04  0.30460663948E+04  0.00000000000E+00 0. -1.
         24    2    1    2    0    0 -0.42497234643E+02 -0.60466432766E+03 -0.24096802100E+04  0.24860500948E+04  0.80382805273E+02 0.  0.
        254    2    1    2    0    0  0.42497234643E+02  0.60466432766E+03 -0.92238641109E+02  0.11041638437E+04  0.91828365053E+03 0.  0.
         23    2    4    4    0    0  0.58466519156E+01  0.83491431214E+03 -0.13537157414E+03  0.85033305650E+03  0.87319825548E+02 0.  0.
         23    2    4    4    0    0  0.36650582727E+02 -0.23024998448E+03  0.43132933033E+02  0.25383078725E+03  0.90616213076E+02 0.  0.
          2    1    3    3  502    0 -0.59335766267E+02 -0.55586099968E+03 -0.22391289689E+04  0.23078563048E+04  0.00000000000E+00 0. -1.
         -1    1    3    3    0  502  0.16838531624E+02 -0.48803327973E+02 -0.17055124109E+03  0.17819379003E+03  0.00000000000E+00 0.  1.
         13    1    5    5    0    0 -0.14329675237E+02  0.42083975588E+03 -0.27596016360E+02  0.42198694274E+03  0.00000000000E+00 0.  1.
        -13    1    5    5    0    0  0.20176327153E+02  0.41407455626E+03 -0.10777555778E+03  0.42834611376E+03  0.00000000000E+00 0. -1.
          1    1    6    6  503    0 -0.30346337847E+02 -0.81960532832E+02  0.16579992291E+02  0.88956873299E+02  0.00000000000E+00 0. -1.
         -1    1    6    6    0  503  0.66996920574E+02 -0.14828945165E+03  0.26552940742E+02  0.16487391395E+03  0.00000000000E+00 0.  1.
<mgrwt>
<rscale>  0 0.25748861E+04</rscale>
<asrwt>0</asrwt>
<pdfrwt beam="1">  1        2 0.46862559E+00 0.25748861E+04</pdfrwt>
<pdfrwt beam="2">  1       -1 0.83715009E-01 0.25748861E+04</pdfrwt>
<totfact> 0.23227182E+00</totfact>
</mgrwt>
</event>
<event>
12    7  0.1606355E-007  0.1138761E+04  0.7818608E-02  0.9168215E-01
          2   -1    0    0  501    0  0.00000000000E+00  0.00000000000E+00  0.28606571759E+04  0.28606571759E+04  0.00000000000E+00 0. -1.
         -1   -1    0    0    0  501 -0.00000000000E+00 -0.00000000000E+00 -0.11332856277E+03  0.11332856277E+03  0.00000000000E+00 0.  1.
         24    2    1    2    0    0  0.78607808267E+01  0.84564691000E+01  0.10732797968E+04  0.10763727222E+04  0.80718096889E+02 0.  0.
        254    2    1    2    0    0 -0.78607808267E+01 -0.84564691000E+01  0.16740488164E+04  0.18976130165E+04  0.89351128535E+03 0.  0.
         23    2    4    4    0    0 -0.11306183166E+03  0.37974468977E+03  0.45301867781E+03  0.60885033147E+03  0.92107526797E+02 0.  0.
         23    2    4    4    0    0  0.10520105083E+03 -0.38820115887E+03  0.12210301386E+04  0.12887626851E+04  0.90704234769E+02 0.  0.
          4    1    3    3  502    0 -0.33104800085E+02 -0.22816655449E+00  0.27332334838E+03  0.27532096291E+03  0.00000000000E+00 0. -1.
         -3    1    3    3    0  502  0.40965580911E+02  0.86846356545E+01  0.79995644840E+03  0.80105175929E+03  0.00000000000E+00 0.  1.
         13    1    5    5    0    0  0.19250184389E+01  0.14526110700E+03  0.17413253852E+03  0.22677441627E+03  0.00000000000E+00 0.  1.
        -13    1    5    5    0    0 -0.11498685009E+03  0.23448358277E+03  0.27888613929E+03  0.38207591519E+03  0.00000000000E+00 0. -1.
          1    1    6    6  503    0  0.97319419113E+02 -0.18793851769E+03  0.60490752405E+03  0.64086275318E+03  0.00000000000E+00 0. -1.
         -1    1    6    6    0  503  0.78816317164E+01 -0.20026264118E+03  0.61612261454E+03  0.64789993187E+03  0.00000000000E+00 0.  1.
<mgrwt>
<rscale>  0 0.11387610E+04</rscale>
<asrwt>0</asrwt>
<pdfrwt beam="1">  1        2 0.44010105E+00 0.11387610E+04</pdfrwt>
<pdfrwt beam="2">  1       -1 0.17435166E-01 0.11387610E+04</pdfrwt>
<totfact> 0.62472227E+01</totfact>
</mgrwt>
</event>
<event>
12    7  0.1606355E-007  0.1408489E+04  0.7818608E-02  0.8947697E-01
         -1   -1    0    0    0  501 -0.00000000000E+00  0.00000000000E+00  0.62298774978E+03  0.62298774978E+03  0.00000000000E+00 0.  1.
          2   -1    0    0  501    0  0.00000000000E+00 -0.00000000000E+00 -0.79609971003E+03  0.79609971003E+03  0.00000000000E+00 0. -1.
         24    2    1    2    0    0 -0.18278005727E+03  0.30863192793E+03 -0.26074055782E+03  0.45062932242E+03  0.80118234236E+02 0.  0.
        254    2    1    2    0    0  0.18278005727E+03 -0.30863192793E+03  0.87628597561E+02  0.96845813739E+03  0.89530451607E+03 0.  0.
         23    2    4    4    0    0 -0.18535381573E+03 -0.25472617608E+03  0.36761710238E+03  0.49251008057E+03  0.90456529433E+02 0.  0.
         23    2    4    4    0    0  0.36813387300E+03 -0.53905751855E+02 -0.27998850482E+03  0.47594805683E+03  0.98511986246E+02 0.  0.
          4    1    3    3  502    0 -0.15695332747E+03  0.23157374085E+03 -0.16398883985E+03  0.32427316270E+03  0.00000000000E+00 0. -1.
         -3    1    3    3    0  502 -0.25826729807E+02  0.77058187085E+02 -0.96751717964E+02  0.12635615972E+03  0.00000000000E+00 0.  1.
         13    1    5    5    0    0 -0.10278449055E+03 -0.13331356619E+03  0.26285926564E+03  0.31214123720E+03  0.00000000000E+00 0. -1.
        -13    1    5    5    0    0 -0.82569325175E+02 -0.12141260989E+03  0.10475783674E+03  0.18036884337E+03  0.00000000000E+00 0.  1.
          3    1    6    6  503    0  0.50195397835E+02 -0.26654667405E+02 -0.84140641754E+02  0.10153667738E+03  0.00000000000E+00 0. -1.
         -3    1    6    6    0  503  0.31793847516E+03 -0.27251084450E+02 -0.19584786306E+03  0.37441137945E+03  0.00000000000E+00 0.  1.
<mgrwt>
<rscale>  0 0.14084891E+04</rscale>
<asrwt>0</asrwt>
<pdfrwt beam="1">  1        2 0.12247688E+00 0.14084891E+04</pdfrwt>
<pdfrwt beam="2">  1       -1 0.95844269E-01 0.14084891E+04</pdfrwt>
<totfact> 0.40432841E+01</totfact>
</mgrwt>
</event>
<event>
12    7  0.1606355E-007  0.2344430E+04  0.7818608E-02  0.8460606E-01
          2   -1    0    0  501    0  0.00000000000E+00  0.00000000000E+00  0.27515714479E+04  0.27515714479E+04  0.00000000000E+00 0. -1.
         -1   -1    0    0    0  501 -0.00000000000E+00 -0.00000000000E+00 -0.49938289254E+03  0.49938289254E+03  0.00000000000E+00 0.  1.
         24    2    1    2    0    0 -0.67278072025E+02  0.13596599820E+03 -0.41394593268E+03  0.44803464254E+03  0.79816753193E+02 0.  0.
        254    2    1    2    0    0  0.67278072025E+02 -0.13596599820E+03  0.26661344881E+04  0.28029196979E+04  0.85151196877E+03 0.  0.
         23    2    4    4    0    0  0.20787615109E+03 -0.41928889610E+03  0.10431693493E+04  0.11470455151E+04  0.92170764852E+02 0.  0.
         23    2    4    4    0    0 -0.14059807906E+03  0.28332289790E+03  0.16229651388E+04  0.16558741828E+04  0.88677975197E+02 0.  0.
          2    1    3    3  502    0 -0.33462131133E+02  0.13181942924E+03 -0.35161865249E+03  0.37700365108E+03  0.00000000000E+00 0. -1.
         -1    1    3    3    0  502 -0.33815940892E+02  0.41465689655E+01 -0.62327280189E+02  0.71030991464E+02  0.00000000000E+00 0.  1.
         13    1    5    5    0    0  0.41619009507E+02 -0.17903882597E+03  0.36716678786E+03  0.41060746859E+03  0.00000000000E+00 0. -1.
        -13    1    5    5    0    0  0.16625714158E+03 -0.24025007013E+03  0.67600256143E+03  0.73643804654E+03  0.00000000000E+00 0.  1.
          4    1    6    6  503    0 -0.44819208424E+02  0.18002087324E+03  0.82849789900E+03  0.84901416060E+03  0.00000000000E+00 0. -1.
         -4    1    6    6    0  503 -0.95778870638E+02  0.10330202465E+03  0.79446723977E+03  0.80686002220E+03  0.00000000000E+00 0.  1.
<mgrwt>
<rscale>  0 0.23444297E+04</rscale>
<asrwt>0</asrwt>
<pdfrwt beam="1">  1        2 0.42331868E+00 0.23444297E+04</pdfrwt>
<pdfrwt beam="2">  1       -1 0.76828139E-01 0.23444297E+04</pdfrwt>
<totfact> 0.43207773E+00</totfact>
</mgrwt>
</event>
<event>
12    7  0.1606355E-007  0.2577477E+04  0.7818608E-02  0.8375892E-01
          2   -1    0    0  501    0  0.00000000000E+00  0.00000000000E+00  0.16728702019E+04  0.16728702019E+04  0.00000000000E+00 0. -1.
         -1   -1    0    0    0  501 -0.00000000000E+00 -0.00000000000E+00 -0.99281286266E+03  0.99281286266E+03  0.00000000000E+00 0.  1.
         24    2    1    2    0    0 -0.65076035389E+03  0.36469274612E+03 -0.57799413463E+03  0.94699218166E+03  0.78912199238E+02 0.  0.
        254    2    1    2    0    0  0.65076035389E+03 -0.36469274612E+03  0.12580514739E+04  0.17186908829E+04  0.90261564510E+03 0.  0.
         23    2    4    4    0    0  0.80064845824E+03 -0.41465077142E+03  0.12333161414E+04  0.15300698062E+04  0.84093348259E+02 0.  0.
         23    2    4    4    0    0 -0.14988810435E+03  0.49958025296E+02  0.24735332479E+02  0.18862107673E+03  0.10001912715E+03 0.  0.
          4    1    3    3  502    0 -0.34859224961E+03  0.23814553136E+03 -0.31056592241E+03  0.52410022206E+03  0.00000000000E+00 0. -1.
         -3    1    3    3    0  502 -0.30216810428E+03  0.12654721477E+03 -0.26742821222E+03  0.42289195961E+03  0.00000000000E+00 0.  1.
         13    1    5    5    0    0  0.38496513956E+02 -0.15177492054E+01  0.57533070398E+02  0.69241167948E+02  0.00000000000E+00 0. -1.
        -13    1    5    5    0    0  0.76215194429E+03 -0.41313302221E+03  0.11757830710E+04  0.14608286382E+04  0.00000000000E+00 0.  1.
          4    1    6    6  503    0 -0.14114231910E+03  0.29918814926E+02 -0.13152714543E+02  0.14487678774E+03  0.00000000000E+00 0.  1.
         -4    1    6    6    0  503 -0.87457852533E+01  0.20039210369E+02  0.37888047022E+02  0.43744288988E+02  0.00000000000E+00 0. -1.
<mgrwt>
<rscale>  0 0.25774771E+04</rscale>
<asrwt>0</asrwt>
<pdfrwt beam="1">  1        2 0.25736465E+00 0.25774771E+04</pdfrwt>
<pdfrwt beam="2">  1       -1 0.15274044E+00 0.25774771E+04</pdfrwt>
<totfact> 0.34034525E+00</totfact>
</mgrwt>
</event>
<event>
12    7  0.1606355E-007  0.2441399E+04  0.7818608E-02  0.8424165E-01
          2   -1    0    0  501    0  0.00000000000E+00  0.00000000000E+00  0.11114599172E+04  0.11114599172E+04  0.00000000000E+00 0. -1.
         -1   -1    0    0    0  501 -0.00000000000E+00 -0.00000000000E+00 -0.13406762116E+04  0.13406762116E+04  0.00000000000E+00 0.  1.
         24    2    1    2    0    0  0.51462510090E+02 -0.83142109613E+03 -0.73125091810E+03  0.11113645738E+04  0.80584624365E+02 0.  0.
        254    2    1    2    0    0 -0.51462510090E+02  0.83142109613E+03  0.50203462370E+03  0.13407715549E+04  0.92288686743E+03 0.  0.
         23    2    4    4    0    0 -0.27362923287E+03 -0.64506682048E+02  0.22952066334E+03  0.37393929014E+03  0.90093222256E+02 0.  0.
         23    2    4    4    0    0  0.22216672278E+03  0.89592777818E+03  0.27251396036E+03  0.96683226479E+03  0.91957235809E+02 0.  0.
          4    1    3    3  502    0  0.53045183715E+02 -0.67608270793E+03 -0.63214540559E+03  0.92709731598E+03  0.00000000000E+00 0. -1.
         -3    1    3    3    0  502 -0.15826736250E+01 -0.15533838820E+03 -0.99105512514E+02  0.18426725785E+03  0.00000000000E+00 0.  1.
         13    1    5    5    0    0 -0.27409559176E+03 -0.49658029222E+02  0.20737919654E+03  0.34727574699E+03  0.00000000000E+00 0. -1.
        -13    1    5    5    0    0  0.46635888164E+00 -0.14848652826E+02  0.22141466804E+02  0.26663543156E+02  0.00000000000E+00 0.  1.
          3    1    6    6  503    0  0.12681090887E+03  0.39074204832E+03  0.15789647054E+03  0.44010413579E+03  0.00000000000E+00 0. -1.
         -3    1    6    6    0  503  0.95355813918E+02  0.50518572986E+03  0.11461748981E+03  0.52672812899E+03  0.00000000000E+00 0.  1.
<mgrwt>
<rscale>  0 0.24413995E+04</rscale>
<asrwt>0</asrwt>
<pdfrwt beam="1">  1        2 0.17099383E+00 0.24413995E+04</pdfrwt>
<pdfrwt beam="2">  1       -1 0.20625788E+00 0.24413995E+04</pdfrwt>
<totfact> 0.29851529E+00</totfact>
</mgrwt>
</event>
<event>
12    7  0.1606355E-007  0.2248663E+04  0.7818608E-02  0.8498442E-01
          2   -1    0    0  501    0  0.00000000000E+00  0.00000000000E+00  0.61871279755E+03  0.61871279755E+03  0.00000000000E+00 0. -1.
         -1   -1    0    0    0  501 -0.00000000000E+00 -0.00000000000E+00 -0.20431477092E+04  0.20431477092E+04  0.00000000000E+00 0.  1.
         24    2    1    2    0    0 -0.59368584466E+03 -0.29366319059E+03  0.19312569981E+03  0.69454001587E+03  0.79920873761E+02 0.  0.
        254    2    1    2    0    0  0.59368584466E+03  0.29366319059E+03 -0.16175606114E+04  0.19673204908E+04  0.90285471166E+03 0.  0.
         23    2    4    4    0    0  0.43127725424E+03  0.96412282535E+01 -0.15678801749E+03  0.46798659081E+03  0.91301387980E+02 0.  0.
         23    2    4    4    0    0  0.16240859043E+03  0.28402196233E+03 -0.14607725939E+04  0.14993339000E+04  0.84264744908E+02 0.  0.
          4    1    3    3  502    0 -0.59610884530E+03 -0.29357670882E+03  0.19119162680E+03  0.69143855661E+03  0.00000000000E+00 0. -1.
         -3    1    3    3    0  502  0.24230006338E+01 -0.86481764876E-01  0.19340730124E+01  0.31014592669E+01  0.00000000000E+00 0.  1.
         13    1    5    5    0    0  0.29802869863E+01 -0.10763070885E+02 -0.93439394822E+01  0.14561421993E+02  0.00000000000E+00 0. -1.
        -13    1    5    5    0    0  0.42829696725E+03  0.20404299139E+02 -0.14744407801E+03  0.45342516882E+03  0.00000000000E+00 0.  1.
          1    1    6    6  503    0 -0.13051659043E+01  0.22811890870E+02 -0.45968797823E+02  0.51334356881E+02  0.00000000000E+00 0. -1.
         -1    1    6    6    0  503  0.16371375633E+03  0.26121007146E+03 -0.14148037961E+04  0.14479995432E+04  0.00000000000E+00 0.  1.
<mgrwt>
<rscale>  0 0.22486633E+04</rscale>
<asrwt>0</asrwt>
<pdfrwt beam="1">  1        2 0.95186584E-01 0.22486633E+04</pdfrwt>
<pdfrwt beam="2">  1       -1 0.31433042E+00 0.22486633E+04</pdfrwt>
<totfact> 0.13236928E+00</totfact>
</mgrwt>
</event>
<event>
12    7  0.1606355E-007  0.2893474E+04  0.7818608E-02  0.8274822E-01
          2   -1    0    0  501    0  0.00000000000E+00  0.00000000000E+00  0.85325030736E+03  0.85325030736E+03  0.00000000000E+00 0. -1.
         -1   -1    0    0    0  501 -0.00000000000E+00 -0.00000000000E+00 -0.24530290108E+04  0.24530290108E+04  0.00000000000E+00 0.  1.
         24    2    1    2    0    0 -0.10928611920E+04 -0.33938943502E+03 -0.14357157889E+04  0.18377911258E+04  0.81643261825E+02 0.  0.
        254    2    1    2    0    0  0.10928611920E+04  0.33938943502E+03 -0.16406291459E+03  0.14684881923E+04  0.90554412231E+03 0.  0.
         23    2    4    4    0    0  0.68275588915E+03  0.19512604087E+03 -0.53178199293E+03  0.89182680993E+03  0.91286334762E+02 0.  0.
         23    2    4    4    0    0  0.41010530287E+03  0.14426339415E+03  0.36771907834E+03  0.57666138240E+03  0.91229069062E+02 0.  0.
          2    1    3    3  502    0 -0.12884461626E+03 -0.62808100495E+02 -0.15495684947E+03  0.21108628052E+03  0.00000000000E+00 0. -1.
         -1    1    3    3    0  502 -0.96401657576E+03 -0.27658133453E+03 -0.12807589394E+04  0.16267048453E+04  0.00000000000E+00 0.  1.
         13    1    5    5    0    0  0.58463827271E+03  0.17178238089E+03 -0.41361141120E+03  0.73646825850E+03  0.00000000000E+00 0. -1.
        -13    1    5    5    0    0  0.98117616439E+02  0.23343659981E+02 -0.11817058173E+03  0.15535855143E+03  0.00000000000E+00 0.  1.
          4    1    6    6  503    0  0.40339071260E+03  0.13669556314E+03  0.37216383590E+03  0.56561087750E+03  0.00000000000E+00 0. -1.
         -4    1    6    6    0  503  0.67145902720E+01  0.75678310133E+01 -0.44447575624E+01  0.11050504900E+02  0.00000000000E+00 0.  1.
<mgrwt>
<rscale>  0 0.28934739E+04</rscale>
<asrwt>0</asrwt>
<pdfrwt beam="1">  1        2 0.13126928E+00 0.28934739E+04</pdfrwt>
<pdfrwt beam="2">  1       -1 0.37738907E+00 0.28934739E+04</pdfrwt>
<totfact> 0.31658927E-01</totfact>
</mgrwt>
</event>
<event>
12    7  0.1606355E-007  0.1562168E+04  0.7818608E-02  0.8844132E-01
         -1   -1    0    0    0  501 -0.00000000000E+00  0.00000000000E+00  0.68758962613E+03  0.68758962613E+03  0.00000000000E+00 0.  1.
          2   -1    0    0  501    0  0.00000000000E+00 -0.00000000000E+00 -0.88729170741E+03  0.88729170741E+03  0.00000000000E+00 0. -1.
         24    2    1    2    0    0  0.25170237437E+01  0.51002506557E+03  0.96729313533E-02  0.51617127990E+03  0.79378127867E+02 0.  0.
        254    2    1    2    0    0 -0.25170237437E+01 -0.51002506557E+03 -0.19971175422E+03  0.10587100536E+04  0.90600788627E+03 0.  0.
         23    2    4    4    0    0  0.11164128186E+03  0.23680367032E+03 -0.28943229220E+02  0.27885540700E+03  0.91558032985E+02 0.  0.
         23    2    4    4    0    0 -0.11415830560E+03 -0.74682873589E+03 -0.17076852500E+03  0.77985464664E+03  0.90697856958E+02 0.  0.
          4    1    3    3  502    0  0.27498753350E+02  0.70810641513E+02  0.60744830383E+01  0.76205168666E+02  0.00000000000E+00 0. -1.
         -3    1    3    3    0  502 -0.24981729607E+02  0.43921442406E+03 -0.60648101070E+01  0.43996611124E+03  0.00000000000E+00 0.  1.
         13    1    5    5    0    0  0.34442615415E+02  0.99230810568E+01 -0.14814662476E+02  0.38784475226E+02  0.00000000000E+00 0.  1.
        -13    1    5    5    0    0  0.77198666443E+02  0.22688058926E+03 -0.14128566744E+02  0.24007093178E+03  0.00000000000E+00 0. -1.
          1    1    6    6  503    0 -0.99752064684E+02 -0.67702774681E+03 -0.12643393680E+03  0.69591851875E+03  0.00000000000E+00 0. -1.
         -1    1    6    6    0  503 -0.14406240917E+02 -0.69800989077E+02 -0.44334588198E+02  0.83936127884E+02  0.00000000000E+00 0.  1.
<mgrwt>
<rscale>  0 0.15621685E+04</rscale>
<asrwt>0</asrwt>
<pdfrwt beam="1">  1        2 0.13650642E+00 0.15621685E+04</pdfrwt>
<pdfrwt beam="2">  1       -1 0.10578302E+00 0.15621685E+04</pdfrwt>
<totfact> 0.27477924E+01</totfact>
</mgrwt>
</event>
<event>
12    7  0.1606355E-007  0.1991886E+04  0.7818608E-02  0.8610424E-01
         -1   -1    0    0    0  501 -0.00000000000E+00  0.00000000000E+00  0.10071083151E+04  0.10071083151E+04  0.00000000000E+00 0.  1.
          2   -1    0    0  501    0  0.00000000000E+00 -0.00000000000E+00 -0.98490114926E+03  0.98490114926E+03  0.00000000000E+00 0. -1.
         24    2    1    2    0    0  0.74025898051E+03  0.27927116311E+03 -0.61339251010E+02  0.79750050487E+03  0.79175821920E+02 0.  0.
        254    2    1    2    0    0 -0.74025898051E+03 -0.27927116311E+03  0.83546416840E+02  0.11945089595E+04  0.89100836681E+03 0.  0.
         23    2    4    4    0    0 -0.17042790598E+03 -0.44633478116E+03  0.28158785403E+03  0.56196133256E+03  0.90820767115E+02 0.  0.
         23    2    4    4    0    0 -0.56983107453E+03  0.16706361805E+03 -0.19804143719E+03  0.63254762692E+03  0.90985622511E+02 0.  0.
          4    1    3    3  502    0  0.68151407615E+03  0.24783606676E+03 -0.76401880720E+02  0.72919229244E+03  0.00000000000E+00 0. -1.
         -3    1    3    3    0  502  0.58744904363E+02  0.31435096360E+02  0.15062629711E+02  0.68308212431E+02  0.00000000000E+00 0.  1.
         13    1    5    5    0    0 -0.13588822241E+03 -0.41697788106E+03  0.27057542528E+03  0.51531274295E+03  0.00000000000E+00 0. -1.
        -13    1    5    5    0    0 -0.34539683577E+02 -0.29356900099E+02  0.11012428749E+02  0.46648589603E+02  0.00000000000E+00 0.  1.
          3    1    6    6  503    0 -0.32290150921E+03  0.49216414227E+02 -0.12068055574E+03  0.34821176978E+03  0.00000000000E+00 0. -1.
         -3    1    6    6    0  503 -0.24692956532E+03  0.11784720382E+03 -0.77360881453E+02  0.28433585714E+03  0.00000000000E+00 0.  1.
<mgrwt>
<rscale>  0 0.19918857E+04</rscale>
<asrwt>0</asrwt>
<pdfrwt beam="1">  1        2 0.15152325E+00 0.19918857E+04</pdfrwt>
<pdfrwt beam="2">  1       -1 0.15493974E+00 0.19918857E+04</pdfrwt>
<totfact> 0.87280571E+00</totfact>
</mgrwt>
</event>
<event>
12    7  0.1606355E-007  0.1997467E+04  0.7818608E-02  0.8607806E-01
         -1   -1    0    0    0  501 -0.00000000000E+00  0.00000000000E+00  0.53034470816E+03  0.53034470816E+03  0.00000000000E+00 0.  1.
          2   -1    0    0  501    0  0.00000000000E+00 -0.00000000000E+00 -0.18807933535E+04  0.18807933535E+04  0.00000000000E+00 0. -1.
         24    2    1    2    0    0 -0.55355104917E+03 -0.45042181512E+03 -0.14157274853E+03  0.73218623749E+03  0.82190435419E+02 0.  0.
        254    2    1    2    0    0  0.55355104917E+03  0.45042181512E+03 -0.12088758968E+04  0.16789518242E+04  0.92097758846E+03 0.  0.
         23    2    4    4    0    0  0.22722022057E+03 -0.24873307302E+03 -0.59384247799E+03  0.68885309126E+03  0.91501488653E+02 0.  0.
         23    2    4    4    0    0  0.32633082860E+03  0.69915488814E+03 -0.61503341883E+03  0.99009873292E+03  0.81975772945E+02 0.  0.
          2    1    3    3  502    0 -0.18057798264E+03 -0.18624864520E+03 -0.25778459110E+02  0.26069425503E+03  0.00000000000E+00 0. -1.
         -1    1    3    3    0  502 -0.37297306653E+03 -0.26417316993E+03 -0.11579428942E+03  0.47149198247E+03  0.00000000000E+00 0.  1.
         13    1    5    5    0    0  0.14441609573E+03 -0.21644720175E+03 -0.44584722136E+03  0.51622199163E+03  0.00000000000E+00 0. -1.
        -13    1    5    5    0    0  0.82804124835E+02 -0.32285871267E+02 -0.14799525664E+03  0.17263109963E+03  0.00000000000E+00 0.  1.
          1    1    6    6  503    0  0.31621355991E+03  0.67556741130E+03 -0.57195721808E+03  0.93995606386E+03  0.00000000000E+00 0. -1.
         -1    1    6    6    0  503  0.10117268695E+02  0.23587476845E+02 -0.43076200744E+02  0.50142669058E+02  0.00000000000E+00 0.  1.
<mgrwt>
<rscale>  0 0.19974672E+04</rscale>
<asrwt>0</asrwt>
<pdfrwt beam="1">  1        2 0.28935282E+00 0.19974672E+04</pdfrwt>
<pdfrwt beam="2">  1       -1 0.81591494E-01 0.19974672E+04</pdfrwt>
<totfact> 0.12314305E+01</totfact>
</mgrwt>
</event>
<event>
12    7  0.1606355E-007  0.2475083E+04  0.7818608E-02  0.8411917E-01
          2   -1    0    0  501    0  0.00000000000E+00  0.00000000000E+00  0.53575250835E+03  0.53575250835E+03  0.00000000000E+00 0. -1.
         -3   -1    0    0    0  501 -0.00000000000E+00 -0.00000000000E+00 -0.28586117300E+04  0.28586117300E+04  0.00000000000E+00 0.  1.
         24    2    1    2    0    0  0.24755215068E+03  0.16755394294E+02  0.42569932203E+03  0.49923485427E+03  0.80328801815E+02 0.  0.
        254    2    1    2    0    0 -0.24755215068E+03 -0.16755394294E+02 -0.27485585437E+04  0.28951293840E+04  0.87500701252E+03 0.  0.
         23    2    4    4    0    0  0.25825579604E+03  0.30852730509E+02 -0.17433577283E+04  0.17650913947E+04  0.92755137121E+02 0.  0.
         23    2    4    4    0    0 -0.50580794672E+03 -0.47608124803E+02 -0.10052008153E+04  0.11300379894E+04  0.91918256009E+02 0.  0.
          4    1    3    3  502    0  0.91746965558E+02  0.25494603585E+02  0.23001859747E+03  0.24894986580E+03  0.00000000000E+00 0. -1.
         -3    1    3    3    0  502  0.15580518512E+03 -0.87392092912E+01  0.19568072456E+03  0.25028498847E+03  0.00000000000E+00 0.  1.
         13    1    5    5    0    0  0.12611993164E+03  0.39568053163E+02 -0.61855910499E+03  0.63252449309E+03  0.00000000000E+00 0. -1.
        -13    1    5    5    0    0  0.13213586441E+03 -0.87153226532E+01 -0.11247986233E+04  0.11325669016E+04  0.00000000000E+00 0.  1.
          2    1    6    6  503    0 -0.75998762916E+02 -0.20211235112E+02 -0.23220383627E+03  0.24515898427E+03  0.00000000000E+00 0. -1.
         -2    1    6    6    0  503 -0.42980918381E+03 -0.27396889691E+02 -0.77299697904E+03  0.88487900509E+03  0.00000000000E+00 0.  1.
<mgrwt>
<rscale>  0 0.24750825E+04</rscale>
<asrwt>0</asrwt>
<pdfrwt beam="1">  1        2 0.82423462E-01 0.24750825E+04</pdfrwt>
<pdfrwt beam="2">  1       -3 0.43978642E+00 0.24750825E+04</pdfrwt>
<totfact> 0.20158383E-01</totfact>
</mgrwt>
</event>
<event>
12    7  0.1606355E-007  0.2561112E+04  0.7818608E-02  0.8381532E-01
          2   -1    0    0  501    0  0.00000000000E+00  0.00000000000E+00  0.16702793323E+04  0.16702793323E+04  0.00000000000E+00 0. -1.
         -1   -1    0    0    0  501 -0.00000000000E+00 -0.00000000000E+00 -0.98176612431E+03  0.98176612431E+03  0.00000000000E+00 0.  1.
         24    2    1    2    0    0  0.45355336324E+03 -0.11121265281E+03  0.13437209280E+04  0.14247889448E+04  0.79741440857E+02 0.  0.
        254    2    1    2    0    0 -0.45355336324E+03  0.11121265281E+03 -0.65520772000E+03  0.12272565118E+04  0.92670517537E+03 0.  0.
         23    2    4    4    0    0 -0.16005157126E+03 -0.13044131858E+03 -0.78314887643E+03  0.81571982974E+03  0.97186598517E+02 0.  0.
         23    2    4    4    0    0 -0.29350179197E+03  0.24165397139E+03  0.12794115643E+03  0.41153668209E+03  0.91943229328E+02 0.  0.
          4    1    3    3  502    0  0.38522447763E+03 -0.64485145120E+02  0.11298683935E+04  0.11954743070E+04  0.00000000000E+00 0. -1.
         -3    1    3    3    0  502  0.68328885606E+02 -0.46727507695E+02  0.21385253456E+03  0.22931463783E+03  0.00000000000E+00 0.  1.
         13    1    5    5    0    0 -0.11969687327E+03 -0.13341244535E+03 -0.70837766557E+03  0.73070181272E+03  0.00000000000E+00 0. -1.
        -13    1    5    5    0    0 -0.40354697993E+02  0.29711267698E+01 -0.74771210861E+02  0.85018017020E+02  0.00000000000E+00 0.  1.
          4    1    6    6  503    0 -0.24218799820E+03  0.19508996605E+03  0.14026310691E+03  0.34115811655E+03  0.00000000000E+00 0. -1.
         -4    1    6    6    0  503 -0.51313793770E+02  0.46564005348E+02 -0.12321950479E+02  0.70378565549E+02  0.00000000000E+00 0.  1.
<mgrwt>
<rscale>  0 0.25611120E+04</rscale>
<asrwt>0</asrwt>
<pdfrwt beam="1">  1        2 0.25696605E+00 0.25611120E+04</pdfrwt>
<pdfrwt beam="2">  1       -1 0.15104094E+00 0.25611120E+04</pdfrwt>
<totfact> 0.35249349E+00</totfact>
</mgrwt>
</event>
<event>
12    7  0.1606355E-007  0.1634305E+04  0.7818608E-02  0.8799746E-01
         -1   -1    0    0    0  501 -0.00000000000E+00  0.00000000000E+00  0.32456407486E+03  0.32456407486E+03  0.00000000000E+00 0.  1.
          2   -1    0    0  501    0  0.00000000000E+00 -0.00000000000E+00 -0.20573386226E+04  0.20573386226E+04  0.00000000000E+00 0. -1.
         24    2    1    2    0    0  0.21317499847E+03 -0.27357052830E+03 -0.13671557967E+04  0.14126932773E+04  0.79390863967E+02 0.  0.
        254    2    1    2    0    0 -0.21317499847E+03  0.27357052830E+03 -0.36561875102E+03  0.96920942017E+03  0.82789215187E+03 0.  0.
         23    2    4    4    0    0 -0.18493429502E+03  0.51752641779E+03 -0.50822433053E+02  0.55949149047E+03  0.91725250738E+02 0.  0.
         23    2    4    4    0    0 -0.28240703450E+02 -0.24395588949E+03 -0.31479631797E+03  0.40971792970E+03  0.91978512527E+02 0.  0.
          4    1    3    3  502    0  0.78979401076E+02 -0.13822695590E+03 -0.75291303054E+03  0.76955991884E+03  0.00000000000E+00 0. -1.
         -3    1    3    3    0  502  0.13419559739E+03 -0.13534357240E+03 -0.61424276618E+03  0.64313335845E+03  0.00000000000E+00 0.  1.
         13    1    5    5    0    0 -0.15480111089E+03  0.48371465064E+03 -0.27690324569E+02  0.50863543059E+03  0.00000000000E+00 0. -1.
        -13    1    5    5    0    0 -0.30133184128E+02  0.33811767145E+02 -0.23132108484E+02  0.50856059876E+02  0.00000000000E+00 0.  1.
          2    1    6    6  503    0 -0.54855921793E+02 -0.15897582736E+03 -0.24201074686E+03  0.29470610349E+03  0.00000000000E+00 0. -1.
         -2    1    6    6    0  503  0.26615218343E+02 -0.84980062128E+02 -0.72785571110E+02  0.11501182621E+03  0.00000000000E+00 0.  1.
<mgrwt>
<rscale>  0 0.16343050E+04</rscale>
<asrwt>0</asrwt>
<pdfrwt beam="1">  1        2 0.31651364E+00 0.16343050E+04</pdfrwt>
<pdfrwt beam="2">  1       -1 0.49932934E-01 0.16343050E+04</pdfrwt>
<totfact> 0.27218646E+01</totfact>
</mgrwt>
</event>
<event>
12    7  0.1606355E-007  0.2593121E+04  0.7818608E-02  0.8370541E-01
          2   -1    0    0  501    0  0.00000000000E+00  0.00000000000E+00  0.19876376696E+04  0.19876376696E+04  0.00000000000E+00 0. -1.
         -1   -1    0    0    0  501 -0.00000000000E+00 -0.00000000000E+00 -0.84576259817E+03  0.84576259817E+03  0.00000000000E+00 0.  1.
         24    2    1    2    0    0  0.22774119999E+03  0.40297106859E+03  0.16361576784E+04  0.17021610326E+04  0.78028815127E+02 0.  0.
        254    2    1    2    0    0 -0.22774119999E+03 -0.40297106859E+03 -0.49428260704E+03  0.11312392351E+04  0.90616509266E+03 0.  0.
         23    2    4    4    0    0  0.34304303884E+03 -0.17919917188E+03 -0.19187884619E+03  0.44138055013E+03  0.90600379248E+02 0.  0.
         23    2    4    4    0    0 -0.57078423883E+03 -0.22377189671E+03 -0.30240376085E+03  0.68985868498E+03  0.92673953277E+02 0.  0.
          2    1    3    3  502    0  0.15487465044E+03  0.29571577161E+03  0.10480461643E+04  0.10999248781E+04  0.00000000000E+00 0. -1.
         -1    1    3    3    0  502  0.72866549543E+02  0.10725529697E+03  0.58811151417E+03  0.60223615457E+03  0.00000000000E+00 0.  1.
         13    1    5    5    0    0  0.28620517378E+03 -0.11158903037E+03 -0.13016293234E+03  0.33362838931E+03  0.00000000000E+00 0.  1.
        -13    1    5    5    0    0  0.56837865062E+02 -0.67610141508E+02 -0.61715913855E+02  0.10775216083E+03  0.00000000000E+00 0. -1.
          2    1    6    6  503    0 -0.49908548409E+02 -0.17057815560E+02  0.69404835368E+00  0.52747644299E+02  0.00000000000E+00 0. -1.
         -2    1    6    6    0  503 -0.52087569042E+03 -0.20671408115E+03 -0.30309780920E+03  0.63711104068E+03  0.00000000000E+00 0.  1.
<mgrwt>
<rscale>  0 0.25931214E+04</rscale>
<asrwt>0</asrwt>
<pdfrwt beam="1">  1        2 0.30579041E+00 0.25931214E+04</pdfrwt>
<pdfrwt beam="2">  1       -1 0.13011732E+00 0.25931214E+04</pdfrwt>
<totfact> 0.34586277E+00</totfact>
</mgrwt>
</event>
<event>
12    7  0.1606355E-007  0.1305835E+04  0.7818608E-02  0.9024951E-01
          2   -1    0    0  501    0  0.00000000000E+00  0.00000000000E+00  0.12000412013E+04  0.12000412013E+04  0.00000000000E+00 0. -1.
         -1   -1    0    0    0  501 -0.00000000000E+00 -0.00000000000E+00 -0.35523893551E+03  0.35523893551E+03  0.00000000000E+00 0.  1.
         24    2    1    2    0    0 -0.20137864032E+03  0.36299881342E+02 -0.96420384050E+02  0.23990711838E+03  0.79921816958E+02 0.  0.
        254    2    1    2    0    0  0.20137864032E+03 -0.36299881342E+02  0.94122264989E+03  0.13153730185E+04  0.89578739828E+03 0.  0.
         23    2    4    4    0    0 -0.24492592712E+03 -0.28272847682E+03  0.51425524233E+03  0.64304906976E+03  0.95548681171E+02 0.  0.
         23    2    4    4    0    0  0.44630456744E+03  0.24642859548E+03  0.42696740756E+03  0.67232394872E+03  0.99012652337E+02 0.  0.
          2    1    3    3  502    0 -0.73878273975E+02  0.34191683074E+02 -0.74831020900E+02  0.11057464558E+03  0.00000000000E+00 0. -1.
         -1    1    3    3    0  502 -0.12750036635E+03  0.21081982683E+01 -0.21589363150E+02  0.12933247280E+03  0.00000000000E+00 0.  1.
         13    1    5    5    0    0 -0.21741530659E+03 -0.25260380801E+03  0.49777996325E+03  0.59905174332E+03  0.00000000000E+00 0.  1.
        -13    1    5    5    0    0 -0.27510620530E+02 -0.30124668814E+02  0.16475279077E+02  0.43997326439E+02  0.00000000000E+00 0. -1.
          4    1    6    6  503    0  0.10970508229E+03  0.11166927027E+03  0.11965602734E+03  0.19703501182E+03  0.00000000000E+00 0. -1.
         -4    1    6    6    0  503  0.33659948515E+03  0.13475932521E+03  0.30731138022E+03  0.47528893690E+03  0.00000000000E+00 0.  1.
<mgrwt>
<rscale>  0 0.13058351E+04</rscale>
<asrwt>0</asrwt>
<pdfrwt beam="1">  1        2 0.18462172E+00 0.13058351E+04</pdfrwt>
<pdfrwt beam="2">  1       -1 0.54652145E-01 0.13058351E+04</pdfrwt>
<totfact> 0.71554375E+01</totfact>
</mgrwt>
</event>
<event>
12    7  0.1606355E-007  0.1491484E+04  0.7818608E-02  0.8890136E-01
         -1   -1    0    0    0  501 -0.00000000000E+00  0.00000000000E+00  0.49791536486E+03  0.49791536486E+03  0.00000000000E+00 0.  1.
          2   -1    0    0  501    0  0.00000000000E+00 -0.00000000000E+00 -0.11169191018E+04  0.11169191018E+04  0.00000000000E+00 0. -1.
         24    2    1    2    0    0 -0.29910167745E+03  0.21046814298E+03  0.12700317255E+03  0.39531916299E+03  0.79929857537E+02 0.  0.
        254    2    1    2    0    0  0.29910167745E+03 -0.21046814298E+03 -0.74600690945E+03  0.12195153036E+04  0.89271082338E+03 0.  0.
         23    2    4    4    0    0 -0.24912808752E+03  0.11531893433E+03 -0.97515554440E+02  0.30549290714E+03  0.91942222885E+02 0.  0.
         23    2    4    4    0    0  0.54822976497E+03 -0.32578707731E+03 -0.64849135501E+03  0.91402239649E+03  0.90569359164E+02 0.  0.
          2    1    3    3  502    0 -0.43906592291E+02  0.38219934589E+01  0.25183650393E+01  0.44144519967E+02  0.00000000000E+00 0. -1.
         -1    1    3    3    0  502 -0.25519508516E+03  0.20664614952E+03  0.12448480751E+03  0.35117464303E+03  0.00000000000E+00 0.  1.
         13    1    5    5    0    0 -0.15001319991E+03  0.18878857519E+02 -0.48991712668E+02  0.15893570813E+03  0.00000000000E+00 0. -1.
        -13    1    5    5    0    0 -0.99114887606E+02  0.96440076814E+02 -0.48523841772E+02  0.14655719901E+03  0.00000000000E+00 0.  1.
          4    1    6    6  503    0  0.54526831370E+03 -0.31544792368E+03 -0.62130138328E+03  0.88478264864E+03  0.00000000000E+00 0. -1.
         -4    1    6    6    0  503  0.29614512764E+01 -0.10339153629E+02 -0.27189971732E+02  0.29239747848E+02  0.00000000000E+00 0.  1.
<mgrwt>
<rscale>  0 0.14914841E+04</rscale>
<asrwt>0</asrwt>
<pdfrwt beam="1">  1        2 0.17183370E+00 0.14914841E+04</pdfrwt>
<pdfrwt beam="2">  1       -1 0.76602366E-01 0.14914841E+04</pdfrwt>
<totfact> 0.40115714E+01</totfact>
</mgrwt>
</event>
<event>
12    7  0.1606355E-007  0.2215880E+04  0.7818608E-02  0.8511847E-01
         -1   -1    0    0    0  501 -0.00000000000E+00  0.00000000000E+00  0.83656621688E+03  0.83656621688E+03  0.00000000000E+00 0.  1.
          2   -1    0    0  501    0  0.00000000000E+00 -0.00000000000E+00 -0.14673450934E+04  0.14673450934E+04  0.00000000000E+00 0. -1.
         24    2    1    2    0    0  0.45968232163E+03  0.79655067148E+03 -0.32096156749E+03  0.97735369800E+03  0.80019460985E+02 0.  0.
        254    2    1    2    0    0 -0.45968232163E+03 -0.79655067148E+03 -0.30981730905E+03  0.13265576123E+04  0.90441557079E+03 0.  0.
         23    2    4    4    0    0 -0.57830160209E+02 -0.10435844419E+03  0.28674225801E+03  0.32364425864E+03  0.91046533817E+02 0.  0.
         23    2    4    4    0    0 -0.40185216143E+03 -0.69219222729E+03 -0.59655956706E+03  0.10029133537E+04  0.96626283822E+02 0.  0.
          4    1    3    3  502    0  0.95421824425E+02  0.14750571329E+03 -0.93977980336E+02  0.19923634412E+03  0.00000000000E+00 0. -1.
         -3    1    3    3    0  502  0.36426049721E+03  0.64904495819E+03 -0.22698358715E+03  0.77811735388E+03  0.00000000000E+00 0.  1.
         13    1    5    5    0    0 -0.51171841165E+02 -0.81710992929E+01  0.12543758056E+03  0.13571997203E+03  0.00000000000E+00 0.  1.
        -13    1    5    5    0    0 -0.66583190438E+01 -0.96187344893E+02  0.16130467745E+03  0.18792428661E+03  0.00000000000E+00 0. -1.
          2    1    6    6  503    0 -0.16575891932E+03 -0.36083206540E+03 -0.25726643137E+03  0.47314037607E+03  0.00000000000E+00 0.  1.
         -2    1    6    6    0  503 -0.23609324211E+03 -0.33136016189E+03 -0.33929313568E+03  0.52977297758E+03  0.00000000000E+00 0. -1.
<mgrwt>
<rscale>  0 0.22158803E+04</rscale>
<asrwt>0</asrwt>
<pdfrwt beam="1">  1        2 0.22574540E+00 0.22158803E+04</pdfrwt>
<pdfrwt beam="2">  1       -1 0.12870250E+00 0.22158803E+04</pdfrwt>
<totfact> 0.71658738E+00</totfact>
</mgrwt>
</event>
<event>
12    7  0.1606355E-007  0.1481196E+04  0.7818608E-02  0.8897054E-01
         -1   -1    0    0    0  501 -0.00000000000E+00  0.00000000000E+00  0.34145605290E+03  0.34145605290E+03  0.00000000000E+00 0.  1.
          2   -1    0    0  501    0  0.00000000000E+00 -0.00000000000E+00 -0.16063142851E+04  0.16063142851E+04  0.00000000000E+00 0. -1.
         24    2    1    2    0    0 -0.43658587600E+03  0.22466598293E+03 -0.52294653631E+03  0.72173736985E+03  0.79685131535E+02 0.  0.
        254    2    1    2    0    0  0.43658587600E+03 -0.22466598293E+03 -0.74191169590E+03  0.12260329682E+04  0.84358866962E+03 0.  0.
         23    2    4    4    0    0 -0.13953602077E+03 -0.34010472513E+03 -0.24395700620E+03  0.45044344933E+03  0.90789619581E+02 0.  0.
         23    2    4    4    0    0  0.57612189677E+03  0.11543874220E+03 -0.49795468970E+03  0.77558951884E+03  0.91310928113E+02 0.  0.
          4    1    3    3  502    0 -0.32316429737E+03  0.16769363870E+03 -0.33374339598E+03  0.49390381039E+03  0.00000000000E+00 0. -1.
         -3    1    3    3    0  502 -0.11342157863E+03  0.56972344232E+02 -0.18920314033E+03  0.22783355946E+03  0.00000000000E+00 0.  1.
         13    1    5    5    0    0 -0.13601378929E+03 -0.23771492401E+03 -0.15459374797E+03  0.31449540996E+03  0.00000000000E+00 0. -1.
        -13    1    5    5    0    0 -0.35222314817E+01 -0.10238980111E+03 -0.89363258224E+02  0.13594803937E+03  0.00000000000E+00 0.  1.
          4    1    6    6  503    0  0.57104189624E+03  0.12233019422E+03 -0.48094159239E+03  0.75654367949E+03  0.00000000000E+00 0. -1.
         -4    1    6    6    0  503  0.50800005311E+01 -0.68914520222E+01 -0.17013097316E+02  0.19045839353E+02  0.00000000000E+00 0.  1.
<mgrwt>
<rscale>  0 0.14811965E+04</rscale>
<asrwt>0</asrwt>
<pdfrwt beam="1">  1        2 0.24712528E+00 0.14811965E+04</pdfrwt>
<pdfrwt beam="2">  1       -1 0.52531700E-01 0.14811965E+04</pdfrwt>
<totfact> 0.44521712E+01</totfact>
</mgrwt>
</event>
<event>
12    7  0.1606355E-007  0.1653515E+04  0.7818608E-02  0.8788330E-01
         -1   -1    0    0    0  501 -0.00000000000E+00  0.00000000000E+00  0.57767925396E+03  0.57767925396E+03  0.00000000000E+00 0.  1.
          2   -1    0    0  501    0  0.00000000000E+00 -0.00000000000E+00 -0.11832310653E+04  0.11832310653E+04  0.00000000000E+00 0. -1.
         24    2    1    2    0    0 -0.85506693774E+02 -0.39920470642E+03  0.22321591514E+03  0.47174916151E+03  0.77756892322E+02 0.  0.
        254    2    1    2    0    0  0.85506693774E+02  0.39920470642E+03 -0.82876772645E+03  0.12891611577E+04  0.89911331534E+03 0.  0.
         23    2    4    4    0    0  0.18287918876E+03 -0.19836653588E+03 -0.54506557237E+03  0.61502749963E+03  0.91478231684E+02 0.  0.
         23    2    4    4    0    0 -0.97372494988E+02  0.59757124230E+03 -0.28370215408E+03  0.67413365808E+03  0.86002815781E+02 0.  0.
          2    1    3    3  502    0 -0.10040672157E+00 -0.13991912727E+03  0.50722110999E+02  0.14882911275E+03  0.00000000000E+00 0. -1.
         -1    1    3    3    0  502 -0.85406287053E+02 -0.25928557915E+03  0.17249380415E+03  0.32292004876E+03  0.00000000000E+00 0.  1.
         13    1    5    5    0    0  0.12426579046E+03 -0.12780419837E+03 -0.44449181971E+03  0.47890382916E+03  0.00000000000E+00 0.  1.
        -13    1    5    5    0    0  0.58613398304E+02 -0.70562337511E+02 -0.10057375267E+03  0.13612367047E+03  0.00000000000E+00 0. -1.
          1    1    6    6  503    0 -0.98440683006E+01  0.26722152336E+01 -0.39427663190E+01  0.10935804552E+02  0.00000000000E+00 0. -1.
         -1    1    6    6    0  503 -0.87528426688E+02  0.59489902707E+03 -0.27975938776E+03  0.66319785353E+03  0.00000000000E+00 0.  1.
<mgrwt>
<rscale>  0 0.16535151E+04</rscale>
<asrwt>0</asrwt>
<pdfrwt beam="1">  1        2 0.18203555E+00 0.16535151E+04</pdfrwt>
<pdfrwt beam="2">  1       -1 0.88873732E-01 0.16535151E+04</pdfrwt>
<totfact> 0.26221623E+01</totfact>
</mgrwt>
</event>
<event>
12    7  0.1606355E-007  0.1956055E+04  0.7818608E-02  0.8627446E-01
         -1   -1    0    0    0  501 -0.00000000000E+00  0.00000000000E+00  0.47122423577E+03  0.47122423577E+03  0.00000000000E+00 0.  1.
          2   -1    0    0  501    0  0.00000000000E+00 -0.00000000000E+00 -0.20298999351E+04  0.20298999351E+04  0.00000000000E+00 0. -1.
         24    2    1    2    0    0  0.59420428363E+03  0.45063076446E+03 -0.38407428098E+03  0.84260130665E+03  0.79480136475E+02 0.  0.
        254    2    1    2    0    0 -0.59420428363E+03 -0.45063076446E+03 -0.11746014184E+04  0.16585228643E+04  0.90269750341E+03 0.  0.
         23    2    4    4    0    0  0.23069171128E+03 -0.12957857839E+03 -0.32512345462E+03  0.42822568786E+03  0.87536880020E+02 0.  0.
         23    2    4    4    0    0 -0.82489599491E+03 -0.32105218606E+03 -0.84947796377E+03  0.12302971764E+04  0.92143490101E+02 0.  0.
          4    1    3    3  502    0  0.35133832255E+02  0.33416172810E+02 -0.51967723140E+01  0.48765081940E+02  0.00000000000E+00 0. -1.
         -3    1    3    3    0  502  0.55907045138E+03  0.41721459165E+03 -0.37887750866E+03  0.79383622471E+03  0.00000000000E+00 0.  1.
         13    1    5    5    0    0  0.12504541186E+03 -0.71265844089E+02 -0.24244359200E+03  0.28194692916E+03  0.00000000000E+00 0. -1.
        -13    1    5    5    0    0  0.10564629942E+03 -0.58312734302E+02 -0.82679862625E+02  0.14627875870E+03  0.00000000000E+00 0.  1.
          3    1    6    6  503    0 -0.43397056534E+03 -0.20428826773E+03 -0.41466966101E+03  0.63404658794E+03  0.00000000000E+00 0. -1.
         -3    1    6    6    0  503 -0.39092542957E+03 -0.11676391833E+03 -0.43480830276E+03  0.59625058848E+03  0.00000000000E+00 0.  1.
<mgrwt>
<rscale>  0 0.19560553E+04</rscale>
<asrwt>0</asrwt>
<pdfrwt beam="1">  1        2 0.31229230E+00 0.19560553E+04</pdfrwt>
<pdfrwt beam="2">  1       -1 0.72496037E-01 0.19560553E+04</pdfrwt>
<totfact> 0.13099217E+01</totfact>
</mgrwt>
</event>
<event>
12    7  0.1606355E-007  0.1151652E+04  0.7818608E-02  0.9156261E-01
         -1   -1    0    0    0  501 -0.00000000000E+00  0.00000000000E+00  0.15857638093E+03  0.15857638093E+03  0.00000000000E+00 0.  1.
          2   -1    0    0  501    0  0.00000000000E+00 -0.00000000000E+00 -0.20909511241E+04  0.20909511241E+04  0.00000000000E+00 0. -1.
         24    2    1    2    0    0 -0.10254235202E+03 -0.26429815903E+02 -0.69384205607E+03  0.70628943243E+03  0.78832064948E+02 0.  0.
        254    2    1    2    0    0  0.10254235202E+03  0.26429815903E+02 -0.12385326871E+04  0.15432380726E+04  0.91455293044E+03 0.  0.
         23    2    4    4    0    0  0.31841458199E+03  0.35489668230E+03 -0.47476756602E+03  0.67930008903E+03  0.93299882546E+02 0.  0.
         23    2    4    4    0    0 -0.21587222997E+03 -0.32846686639E+03 -0.76376512109E+03  0.86393798358E+03  0.92522306931E+02 0.  0.
          2    1    3    3  502    0 -0.10125035018E+02  0.15921956795E+02 -0.26051180214E+03  0.26119422677E+03  0.00000000000E+00 0. -1.
         -1    1    3    3    0  502 -0.92417317005E+02 -0.42351772698E+02 -0.43333025393E+03  0.44509520566E+03  0.00000000000E+00 0.  1.
         13    1    5    5    0    0  0.10763785400E+03  0.16836761330E+03 -0.24358939682E+03  0.31507039700E+03  0.00000000000E+00 0. -1.
        -13    1    5    5    0    0  0.21077672799E+03  0.18652906900E+03 -0.23117816920E+03  0.36422969203E+03  0.00000000000E+00 0.  1.
          3    1    6    6  503    0 -0.22246319522E+03 -0.29643274719E+03 -0.68971941361E+03  0.78299113427E+03  0.00000000000E+00 0. -1.
         -3    1    6    6    0  503  0.65909652532E+01 -0.32034119205E+02 -0.74045707488E+02  0.80946849312E+02  0.00000000000E+00 0.  1.
<mgrwt>
<rscale>  0 0.11516518E+04</rscale>
<asrwt>0</asrwt>
<pdfrwt beam="1">  1        2 0.32168475E+00 0.11516518E+04</pdfrwt>
<pdfrwt beam="2">  1       -1 0.24396369E-01 0.11516518E+04</pdfrwt>
<totfact> 0.98148070E+01</totfact>
</mgrwt>
</event>
<event>
12    7  0.1606355E-007  0.1369381E+04  0.7818608E-02  0.8976285E-01
          2   -1    0    0  501    0  0.00000000000E+00  0.00000000000E+00  0.10943371410E+04  0.10943371410E+04  0.00000000000E+00 0. -1.
         -1   -1    0    0    0  501 -0.00000000000E+00 -0.00000000000E+00 -0.42838811703E+03  0.42838811703E+03  0.00000000000E+00 0.  1.
         24    2    1    2    0    0  0.90900945452E+02  0.37109202220E+03  0.15034250067E+03  0.41837552034E+03  0.80392398203E+02 0.  0.
        254    2    1    2    0    0 -0.90900945452E+02 -0.37109202220E+03  0.51560652335E+03  0.11043497377E+04  0.89875802389E+03 0.  0.
         23    2    4    4    0    0  0.22710294689E+00  0.16026695062E+03 -0.15355043832E+03  0.24016289077E+03  0.91732927335E+02 0.  0.
         23    2    4    4    0    0 -0.91128048399E+02 -0.53135897282E+03  0.66915696167E+03  0.86418684697E+03  0.91657994333E+02 0.  0.
          2    1    3    3  502    0  0.10498096205E+02  0.13266380260E+03  0.18658281589E+02  0.13438015485E+03  0.00000000000E+00 0. -1.
         -1    1    3    3    0  502  0.80402849248E+02  0.23842821960E+03  0.13168421908E+03  0.28399536549E+03  0.00000000000E+00 0.  1.
         13    1    5    5    0    0 -0.43510887502E+01  0.53081311405E+01 -0.57252064430E+02  0.57662007518E+02  0.00000000000E+00 0. -1.
        -13    1    5    5    0    0  0.45781916971E+01  0.15495881948E+03 -0.96298373892E+02  0.18250088325E+03  0.00000000000E+00 0.  1.
          3    1    6    6  503    0 -0.71672728926E+02 -0.20461709848E+03  0.22510351316E+03  0.31253276420E+03  0.00000000000E+00 0. -1.
         -3    1    6    6    0  503 -0.19455319473E+02 -0.32674187433E+03  0.44405344851E+03  0.55165408277E+03  0.00000000000E+00 0.  1.
<mgrwt>
<rscale>  0 0.13693809E+04</rscale>
<asrwt>0</asrwt>
<pdfrwt beam="1">  1        2 0.16835956E+00 0.13693809E+04</pdfrwt>
<pdfrwt beam="2">  1       -1 0.65905865E-01 0.13693809E+04</pdfrwt>
<totfact> 0.57018804E+01</totfact>
</mgrwt>
</event>
<event>
12    7  0.1606355E-007  0.1626302E+04  0.7818608E-02  0.8804551E-01
         -1   -1    0    0    0  501 -0.00000000000E+00  0.00000000000E+00  0.45835286152E+03  0.45835286152E+03  0.00000000000E+00 0.  1.
          2   -1    0    0  501    0  0.00000000000E+00 -0.00000000000E+00 -0.14425881695E+04  0.14425881695E+04  0.00000000000E+00 0. -1.
         24    2    1    2    0    0  0.21205895934E+03 -0.58512256848E+02 -0.94677326604E+03  0.97553521591E+03  0.83046094111E+02 0.  0.
        254    2    1    2    0    0 -0.21205895934E+03  0.58512256848E+02 -0.37462041983E+02  0.92540581516E+03  0.89809789650E+03 0.  0.
         23    2    4    4    0    0 -0.22465053931E+03  0.33238541808E+03 -0.32027954298E+03  0.52129463600E+03  0.90670727979E+02 0.  0.
         23    2    4    4    0    0  0.12591579970E+02 -0.27387316123E+03  0.28281750099E+03  0.40411117916E+03  0.90305315056E+02 0.  0.
          4    1    3    3  502    0  0.18639079828E+03 -0.28719504379E+02 -0.85735030745E+03  0.87784730409E+03  0.00000000000E+00 0. -1.
         -3    1    3    3    0  502  0.25668161058E+02 -0.29792752469E+02 -0.89422958597E+02  0.97687911822E+02  0.00000000000E+00 0.  1.
         13    1    5    5    0    0 -0.16428531623E+03  0.23859904360E+03 -0.17611306955E+03  0.33902062179E+03  0.00000000000E+00 0.  1.
        -13    1    5    5    0    0 -0.60365223080E+02  0.93786374480E+02 -0.14416647343E+03  0.18227401421E+03  0.00000000000E+00 0. -1.
          4    1    6    6  503    0 -0.35057679066E+02 -0.16527176904E+03  0.18340090219E+03  0.24935855596E+03  0.00000000000E+00 0. -1.
         -4    1    6    6    0  503  0.47649259036E+02 -0.10860139218E+03  0.99416598798E+02  0.15475262320E+03  0.00000000000E+00 0.  1.
<mgrwt>
<rscale>  0 0.16263018E+04</rscale>
<asrwt>0</asrwt>
<pdfrwt beam="1">  1        2 0.22193664E+00 0.16263018E+04</pdfrwt>
<pdfrwt beam="2">  1       -1 0.70515826E-01 0.16263018E+04</pdfrwt>
<totfact> 0.30326302E+01</totfact>
</mgrwt>
</event>
<event>
12    7  0.1606355E-007  0.2505790E+04  0.7818608E-02  0.8400926E-01
          2   -1    0    0  501    0  0.00000000000E+00  0.00000000000E+00  0.83778479492E+03  0.83778479492E+03  0.00000000000E+00 0. -1.
         -1   -1    0    0    0  501 -0.00000000000E+00 -0.00000000000E+00 -0.18736859488E+04  0.18736859488E+04  0.00000000000E+00 0.  1.
         24    2    1    2    0    0 -0.80026414943E+02  0.48955711723E+03  0.59829298895E+03  0.78096387173E+03  0.76679007545E+02 0.  0.
        254    2    1    2    0    0  0.80026414943E+02 -0.48955711723E+03 -0.16341941429E+04  0.19305068720E+04  0.90010882024E+03 0.  0.
         23    2    4    4    0    0  0.46217585788E+03 -0.11749150069E+03 -0.81497416817E+03  0.94867255636E+03  0.91574822149E+02 0.  0.
         23    2    4    4    0    0 -0.38214944294E+03 -0.37206561654E+03 -0.81921997469E+03  0.98183431568E+03  0.91685531867E+02 0.  0.
          4    1    3    3  502    0 -0.80165761927E+02  0.45672355759E+03  0.58248963982E+03  0.74452477322E+03  0.00000000000E+00 0. -1.
         -3    1    3    3    0  502  0.13934698361E+00  0.32833559641E+02  0.15803349131E+02  0.36439098507E+02  0.00000000000E+00 0.  1.
         13    1    5    5    0    0  0.20023718963E+03 -0.56965729552E+02 -0.26947718998E+03  0.34052603773E+03  0.00000000000E+00 0. -1.
        -13    1    5    5    0    0  0.26193866826E+03 -0.60525771134E+02 -0.54549697819E+03  0.60814651863E+03  0.00000000000E+00 0.  1.
          4    1    6    6  503    0 -0.24295276386E+03 -0.24507452774E+03 -0.44767986675E+03  0.56524758532E+03  0.00000000000E+00 0.  1.
         -4    1    6    6    0  503 -0.13919667908E+03 -0.12699108881E+03 -0.37154010794E+03  0.41658673036E+03  0.00000000000E+00 0. -1.
<mgrwt>
<rscale>  0 0.25057898E+04</rscale>
<asrwt>0</asrwt>
<pdfrwt beam="1">  1        2 0.12888997E+00 0.25057898E+04</pdfrwt>
<pdfrwt beam="2">  1       -1 0.28825937E+00 0.25057898E+04</pdfrwt>
<totfact> 0.12950786E+00</totfact>
</mgrwt>
</event>
<event>
12    7  0.1606355E-007  0.2141076E+04  0.7818608E-02  0.8543362E-01
         -1   -1    0    0    0  501 -0.00000000000E+00  0.00000000000E+00  0.62651707165E+03  0.62651707165E+03  0.00000000000E+00 0.  1.
          2   -1    0    0  501    0  0.00000000000E+00 -0.00000000000E+00 -0.18292421797E+04  0.18292421797E+04  0.00000000000E+00 0. -1.
         24    2    1    2    0    0  0.45062063811E+03 -0.69428361940E+03 -0.30314624525E+03  0.88520257578E+03  0.81223460351E+02 0.  0.
        254    2    1    2    0    0 -0.45062063811E+03  0.69428361940E+03 -0.89957886279E+03  0.15705566756E+04  0.98606157877E+03 0.  0.
         23    2    4    4    0    0  0.19455117674E+03  0.27407591196E+03  0.42354311954E+02  0.35060294890E+03  0.90337003227E+02 0.  0.
         23    2    4    4    0    0 -0.64517181484E+03  0.42020770744E+03 -0.94193317474E+03  0.12199537267E+04  0.90707229349E+02 0.  0.
          4    1    3    3  502    0  0.44077606441E+03 -0.68932096490E+03 -0.30643368225E+03  0.87369819344E+03  0.00000000000E+00 0. -1.
         -3    1    3    3    0  502  0.98445736958E+01 -0.49626544953E+01  0.32874370036E+01  0.11504382337E+02  0.00000000000E+00 0.  1.
         13    1    5    5    0    0  0.16744793240E+03  0.27087829231E+03  0.49772465478E+02  0.32232151282E+03  0.00000000000E+00 0.  1.
        -13    1    5    5    0    0  0.27103244338E+02  0.31976196524E+01 -0.74181535240E+01  0.28281436081E+02  0.00000000000E+00 0. -1.
          1    1    6    6  503    0 -0.41970134564E+03  0.30079034126E+03 -0.68548369469E+03  0.85820274097E+03  0.00000000000E+00 0.  1.
         -1    1    6    6    0  503 -0.22547046920E+03  0.11941736618E+03 -0.25644948005E+03  0.36175098569E+03  0.00000000000E+00 0. -1.
<mgrwt>
<rscale>  0 0.21410759E+04</rscale>
<asrwt>0</asrwt>
<pdfrwt beam="1">  1        2 0.28142187E+00 0.21410759E+04</pdfrwt>
<pdfrwt beam="2">  1       -1 0.96387242E-01 0.21410759E+04</pdfrwt>
<totfact> 0.90077755E+00</totfact>
</mgrwt>
</event>
<event>
12    7  0.1606355E-007  0.2183158E+04  0.7818608E-02  0.8525471E-01
         -1   -1    0    0    0  501 -0.00000000000E+00  0.00000000000E+00  0.71904690753E+03  0.71904690753E+03  0.00000000000E+00 0.  1.
          2   -1    0    0  501    0  0.00000000000E+00 -0.00000000000E+00 -0.16571163223E+04  0.16571163223E+04  0.00000000000E+00 0. -1.
         24    2    1    2    0    0 -0.42939978651E+03  0.33364420111E+02  0.47808049505E+03  0.64798643534E+03  0.76341990078E+02 0.  0.
        254    2    1    2    0    0  0.42939978651E+03 -0.33364420111E+02 -0.14161499098E+04  0.17281767945E+04  0.89197371303E+03 0.  0.
         23    2    4    4    0    0  0.33791789940E+03 -0.20779566516E+03 -0.14527011039E+04  0.15088049179E+04  0.93724264786E+02 0.  0.
         23    2    4    4    0    0  0.91481887114E+02  0.17443124505E+03  0.36551194106E+02  0.21937187656E+03  0.89402659439E+02 0.  0.
          2    1    3    3  502    0 -0.26742626056E+02  0.89189758402E+01  0.96478599682E+01  0.29795928923E+02  0.00000000000E+00 0. -1.
         -1    1    3    3    0  502 -0.40265716046E+03  0.24445444271E+02  0.46843263509E+03  0.61819050642E+03  0.00000000000E+00 0.  1.
         13    1    5    5    0    0  0.26462253008E+03 -0.20414216795E+03 -0.11963543503E+04  0.12421605531E+04  0.00000000000E+00 0. -1.
        -13    1    5    5    0    0  0.73295369316E+02 -0.36534972140E+01 -0.25634675359E+03  0.26664436481E+03  0.00000000000E+00 0.  1.
          3    1    6    6  503    0  0.39334104098E+02  0.12030422909E+03 -0.16118967183E+02  0.12759349664E+03  0.00000000000E+00 0. -1.
         -3    1    6    6    0  503  0.52147783015E+02  0.54127015963E+02  0.52670161289E+02  0.91778379920E+02  0.00000000000E+00 0.  1.
<mgrwt>
<rscale>  0 0.21831577E+04</rscale>
<asrwt>0</asrwt>
<pdfrwt beam="1">  1        2 0.25494097E+00 0.21831577E+04</pdfrwt>
<pdfrwt beam="2">  1       -1 0.11062260E+00 0.21831577E+04</pdfrwt>
<totfact> 0.81335918E+00</totfact>
</mgrwt>
</event>
<event>
12    7  0.1606355E-007  0.1304669E+04  0.7818608E-02  0.9025871E-01
          2   -1    0    0  501    0  0.00000000000E+00  0.00000000000E+00  0.56026114574E+03  0.56026114574E+03  0.00000000000E+00 0. -1.
         -1   -1    0    0    0  501 -0.00000000000E+00 -0.00000000000E+00 -0.75953878844E+03  0.75953878844E+03  0.00000000000E+00 0.  1.
         24    2    1    2    0    0  0.33276625855E+03 -0.27795178596E+02 -0.95800655915E+02  0.35827698122E+03  0.87628048089E+02 0.  0.
        254    2    1    2    0    0 -0.33276625855E+03  0.27795178596E+02 -0.10347698679E+03  0.96152295296E+03  0.89571923474E+03 0.  0.
         23    2    4    4    0    0 -0.39438435513E+02 -0.38716299414E+03  0.90124904509E+02  0.41002795166E+03  0.92465390802E+02 0.  0.
         23    2    4    4    0    0 -0.29332782304E+03  0.41495817274E+03 -0.19360189130E+03  0.55149500130E+03  0.91834346804E+02 0.  0.
          2    1    3    3  502    0  0.43258213635E+02  0.22045597012E+02 -0.30508895174E+02  0.57341730696E+02  0.00000000000E+00 0. -1.
         -1    1    3    3    0  502  0.28950804492E+03 -0.49840775607E+02 -0.65291760741E+02  0.30093525052E+03  0.00000000000E+00 0.  1.
         13    1    5    5    0    0 -0.64428707284E+02 -0.18876215445E+03  0.56014650310E+02  0.20717106536E+03  0.00000000000E+00 0.  1.
        -13    1    5    5    0    0  0.24990271771E+02 -0.19840083969E+03  0.34110254199E+02  0.20285688629E+03  0.00000000000E+00 0. -1.
          4    1    6    6  503    0 -0.10706883722E+03  0.22771670235E+03 -0.10838433817E+03  0.27398138111E+03  0.00000000000E+00 0. -1.
         -4    1    6    6    0  503 -0.18625898582E+03  0.18724147039E+03 -0.85217553121E+02  0.27751362019E+03  0.00000000000E+00 0.  1.
<mgrwt>
<rscale>  0 0.13046687E+04</rscale>
<asrwt>0</asrwt>
<pdfrwt beam="1">  1        2 0.86194023E-01 0.13046687E+04</pdfrwt>
<pdfrwt beam="2">  1       -1 0.11685212E+00 0.13046687E+04</pdfrwt>
<totfact> 0.39856956E+01</totfact>
</mgrwt>
</event>
<event>
12    7  0.1606355E-007  0.1420168E+04  0.7818608E-02  0.8939348E-01
         -1   -1    0    0    0  501 -0.00000000000E+00  0.00000000000E+00  0.25756277568E+03  0.25756277568E+03  0.00000000000E+00 0.  1.
          2   -1    0    0  501    0  0.00000000000E+00 -0.00000000000E+00 -0.19576558147E+04  0.19576558147E+04  0.00000000000E+00 0. -1.
         24    2    1    2    0    0 -0.19561689353E+03  0.16846501648E+03 -0.10672731421E+04  0.11009726829E+04  0.80140237834E+02 0.  0.
        254    2    1    2    0    0  0.19561689353E+03 -0.16846501648E+03 -0.63281989692E+03  0.11142459075E+04  0.88002073253E+03 0.  0.
         23    2    4    4    0    0 -0.16974452979E+03 -0.23757938815E+03 -0.66153043613E+03  0.72878266127E+03  0.90799109988E+02 0.  0.
         23    2    4    4    0    0  0.36536142332E+03  0.69114371668E+02  0.28710539205E+02  0.38546324626E+03  0.97426141929E+02 0.  0.
          2    1    3    3  502    0 -0.14570182971E+03  0.16250342120E+03 -0.81359577155E+03  0.84236243065E+03  0.00000000000E+00 0. -1.
         -1    1    3    3    0  502 -0.49915063815E+02  0.59615952799E+01 -0.25367737059E+03  0.25861025224E+03  0.00000000000E+00 0.  1.
         13    1    5    5    0    0 -0.17923987204E+03 -0.23559885738E+03 -0.63811067241E+03  0.70343370944E+03  0.00000000000E+00 0.  1.
        -13    1    5    5    0    0  0.94953422420E+01 -0.19805307642E+01 -0.23419763712E+02  0.25348951827E+02  0.00000000000E+00 0. -1.
          1    1    6    6  503    0  0.29027920515E+02 -0.19779961904E+02 -0.67800577632E+01  0.35774799030E+02  0.00000000000E+00 0. -1.
         -1    1    6    6    0  503  0.33633350281E+03  0.88894333572E+02  0.35490596968E+02  0.34968844723E+03  0.00000000000E+00 0.  1.
<mgrwt>
<rscale>  0 0.14201680E+04</rscale>
<asrwt>0</asrwt>
<pdfrwt beam="1">  1        2 0.30117781E+00 0.14201680E+04</pdfrwt>
<pdfrwt beam="2">  1       -1 0.39625043E-01 0.14201680E+04</pdfrwt>
<totfact> 0.48413142E+01</totfact>
</mgrwt>
</event>
<event>
12    7  0.1606355E-007  0.2289149E+04  0.7818608E-02  0.8482212E-01
         -1   -1    0    0    0  501 -0.00000000000E+00  0.00000000000E+00  0.17667373733E+04  0.17667373733E+04  0.00000000000E+00 0.  1.
          2   -1    0    0  501    0  0.00000000000E+00 -0.00000000000E+00 -0.74150873205E+03  0.74150873205E+03  0.00000000000E+00 0. -1.
         24    2    1    2    0    0  0.38259582033E+03  0.86762499615E+03  0.63893991648E+03  0.11462054546E+04  0.79937673847E+02 0.  0.
        254    2    1    2    0    0 -0.38259582033E+03 -0.86762499615E+03  0.38628872479E+03  0.13620406507E+04  0.89821103290E+03 0.  0.
         23    2    4    4    0    0 -0.13129073541E+03 -0.25643874373E+03 -0.28584127992E+03  0.41594918205E+03  0.91161385757E+02 0.  0.
         23    2    4    4    0    0 -0.25130508492E+03 -0.61118625242E+03  0.67213000470E+03  0.94609146867E+03  0.81409108889E+02 0.  0.
          2    1    3    3  502    0  0.13053373917E+03  0.36599874343E+03  0.22862437381E+03  0.45084724858E+03  0.00000000000E+00 0. -1.
         -1    1    3    3    0  502  0.25206208116E+03  0.50162625272E+03  0.41031554267E+03  0.69535820606E+03  0.00000000000E+00 0.  1.
         13    1    5    5    0    0 -0.51456921268E+02 -0.19428087803E+03 -0.18817245001E+03  0.27532116747E+03  0.00000000000E+00 0. -1.
        -13    1    5    5    0    0 -0.79833814145E+02 -0.62157865697E+02 -0.97668829908E+02  0.14062801458E+03  0.00000000000E+00 0.  1.
          3    1    6    6  503    0 -0.86703538732E+02 -0.15551757699E+03  0.22385841165E+03  0.28603462876E+03  0.00000000000E+00 0. -1.
         -3    1    6    6    0  503 -0.16460154619E+03 -0.45566867543E+03  0.44827159305E+03  0.66005683991E+03  0.00000000000E+00 0.  1.
<mgrwt>
<rscale>  0 0.22891494E+04</rscale>
<asrwt>0</asrwt>
<pdfrwt beam="1">  1        2 0.11407827E+00 0.22891494E+04</pdfrwt>
<pdfrwt beam="2">  1       -1 0.27180575E+00 0.22891494E+04</pdfrwt>
<totfact> 0.19818687E+00</totfact>
</mgrwt>
</event>
<event>
12    7  0.1606355E-007  0.1478335E+04  0.7818608E-02  0.8898989E-01
          2   -1    0    0  501    0  0.00000000000E+00  0.00000000000E+00  0.72471417871E+03  0.72471417871E+03  0.00000000000E+00 0. -1.
         -1   -1    0    0    0  501 -0.00000000000E+00 -0.00000000000E+00 -0.75390882925E+03  0.75390882925E+03  0.00000000000E+00 0.  1.
         24    2    1    2    0    0  0.99350003688E+02  0.68465902098E+02 -0.45595120929E+03  0.47820895552E+03  0.78957563933E+02 0.  0.
        254    2    1    2    0    0 -0.99350003688E+02 -0.68465902098E+02  0.42675655875E+03  0.10004140524E+04  0.89674361604E+03 0.  0.
         23    2    4    4    0    0  0.71782103755E+02 -0.26951822762E+03 -0.17156758281E+03  0.34005929802E+03  0.91717747804E+02 0.  0.
         23    2    4    4    0    0 -0.17113210744E+03  0.20105232552E+03  0.59832414156E+03  0.66035475442E+03  0.91478891133E+02 0.  0.
          2    1    3    3  502    0  0.28437265244E+02 -0.15899224724E+02 -0.13450820663E+03  0.13839769165E+03  0.00000000000E+00 0. -1.
         -1    1    3    3    0  502  0.70912738443E+02  0.84365126822E+02 -0.32144300266E+03  0.33981126387E+03  0.00000000000E+00 0.  1.
         13    1    5    5    0    0  0.79328381709E+02 -0.15624723976E+03 -0.73417541673E+02  0.18999033529E+03  0.00000000000E+00 0. -1.
        -13    1    5    5    0    0 -0.75462779539E+01 -0.11327098786E+03 -0.98150041134E+02  0.15006896273E+03  0.00000000000E+00 0.  1.
          4    1    6    6  503    0 -0.17350434302E+03  0.16005768512E+03  0.53651064619E+03  0.58614494204E+03  0.00000000000E+00 0. -1.
         -4    1    6    6    0  503  0.23722355748E+01  0.40994640404E+02  0.61813495369E+02  0.74209812378E+02  0.00000000000E+00 0.  1.
<mgrwt>
<rscale>  0 0.14783348E+04</rscale>
<asrwt>0</asrwt>
<pdfrwt beam="1">  1        2 0.11149449E+00 0.14783348E+04</pdfrwt>
<pdfrwt beam="2">  1       -1 0.11598597E+00 0.14783348E+04</pdfrwt>
<totfact> 0.29142381E+01</totfact>
</mgrwt>
</event>
<event>
12    7  0.1606355E-007  0.1283684E+04  0.7818608E-02  0.9042605E-01
          2   -1    0    0  501    0  0.00000000000E+00  0.00000000000E+00  0.16055235874E+04  0.16055235874E+04  0.00000000000E+00 0. -1.
         -1   -1    0    0    0  501 -0.00000000000E+00 -0.00000000000E+00 -0.25658990049E+03  0.25658990049E+03  0.00000000000E+00 0.  1.
         24    2    1    2    0    0 -0.16135571571E+03  0.27176639064E+03  0.29924601810E+03  0.44181813949E+03  0.75910809224E+02 0.  0.
        254    2    1    2    0    0  0.16135571571E+03 -0.27176639064E+03  0.10496876688E+04  0.14202953484E+04  0.90305151380E+03 0.  0.
         23    2    4    4    0    0  0.47656027335E+03 -0.56903756720E+01  0.78311778751E+03  0.92130899571E+03  0.91622715196E+02 0.  0.
         23    2    4    4    0    0 -0.31520455764E+03 -0.26607601496E+03  0.26656988131E+03  0.49898635271E+03  0.88190247046E+02 0.  0.
          2    1    3    3  502    0 -0.27061867388E+02  0.69981011220E+01  0.21398914061E+02  0.35202721611E+02  0.00000000000E+00 0. -1.
         -1    1    3    3    0  502 -0.13429384833E+03  0.26476828951E+03  0.27784710404E+03  0.40661541788E+03  0.00000000000E+00 0.  1.
         13    1    5    5    0    0  0.49760838347E+02  0.21797446379E+02  0.12671266243E+03  0.13786721336E+03  0.00000000000E+00 0. -1.
        -13    1    5    5    0    0  0.42679943500E+03 -0.27487822050E+02  0.65640512508E+03  0.78344178234E+03  0.00000000000E+00 0.  1.
          4    1    6    6  503    0 -0.39758250824E+02 -0.38427504970E+02  0.37893652124E+01  0.55423378962E+02  0.00000000000E+00 0. -1.
         -4    1    6    6    0  503 -0.27544630681E+03 -0.22764850999E+03  0.26278051609E+03  0.44356297374E+03  0.00000000000E+00 0.  1.
<mgrwt>
<rscale>  0 0.12836840E+04</rscale>
<asrwt>0</asrwt>
<pdfrwt beam="1">  1        2 0.24700362E+00 0.12836840E+04</pdfrwt>
<pdfrwt beam="2">  1       -1 0.39475370E-01 0.12836840E+04</pdfrwt>
<totfact> 0.77228302E+01</totfact>
</mgrwt>
</event>
<event>
12    7  0.1606355E-007  0.1333738E+04  0.7818608E-02  0.9003230E-01
         -1   -1    0    0    0  501 -0.00000000000E+00  0.00000000000E+00  0.73750601279E+03  0.73750601279E+03  0.00000000000E+00 0.  1.
          2   -1    0    0  501    0  0.00000000000E+00 -0.00000000000E+00 -0.60299728482E+03  0.60299728482E+03  0.00000000000E+00 0. -1.
         24    2    1    2    0    0 -0.29648164962E+03 -0.31490640375E+02 -0.16483085981E+03  0.35102056096E+03  0.84576550410E+02 0.  0.
        254    2    1    2    0    0  0.29648164962E+03  0.31490640375E+02  0.29933958779E+03  0.98948273665E+03  0.89475072971E+03 0.  0.
         23    2    4    4    0    0  0.42806555990E+03 -0.31111211990E+03  0.57246256065E+02  0.54060968867E+03  0.94608809993E+02 0.  0.
         23    2    4    4    0    0 -0.13158391027E+03  0.34260276028E+03  0.24209333172E+03  0.44887304798E+03  0.90481241942E+02 0.  0.
          2    1    3    3  502    0 -0.29239245646E+03 -0.25555077322E+02 -0.17254134739E+03  0.34046575030E+03  0.00000000000E+00 0. -1.
         -1    1    3    3    0  502 -0.40891931643E+01 -0.59355630535E+01  0.77104875740E+01  0.10554810663E+02  0.00000000000E+00 0.  1.
         13    1    5    5    0    0  0.18706083667E+03 -0.16401326865E+03  0.68488076569E+02  0.25803628726E+03  0.00000000000E+00 0. -1.
        -13    1    5    5    0    0  0.24100472322E+03 -0.14709885125E+03 -0.11241820504E+02  0.28257340141E+03  0.00000000000E+00 0.  1.
          4    1    6    6  503    0 -0.53573839487E+02  0.12437788834E+03  0.39534211063E+02  0.14107788356E+03  0.00000000000E+00 0.  1.
         -4    1    6    6    0  503 -0.78010070788E+02  0.21822487194E+03  0.20255912066E+03  0.30779516442E+03  0.00000000000E+00 0. -1.
<mgrwt>
<rscale>  0 0.13337378E+04</rscale>
<asrwt>0</asrwt>
<pdfrwt beam="1">  1        2 0.92768813E-01 0.13337378E+04</pdfrwt>
<pdfrwt beam="2">  1       -1 0.11346246E+00 0.13337378E+04</pdfrwt>
<totfact> 0.39071889E+01</totfact>
</mgrwt>
</event>
<event>
12    7  0.1606355E-007  0.2142616E+04  0.7818608E-02  0.8542700E-01
         -3   -1    0    0    0  501 -0.00000000000E+00  0.00000000000E+00  0.51426702333E+03  0.51426702333E+03  0.00000000000E+00 0.  1.
          2   -1    0    0  501    0  0.00000000000E+00 -0.00000000000E+00 -0.22317215225E+04  0.22317215225E+04  0.00000000000E+00 0. -1.
         24    2    1    2    0    0  0.31127788989E+03  0.68752724699E+03 -0.12874671641E+04  0.14945335945E+04  0.80444555181E+02 0.  0.
        254    2    1    2    0    0 -0.31127788989E+03 -0.68752724699E+03 -0.42998733516E+03  0.12514549514E+04  0.90092327467E+03 0.  0.
         23    2    4    4    0    0  0.23438443108E+03 -0.12820011556E+03 -0.36399517384E+03  0.46192861875E+03  0.97540920007E+02 0.  0.
         23    2    4    4    0    0 -0.54566232097E+03 -0.55932713143E+03 -0.65992161319E+02  0.78952633263E+03  0.91666002880E+02 0.  0.
          2    1    3    3  502    0  0.30185212595E+03  0.61979990676E+03 -0.11938530446E+04  0.13786049915E+04  0.00000000000E+00 0. -1.
         -1    1    3    3    0  502  0.94257639350E+01  0.67727340227E+02 -0.93614119409E+02  0.11592860300E+03  0.00000000000E+00 0.  1.
         13    1    5    5    0    0  0.46400015889E+02 -0.17321255468E+02 -0.14298532493E+03  0.15132015897E+03  0.00000000000E+00 0.  1.
        -13    1    5    5    0    0  0.18798441519E+03 -0.11087886009E+03 -0.22100984892E+03  0.31060845978E+03  0.00000000000E+00 0. -1.
          3    1    6    6  503    0 -0.17098609497E+03 -0.12303960806E+03 -0.35535053310E+02  0.21362988985E+03  0.00000000000E+00 0. -1.
         -3    1    6    6    0  503 -0.37467622600E+03 -0.43628752337E+03 -0.30457108009E+02  0.57589644278E+03  0.00000000000E+00 0.  1.
<mgrwt>
<rscale>  0 0.21426160E+04</rscale>
<asrwt>0</asrwt>
<pdfrwt beam="1">  1        2 0.34334177E+00 0.21426160E+04</pdfrwt>
<pdfrwt beam="2">  1       -3 0.79118005E-01 0.21426160E+04</pdfrwt>
<totfact> 0.43417674E+00</totfact>
</mgrwt>
</event>
<event>
12    7  0.1606355E-007  0.2000109E+04  0.7818608E-02  0.8606570E-01
         -1   -1    0    0    0  501 -0.00000000000E+00  0.00000000000E+00  0.84729636035E+03  0.84729636035E+03  0.00000000000E+00 0.  1.
          2   -1    0    0  501    0  0.00000000000E+00 -0.00000000000E+00 -0.11803529031E+04  0.11803529031E+04  0.00000000000E+00 0. -1.
         24    2    1    2    0    0  0.15478467242E+03  0.37950939598E+03  0.55642732628E+03  0.69574972510E+03  0.80440251739E+02 0.  0.
        254    2    1    2    0    0 -0.15478467242E+03 -0.37950939598E+03 -0.88948386904E+03  0.13318995384E+04  0.90265671799E+03 0.  0.
         23    2    4    4    0    0  0.20776364021E+03  0.18466505583E+03 -0.14909150132E+03  0.32880534534E+03  0.92831925118E+02 0.  0.
         23    2    4    4    0    0 -0.36254831263E+03 -0.56417445181E+03 -0.74039236772E+03  0.10030941930E+04  0.91011047807E+02 0.  0.
          2    1    3    3  502    0  0.14920462470E+02  0.70443626856E+02  0.56209163009E+02  0.91347658816E+02  0.00000000000E+00 0. -1.
         -1    1    3    3    0  502  0.13986420995E+03  0.30906576912E+03  0.50021816327E+03  0.60440206629E+03  0.00000000000E+00 0.  1.
         13    1    5    5    0    0  0.13333645102E+02  0.36420886119E+02  0.60294445308E+01  0.39250748257E+02  0.00000000000E+00 0.  1.
        -13    1    5    5    0    0  0.19442999510E+03  0.14824416971E+03 -0.15512094585E+03  0.28955459708E+03  0.00000000000E+00 0. -1.
          1    1    6    6  503    0 -0.28486216100E+03 -0.50226773963E+03 -0.63355818046E+03  0.85721368461E+03  0.00000000000E+00 0. -1.
         -1    1    6    6    0  503 -0.77686151626E+02 -0.61906712176E+02 -0.10683418725E+03  0.14588050841E+03  0.00000000000E+00 0.  1.
<mgrwt>
<rscale>  0 0.20001087E+04</rscale>
<asrwt>0</asrwt>
<pdfrwt beam="1">  1        2 0.18159275E+00 0.20001087E+04</pdfrwt>
<pdfrwt beam="2">  1       -1 0.13035329E+00 0.20001087E+04</pdfrwt>
<totfact> 0.10384937E+01</totfact>
</mgrwt>
</event>
<event>
12    7  0.1646588E-007  0.2674814E+04  0.7818608E-02  0.8343223E-01
          2   -1    0    0  501    0  0.00000000000E+00  0.00000000000E+00  0.31746505677E+04  0.31746505677E+04  0.00000000000E+00 0. -1.
         -1   -1    0    0    0  501 -0.00000000000E+00 -0.00000000000E+00 -0.56341878086E+03  0.56341878086E+03  0.00000000000E+00 0.  1.
         24    2    1    2    0    0  0.97145241910E+02 -0.56309922853E+03 -0.28975835557E+03  0.64567028606E+03  0.80076678718E+02 0.  0.
        254    2    1    2    0    0 -0.97145241910E+02  0.56309922853E+03  0.29009901424E+04  0.30923990625E+04  0.90590850318E+03 0.  0.
         23    2    4    4    0    0  0.20723345232E+03  0.67980262537E+03  0.21984013170E+04  0.23121746117E+04  0.90032056236E+02 0.  0.
         23    2    4    4    0    0 -0.30437869423E+03 -0.11670339684E+03  0.70258882541E+03  0.78022445079E+03  0.94090720585E+02 0.  0.
          4    1    3    3  502    0  0.36800297248E+01 -0.80398956916E+02 -0.71813458085E+02  0.10786430204E+03  0.00000000000E+00 0. -1.
         -3    1    3    3    0  502  0.93465212185E+02 -0.48270027161E+03 -0.21794489749E+03  0.53780598402E+03  0.00000000000E+00 0.  1.
         13    1    5    5    0    0  0.13300384522E+03  0.53036057591E+03  0.17653033183E+04  0.18480444174E+04  0.00000000000E+00 0. -1.
        -13    1    5    5    0    0  0.74229607099E+02  0.14944204946E+03  0.43309799875E+03  0.46413019428E+03  0.00000000000E+00 0.  1.
          4    1    6    6  503    0 -0.27542443324E+03 -0.12988301470E+03  0.60054757475E+03  0.67333914596E+03  0.00000000000E+00 0.  1.
         -4    1    6    6    0  503 -0.28954260982E+02  0.13179617856E+02  0.10204125065E+03  0.10688530484E+03  0.00000000000E+00 0. -1.
<mgrwt>
<rscale>  0 0.26748142E+04</rscale>
<asrwt>0</asrwt>
<pdfrwt beam="1">  1        2 0.48840777E+00 0.26748142E+04</pdfrwt>
<pdfrwt beam="2">  1       -1 0.86679814E-01 0.26748142E+04</pdfrwt>
<totfact> 0.17659059E+00</totfact>
</mgrwt>
</event>
<event>
12    7  0.1606355E-007  0.1219898E+04  0.7818608E-02  0.9095616E-01
          2   -1    0    0  501    0  0.00000000000E+00  0.00000000000E+00  0.12030366041E+04  0.12030366041E+04  0.00000000000E+00 0. -1.
         -1   -1    0    0    0  501 -0.00000000000E+00 -0.00000000000E+00 -0.30924878675E+03  0.30924878675E+03  0.00000000000E+00 0.  1.
         24    2    1    2    0    0  0.13997837419E+03  0.14092517309E+03  0.42743338788E+03  0.47817373164E+03  0.80603764862E+02 0.  0.
        254    2    1    2    0    0 -0.13997837419E+03 -0.14092517309E+03  0.46635442945E+03  0.10341116592E+04  0.90135820857E+03 0.  0.
         23    2    4    4    0    0 -0.46966177186E+02 -0.36879729091E+03  0.62052567987E+03  0.72948131787E+03  0.94199841638E+02 0.  0.
         23    2    4    4    0    0 -0.93012197007E+02  0.22787211782E+03 -0.15417125043E+03  0.30463034131E+03  0.91945089704E+02 0.  0.
          4    1    3    3  502    0  0.14841200828E+03  0.14187157560E+03  0.41628672835E+03  0.46416409638E+03  0.00000000000E+00 0. -1.
         -3    1    3    3    0  502 -0.84336340912E+01 -0.94640250760E+00  0.11146659528E+02  0.14009635268E+02  0.00000000000E+00 0.  1.
         13    1    5    5    0    0  0.22242449870E+02 -0.60538218889E+02  0.14342556804E+03  0.15725932751E+03  0.00000000000E+00 0. -1.
        -13    1    5    5    0    0 -0.69208627056E+02 -0.30825907202E+03  0.47710011184E+03  0.57222199036E+03  0.00000000000E+00 0.  1.
          1    1    6    6  503    0 -0.38481681620E+02  0.36850711599E+02 -0.72198243376E+02  0.89729599978E+02  0.00000000000E+00 0. -1.
         -1    1    6    6    0  503 -0.54530515387E+02  0.19102140622E+03 -0.81973007050E+02  0.21490074134E+03  0.00000000000E+00 0.  1.
<mgrwt>
<rscale>  0 0.12198977E+04</rscale>
<asrwt>0</asrwt>
<pdfrwt beam="1">  1        2 0.18508255E+00 0.12198977E+04</pdfrwt>
<pdfrwt beam="2">  1       -1 0.47576737E-01 0.12198977E+04</pdfrwt>
<totfact> 0.93430960E+01</totfact>
</mgrwt>
</event>
<event>
12    7  0.1606355E-007  0.1702532E+04  0.7818608E-02  0.8759922E-01
          2   -1    0    0  501    0  0.00000000000E+00  0.00000000000E+00  0.84208343573E+03  0.84208343573E+03  0.00000000000E+00 0. -1.
         -1   -1    0    0    0  501 -0.00000000000E+00 -0.00000000000E+00 -0.86054819393E+03  0.86054819393E+03  0.00000000000E+00 0.  1.
         24    2    1    2    0    0 -0.42079912503E+02 -0.24588928266E+03  0.55051325053E+03  0.60960383376E+03  0.79496772019E+02 0.  0.
        254    2    1    2    0    0  0.42079912503E+02  0.24588928266E+03 -0.56897800873E+03  0.10930277959E+04  0.89930057813E+03 0.  0.
         23    2    4    4    0    0 -0.22758465820E+02  0.53523715095E+03 -0.56403145585E+03  0.78330508610E+03  0.91861957297E+02 0.  0.
         23    2    4    4    0    0  0.64838378323E+02 -0.28934786829E+03 -0.49465528767E+01  0.30972270980E+03  0.89316764342E+02 0.  0.
          4    1    3    3  502    0 -0.11779987364E+02 -0.21491542473E+03  0.41758910514E+03  0.46979577331E+03  0.00000000000E+00 0. -1.
         -3    1    3    3    0  502 -0.30299925139E+02 -0.30973857929E+02  0.13292414540E+03  0.13980806045E+03  0.00000000000E+00 0.  1.
         13    1    5    5    0    0 -0.48292669411E+02  0.38003996111E+03 -0.36013835937E+03  0.52579672103E+03  0.00000000000E+00 0.  1.
        -13    1    5    5    0    0  0.25534203592E+02  0.15519718984E+03 -0.20389309648E+03  0.25750836507E+03  0.00000000000E+00 0. -1.
          3    1    6    6  503    0  0.12987019375E+02 -0.28855853846E+02  0.27785155080E+02  0.42111017754E+02  0.00000000000E+00 0. -1.
         -3    1    6    6    0  503  0.51851358948E+02 -0.26049201444E+03 -0.32731707956E+02  0.26761169204E+03  0.00000000000E+00 0.  1.
<mgrwt>
<rscale>  0 0.17025315E+04</rscale>
<asrwt>0</asrwt>
<pdfrwt beam="1">  1        2 0.12955130E+00 0.17025315E+04</pdfrwt>
<pdfrwt beam="2">  1       -1 0.13239203E+00 0.17025315E+04</pdfrwt>
<totfact> 0.16905736E+01</totfact>
</mgrwt>
</event>
<event>
12    7  0.1606355E-007  0.1300788E+04  0.7818608E-02  0.9028941E-01
         -1   -1    0    0    0  501 -0.00000000000E+00  0.00000000000E+00  0.58476675149E+03  0.58476675149E+03  0.00000000000E+00 0.  1.
          2   -1    0    0  501    0  0.00000000000E+00 -0.00000000000E+00 -0.72338603696E+03  0.72338603696E+03  0.00000000000E+00 0. -1.
         24    2    1    2    0    0 -0.18073582655E+03 -0.58815890544E+02  0.24246125855E+03  0.32025055869E+03  0.87454047758E+02 0.  0.
        254    2    1    2    0    0  0.18073582655E+03  0.58815890544E+02 -0.38108054401E+03  0.98790222975E+03  0.89140545575E+03 0.  0.
         23    2    4    4    0    0 -0.21311945685E+03  0.89061335987E+02  0.17198825417E+03  0.30222270433E+03  0.91688488836E+02 0.  0.
         23    2    4    4    0    0  0.39385528339E+03 -0.30245445443E+02 -0.55306879818E+03  0.68567952543E+03  0.90744392877E+02 0.  0.
          4    1    3    3  502    0 -0.75208402899E+02 -0.38623873456E+02  0.17231069906E+03  0.19193510486E+03  0.00000000000E+00 0. -1.
         -3    1    3    3    0  502 -0.10552742365E+03 -0.20192017087E+02  0.70150559487E+02  0.12831545383E+03  0.00000000000E+00 0.  1.
         13    1    5    5    0    0 -0.53763612966E+01  0.81930459372E+01 -0.10327412367E+02  0.14236808235E+02  0.00000000000E+00 0. -1.
        -13    1    5    5    0    0 -0.20774309555E+03  0.80868290050E+02  0.18231566653E+03  0.28798589609E+03  0.00000000000E+00 0.  1.
          2    1    6    6  503    0  0.70746418884E+02 -0.20857919115E+02 -0.16420320427E+03  0.18000778001E+03  0.00000000000E+00 0. -1.
         -2    1    6    6    0  503  0.32310886451E+03 -0.93875263283E+01 -0.38886559392E+03  0.50567174541E+03  0.00000000000E+00 0.  1.
<mgrwt>
<rscale>  0 0.13007876E+04</rscale>
<asrwt>0</asrwt>
<pdfrwt beam="1">  1        2 0.11129016E+00 0.13007876E+04</pdfrwt>
<pdfrwt beam="2">  1       -1 0.89964116E-01 0.13007876E+04</pdfrwt>
<totfact> 0.53200382E+01</totfact>
</mgrwt>
</event>
<event>
12    7  0.1606355E-007  0.1327644E+04  0.7818608E-02  0.9007926E-01
         -3   -1    0    0    0  501 -0.00000000000E+00  0.00000000000E+00  0.75155913161E+03  0.75155913161E+03  0.00000000000E+00 0.  1.
          2   -1    0    0  501    0  0.00000000000E+00 -0.00000000000E+00 -0.58632731472E+03  0.58632731472E+03  0.00000000000E+00 0. -1.
         24    2    1    2    0    0 -0.12486059122E+03 -0.32618595740E+03  0.65641740812E+02  0.36415991123E+03  0.79474252200E+02 0.  0.
        254    2    1    2    0    0  0.12486059122E+03  0.32618595740E+03  0.99590076080E+02  0.97372653510E+03  0.90345876268E+03 0.  0.
         23    2    4    4    0    0  0.31035939984E+02 -0.11759479291E+03 -0.31628038861E+03  0.35171303359E+03  0.94217879891E+02 0.  0.
         23    2    4    4    0    0  0.93824651238E+02  0.44378075031E+03  0.41587046469E+03  0.62201350151E+03  0.90598747960E+02 0.  0.
          2    1    3    3  502    0 -0.22828251477E+01 -0.99921305978E+01  0.19344463825E+02  0.21892058953E+02  0.00000000000E+00 0. -1.
         -1    1    3    3    0  502 -0.12257776607E+03 -0.31619382680E+03  0.46297276987E+02  0.34226785227E+03  0.00000000000E+00 0.  1.
         13    1    5    5    0    0  0.23990944288E+02 -0.46390835506E+01 -0.14078294800E+03  0.14288780547E+03  0.00000000000E+00 0.  1.
        -13    1    5    5    0    0  0.70449956962E+01 -0.11295570936E+03 -0.17549744061E+03  0.20882522813E+03  0.00000000000E+00 0. -1.
          3    1    6    6  503    0  0.40476878094E+02  0.28447322592E+03  0.20790259382E+03  0.35466446459E+03  0.00000000000E+00 0. -1.
         -3    1    6    6    0  503  0.53347773144E+02  0.15930752439E+03  0.20796787087E+03  0.26734903692E+03  0.00000000000E+00 0.  1.
<mgrwt>
<rscale>  0 0.13276440E+04</rscale>
<asrwt>0</asrwt>
<pdfrwt beam="1">  1        2 0.90204202E-01 0.13276440E+04</pdfrwt>
<pdfrwt beam="2">  1       -3 0.11562448E+00 0.13276440E+04</pdfrwt>
<totfact> 0.19441627E+01</totfact>
</mgrwt>
</event>
<event>
12    7  0.1606355E-007  0.1042744E+04  0.7818608E-02  0.9262867E-01
          2   -1    0    0  501    0  0.00000000000E+00  0.00000000000E+00  0.24976988655E+04  0.24976988655E+04  0.00000000000E+00 0. -1.
         -1   -1    0    0    0  501 -0.00000000000E+00 -0.00000000000E+00 -0.10883174996E+03  0.10883174996E+03  0.00000000000E+00 0.  1.
         24    2    1    2    0    0  0.76544802760E+02  0.72822171188E+02  0.41499483408E+03  0.43573177280E+03  0.80494037448E+02 0.  0.
        254    2    1    2    0    0 -0.76544802760E+02 -0.72822171188E+02  0.19738722815E+04  0.21707988427E+04  0.89723667802E+03 0.  0.
         23    2    4    4    0    0 -0.73549688086E+02 -0.47339569248E+03  0.95322755614E+03  0.10707746482E+04  0.91665343156E+02 0.  0.
         23    2    4    4    0    0 -0.29951146746E+01  0.40057352130E+03  0.10206447253E+04  0.11000241945E+04  0.88709956900E+02 0.  0.
          4    1    3    3  502    0  0.29617835794E+02  0.25587791716E+02  0.30240731994E+03  0.30492972704E+03  0.00000000000E+00 0. -1.
         -3    1    3    3    0  502  0.46926966966E+02  0.47234379471E+02  0.11258751414E+03  0.13080204576E+03  0.00000000000E+00 0.  1.
         13    1    5    5    0    0 -0.89445977235E+02 -0.44732170344E+03  0.90878421189E+03  0.10168510378E+04  0.00000000000E+00 0. -1.
        -13    1    5    5    0    0  0.15896289150E+02 -0.26073989040E+02  0.44443344241E+02  0.53923610418E+02  0.00000000000E+00 0.  1.
          1    1    6    6  503    0  0.35541975624E+02  0.20934920869E+03  0.46670862441E+03  0.51274483255E+03  0.00000000000E+00 0.  1.
         -1    1    6    6    0  503 -0.38537090299E+02  0.19122431261E+03  0.55393610093E+03  0.58727936195E+03  0.00000000000E+00 0. -1.
<mgrwt>
<rscale>  0 0.10427443E+04</rscale>
<asrwt>0</asrwt>
<pdfrwt beam="1">  1        2 0.38426132E+00 0.10427443E+04</pdfrwt>
<pdfrwt beam="2">  1       -1 0.16743348E-01 0.10427443E+04</pdfrwt>
<totfact> 0.11003541E+02</totfact>
</mgrwt>
</event>
<event>
12    7  0.1606355E-007  0.2433229E+04  0.7818608E-02  0.8427167E-01
         -1   -1    0    0    0  501 -0.00000000000E+00  0.00000000000E+00  0.74667542285E+03  0.74667542285E+03  0.00000000000E+00 0.  1.
          2   -1    0    0  501    0  0.00000000000E+00 -0.00000000000E+00 -0.19823218624E+04  0.19823218624E+04  0.00000000000E+00 0. -1.
         24    2    1    2    0    0 -0.60777737921E+02  0.69267641649E+03  0.34922782723E+03  0.78206931065E+03  0.78598854734E+02 0.  0.
        254    2    1    2    0    0  0.60777737921E+02 -0.69267641649E+03 -0.15848742668E+04  0.19469279746E+04  0.89174410306E+03 0.  0.
         23    2    4    4    0    0 -0.30083812290E+03 -0.56820995739E+03 -0.13270101253E+04  0.14767692055E+04  0.80779216180E+02 0.  0.
         23    2    4    4    0    0  0.36161586082E+03 -0.12446645910E+03 -0.25786414142E+03  0.47015876904E+03  0.91090188519E+02 0.  0.
          2    1    3    3  502    0  0.11918359591E+02  0.23632143381E+03  0.13855964075E+03  0.27420547298E+03  0.00000000000E+00 0. -1.
         -1    1    3    3    0  502 -0.72696097513E+02  0.45635498268E+03  0.21066818648E+03  0.50786383767E+03  0.00000000000E+00 0.  1.
         13    1    5    5    0    0 -0.26801075544E+03 -0.46509258529E+03 -0.10472073736E+04  0.11767685250E+04  0.00000000000E+00 0. -1.
        -13    1    5    5    0    0 -0.32827367463E+02 -0.10311737210E+03 -0.27980275169E+03  0.30000068056E+03  0.00000000000E+00 0.  1.
          2    1    6    6  503    0  0.25597128247E+03 -0.80128563546E+02 -0.12868677074E+03  0.29749314128E+03  0.00000000000E+00 0. -1.
         -2    1    6    6    0  503  0.10564457835E+03 -0.44337895552E+02 -0.12917737067E+03  0.17266562776E+03  0.00000000000E+00 0.  1.
<mgrwt>
<rscale>  0 0.24332291E+04</rscale>
<asrwt>0</asrwt>
<pdfrwt beam="1">  1        2 0.30497259E+00 0.24332291E+04</pdfrwt>
<pdfrwt beam="2">  1       -1 0.11487314E+00 0.24332291E+04</pdfrwt>
<totfact> 0.47998110E+00</totfact>
</mgrwt>
</event>
<event>
12    7  0.1606355E-007  0.1177326E+04  0.7818608E-02  0.9132938E-01
         -1   -1    0    0    0  501 -0.00000000000E+00  0.00000000000E+00  0.50881181179E+03  0.50881181179E+03  0.00000000000E+00 0.  1.
          2   -1    0    0  501    0  0.00000000000E+00 -0.00000000000E+00 -0.68104559220E+03  0.68104559220E+03  0.00000000000E+00 0. -1.
         24    2    1    2    0    0 -0.59665411078E+02  0.12970641924E+03  0.14162084160E+03  0.21830565299E+03  0.84953980943E+02 0.  0.
        254    2    1    2    0    0  0.59665411078E+02 -0.12970641924E+03 -0.31385462200E+03  0.97155175100E+03  0.90830851843E+03 0.  0.
         23    2    4    4    0    0 -0.35836534025E+03 -0.56665828322E+02  0.83467709073E+02  0.38307294012E+03  0.90229074009E+02 0.  0.
         23    2    4    4    0    0  0.41803075133E+03 -0.73040590922E+02 -0.39732233108E+03  0.58847881089E+03  0.91420124208E+02 0.  0.
          2    1    3    3  502    0  0.14127606787E+01  0.51677902012E+02  0.85593332313E+01  0.52400988869E+02  0.00000000000E+00 0. -1.
         -1    1    3    3    0  502 -0.61078171756E+02  0.78028517232E+02  0.13306150837E+03  0.16590466412E+03  0.00000000000E+00 0.  1.
         13    1    5    5    0    0 -0.35538645040E+03 -0.67531778245E+02  0.85277656359E+02  0.37166160533E+03  0.00000000000E+00 0. -1.
        -13    1    5    5    0    0 -0.29788898550E+01  0.10865949923E+02 -0.18099472855E+01  0.11411334789E+02  0.00000000000E+00 0.  1.
          4    1    6    6  503    0  0.37318450099E+03 -0.88424206364E+02 -0.32888762910E+03  0.50522528106E+03  0.00000000000E+00 0. -1.
         -4    1    6    6    0  503  0.44846250345E+02  0.15383615442E+02 -0.68434701975E+02  0.83253529826E+02  0.00000000000E+00 0.  1.
<mgrwt>
<rscale>  0 0.11773259E+04</rscale>
<asrwt>0</asrwt>
<pdfrwt beam="1">  1        2 0.10477624E+00 0.11773259E+04</pdfrwt>
<pdfrwt beam="2">  1       -1 0.78278741E-01 0.11773259E+04</pdfrwt>
<totfact> 0.78263697E+01</totfact>
</mgrwt>
</event>
<event>
12    7  0.1606355E-007  0.1987520E+04  0.7818608E-02  0.8612478E-01
         -1   -1    0    0    0  501 -0.00000000000E+00  0.00000000000E+00  0.47547117237E+03  0.47547117237E+03  0.00000000000E+00 0.  1.
          2   -1    0    0  501    0  0.00000000000E+00 -0.00000000000E+00 -0.20770113719E+04  0.20770113719E+04  0.00000000000E+00 0. -1.
         24    2    1    2    0    0  0.34427822842E+03  0.30985143718E+03 -0.14574953733E+04  0.15314769635E+04  0.81200461725E+02 0.  0.
        254    2    1    2    0    0 -0.34427822842E+03 -0.30985143718E+03 -0.14404482629E+03  0.10210055808E+04  0.89842532929E+03 0.  0.
         23    2    4    4    0    0  0.14912338760E+03 -0.23405060770E+03  0.24621208897E+03  0.38076286408E+03  0.85688355181E+02 0.  0.
         23    2    4    4    0    0 -0.49340161601E+03 -0.75800829478E+02 -0.39025691526E+03  0.64024271669E+03  0.91757048443E+02 0.  0.
          2    1    3    3  502    0  0.32179955647E+03  0.29269371678E+03 -0.14156226492E+04  0.14809497126E+04  0.00000000000E+00 0. -1.
         -1    1    3    3    0  502  0.22478671945E+02  0.17157720405E+02 -0.41872724087E+02  0.50527250908E+02  0.00000000000E+00 0.  1.
         13    1    5    5    0    0  0.12129394944E+03 -0.14343580764E+03  0.20302718409E+03  0.27659734374E+03  0.00000000000E+00 0. -1.
        -13    1    5    5    0    0  0.27829438164E+02 -0.90614800063E+02  0.43184904876E+02  0.10416552034E+03  0.00000000000E+00 0.  1.
          2    1    6    6  503    0 -0.45128671391E+03 -0.59877128214E+02 -0.38240034706E+03  0.59453763049E+03  0.00000000000E+00 0. -1.
         -2    1    6    6    0  503 -0.42114902107E+02 -0.15923701264E+02 -0.78565681967E+01  0.45705086208E+02  0.00000000000E+00 0.  1.
<mgrwt>
<rscale>  0 0.19875201E+04</rscale>
<asrwt>0</asrwt>
<pdfrwt beam="1">  1        2 0.31954021E+00 0.19875201E+04</pdfrwt>
<pdfrwt beam="2">  1       -1 0.73149411E-01 0.19875201E+04</pdfrwt>
<totfact> 0.12070742E+01</totfact>
</mgrwt>
</event>
<event>
12    7  0.1606355E-007  0.2029857E+04  0.7818608E-02  0.8592788E-01
         -1   -1    0    0    0  501 -0.00000000000E+00  0.00000000000E+00  0.89168925623E+03  0.89168925623E+03  0.00000000000E+00 0.  1.
          2   -1    0    0  501    0  0.00000000000E+00 -0.00000000000E+00 -0.11551999386E+04  0.11551999386E+04  0.00000000000E+00 0. -1.
         24    2    1    2    0    0  0.24861525875E+03  0.73357736301E+03 -0.35404522922E+03  0.85540513339E+03  0.80153749125E+02 0.  0.
        254    2    1    2    0    0 -0.24861525875E+03 -0.73357736301E+03  0.90534546871E+02  0.11914840614E+04  0.90082876842E+03 0.  0.
         23    2    4    4    0    0  0.62488031079E+02 -0.34634319523E+03  0.44500332762E+03  0.57475507620E+03  0.91962346189E+02 0.  0.
         23    2    4    4    0    0 -0.31110328983E+03 -0.38723416777E+03 -0.35446878075E+03  0.61672898521E+03  0.89280272359E+02 0.  0.
          2    1    3    3  502    0  0.24064473044E+03  0.62627747323E+03 -0.29866534669E+03  0.73439386509E+03  0.00000000000E+00 0. -1.
         -1    1    3    3    0  502  0.79705283112E+01  0.10729988977E+03 -0.55379882524E+02  0.12101126830E+03  0.00000000000E+00 0.  1.
         13    1    5    5    0    0 -0.14006093181E+02 -0.10770291000E+02  0.36761591596E+02  0.40787062055E+02  0.00000000000E+00 0. -1.
        -13    1    5    5    0    0  0.76494124261E+02 -0.33557290423E+03  0.40824173602E+03  0.53396801415E+03  0.00000000000E+00 0.  1.
          4    1    6    6  503    0 -0.17891883940E+03 -0.21343596398E+03 -0.14433661519E+03  0.31368761578E+03  0.00000000000E+00 0. -1.
         -4    1    6    6    0  503 -0.13218445044E+03 -0.17379820379E+03 -0.21013216556E+03  0.30304136942E+03  0.00000000000E+00 0.  1.
<mgrwt>
<rscale>  0 0.20298565E+04</rscale>
<asrwt>0</asrwt>
<pdfrwt beam="1">  1        2 0.17772307E+00 0.20298565E+04</pdfrwt>
<pdfrwt beam="2">  1       -1 0.13718296E+00 0.20298565E+04</pdfrwt>
<totfact> 0.94150846E+00</totfact>
</mgrwt>
</event>
<event>
12    7  0.1606355E-007  0.1410939E+04  0.7818608E-02  0.8945938E-01
         -3   -1    0    0    0  501 -0.00000000000E+00  0.00000000000E+00  0.11425699496E+04  0.11425699496E+04  0.00000000000E+00 0.  1.
          2   -1    0    0  501    0  0.00000000000E+00 -0.00000000000E+00 -0.43558590908E+03  0.43558590908E+03  0.00000000000E+00 0. -1.
         24    2    1    2    0    0  0.95630198705E+02  0.39787679825E+03  0.22176204884E+03  0.47201001577E+03  0.78510936778E+02 0.  0.
        254    2    1    2    0    0 -0.95630198705E+02 -0.39787679825E+03  0.48522199164E+03  0.11061458429E+04  0.90590681806E+03 0.  0.
         23    2    4    4    0    0  0.11337896206E+03 -0.13906884366E+03  0.68066561411E+03  0.70972536573E+03  0.90606204036E+02 0.  0.
         23    2    4    4    0    0 -0.20900916077E+03 -0.25880795459E+03 -0.19544362247E+03  0.39642047713E+03  0.91019769735E+02 0.  0.
          4    1    3    3  502    0  0.59307532721E+02  0.13289103719E+03  0.48778925284E+02  0.15348222944E+03  0.00000000000E+00 0. -1.
         -1    1    3    3    0  502  0.36322665983E+02  0.26498576106E+03  0.17298312356E+03  0.31852778633E+03  0.00000000000E+00 0.  1.
         13    1    5    5    0    0 -0.88935313928E+01 -0.46263607409E+02  0.17939478452E+03  0.18547750533E+03  0.00000000000E+00 0. -1.
        -13    1    5    5    0    0  0.12227249346E+03 -0.92805236253E+02  0.50127082959E+03  0.52424786040E+03  0.00000000000E+00 0.  1.
          3    1    6    6  503    0 -0.22893574494E+01 -0.22528813598E+02 -0.40318144252E+02  0.46242203187E+02  0.00000000000E+00 0. -1.
         -3    1    6    6    0  503 -0.20671980332E+03 -0.23627914099E+03 -0.15512547822E+03  0.35017827395E+03  0.00000000000E+00 0.  1.
<mgrwt>
<rscale>  0 0.14109392E+04</rscale>
<asrwt>0</asrwt>
<pdfrwt beam="1">  1        2 0.67013217E-01 0.14109392E+04</pdfrwt>
<pdfrwt beam="2">  1       -3 0.17577999E+00 0.14109392E+04</pdfrwt>
<totfact> 0.92724055E+00</totfact>
</mgrwt>
</event>
<event>
12    7  0.1606355E-007  0.2045753E+04  0.7818608E-02  0.8585523E-01
          2   -1    0    0  501    0  0.00000000000E+00  0.00000000000E+00  0.22128556903E+04  0.22128556903E+04  0.00000000000E+00 0. -1.
         -1   -1    0    0    0  501 -0.00000000000E+00 -0.00000000000E+00 -0.47281742060E+03  0.47281742060E+03  0.00000000000E+00 0.  1.
         24    2    1    2    0    0  0.77043853901E+03  0.18773863145E+03  0.42406690747E+03  0.90279456012E+03  0.79899559647E+02 0.  0.
        254    2    1    2    0    0 -0.77043853901E+03 -0.18773863145E+03  0.13159713622E+04  0.17828785508E+04  0.90446335721E+03 0.  0.
         23    2    4    4    0    0 -0.90695653519E+03  0.47060762576E+02  0.10260303339E+04  0.13732446661E+04  0.90982387482E+02 0.  0.
         23    2    4    4    0    0  0.13651799618E+03 -0.23479939402E+03  0.28994102830E+03  0.40963388465E+03  0.99830861227E+02 0.  0.
          4    1    3    3  502    0  0.33874756451E+03  0.91654926874E+02  0.14403075621E+03  0.37933546739E+03  0.00000000000E+00 0. -1.
         -3    1    3    3    0  502  0.43169097450E+03  0.96083704572E+02  0.28003615126E+03  0.52345909273E+03  0.00000000000E+00 0.  1.
         13    1    5    5    0    0 -0.12928089335E+03 -0.20982509375E+02  0.17200007090E+03  0.21618936023E+03  0.00000000000E+00 0. -1.
        -13    1    5    5    0    0 -0.77767564183E+03  0.68043271951E+02  0.85403026304E+03  0.11570553059E+04  0.00000000000E+00 0.  1.
          1    1    6    6  503    0 -0.47938354197E+01 -0.19469911784E+02  0.63834088094E+02  0.66909260388E+02  0.00000000000E+00 0. -1.
         -1    1    6    6    0  503  0.14131183160E+03 -0.21532948224E+03  0.22610694020E+03  0.34272462426E+03  0.00000000000E+00 0.  1.
<mgrwt>
<rscale>  0 0.20457534E+04</rscale>
<asrwt>0</asrwt>
<pdfrwt beam="1">  1        2 0.34043933E+00 0.20457534E+04</pdfrwt>
<pdfrwt beam="2">  1       -1 0.72741143E-01 0.20457534E+04</pdfrwt>
<totfact> 0.10197787E+01</totfact>
</mgrwt>
</event>
<event>
12    7  0.1606355E-007  0.1683381E+04  0.7818608E-02  0.8770900E-01
          2   -1    0    0  501    0  0.00000000000E+00  0.00000000000E+00  0.14141054118E+04  0.14141054118E+04  0.00000000000E+00 0. -1.
         -1   -1    0    0    0  501 -0.00000000000E+00 -0.00000000000E+00 -0.50098285712E+03  0.50098285712E+03  0.00000000000E+00 0.  1.
         24    2    1    2    0    0 -0.39727256914E+03 -0.44984402969E+03  0.25547381865E+03  0.65695694319E+03  0.78360755206E+02 0.  0.
        254    2    1    2    0    0  0.39727256914E+03  0.44984402969E+03  0.65764873607E+03  0.12581313258E+04  0.88893612120E+03 0.  0.
         23    2    4    4    0    0  0.53578615775E+03  0.57460385481E+03  0.30239029453E+03  0.84658667837E+03  0.89625425863E+02 0.  0.
         23    2    4    4    0    0 -0.13851358861E+03 -0.12475982512E+03  0.35525844154E+03  0.41154464740E+03  0.91702826166E+02 0.  0.
          4    1    3    3  502    0 -0.46494141149E+01 -0.51389918463E+01 -0.55174235979E+01  0.88582307470E+01  0.00000000000E+00 0. -1.
         -3    1    3    3    0  502 -0.39262315503E+03 -0.44470503784E+03  0.26099124224E+03  0.64809871245E+03  0.00000000000E+00 0.  1.
         13    1    5    5    0    0  0.53552563319E+03  0.56202408275E+03  0.28939355664E+03  0.82849707544E+03  0.00000000000E+00 0.  1.
        -13    1    5    5    0    0  0.26052456603E+00  0.12579772055E+02  0.12996737897E+02  0.18089602925E+02  0.00000000000E+00 0. -1.
          4    1    6    6  503    0 -0.11842063870E+03 -0.13023558702E+03  0.34709093679E+03  0.38917460631E+03  0.00000000000E+00 0.  1.
         -4    1    6    6    0  503 -0.20092949907E+02  0.54757619025E+01  0.81675047454E+01  0.22370041085E+02  0.00000000000E+00 0. -1.
<mgrwt>
<rscale>  0 0.16833806E+04</rscale>
<asrwt>0</asrwt>
<pdfrwt beam="1">  1        2 0.21755468E+00 0.16833806E+04</pdfrwt>
<pdfrwt beam="2">  1       -1 0.77074286E-01 0.16833806E+04</pdfrwt>
<totfact> 0.26039591E+01</totfact>
</mgrwt>
</event>
<event>
12    7  0.1606355E-007  0.1265530E+04  0.7818608E-02  0.9057356E-01
          2   -1    0    0  501    0  0.00000000000E+00  0.00000000000E+00  0.14371065378E+04  0.14371065378E+04  0.00000000000E+00 0. -1.
         -1   -1    0    0    0  501 -0.00000000000E+00 -0.00000000000E+00 -0.27860930201E+03  0.27860930201E+03  0.00000000000E+00 0.  1.
         24    2    1    2    0    0  0.25562209572E+03  0.13027877864E+03  0.27663137584E+03  0.40642443312E+03  0.79628423012E+02 0.  0.
        254    2    1    2    0    0 -0.25562209572E+03 -0.13027877864E+03  0.88186585998E+03  0.13092914067E+04  0.92425179293E+03 0.  0.
         23    2    4    4    0    0 -0.58891335565E+03 -0.10565535219E+03  0.66437103883E+03  0.89819833679E+03  0.85961509165E+02 0.  0.
         23    2    4    4    0    0  0.33329125994E+03 -0.24623426451E+02  0.21749482115E+03  0.41109306994E+03  0.10002068707E+03 0.  0.
          2    1    3    3  502    0  0.14727310138E+03  0.88345379656E+02  0.21415221551E+03  0.27450946050E+03  0.00000000000E+00 0. -1.
         -1    1    3    3    0  502  0.10834899434E+03  0.41933398987E+02  0.62479160327E+02  0.13191497261E+03  0.00000000000E+00 0.  1.
         13    1    5    5    0    0 -0.41119398868E+03 -0.40382832580E+02  0.42123092229E+03  0.59003962527E+03  0.00000000000E+00 0. -1.
        -13    1    5    5    0    0 -0.17771936697E+03 -0.65272519611E+02  0.24314011654E+03  0.30815871152E+03  0.00000000000E+00 0.  1.
          1    1    6    6  503    0  0.30886183074E+03 -0.35228877645E+01  0.21921712891E+03  0.37876667070E+03  0.00000000000E+00 0. -1.
         -1    1    6    6    0  503  0.24429429196E+02 -0.21100538687E+02 -0.17223077538E+01  0.32326399238E+02  0.00000000000E+00 0.  1.
<mgrwt>
<rscale>  0 0.12655295E+04</rscale>
<asrwt>0</asrwt>
<pdfrwt beam="1">  1        2 0.22109331E+00 0.12655295E+04</pdfrwt>
<pdfrwt beam="2">  1       -1 0.42862971E-01 0.12655295E+04</pdfrwt>
<totfact> 0.82697877E+01</totfact>
</mgrwt>
</event>
<event>
12    7  0.1606355E-007  0.1333916E+04  0.7818608E-02  0.9003094E-01
          2   -1    0    0  501    0  0.00000000000E+00  0.00000000000E+00  0.42129571444E+03  0.42129571444E+03  0.00000000000E+00 0. -1.
         -1   -1    0    0    0  501 -0.00000000000E+00 -0.00000000000E+00 -0.10558682623E+04  0.10558682623E+04  0.00000000000E+00 0.  1.
         24    2    1    2    0    0  0.12103190406E+03  0.34168658884E+03 -0.20283338767E+03  0.42302392173E+03  0.80058780961E+02 0.  0.
        254    2    1    2    0    0 -0.12103190406E+03 -0.34168658884E+03 -0.43173916020E+03  0.10541400550E+04  0.89073795606E+03 0.  0.
         23    2    4    4    0    0  0.24418932400E+03 -0.45412227056E+03 -0.40258106659E+03  0.66030801673E+03  0.89887147039E+02 0.  0.
         23    2    4    4    0    0 -0.36522122806E+03  0.11243568171E+03 -0.29158093606E+02  0.39383203830E+03  0.90692623855E+02 0.  0.
          2    1    3    3  502    0  0.30232539598E+02  0.18463719236E+02 -0.17049416899E+02  0.39314094104E+02  0.00000000000E+00 0. -1.
         -1    1    3    3    0  502  0.90799364458E+02  0.32322286961E+03 -0.18578397077E+03  0.38370982763E+03  0.00000000000E+00 0.  1.
         13    1    5    5    0    0  0.19840327984E+02 -0.39651062288E+02 -0.67680554723E+01  0.44851442897E+02  0.00000000000E+00 0.  1.
        -13    1    5    5    0    0  0.22434899602E+03 -0.41447120827E+03 -0.39581301112E+03  0.61545657383E+03  0.00000000000E+00 0. -1.
          3    1    6    6  503    0 -0.26340409082E+03  0.65373565335E+02 -0.59059960627E+02  0.27774718191E+03  0.00000000000E+00 0. -1.
         -3    1    6    6    0  503 -0.10181713723E+03  0.47062116376E+02  0.29901867021E+02  0.11608485639E+03  0.00000000000E+00 0.  1.
<mgrwt>
<rscale>  0 0.13339157E+04</rscale>
<asrwt>0</asrwt>
<pdfrwt beam="1">  1        2 0.64814726E-01 0.13339157E+04</pdfrwt>
<pdfrwt beam="2">  1       -1 0.16244127E+00 0.13339157E+04</pdfrwt>
<totfact> 0.23496252E+01</totfact>
</mgrwt>
</event>
<event>
12    7  0.1606355E-007  0.1471651E+04  0.7818608E-02  0.8903527E-01
         -1   -1    0    0    0  501 -0.00000000000E+00  0.00000000000E+00  0.79904815024E+03  0.79904815024E+03  0.00000000000E+00 0.  1.
          2   -1    0    0  501    0  0.00000000000E+00 -0.00000000000E+00 -0.67760475025E+03  0.67760475025E+03  0.00000000000E+00 0. -1.
         24    2    1    2    0    0 -0.24662655349E+03 -0.31912276660E+03  0.25817136106E+03  0.48492183809E+03  0.76372379410E+02 0.  0.
        254    2    1    2    0    0  0.24662655349E+03  0.31912276660E+03 -0.13672796107E+03  0.99173106240E+03  0.89564053490E+03 0.  0.
         23    2    4    4    0    0 -0.41409221524E+02  0.19150482052E+03 -0.47328959560E+03  0.52035619476E+03  0.91535283956E+02 0.  0.
         23    2    4    4    0    0  0.28803577501E+03  0.12761794609E+03  0.33656163453E+03  0.47137486765E+03  0.98334043751E+02 0.  0.
          4    1    3    3  502    0 -0.10194858273E+03 -0.15078727150E+03  0.73945603159E+02  0.19646441661E+03  0.00000000000E+00 0. -1.
         -3    1    3    3    0  502 -0.14467797076E+03 -0.16833549510E+03  0.18422575790E+03  0.28845742148E+03  0.00000000000E+00 0.  1.
         13    1    5    5    0    0 -0.45994577971E+02  0.74135553552E+02 -0.28843324046E+03  0.30133920374E+03  0.00000000000E+00 0. -1.
        -13    1    5    5    0    0  0.45853564471E+01  0.11736926696E+03 -0.18485635514E+03  0.21901699102E+03  0.00000000000E+00 0.  1.
          1    1    6    6  503    0  0.25034999235E+03  0.13298885174E+03  0.32570025997E+03  0.43178908358E+03  0.00000000000E+00 0. -1.
         -1    1    6    6    0  503  0.37685782667E+02 -0.53709056558E+01  0.10861374562E+02  0.39585784067E+02  0.00000000000E+00 0.  1.
<mgrwt>
<rscale>  0 0.14716505E+04</rscale>
<asrwt>0</asrwt>
<pdfrwt beam="1">  1        2 0.10424688E+00 0.14716505E+04</pdfrwt>
<pdfrwt beam="2">  1       -1 0.12293049E+00 0.14716505E+04</pdfrwt>
<totfact> 0.27549955E+01</totfact>
</mgrwt>
</event>
<event>
12    7  0.1606355E-007  0.1458625E+04  0.7818608E-02  0.8912443E-01
          2   -1    0    0  501    0  0.00000000000E+00  0.00000000000E+00  0.14846755229E+04  0.14846755229E+04  0.00000000000E+00 0. -1.
         -1   -1    0    0    0  501 -0.00000000000E+00 -0.00000000000E+00 -0.35825791969E+03  0.35825791969E+03  0.00000000000E+00 0.  1.
         24    2    1    2    0    0  0.22998103795E+03 -0.36281045777E+03  0.17598917227E+03  0.47131490456E+03  0.81503646649E+02 0.  0.
        254    2    1    2    0    0 -0.22998103795E+03  0.36281045777E+03  0.95042843092E+03  0.13716185380E+04  0.89078645333E+03 0.  0.
         23    2    4    4    0    0  0.12246992568E+02  0.58885782217E+03  0.38321726862E+03  0.70836782926E+03  0.89587850767E+02 0.  0.
         23    2    4    4    0    0 -0.24222803052E+03 -0.22604736439E+03  0.56721116230E+03  0.66325070876E+03  0.91657898268E+02 0.  0.
          2    1    3    3  502    0  0.14269099636E+02  0.76751644236E+00  0.82444774353E+01  0.16497505693E+02  0.00000000000E+00 0. -1.
         -1    1    3    3    0  502  0.21571193832E+03 -0.36357797422E+03  0.16774469484E+03  0.45481739887E+03  0.00000000000E+00 0.  1.
         13    1    5    5    0    0  0.47382297985E+02  0.25790885528E+03  0.15158315085E+03  0.30288531066E+03  0.00000000000E+00 0.  1.
        -13    1    5    5    0    0 -0.35135305417E+02  0.33094896689E+03  0.23163411777E+03  0.40548251860E+03  0.00000000000E+00 0. -1.
          3    1    6    6  503    0 -0.63944613029E+02 -0.18909420437E+02  0.75805257899E+02  0.10095997644E+03  0.00000000000E+00 0.  1.
         -3    1    6    6    0  503 -0.17828341749E+03 -0.20713794396E+03  0.49140590440E+03  0.56229073232E+03  0.00000000000E+00 0. -1.
<mgrwt>
<rscale>  0 0.14586251E+04</rscale>
<asrwt>0</asrwt>
<pdfrwt beam="1">  1        2 0.22841161E+00 0.14586251E+04</pdfrwt>
<pdfrwt beam="2">  1       -1 0.55116604E-01 0.14586251E+04</pdfrwt>
<totfact> 0.47582491E+01</totfact>
</mgrwt>
</event>
<event>
12    7  0.1606355E-007  0.1343346E+04  0.7818608E-02  0.8995880E-01
         -1   -1    0    0    0  501 -0.00000000000E+00  0.00000000000E+00  0.45923135356E+03  0.45923135356E+03  0.00000000000E+00 0.  1.
          2   -1    0    0  501    0  0.00000000000E+00 -0.00000000000E+00 -0.98239084473E+03  0.98239084473E+03  0.00000000000E+00 0. -1.
         24    2    1    2    0    0 -0.14655885493E+03  0.26567959242E+03  0.68131261696E+02  0.31822029241E+03  0.67506606289E+02 0.  0.
        254    2    1    2    0    0  0.14655885493E+03 -0.26567959242E+03 -0.59129075286E+03  0.11234019059E+04  0.90572730109E+03 0.  0.
         23    2    4    4    0    0  0.80689334888E+01  0.31883337022E+03 -0.11443423544E+03  0.35100017410E+03  0.91575664479E+02 0.  0.
         23    2    4    4    0    0  0.13848992144E+03 -0.58451296264E+03 -0.47685651743E+03  0.77240173178E+03  0.91528330114E+02 0.  0.
          2    1    3    3  502    0  0.38616089684E+01 -0.14473751376E+01  0.20799585046E+01  0.46187818734E+01  0.00000000000E+00 0. -1.
         -1    1    3    3    0  502 -0.15042046390E+03  0.26712696756E+03  0.66051303192E+02  0.31360151053E+03  0.00000000000E+00 0.  1.
         13    1    5    5    0    0  0.25090462150E+02  0.10382190463E+03  0.59620889629E-01  0.10681068638E+03  0.00000000000E+00 0. -1.
        -13    1    5    5    0    0 -0.17021528661E+02  0.21501146560E+03 -0.11449385633E+03  0.24418948772E+03  0.00000000000E+00 0.  1.
          1    1    6    6  503    0  0.41386843771E+01  0.23235179489E+01 -0.81780987909E+01  0.94556196976E+01  0.00000000000E+00 0. -1.
         -1    1    6    6    0  503  0.13435123706E+03 -0.58683648059E+03 -0.46867841864E+03  0.76294611209E+03  0.00000000000E+00 0.  1.
<mgrwt>
<rscale>  0 0.13433461E+04</rscale>
<asrwt>0</asrwt>
<pdfrwt beam="1">  1        2 0.15113705E+00 0.13433461E+04</pdfrwt>
<pdfrwt beam="2">  1       -1 0.70650978E-01 0.13433461E+04</pdfrwt>
<totfact> 0.58369587E+01</totfact>
</mgrwt>
</event>
<event>
12    7  0.1606355E-007  0.1598420E+04  0.7818608E-02  0.8821519E-01
         -1   -1    0    0    0  501 -0.00000000000E+00  0.00000000000E+00  0.33256899974E+03  0.33256899974E+03  0.00000000000E+00 0.  1.
          2   -1    0    0  501    0  0.00000000000E+00 -0.00000000000E+00 -0.19206145345E+04  0.19206145345E+04  0.00000000000E+00 0. -1.
         24    2    1    2    0    0  0.28886460224E+03 -0.41512355039E+03 -0.77958555208E+03  0.93269050619E+03  0.79922630084E+02 0.  0.
        254    2    1    2    0    0 -0.28886460224E+03  0.41512355039E+03 -0.80845998268E+03  0.13204930281E+04  0.91341336373E+03 0.  0.
         23    2    4    4    0    0  0.26473136830E+02 -0.24033958812E+03 -0.41589387231E+03  0.48905572334E+03  0.87999107459E+02 0.  0.
         23    2    4    4    0    0 -0.31533773907E+03  0.65546313851E+03 -0.39256611037E+03  0.83143730472E+03  0.90055677485E+02 0.  0.
          2    1    3    3  502    0  0.84026909801E+02 -0.77548586954E+02 -0.21822099386E+03  0.24636295800E+03  0.00000000000E+00 0. -1.
         -1    1    3    3    0  502  0.20483769244E+03 -0.33757496344E+03 -0.56136455822E+03  0.68632754819E+03  0.00000000000E+00 0.  1.
         13    1    5    5    0    0  0.26882469670E+02 -0.20420033172E+02 -0.31365853939E+02  0.46081034316E+02  0.00000000000E+00 0.  1.
        -13    1    5    5    0    0 -0.40933284003E+00 -0.21991955494E+03 -0.38452801837E+03  0.44297468902E+03  0.00000000000E+00 0. -1.
          3    1    6    6  503    0 -0.25105134439E+03  0.57245063368E+03 -0.30921839854E+03  0.69738262347E+03  0.00000000000E+00 0. -1.
         -3    1    6    6    0  503 -0.64286394682E+02  0.83012504830E+02 -0.83347711826E+02  0.13405468125E+03  0.00000000000E+00 0.  1.
<mgrwt>
<rscale>  0 0.15984203E+04</rscale>
<asrwt>0</asrwt>
<pdfrwt beam="1">  1        2 0.29547916E+00 0.15984203E+04</pdfrwt>
<pdfrwt beam="2">  1       -1 0.51164462E-01 0.15984203E+04</pdfrwt>
<totfact> 0.31037316E+01</totfact>
</mgrwt>
</event>
<event>
12    7  0.1606355E-007  0.1499975E+04  0.7818608E-02  0.8884469E-01
         -1   -1    0    0    0  501 -0.00000000000E+00  0.00000000000E+00  0.25258767814E+03  0.25258767814E+03  0.00000000000E+00 0.  1.
          2   -1    0    0  501    0  0.00000000000E+00 -0.00000000000E+00 -0.22268766737E+04  0.22268766737E+04  0.00000000000E+00 0. -1.
         24    2    1    2    0    0  0.74852615824E+02 -0.52726223732E+02  0.12838489958E+03  0.17758746384E+03  0.81680206351E+02 0.  0.
        254    2    1    2    0    0 -0.74852615824E+02  0.52726223732E+02 -0.21026738951E+04  0.23018768880E+04  0.93221066796E+03 0.  0.
         23    2    4    4    0    0 -0.17966005328E+03 -0.20226554461E+03 -0.14064195824E+03  0.31847989516E+03  0.91979334238E+02 0.  0.
         23    2    4    4    0    0  0.10480743746E+03  0.25499176834E+03 -0.19620319369E+04  0.19833969928E+04  0.91043445208E+02 0.  0.
          2    1    3    3  502    0  0.58589925547E+02  0.26074407651E+01  0.36426509157E+02  0.69039616832E+02  0.00000000000E+00 0. -1.
         -1    1    3    3    0  502  0.16262690277E+02 -0.55333664497E+02  0.91958390420E+02  0.10854784701E+03  0.00000000000E+00 0.  1.
         13    1    5    5    0    0 -0.10491009287E+03 -0.10788646095E+03 -0.12774873040E+03  0.19739643907E+03  0.00000000000E+00 0.  1.
        -13    1    5    5    0    0 -0.74749960415E+02 -0.94379083660E+02 -0.12893227838E+02  0.12108345609E+03  0.00000000000E+00 0. -1.
          1    1    6    6  503    0  0.74308527659E+01  0.71527172515E+02 -0.77508122958E+03  0.77841008886E+03  0.00000000000E+00 0. -1.
         -1    1    6    6    0  503  0.97376584694E+02  0.18346459582E+03 -0.11869507073E+04  0.12049869040E+04  0.00000000000E+00 0.  1.
<mgrwt>
<rscale>  0 0.14999755E+04</rscale>
<asrwt>0</asrwt>
<pdfrwt beam="1">  1        2 0.34259640E+00 0.14999755E+04</pdfrwt>
<pdfrwt beam="2">  1       -1 0.38859644E-01 0.14999755E+04</pdfrwt>
<totfact> 0.35283863E+01</totfact>
</mgrwt>
</event>
<event>
12    7  0.1606355E-007  0.2319805E+04  0.7818608E-02  0.8470153E-01
          2   -1    0    0  501    0  0.00000000000E+00  0.00000000000E+00  0.10994089439E+04  0.10994089439E+04  0.00000000000E+00 0. -1.
         -1   -1    0    0    0  501 -0.00000000000E+00 -0.00000000000E+00 -0.12237246092E+04  0.12237246092E+04  0.00000000000E+00 0.  1.
         24    2    1    2    0    0  0.94599591628E+03 -0.14854416340E+03 -0.24319448319E+03  0.99101691064E+03  0.77442355420E+02 0.  0.
        254    2    1    2    0    0 -0.94599591628E+03  0.14854416340E+03  0.11887881786E+03  0.13321166424E+04  0.91838387052E+03 0.  0.
         23    2    4    4    0    0 -0.43482633613E+03 -0.77176739007E+02  0.48174691521E+03  0.65963229979E+03  0.89467809667E+02 0.  0.
         23    2    4    4    0    0 -0.51116958015E+03  0.22572090241E+03 -0.36286809735E+03  0.67248434266E+03  0.91201258701E+02 0.  0.
          4    1    3    3  502    0  0.49276953162E+03 -0.69943922178E+02 -0.87169716997E+02  0.50528459615E+03  0.00000000000E+00 0. -1.
         -3    1    3    3    0  502  0.45322638466E+03 -0.78600241226E+02 -0.15602476620E+03  0.48573231449E+03  0.00000000000E+00 0.  1.
         13    1    5    5    0    0 -0.19542218981E+02  0.11562599122E+02  0.45350006610E+02  0.50717010171E+02  0.00000000000E+00 0. -1.
        -13    1    5    5    0    0 -0.41528411715E+03 -0.88739338128E+02  0.43639690860E+03  0.60891528961E+03  0.00000000000E+00 0.  1.
          2    1    6    6  503    0 -0.25422205946E+03  0.10691542743E+03 -0.12528079877E+03  0.30291094843E+03  0.00000000000E+00 0. -1.
         -2    1    6    6    0  503 -0.25694752069E+03  0.11880547498E+03 -0.23758729858E+03  0.36957339422E+03  0.00000000000E+00 0.  1.
<mgrwt>
<rscale>  0 0.23198050E+04</rscale>
<asrwt>0</asrwt>
<pdfrwt beam="1">  1        2 0.16913984E+00 0.23198050E+04</pdfrwt>
<pdfrwt beam="2">  1       -1 0.18826532E+00 0.23198050E+04</pdfrwt>
<totfact> 0.40893515E+00</totfact>
</mgrwt>
</event>
<event>
12    7  0.1606355E-007  0.2056091E+04  0.7818608E-02  0.8580836E-01
         -3   -1    0    0    0  501 -0.00000000000E+00  0.00000000000E+00  0.60339599288E+03  0.60339599288E+03  0.00000000000E+00 0.  1.
          2   -1    0    0  501    0  0.00000000000E+00 -0.00000000000E+00 -0.17515492600E+04  0.17515492600E+04  0.00000000000E+00 0. -1.
         24    2    1    2    0    0  0.74983438978E+03 -0.13619373597E+03 -0.10149550312E+03  0.77314500548E+03  0.81556830096E+02 0.  0.
        254    2    1    2    0    0 -0.74983438978E+03  0.13619373597E+03 -0.10466577640E+04  0.15818002474E+04  0.90873494588E+03 0.  0.
         23    2    4    4    0    0 -0.18409828482E+03 -0.32097111099E+03 -0.11901747981E+03  0.39922041186E+03  0.91088661110E+02 0.  0.
         23    2    4    4    0    0 -0.56573610496E+03  0.45716484696E+03 -0.92764028415E+03  0.11825798355E+04  0.94453865911E+02 0.  0.
          4    1    3    3  502    0  0.34961805350E+02  0.91088053915E+01  0.27995349366E+01  0.36237212432E+02  0.00000000000E+00 0. -1.
         -3    1    3    3    0  502  0.71487258443E+03 -0.14530254136E+03 -0.10429503806E+03  0.73690779305E+03  0.00000000000E+00 0.  1.
         13    1    5    5    0    0 -0.40952399218E+01 -0.18704951652E+02  0.13345948405E+02  0.23340105937E+02  0.00000000000E+00 0.  1.
        -13    1    5    5    0    0 -0.18000304489E+03 -0.30226615934E+03 -0.13236342821E+03  0.37588030592E+03  0.00000000000E+00 0. -1.
          1    1    6    6  503    0 -0.32275604970E+03  0.30905372452E+03 -0.60919548579E+03  0.75551625540E+03  0.00000000000E+00 0. -1.
         -1    1    6    6    0  503 -0.24298005526E+03  0.14811112245E+03 -0.31844479835E+03  0.42706358010E+03  0.00000000000E+00 0.  1.
<mgrwt>
<rscale>  0 0.20560912E+04</rscale>
<asrwt>0</asrwt>
<pdfrwt beam="1">  1        2 0.26946911E+00 0.20560912E+04</pdfrwt>
<pdfrwt beam="2">  1       -3 0.92830155E-01 0.20560912E+04</pdfrwt>
<totfact> 0.56210113E+00</totfact>
</mgrwt>
</event>
<event>
12    7  0.1606355E-007  0.1178742E+04  0.7818608E-02  0.9131670E-01
         -1   -1    0    0    0  501 -0.00000000000E+00  0.00000000000E+00  0.13502551106E+03  0.13502551106E+03  0.00000000000E+00 0.  1.
          2   -1    0    0  501    0  0.00000000000E+00 -0.00000000000E+00 -0.25725370398E+04  0.25725370398E+04  0.00000000000E+00 0. -1.
         24    2    1    2    0    0 -0.41174861383E+02  0.13015779033E+03 -0.98331416949E+03  0.99581024911E+03  0.78069691372E+02 0.  0.
        254    2    1    2    0    0  0.41174861383E+02 -0.13015779033E+03 -0.14541973593E+04  0.17117523018E+04  0.89261949526E+03 0.  0.
         23    2    4    4    0    0 -0.30115839433E+03  0.18454246388E+03 -0.95612953482E+03  0.10243624924E+04  0.10189469554E+03 0.  0.
         23    2    4    4    0    0  0.34233325571E+03 -0.31470025421E+03 -0.49806782447E+03  0.68738980941E+03  0.90580816659E+02 0.  0.
          4    1    3    3  502    0 -0.32074051607E+02  0.86976838594E+02 -0.85720034309E+03  0.86219843623E+03  0.00000000000E+00 0. -1.
         -3    1    3    3    0  502 -0.91008097761E+01  0.43180951740E+02 -0.12611382640E+03  0.13361181288E+03  0.00000000000E+00 0.  1.
         13    1    5    5    0    0 -0.83649345778E+02  0.14148725372E+02 -0.31508208488E+03  0.32630372307E+03  0.00000000000E+00 0.  1.
        -13    1    5    5    0    0 -0.21750904855E+03  0.17039373851E+03 -0.64104744994E+03  0.69805876930E+03  0.00000000000E+00 0. -1.
          2    1    6    6  503    0  0.27393277115E+03 -0.22957464223E+03 -0.32695040511E+03  0.48439678660E+03  0.00000000000E+00 0. -1.
         -2    1    6    6    0  503  0.68400484564E+02 -0.85125611980E+02 -0.17111741936E+03  0.20299302281E+03  0.00000000000E+00 0.  1.
<mgrwt>
<rscale>  0 0.11787419E+04</rscale>
<asrwt>0</asrwt>
<pdfrwt beam="1">  1        2 0.39577487E+00 0.11787419E+04</pdfrwt>
<pdfrwt beam="2">  1       -1 0.20773159E-01 0.11787419E+04</pdfrwt>
<totfact> 0.68757452E+01</totfact>
</mgrwt>
</event>
<event>
12    7  0.1606355E-007  0.1728397E+04  0.7818608E-02  0.8745332E-01
          2   -1    0    0  501    0  0.00000000000E+00  0.00000000000E+00  0.23718201647E+04  0.23718201647E+04  0.00000000000E+00 0. -1.
         -1   -1    0    0    0  501 -0.00000000000E+00 -0.00000000000E+00 -0.31488014633E+03  0.31488014633E+03  0.00000000000E+00 0.  1.
         24    2    1    2    0    0  0.41194652125E+03  0.20625152912E+03  0.14072563510E+04  0.14831862016E+04  0.85036708128E+02 0.  0.
        254    2    1    2    0    0 -0.41194652125E+03 -0.20625152912E+03  0.64968366745E+03  0.12035141095E+04  0.90228471908E+03 0.  0.
         23    2    4    4    0    0 -0.44424116990E+03  0.26896456508E+03  0.35364908870E+03  0.63515080478E+03  0.93041456197E+02 0.  0.
         23    2    4    4    0    0  0.32294648652E+02 -0.47521609419E+03  0.29603457875E+03  0.56836330468E+03  0.92342264305E+02 0.  0.
          2    1    3    3  502    0  0.18373250193E+03  0.13923919728E+03  0.70761083335E+03  0.74421655303E+03  0.00000000000E+00 0. -1.
         -1    1    3    3    0  502  0.22821401932E+03  0.67012331840E+02  0.69964551761E+03  0.73896964859E+03  0.00000000000E+00 0.  1.
         13    1    5    5    0    0 -0.43425929128E+02  0.40893762511E+02  0.76899295096E+02  0.97322210821E+02  0.00000000000E+00 0. -1.
        -13    1    5    5    0    0 -0.40081524077E+03  0.22807080257E+03  0.27674979361E+03  0.53782859396E+03  0.00000000000E+00 0.  1.
          2    1    6    6  503    0  0.41825318960E+02 -0.47330603662E+03  0.28704934868E+03  0.55512637317E+03  0.00000000000E+00 0.  1.
         -2    1    6    6    0  503 -0.95306703075E+01 -0.19100575727E+01  0.89852300661E+01  0.13236931509E+02  0.00000000000E+00 0. -1.
<mgrwt>
<rscale>  0 0.17283970E+04</rscale>
<asrwt>0</asrwt>
<pdfrwt beam="1">  1        2 0.36489540E+00 0.17283970E+04</pdfrwt>
<pdfrwt beam="2">  1       -1 0.48443101E-01 0.17283970E+04</pdfrwt>
<totfact> 0.19033573E+01</totfact>
</mgrwt>
</event>
<event>
12    7  0.1606355E-007  0.1504920E+04  0.7818608E-02  0.8881188E-01
          2   -1    0    0  501    0  0.00000000000E+00  0.00000000000E+00  0.10842382432E+04  0.10842382432E+04  0.00000000000E+00 0. -1.
         -1   -1    0    0    0  501 -0.00000000000E+00 -0.00000000000E+00 -0.52220646203E+03  0.52220646203E+03  0.00000000000E+00 0.  1.
         24    2    1    2    0    0 -0.71125769154E+02 -0.38620184490E+03 -0.93852984732E+02  0.41318828056E+03  0.87780592431E+02 0.  0.
        254    2    1    2    0    0  0.71125769154E+02  0.38620184490E+03  0.65588476590E+03  0.11932564247E+04  0.91622340551E+03 0.  0.
         23    2    4    4    0    0 -0.37320925362E+03  0.17334554425E+03  0.81443830776E+02  0.43143125172E+03  0.10082659713E+03 0.  0.
         23    2    4    4    0    0  0.44433502277E+03  0.21285630065E+03  0.57444093512E+03  0.76182517294E+03  0.87485935957E+02 0.  0.
          2    1    3    3  502    0  0.39485369685E+01 -0.10655526958E+02  0.11312747743E+02  0.16034633156E+02  0.00000000000E+00 0. -1.
         -1    1    3    3    0  502 -0.75074306123E+02 -0.37554631794E+03 -0.10516573248E+03  0.39715364740E+03  0.00000000000E+00 0.  1.
         13    1    5    5    0    0  0.33237550106E+01 -0.15179285670E+01 -0.61328710565E+01  0.71388767954E+01  0.00000000000E+00 0. -1.
        -13    1    5    5    0    0 -0.37653300863E+03  0.17486347282E+03  0.87576701833E+02  0.42429237492E+03  0.00000000000E+00 0.  1.
          3    1    6    6  503    0  0.14392783400E+03  0.97816955898E+02  0.25298948119E+03  0.30706197396E+03  0.00000000000E+00 0. -1.
         -3    1    6    6    0  503  0.30040718878E+03  0.11503934475E+03  0.32145145393E+03  0.45476319898E+03  0.00000000000E+00 0.  1.
<mgrwt>
<rscale>  0 0.15049202E+04</rscale>
<asrwt>0</asrwt>
<pdfrwt beam="1">  1        2 0.16680588E+00 0.15049202E+04</pdfrwt>
<pdfrwt beam="2">  1       -1 0.80339456E-01 0.15049202E+04</pdfrwt>
<totfact> 0.37952954E+01</totfact>
</mgrwt>
</event>
<event>
12    7  0.1606355E-007  0.1717534E+04  0.7818608E-02  0.8751427E-01
         -1   -1    0    0    0  501 -0.00000000000E+00  0.00000000000E+00  0.89195189477E+03  0.89195189477E+03  0.00000000000E+00 0.  1.
          2   -1    0    0  501    0  0.00000000000E+00 -0.00000000000E+00 -0.82681687611E+03  0.82681687611E+03  0.00000000000E+00 0. -1.
         24    2    1    2    0    0 -0.31972511793E+03  0.51680727269E+03  0.16227261907E+03  0.63407287895E+03  0.80013153804E+02 0.  0.
        254    2    1    2    0    0  0.31972511793E+03 -0.51680727269E+03 -0.97137600400E+02  0.10846958919E+04  0.89320521518E+03 0.  0.
         23    2    4    4    0    0  0.60498796882E+02 -0.26929983954E+03  0.38188781357E+03  0.48007558894E+03  0.91933459329E+02 0.  0.
         23    2    4    4    0    0  0.25922632105E+03 -0.24750743315E+03 -0.47902541397E+03  0.60462030299E+03  0.87419383310E+02 0.  0.
          4    1    3    3  502    0  0.38692603018E+01  0.37980193534E+01  0.52259974733E+01  0.75304167138E+01  0.00000000000E+00 0. -1.
         -3    1    3    3    0  502 -0.32359437823E+03  0.51300925334E+03  0.15704662159E+03  0.62654246223E+03  0.00000000000E+00 0.  1.
         13    1    5    5    0    0  0.37891367700E+02 -0.26260613026E+02  0.73769044061E+02  0.86989927028E+02  0.00000000000E+00 0.  1.
        -13    1    5    5    0    0  0.22607429182E+02 -0.24303922651E+03  0.30811876951E+03  0.39308566191E+03  0.00000000000E+00 0. -1.
          3    1    6    6  503    0  0.20882819409E+03 -0.16961008848E+03 -0.40362118755E+03  0.48506376880E+03  0.00000000000E+00 0. -1.
         -3    1    6    6    0  503  0.50398126959E+02 -0.77897344668E+02 -0.75404226413E+02  0.11955653419E+03  0.00000000000E+00 0.  1.
<mgrwt>
<rscale>  0 0.17175341E+04</rscale>
<asrwt>0</asrwt>
<pdfrwt beam="1">  1        2 0.12720260E+00 0.17175341E+04</pdfrwt>
<pdfrwt beam="2">  1       -1 0.13722337E+00 0.17175341E+04</pdfrwt>
<totfact> 0.15788829E+01</totfact>
</mgrwt>
</event>
<event>
12    7  0.1606355E-007  0.1454653E+04  0.7818608E-02  0.8915181E-01
          2   -1    0    0  501    0  0.00000000000E+00  0.00000000000E+00  0.23025628790E+04  0.23025628790E+04  0.00000000000E+00 0. -1.
         -1   -1    0    0    0  501 -0.00000000000E+00 -0.00000000000E+00 -0.22974556681E+03  0.22974556681E+03  0.00000000000E+00 0.  1.
         24    2    1    2    0    0  0.16031886292E+03  0.40755410337E+03  0.70425879079E+03  0.83348556344E+03  0.83158012673E+02 0.  0.
        254    2    1    2    0    0 -0.16031886292E+03 -0.40755410337E+03  0.13685585213E+04  0.16988228823E+04  0.90622528886E+03 0.  0.
         23    2    4    4    0    0  0.20765915590E+03 -0.40080923188E+03  0.12015401957E+04  0.12867512041E+04  0.90881538230E+02 0.  0.
         23    2    4    4    0    0 -0.36797801882E+03 -0.67448714854E+01  0.16701832561E+03  0.41207167818E+03  0.80340719729E+02 0.  0.
          2    1    3    3  502    0  0.15127853518E+03  0.39819587151E+03  0.64603657155E+03  0.77382711188E+03  0.00000000000E+00 0. -1.
         -1    1    3    3    0  502  0.90403277440E+01  0.93582318532E+01  0.58222219243E+02  0.59658451562E+02  0.00000000000E+00 0.  1.
         13    1    5    5    0    0  0.40840896030E+02 -0.17436463249E+03  0.45281573694E+03  0.48694259977E+03  0.00000000000E+00 0. -1.
        -13    1    5    5    0    0  0.16681825987E+03 -0.22644459939E+03  0.74872445880E+03  0.79980860437E+03  0.00000000000E+00 0.  1.
          1    1    6    6  503    0 -0.28328574708E+03  0.27771399636E+02  0.11622758141E+03  0.30745880345E+03  0.00000000000E+00 0. -1.
         -1    1    6    6    0  503 -0.84692271736E+02 -0.34516271121E+02  0.50790744198E+02  0.10461287473E+03  0.00000000000E+00 0.  1.
<mgrwt>
<rscale>  0 0.14546527E+04</rscale>
<asrwt>0</asrwt>
<pdfrwt beam="1">  1        2 0.35424043E+00 0.14546527E+04</pdfrwt>
<pdfrwt beam="2">  1       -1 0.35345473E-01 0.14546527E+04</pdfrwt>
<totfact> 0.38106734E+01</totfact>
</mgrwt>
</event>
<event>
12    7  0.1606355E-007  0.1516820E+04  0.7818608E-02  0.8873344E-01
         -1   -1    0    0    0  501 -0.00000000000E+00  0.00000000000E+00  0.56973365152E+03  0.56973365152E+03  0.00000000000E+00 0.  1.
          2   -1    0    0  501    0  0.00000000000E+00 -0.00000000000E+00 -0.10095699014E+04  0.10095699014E+04  0.00000000000E+00 0. -1.
         24    2    1    2    0    0 -0.70710230248E+02 -0.21453237104E+03 -0.59453646747E+03  0.64093473425E+03  0.79370318987E+02 0.  0.
        254    2    1    2    0    0  0.70710230248E+02  0.21453237104E+03  0.15470021756E+03  0.93836881870E+03  0.89754097829E+03 0.  0.
         23    2    4    4    0    0  0.15480547171E+03  0.30808846633E+03  0.46815097479E+03  0.58821208370E+03  0.89134073494E+02 0.  0.
         23    2    4    4    0    0 -0.84095241464E+02 -0.93556095288E+02 -0.31345075723E+03  0.35015673501E+03  0.92377536547E+02 0.  0.
          2    1    3    3  502    0 -0.65427501329E+02 -0.19321077556E+03 -0.57939519056E+03  0.61425560524E+03  0.00000000000E+00 0. -1.
         -1    1    3    3    0  502 -0.52827289183E+01 -0.21321595473E+02 -0.15141276904E+02  0.26679129008E+02  0.00000000000E+00 0.  1.
         13    1    5    5    0    0  0.70709627063E+02  0.63701638274E+02  0.15846332969E+03  0.18484690134E+03  0.00000000000E+00 0.  1.
        -13    1    5    5    0    0  0.84095844648E+02  0.24438682805E+03  0.30968764510E+03  0.40336518236E+03  0.00000000000E+00 0. -1.
          4    1    6    6  503    0 -0.33939253198E+02  0.92113191628E+00 -0.15703992290E+03  0.16066816354E+03  0.00000000000E+00 0.  1.
         -4    1    6    6    0  503 -0.50155988266E+02 -0.94477227204E+02 -0.15641083433E+03  0.18948857147E+03  0.00000000000E+00 0. -1.
<mgrwt>
<rscale>  0 0.15168203E+04</rscale>
<asrwt>0</asrwt>
<pdfrwt beam="1">  1        2 0.15531845E+00 0.15168203E+04</pdfrwt>
<pdfrwt beam="2">  1       -1 0.87651331E-01 0.15168203E+04</pdfrwt>
<totfact> 0.35014120E+01</totfact>
</mgrwt>
</event>
<event>
12    7  0.1606355E-007  0.1235387E+04  0.7818608E-02  0.9082434E-01
         -1   -1    0    0    0  501 -0.00000000000E+00  0.00000000000E+00  0.32895125059E+03  0.32895125059E+03  0.00000000000E+00 0.  1.
          2   -1    0    0  501    0  0.00000000000E+00 -0.00000000000E+00 -0.11598847715E+04  0.11598847715E+04  0.00000000000E+00 0. -1.
         24    2    1    2    0    0  0.20060884012E+03  0.99630924874E+02 -0.48343857782E+01  0.23724973399E+03  0.78063032658E+02 0.  0.
        254    2    1    2    0    0 -0.20060884012E+03 -0.99630924874E+02 -0.82609913517E+03  0.12515862881E+04  0.91315838034E+03 0.  0.
         23    2    4    4    0    0  0.24258492523E+03 -0.15279101612E+02  0.48093696127E+02  0.26365818728E+03  0.90120692493E+02 0.  0.
         23    2    4    4    0    0 -0.44319376535E+03 -0.84351823263E+02 -0.87419283129E+03  0.98792810086E+03  0.90845376547E+02 0.  0.
          4    1    3    3  502    0  0.40301496946E+02  0.41404305641E+02 -0.29576785378E+02  0.64910040941E+02  0.00000000000E+00 0. -1.
         -3    1    3    3    0  502  0.16030734318E+03  0.58226619233E+02  0.24742399599E+02  0.17233969305E+03  0.00000000000E+00 0.  1.
         13    1    5    5    0    0  0.27793743399E+02 -0.29688518445E+02  0.23536822707E+02  0.46988108312E+02  0.00000000000E+00 0. -1.
        -13    1    5    5    0    0  0.21479118183E+03  0.14409416834E+02  0.24556873421E+02  0.21667007896E+03  0.00000000000E+00 0.  1.
          3    1    6    6  503    0 -0.31877142598E+02 -0.91074184643E+01 -0.25521909476E+02  0.41838560618E+02  0.00000000000E+00 0. -1.
         -3    1    6    6    0  503 -0.41131662275E+03 -0.75244404798E+02 -0.84867092182E+03  0.94608954024E+03  0.00000000000E+00 0.  1.
<mgrwt>
<rscale>  0 0.12353875E+04</rscale>
<asrwt>0</asrwt>
<pdfrwt beam="1">  1        2 0.17844381E+00 0.12353875E+04</pdfrwt>
<pdfrwt beam="2">  1       -1 0.50607885E-01 0.12353875E+04</pdfrwt>
<totfact> 0.88134606E+01</totfact>
</mgrwt>
</event>
<event>
12    7  0.1606355E-007  0.3033235E+04  0.7818608E-02  0.8234304E-01
         -1   -1    0    0    0  501 -0.00000000000E+00  0.00000000000E+00  0.92778404289E+03  0.92778404289E+03  0.00000000000E+00 0.  1.
          2   -1    0    0  501    0  0.00000000000E+00 -0.00000000000E+00 -0.24791636103E+04  0.24791636103E+04  0.00000000000E+00 0. -1.
         24    2    1    2    0    0  0.10071957132E+04  0.16218085265E+03 -0.17473764060E+04  0.20250381025E+04  0.81909574747E+02 0.  0.
        254    2    1    2    0    0 -0.10071957132E+04 -0.16218085265E+03  0.19599683860E+03  0.13819095507E+04  0.91132508573E+03 0.  0.
         23    2    4    4    0    0 -0.69138666978E+03  0.14909716171E+01  0.53770403813E+03  0.88040406549E+03  0.89263294592E+02 0.  0.
         23    2    4    4    0    0 -0.31580904347E+03 -0.16367182427E+03 -0.34170719953E+03  0.50150548523E+03  0.90664896815E+02 0.  0.
          2    1    3    3  502    0  0.59163985117E+03  0.11936766469E+03 -0.96768388405E+03  0.11404816756E+04  0.00000000000E+00 0. -1.
         -1    1    3    3    0  502  0.41555586208E+03  0.42813187966E+02 -0.77969252198E+03  0.88455642692E+03  0.00000000000E+00 0.  1.
         13    1    5    5    0    0 -0.58499171371E+03  0.26096685995E+02  0.42558077281E+03  0.72388903591E+03  0.00000000000E+00 0. -1.
        -13    1    5    5    0    0 -0.10639495607E+03 -0.24605714378E+02  0.11212326532E+03  0.15651502958E+03  0.00000000000E+00 0.  1.
          2    1    6    6  503    0 -0.31267041067E+03 -0.15395819874E+03 -0.34537099540E+03  0.49065979775E+03  0.00000000000E+00 0. -1.
         -2    1    6    6    0  503 -0.31386327949E+01 -0.97136255302E+01  0.36637958689E+01  0.10845687481E+02  0.00000000000E+00 0.  1.
<mgrwt>
<rscale>  0 0.30332349E+04</rscale>
<asrwt>0</asrwt>
<pdfrwt beam="1">  1        2 0.38140978E+00 0.30332349E+04</pdfrwt>
<pdfrwt beam="2">  1       -1 0.14273601E+00 0.30332349E+04</pdfrwt>
<totfact> 0.13831927E+00</totfact>
</mgrwt>
</event>
<event>
12    7  0.1606355E-007  0.1473212E+04  0.7818608E-02  0.8902465E-01
         -1   -1    0    0    0  501 -0.00000000000E+00  0.00000000000E+00  0.45259217381E+03  0.45259217381E+03  0.00000000000E+00 0.  1.
          2   -1    0    0  501    0  0.00000000000E+00 -0.00000000000E+00 -0.11988463119E+04  0.11988463119E+04  0.00000000000E+00 0. -1.
         24    2    1    2    0    0  0.31346492787E+03 -0.46611558980E+02  0.16225357780E+03  0.36475355925E+03  0.79284532168E+02 0.  0.
        254    2    1    2    0    0 -0.31346492787E+03  0.46611558980E+02 -0.90850771590E+03  0.12866849265E+04  0.85424758220E+03 0.  0.
         23    2    4    4    0    0  0.17751650991E+03  0.96271160061E+02  0.28967258738E+02  0.22341741751E+03  0.91082340873E+02 0.  0.
         23    2    4    4    0    0 -0.49098143778E+03 -0.49659601081E+02 -0.93747497464E+03  0.10632675090E+04  0.90275241919E+02 0.  0.
          4    1    3    3  502    0  0.50341420748E+02  0.11192392508E+02  0.53278295183E+02  0.74149207889E+02  0.00000000000E+00 0. -1.
         -3    1    3    3    0  502  0.26312350712E+03 -0.57803951488E+02  0.10897528261E+03  0.29060435136E+03  0.00000000000E+00 0.  1.
         13    1    5    5    0    0  0.10158165458E+02  0.45529591826E+02  0.58133279213E+01  0.47009858953E+02  0.00000000000E+00 0.  1.
        -13    1    5    5    0    0  0.16735834445E+03  0.50741568235E+02  0.23153930817E+02  0.17640755856E+03  0.00000000000E+00 0. -1.
          1    1    6    6  503    0 -0.42288382794E+03 -0.21226011156E+02 -0.74174708326E+03  0.85409016562E+03  0.00000000000E+00 0. -1.
         -1    1    6    6    0  503 -0.68097609841E+02 -0.28433589925E+02 -0.19572789138E+03  0.20917734334E+03  0.00000000000E+00 0.  1.
<mgrwt>
<rscale>  0 0.14732121E+04</rscale>
<asrwt>0</asrwt>
<pdfrwt beam="1">  1        2 0.18443789E+00 0.14732121E+04</pdfrwt>
<pdfrwt beam="2">  1       -1 0.69629565E-01 0.14732121E+04</pdfrwt>
<totfact> 0.43685218E+01</totfact>
</mgrwt>
</event>
<event>
12    7  0.1606355E-007  0.5432578E+04  0.7818608E-02  0.7765035E-01
          2   -1    0    0  501    0  0.00000000000E+00  0.00000000000E+00  0.16849516797E+04  0.16849516797E+04  0.00000000000E+00 0. -1.
         -1   -1    0    0    0  501 -0.00000000000E+00 -0.00000000000E+00 -0.43788946731E+04  0.43788946731E+04  0.00000000000E+00 0.  1.
         24    2    1    2    0    0  0.14191745389E+04 -0.70177288305E+03 -0.36705875717E+04  0.39982457401E+04  0.78830993737E+02 0.  0.
        254    2    1    2    0    0 -0.14191745389E+04  0.70177288305E+03  0.97664457827E+03  0.20656006127E+04  0.89795863375E+03 0.  0.
         23    2    4    4    0    0 -0.58819952563E+03 -0.16261484729E+03  0.31345839730E+03  0.69225227736E+03  0.92383863085E+02 0.  0.
         23    2    4    4    0    0 -0.83097501325E+03  0.86438773034E+03  0.66318618096E+03  0.13733483354E+04  0.92650519047E+02 0.  0.
          2    1    3    3  502    0  0.46631374838E+03 -0.20803348934E+03 -0.12622181569E+04  0.13615877203E+04  0.00000000000E+00 0. -1.
         -1    1    3    3    0  502  0.95286079051E+03 -0.49373939371E+03 -0.24083694148E+04  0.26366580197E+04  0.00000000000E+00 0.  1.
         13    1    5    5    0    0 -0.22535131257E+03 -0.78294681335E+02  0.17057508614E+03  0.29327313415E+03  0.00000000000E+00 0. -1.
        -13    1    5    5    0    0 -0.36284821305E+03 -0.84320165958E+02  0.14288331116E+03  0.39897914321E+03  0.00000000000E+00 0.  1.
          2    1    6    6  503    0 -0.42562357694E+03  0.46879515450E+03  0.39859105895E+03  0.74819727239E+03  0.00000000000E+00 0. -1.
         -2    1    6    6    0  503 -0.40535143631E+03  0.39559257584E+03  0.26459512201E+03  0.62515106300E+03  0.00000000000E+00 0.  1.
<mgrwt>
<rscale>  0 0.54325780E+04</rscale>
<asrwt>0</asrwt>
<pdfrwt beam="1">  1        2 0.25922334E+00 0.54325780E+04</pdfrwt>
<pdfrwt beam="2">  1       -1 0.67367609E+00 0.54325780E+04</pdfrwt>
<totfact> 0.19970165E-03</totfact>
</mgrwt>
</event>
<event>
12    7  0.1606355E-007  0.1768488E+04  0.7818608E-02  0.8723239E-01
          2   -1    0    0  501    0  0.00000000000E+00  0.00000000000E+00  0.16855181095E+03  0.16855181095E+03  0.00000000000E+00 0. -1.
         -1   -1    0    0    0  501 -0.00000000000E+00 -0.00000000000E+00 -0.46388548348E+04  0.46388548348E+04  0.00000000000E+00 0.  1.
         24    2    1    2    0    0 -0.32295644856E+03  0.37522218253E+03 -0.51043860447E+03  0.71640367422E+03  0.87144142531E+02 0.  0.
        254    2    1    2    0    0  0.32295644856E+03 -0.37522218253E+03 -0.39598644194E+04  0.40910029715E+04  0.90038132994E+03 0.  0.
         23    2    4    4    0    0 -0.14740848516E+03  0.17393766514E+03 -0.16683856910E+04  0.16862643212E+04  0.89403435839E+02 0.  0.
         23    2    4    4    0    0  0.47036493372E+03 -0.54915984767E+03 -0.22914787284E+04  0.24047386503E+04  0.95254944133E+02 0.  0.
          4    1    3    3  502    0 -0.71828887085E+02  0.48700117842E+02 -0.57164289519E+02  0.10391749850E+03  0.00000000000E+00 0. -1.
         -3    1    3    3    0  502 -0.25112756147E+03  0.32652206469E+03 -0.45327431495E+03  0.61248617573E+03  0.00000000000E+00 0.  1.
         13    1    5    5    0    0 -0.10997105353E+03  0.17258407361E+03 -0.13043205561E+04  0.13202768680E+04  0.00000000000E+00 0. -1.
        -13    1    5    5    0    0 -0.37437431632E+02  0.13535915346E+01 -0.36406513487E+03  0.36598745323E+03  0.00000000000E+00 0.  1.
          4    1    6    6  503    0  0.40618939352E+03 -0.51647989507E+03 -0.20468348723E+04  0.21497149345E+04  0.00000000000E+00 0. -1.
         -4    1    6    6    0  503  0.64175540196E+02 -0.32679952599E+02 -0.24464385615E+03  0.25502371578E+03  0.00000000000E+00 0.  1.
<mgrwt>
<rscale>  0 0.17684879E+04</rscale>
<asrwt>0</asrwt>
<pdfrwt beam="1">  1        2 0.25931048E-01 0.17684879E+04</pdfrwt>
<pdfrwt beam="2">  1       -1 0.71366997E+00 0.17684879E+04</pdfrwt>
<totfact> 0.40523357E-02</totfact>
</mgrwt>
</event>
<event>
12    7  0.1606355E-007  0.2508087E+04  0.7818608E-02  0.8400110E-01
         -1   -1    0    0    0  501 -0.00000000000E+00  0.00000000000E+00  0.54994493414E+03  0.54994493414E+03  0.00000000000E+00 0.  1.
          2   -1    0    0  501    0  0.00000000000E+00 -0.00000000000E+00 -0.28596039939E+04  0.28596039939E+04  0.00000000000E+00 0. -1.
         24    2    1    2    0    0 -0.47673330165E+03  0.95003881847E+03 -0.68248108205E+03  0.12656699942E+04  0.79320295654E+02 0.  0.
        254    2    1    2    0    0  0.47673330165E+03 -0.95003881847E+03 -0.16271779777E+04  0.21438789338E+04  0.90479849383E+03 0.  0.
         23    2    4    4    0    0 -0.91225180564E+02 -0.78839622204E+03 -0.92538057566E+03  0.12223950067E+04  0.89608626893E+02 0.  0.
         23    2    4    4    0    0  0.56795848221E+03 -0.16164259643E+03 -0.70179740202E+03  0.92148392719E+03  0.88926194544E+02 0.  0.
          4    1    3    3  502    0 -0.33843909728E+03  0.62387766288E+03 -0.49014012099E+03  0.86255533098E+03  0.00000000000E+00 0. -1.
         -3    1    3    3    0  502 -0.13829420437E+03  0.32616115559E+03 -0.19234096106E+03  0.40311466320E+03  0.00000000000E+00 0.  1.
         13    1    5    5    0    0  0.17240869853E+02 -0.16842213913E+03 -0.19420919111E+03  0.25764408484E+03  0.00000000000E+00 0. -1.
        -13    1    5    5    0    0 -0.10846605042E+03 -0.61997408291E+03 -0.73117138455E+03  0.96475092183E+03  0.00000000000E+00 0.  1.
          1    1    6    6  503    0  0.46252190653E+02 -0.31526867454E+02 -0.40031978444E+02  0.68816915143E+02  0.00000000000E+00 0. -1.
         -1    1    6    6    0  503  0.52170629156E+03 -0.13011572898E+03 -0.66176542358E+03  0.85266701204E+03  0.00000000000E+00 0.  1.
<mgrwt>
<rscale>  0 0.25080867E+04</rscale>
<asrwt>0</asrwt>
<pdfrwt beam="1">  1        2 0.43993907E+00 0.25080867E+04</pdfrwt>
<pdfrwt beam="2">  1       -1 0.84606915E-01 0.25080867E+04</pdfrwt>
<totfact> 0.29816206E+00</totfact>
</mgrwt>
</event>
<event>
12    7  0.1606355E-007  0.3021735E+04  0.7818608E-02  0.8237551E-01
         -1   -1    0    0    0  501 -0.00000000000E+00  0.00000000000E+00  0.11211258031E+04  0.11211258031E+04  0.00000000000E+00 0.  1.
          2   -1    0    0  501    0  0.00000000000E+00 -0.00000000000E+00 -0.20360971451E+04  0.20360971451E+04  0.00000000000E+00 0. -1.
         24    2    1    2    0    0 -0.29391612679E+03  0.37367529863E+02  0.98666506737E+03  0.10332892772E+04  0.79973454277E+02 0.  0.
        254    2    1    2    0    0  0.29391612679E+03 -0.37367529863E+02 -0.19016364093E+04  0.21239336710E+04  0.89838198081E+03 0.  0.
         23    2    4    4    0    0  0.42161436943E+03 -0.37588613683E+03 -0.12026183438E+04  0.13317216744E+04  0.90236759690E+02 0.  0.
         23    2    4    4    0    0 -0.12769824265E+03  0.33851860697E+03 -0.69901806551E+03  0.79221199656E+03  0.89843770702E+02 0.  0.
          4    1    3    3  502    0 -0.14706368101E+03 -0.20892480155E+02  0.45321535247E+03  0.47693645040E+03  0.00000000000E+00 0. -1.
         -3    1    3    3    0  502 -0.14685244577E+03  0.58260010018E+02  0.53344971490E+03  0.55635282683E+03  0.00000000000E+00 0.  1.
         13    1    5    5    0    0  0.24955874267E+03 -0.23205685756E+03 -0.62082278818E+03  0.70820257377E+03  0.00000000000E+00 0.  1.
        -13    1    5    5    0    0  0.17205562676E+03 -0.14382927928E+03 -0.58179555564E+03  0.62351910062E+03  0.00000000000E+00 0. -1.
          1    1    6    6  503    0 -0.11494409074E+03  0.27647609147E+03 -0.49424058686E+03  0.57786238055E+03  0.00000000000E+00 0. -1.
         -1    1    6    6    0  503 -0.12754151906E+02  0.62042515502E+02 -0.20477747865E+03  0.21434961601E+03  0.00000000000E+00 0.  1.
<mgrwt>
<rscale>  0 0.30217353E+04</rscale>
<asrwt>0</asrwt>
<pdfrwt beam="1">  1        2 0.31324572E+00 0.30217353E+04</pdfrwt>
<pdfrwt beam="2">  1       -1 0.17248089E+00 0.30217353E+04</pdfrwt>
<totfact> 0.14629707E+00</totfact>
</mgrwt>
</event>
<event>
12    7  0.1606355E-007  0.2098861E+04  0.7818608E-02  0.8561745E-01
         -1   -1    0    0    0  501 -0.00000000000E+00  0.00000000000E+00  0.62323480929E+03  0.62323480929E+03  0.00000000000E+00 0.  1.
          2   -1    0    0  501    0  0.00000000000E+00 -0.00000000000E+00 -0.17670774118E+04  0.17670774118E+04  0.00000000000E+00 0. -1.
         24    2    1    2    0    0  0.44493934533E+01  0.55014487675E+03  0.19691920017E+03  0.58971821279E+03  0.79443165750E+02 0.  0.
        254    2    1    2    0    0 -0.44493934533E+01 -0.55014487675E+03 -0.13407618027E+04  0.18005940083E+04  0.10685585565E+04 0.  0.
         23    2    4    4    0    0 -0.47246768164E+03 -0.20009616958E+03 -0.29341616480E+03  0.59773792214E+03  0.89069582492E+02 0.  0.
         23    2    4    4    0    0  0.46801828819E+03 -0.35004870718E+03 -0.10473456379E+04  0.12028560862E+04  0.91403847693E+02 0.  0.
          2    1    3    3  502    0 -0.16625244788E+02  0.12933174972E+03  0.16729114157E+02  0.13146468541E+03  0.00000000000E+00 0. -1.
         -1    1    3    3    0  502  0.21074638242E+02  0.42081312704E+03  0.18019008601E+03  0.45825352738E+03  0.00000000000E+00 0.  1.
         13    1    5    5    0    0  0.26899111931E+01  0.29906405158E+01 -0.25020752497E+01  0.47370806913E+01  0.00000000000E+00 0.  1.
        -13    1    5    5    0    0 -0.47515759283E+03 -0.20308681009E+03 -0.29091408955E+03  0.59300084145E+03  0.00000000000E+00 0. -1.
          1    1    6    6  503    0  0.35850047423E+03 -0.28976908447E+03 -0.75048917908E+03  0.88075122495E+03  0.00000000000E+00 0. -1.
         -1    1    6    6    0  503  0.10951781396E+03 -0.60279622706E+02 -0.29685645882E+03  0.32210486123E+03  0.00000000000E+00 0.  1.
<mgrwt>
<rscale>  0 0.20988608E+04</rscale>
<asrwt>0</asrwt>
<pdfrwt beam="1">  1        2 0.27185806E+00 0.20988608E+04</pdfrwt>
<pdfrwt beam="2">  1       -1 0.95882279E-01 0.20988608E+04</pdfrwt>
<totfact> 0.99048090E+00</totfact>
</mgrwt>
</event>
<event>
12    7  0.1606355E-007  0.1497448E+04  0.7818608E-02  0.8886151E-01
          2   -1    0    0  501    0  0.00000000000E+00  0.00000000000E+00  0.27673507091E+04  0.27673507091E+04  0.00000000000E+00 0. -1.
         -1   -1    0    0    0  501 -0.00000000000E+00 -0.00000000000E+00 -0.20257207895E+03  0.20257207895E+03  0.00000000000E+00 0.  1.
         24    2    1    2    0    0 -0.25930490315E+03  0.30181384404E+03  0.13388810412E+04  0.13992032118E+04  0.82683470274E+02 0.  0.
        254    2    1    2    0    0  0.25930490315E+03 -0.30181384404E+03  0.12258975889E+04  0.15707195762E+04  0.89777751101E+03 0.  0.
         23    2    4    4    0    0  0.44514873250E+03  0.79269932203E+02  0.95304699585E+03  0.10582014520E+04  0.83967973174E+02 0.  0.
         23    2    4    4    0    0 -0.18584382935E+03 -0.38108377625E+03  0.27285059309E+03  0.51251812422E+03  0.92003304699E+02 0.  0.
          4    1    3    3  502    0 -0.21746721654E+03  0.19654893997E+03  0.96915281702E+03  0.10125120537E+04  0.00000000000E+00 0. -1.
         -3    1    3    3    0  502 -0.41837686616E+02  0.10526490407E+03  0.36972822416E+03  0.38669115815E+03  0.00000000000E+00 0.  1.
         13    1    5    5    0    0  0.10064195356E+03  0.54367751962E+02  0.24616822305E+03  0.27144695487E+03  0.00000000000E+00 0. -1.
        -13    1    5    5    0    0  0.34450677894E+03  0.24902180241E+02  0.70687877280E+03  0.78675449713E+03  0.00000000000E+00 0.  1.
          3    1    6    6  503    0 -0.23167035885E+02 -0.14428887416E+03  0.81361597131E+02  0.16725938014E+03  0.00000000000E+00 0. -1.
         -3    1    6    6    0  503 -0.16267679346E+03 -0.23679490208E+03  0.19148899596E+03  0.34525874407E+03  0.00000000000E+00 0.  1.
<mgrwt>
<rscale>  0 0.14974485E+04</rscale>
<asrwt>0</asrwt>
<pdfrwt beam="1">  1        2 0.42574624E+00 0.14974485E+04</pdfrwt>
<pdfrwt beam="2">  1       -1 0.31164937E-01 0.14974485E+04</pdfrwt>
<totfact> 0.25535874E+01</totfact>
</mgrwt>
</event>
<event>
12    7  0.1606355E-007  0.1547428E+04  0.7818608E-02  0.8853512E-01
         -1   -1    0    0    0  501 -0.00000000000E+00  0.00000000000E+00  0.20461081173E+04  0.20461081173E+04  0.00000000000E+00 0.  1.
          2   -1    0    0  501    0  0.00000000000E+00 -0.00000000000E+00 -0.29257175725E+03  0.29257175725E+03  0.00000000000E+00 0. -1.
         24    2    1    2    0    0  0.51711735840E+03  0.36237212209E+02  0.55779998337E+03  0.76575122335E+03  0.80688392674E+02 0.  0.
        254    2    1    2    0    0 -0.51711735840E+03 -0.36237212209E+02  0.11957363767E+04  0.15729286512E+04  0.88067903426E+03 0.  0.
         23    2    4    4    0    0  0.22215418782E+03 -0.85628642321E+02  0.17928568978E+03  0.31182466943E+03  0.91687067548E+02 0.  0.
         23    2    4    4    0    0 -0.73927154622E+03  0.49391430111E+02  0.10164506869E+04  0.12611039818E+04  0.90825775691E+02 0.  0.
          2    1    3    3  502    0  0.48165532477E+03  0.38933982406E+02  0.48453869522E+03  0.68431385637E+03  0.00000000000E+00 0. -1.
         -1    1    3    3    0  502  0.35462033633E+02 -0.26967701967E+01  0.73261288148E+02  0.81437366976E+02  0.00000000000E+00 0.  1.
         13    1    5    5    0    0  0.13769862685E+03 -0.91621476912E+02  0.88112700724E+02  0.18740132042E+03  0.00000000000E+00 0. -1.
        -13    1    5    5    0    0  0.84455560977E+02  0.59928345918E+01  0.91172989055E+02  0.12442334901E+03  0.00000000000E+00 0.  1.
          2    1    6    6  503    0 -0.71320042239E+02  0.28453916959E+02  0.12981151547E+03  0.15082176025E+03  0.00000000000E+00 0. -1.
         -2    1    6    6    0  503 -0.66795150398E+03  0.20937513152E+02  0.88663917147E+03  0.11102822216E+04  0.00000000000E+00 0.  1.
<mgrwt>
<rscale>  0 0.15474281E+04</rscale>
<asrwt>0</asrwt>
<pdfrwt beam="1">  1        2 0.45011041E-01 0.15474281E+04</pdfrwt>
<pdfrwt beam="2">  1       -1 0.31478586E+00 0.15474281E+04</pdfrwt>
<totfact> 0.33040283E+00</totfact>
</mgrwt>
</event>
<event>
12    7  0.1606355E-007  0.1526258E+04  0.7818608E-02  0.8867177E-01
          2   -1    0    0  501    0  0.00000000000E+00  0.00000000000E+00  0.15098489473E+04  0.15098489473E+04  0.00000000000E+00 0. -1.
         -1   -1    0    0    0  501 -0.00000000000E+00 -0.00000000000E+00 -0.38571120868E+03  0.38571120868E+03  0.00000000000E+00 0.  1.
         24    2    1    2    0    0  0.17568834219E+03 -0.51741045566E+03  0.28784354020E+03  0.62261485309E+03  0.78837671524E+02 0.  0.
        254    2    1    2    0    0 -0.17568834219E+03  0.51741045566E+03  0.83629419843E+03  0.12729453029E+04  0.78893712336E+03 0.  0.
         23    2    4    4    0    0  0.94615130026E+02  0.63682302128E+03  0.55479167232E+03  0.85471845805E+03  0.90852955895E+02 0.  0.
         23    2    4    4    0    0 -0.27030347222E+03 -0.11941256562E+03  0.28150252611E+03  0.41822684484E+03  0.91360240897E+02 0.  0.
          4    1    3    3  502    0  0.14875583627E+02 -0.15146126623E+03  0.86284123473E+02  0.17494784400E+03  0.00000000000E+00 0. -1.
         -3    1    3    3    0  502  0.16081275857E+03 -0.36594918942E+03  0.20155941673E+03  0.44766700909E+03  0.00000000000E+00 0.  1.
         13    1    5    5    0    0  0.97111059136E+02  0.63392334002E+03  0.53680879622E+03  0.83633309305E+03  0.00000000000E+00 0. -1.
        -13    1    5    5    0    0 -0.24959291103E+01  0.28996812611E+01  0.17982876095E+02  0.18385365000E+02  0.00000000000E+00 0.  1.
          1    1    6    6  503    0 -0.23316680741E+03 -0.12403613922E+03  0.20960782345E+03  0.33717527128E+03  0.00000000000E+00 0. -1.
         -1    1    6    6    0  503 -0.37136664806E+02  0.46235736021E+01  0.71894702659E+02  0.81051573558E+02  0.00000000000E+00 0.  1.
<mgrwt>
<rscale>  0 0.15262577E+04</rscale>
<asrwt>0</asrwt>
<pdfrwt beam="1">  1        2 0.23228445E+00 0.15262577E+04</pdfrwt>
<pdfrwt beam="2">  1       -1 0.59340187E-01 0.15262577E+04</pdfrwt>
<totfact> 0.39640954E+01</totfact>
</mgrwt>
</event>
<event>
12    7  0.1606355E-007  0.1467291E+04  0.7818608E-02  0.8906500E-01
         -1   -1    0    0    0  501 -0.00000000000E+00  0.00000000000E+00  0.28201900553E+03  0.28201900553E+03  0.00000000000E+00 0.  1.
          2   -1    0    0  501    0  0.00000000000E+00 -0.00000000000E+00 -0.19085091465E+04  0.19085091465E+04  0.00000000000E+00 0. -1.
         24    2    1    2    0    0  0.31453804092E+03  0.12748050550E+03 -0.96359285078E+03  0.10245925741E+04  0.78059607332E+02 0.  0.
        254    2    1    2    0    0 -0.31453804092E+03 -0.12748050550E+03 -0.66289729020E+03  0.11659355780E+04  0.89709949066E+03 0.  0.
         23    2    4    4    0    0 -0.32971052885E+03 -0.14422002611E+03  0.11030463807E+03  0.38646023239E+03  0.87612494978E+02 0.  0.
         23    2    4    4    0    0  0.15172487931E+02  0.16739520606E+02 -0.77320192827E+03  0.77947534557E+03  0.96073807712E+02 0.  0.
          2    1    3    3  502    0  0.22216381958E+02  0.26494226235E+02 -0.15646624943E+03  0.16024106484E+03  0.00000000000E+00 0. -1.
         -1    1    3    3    0  502  0.29232165896E+03  0.10098627927E+03 -0.80712660135E+03  0.86435150923E+03  0.00000000000E+00 0.  1.
         13    1    5    5    0    0 -0.22507967023E+02 -0.33315303330E+02 -0.40530729439E+01  0.40409719323E+02  0.00000000000E+00 0.  1.
        -13    1    5    5    0    0 -0.30720256182E+03 -0.11090472278E+03  0.11435771102E+03  0.34605051307E+03  0.00000000000E+00 0. -1.
          2    1    6    6  503    0  0.10904683686E+01  0.54575518876E+02 -0.33505879493E+03  0.33947617360E+03  0.00000000000E+00 0.  1.
         -2    1    6    6    0  503  0.14082019562E+02 -0.37835998271E+02 -0.43814313334E+03  0.43999917197E+03  0.00000000000E+00 0. -1.
<mgrwt>
<rscale>  0 0.14672912E+04</rscale>
<asrwt>0</asrwt>
<pdfrwt beam="1">  1        2 0.29361678E+00 0.14672912E+04</pdfrwt>
<pdfrwt beam="2">  1       -1 0.43387540E-01 0.14672912E+04</pdfrwt>
<totfact> 0.43453263E+01</totfact>
</mgrwt>
</event>
<event>
12    7  0.1606355E-007  0.1507118E+04  0.7818608E-02  0.8879733E-01
          2   -1    0    0  501    0  0.00000000000E+00  0.00000000000E+00  0.26740765098E+04  0.26740765098E+04  0.00000000000E+00 0. -1.
         -1   -1    0    0    0  501 -0.00000000000E+00 -0.00000000000E+00 -0.21235424235E+03  0.21235424235E+03  0.00000000000E+00 0.  1.
         24    2    1    2    0    0  0.17768105504E+02  0.53028937841E+02  0.17069841818E+04  0.17096426345E+04  0.77169727860E+02 0.  0.
        254    2    1    2    0    0 -0.17768105504E+02 -0.53028937841E+02  0.75473808565E+03  0.11767881177E+04  0.90115088755E+03 0.  0.
         23    2    4    4    0    0  0.12886785898E+03  0.27051807752E+03 -0.25871867052E+02  0.31433689221E+03  0.91385846598E+02 0.  0.
         23    2    4    4    0    0 -0.14663596449E+03 -0.32354701536E+03  0.78060995270E+03  0.86245122545E+03  0.91024396727E+02 0.  0.
          4    1    3    3  502    0  0.40408949029E+02  0.53491630422E+02  0.14835196763E+04  0.14850336251E+04  0.00000000000E+00 0. -1.
         -3    1    3    3    0  502 -0.22640843524E+02 -0.46269258177E+00  0.22346450546E+03  0.22460900934E+03  0.00000000000E+00 0.  1.
         13    1    5    5    0    0  0.10048746211E+03  0.21184391927E+03  0.18952771297E+02  0.23523346640E+03  0.00000000000E+00 0.  1.
        -13    1    5    5    0    0  0.28380396877E+02  0.58674158245E+02 -0.44824638349E+02  0.79103425815E+02  0.00000000000E+00 0. -1.
          4    1    6    6  503    0 -0.35964901116E+02 -0.15113143411E+02  0.83999749860E+02  0.92616624818E+02  0.00000000000E+00 0. -1.
         -4    1    6    6    0  503 -0.11067106337E+03 -0.30843387195E+03  0.69661020284E+03  0.76983460063E+03  0.00000000000E+00 0.  1.
<mgrwt>
<rscale>  0 0.15071184E+04</rscale>
<asrwt>0</asrwt>
<pdfrwt beam="1">  1        2 0.41139636E+00 0.15071184E+04</pdfrwt>
<pdfrwt beam="2">  1       -1 0.32669885E-01 0.15071184E+04</pdfrwt>
<totfact> 0.26663945E+01</totfact>
</mgrwt>
</event>
<event>
12    7  0.1606355E-007  0.1988723E+04  0.7818608E-02  0.8611911E-01
         -1   -1    0    0    0  501 -0.00000000000E+00  0.00000000000E+00  0.41280596759E+03  0.41280596759E+03  0.00000000000E+00 0.  1.
          2   -1    0    0  501    0  0.00000000000E+00 -0.00000000000E+00 -0.23952036900E+04  0.23952036900E+04  0.00000000000E+00 0. -1.
         24    2    1    2    0    0 -0.68560836076E+03  0.10463858414E+03 -0.13095747514E+04  0.14839616642E+04  0.78410035481E+02 0.  0.
        254    2    1    2    0    0  0.68560836076E+03 -0.10463858414E+03 -0.67282297104E+03  0.13240479934E+04  0.90520952321E+03 0.  0.
         23    2    4    4    0    0 -0.11207961264E+03 -0.26881797525E+03 -0.89921254913E+02  0.31852783862E+03  0.92461930015E+02 0.  0.
         23    2    4    4    0    0  0.79768797340E+03  0.16417939111E+03 -0.58290171613E+03  0.10055201548E+04  0.89640368697E+02 0.  0.
          2    1    3    3  502    0 -0.56941262056E+03  0.83589249052E+02 -0.10186673480E+04  0.11700004534E+04  0.00000000000E+00 0. -1.
         -3    1    3    3    0  502 -0.11619574020E+03  0.21049335086E+02 -0.29090740342E+03  0.31396121084E+03  0.00000000000E+00 0.  1.
         13    1    5    5    0    0 -0.75661261450E+02 -0.11313510587E+03 -0.21195168843E+01  0.13612006104E+03  0.00000000000E+00 0. -1.
        -13    1    5    5    0    0 -0.36418351194E+02 -0.15568286937E+03 -0.87801738029E+02  0.18240777758E+03  0.00000000000E+00 0.  1.
          1    1    6    6  503    0  0.56660576877E+03  0.87625589894E+02 -0.37214110048E+03  0.68352713178E+03  0.00000000000E+00 0. -1.
         -1    1    6    6    0  503  0.23108220463E+03  0.76553801214E+02 -0.21076061564E+03  0.32199302304E+03  0.00000000000E+00 0.  1.
<mgrwt>
<rscale>  0 0.19887226E+04</rscale>
<asrwt>0</asrwt>
<pdfrwt beam="1">  1        2 0.36849287E+00 0.19887226E+04</pdfrwt>
<pdfrwt beam="2">  1       -1 0.63508611E-01 0.19887226E+04</pdfrwt>
<totfact> 0.10653155E+01</totfact>
</mgrwt>
</event>
<event>
12    7  0.1606355E-007  0.1716686E+04  0.7818608E-02  0.8751904E-01
         -1   -1    0    0    0  501 -0.00000000000E+00  0.00000000000E+00  0.67373902734E+03  0.67373902734E+03  0.00000000000E+00 0.  1.
          2   -1    0    0  501    0  0.00000000000E+00 -0.00000000000E+00 -0.10935285468E+04  0.10935285468E+04  0.00000000000E+00 0. -1.
         24    2    1    2    0    0  0.32371871812E+03 -0.28394093427E+03  0.30896376937E+03  0.53657643247E+03  0.83901099403E+02 0.  0.
        254    2    1    2    0    0 -0.32371871812E+03  0.28394093427E+03 -0.72875328886E+03  0.12306911417E+04  0.89336614422E+03 0.  0.
         23    2    4    4    0    0 -0.89276948412E+02  0.55912692267E+03 -0.61347575536E+03  0.84035314237E+03  0.96164506500E+02 0.  0.
         23    2    4    4    0    0 -0.23444176971E+03 -0.27518598840E+03 -0.11527753350E+03  0.39033799933E+03  0.91567310743E+02 0.  0.
          4    1    3    3  502    0  0.53844840136E+02 -0.90712631601E+02  0.57367951353E+02  0.12007968264E+03  0.00000000000E+00 0. -1.
         -3    1    3    3    0  502  0.26987387799E+03 -0.19322830267E+03  0.25159581801E+03  0.41649674982E+03  0.00000000000E+00 0.  1.
         13    1    5    5    0    0  0.13283844482E+02  0.16498595217E+02 -0.32506942814E+02  0.38799039930E+02  0.00000000000E+00 0. -1.
        -13    1    5    5    0    0 -0.10256079289E+03  0.54262832745E+03 -0.58096881254E+03  0.80155410244E+03  0.00000000000E+00 0.  1.
          3    1    6    6  503    0 -0.17864381606E+03 -0.15005869877E+03 -0.50116673051E+02  0.23862712966E+03  0.00000000000E+00 0. -1.
         -3    1    6    6    0  503 -0.55797953650E+02 -0.12512728964E+03 -0.65160860447E+02  0.15171086967E+03  0.00000000000E+00 0.  1.
<mgrwt>
<rscale>  0 0.17166862E+04</rscale>
<asrwt>0</asrwt>
<pdfrwt beam="1">  1        2 0.16823516E+00 0.17166862E+04</pdfrwt>
<pdfrwt beam="2">  1       -1 0.10365216E+00 0.17166862E+04</pdfrwt>
<totfact> 0.20913481E+01</totfact>
</mgrwt>
</event>
<event>
12    7  0.1606355E-007  0.1247212E+04  0.7818608E-02  0.9072507E-01
          2   -1    0    0  501    0  0.00000000000E+00  0.00000000000E+00  0.12300199528E+04  0.12300199528E+04  0.00000000000E+00 0. -1.
         -1   -1    0    0    0  501 -0.00000000000E+00 -0.00000000000E+00 -0.31616118125E+03  0.31616118125E+03  0.00000000000E+00 0.  1.
         24    2    1    2    0    0  0.23176217894E+03  0.88043213014E+02  0.12711524590E+03  0.29177607301E+03  0.86658387342E+02 0.  0.
        254    2    1    2    0    0 -0.23176217894E+03 -0.88043213014E+02  0.78674352562E+03  0.12544050610E+04  0.94504040497E+03 0.  0.
         23    2    4    4    0    0  0.29283150326E+03 -0.22128194452E+03  0.52405289590E+03  0.64607839580E+03  0.89832441501E+02 0.  0.
         23    2    4    4    0    0 -0.52459368221E+03  0.13323873150E+03  0.26269062972E+03  0.60832666521E+03  0.90021517857E+02 0.  0.
          4    1    3    3  502    0  0.70104407745E+02 -0.12659357475E+02  0.45765868099E+02  0.84672321332E+02  0.00000000000E+00 0. -1.
         -3    1    3    3    0  502  0.16165777120E+03  0.10070257049E+03  0.81349377800E+02  0.20710375168E+03  0.00000000000E+00 0.  1.
         13    1    5    5    0    0  0.29862043987E+03 -0.21831137917E+03  0.50529784217E+03  0.62622674383E+03  0.00000000000E+00 0.  1.
        -13    1    5    5    0    0 -0.57889366087E+01 -0.29705653427E+01  0.18755053734E+02  0.19851651974E+02  0.00000000000E+00 0. -1.
          3    1    6    6  503    0 -0.27304406608E+03  0.23364306622E+02  0.13820558476E+03  0.30691975581E+03  0.00000000000E+00 0. -1.
         -3    1    6    6    0  503 -0.25154961613E+03  0.10987442488E+03  0.12448504495E+03  0.30140690940E+03  0.00000000000E+00 0.  1.
<mgrwt>
<rscale>  0 0.12472122E+04</rscale>
<asrwt>0</asrwt>
<pdfrwt beam="1">  1        2 0.18923384E+00 0.12472122E+04</pdfrwt>
<pdfrwt beam="2">  1       -1 0.48640182E-01 0.12472122E+04</pdfrwt>
<totfact> 0.86190338E+01</totfact>
</mgrwt>
</event>
<event>
12    7  0.1606355E-007  0.2132264E+04  0.7818608E-02  0.8547163E-01
         -1   -1    0    0    0  501 -0.00000000000E+00  0.00000000000E+00  0.89546773661E+03  0.89546773661E+03  0.00000000000E+00 0.  1.
          2   -1    0    0  501    0  0.00000000000E+00 -0.00000000000E+00 -0.12693225588E+04  0.12693225588E+04  0.00000000000E+00 0. -1.
         24    2    1    2    0    0  0.25026768318E+02  0.16061345971E+03 -0.10198041111E+04  0.10356809053E+04  0.78813007125E+02 0.  0.
        254    2    1    2    0    0 -0.25026768318E+02 -0.16061345971E+03  0.64594928885E+03  0.11291093901E+04  0.91170966242E+03 0.  0.
         23    2    4    4    0    0 -0.10858225404E+03  0.26694553821E+03  0.61089699659E+03  0.68120285197E+03  0.88273205640E+02 0.  0.
         23    2    4    4    0    0  0.83555485725E+02 -0.42755899793E+03  0.35052292262E+02  0.44790653816E+03  0.97996876635E+02 0.  0.
          2    1    3    3  502    0  0.10765235479E+02  0.13917714577E+03 -0.96599773897E+03  0.97603165927E+03  0.00000000000E+00 0. -1.
         -1    1    3    3    0  502  0.14261532839E+02  0.21436313946E+02 -0.53806372089E+02  0.59649246029E+02  0.00000000000E+00 0.  1.
         13    1    5    5    0    0 -0.92325444984E+02  0.26556133993E+03  0.59652041204E+03  0.65945690916E+03  0.00000000000E+00 0.  1.
        -13    1    5    5    0    0 -0.16256809060E+02  0.13841982791E+01  0.14376584551E+02  0.21745942818E+02  0.00000000000E+00 0. -1.
          3    1    6    6  503    0  0.67864286996E+02 -0.14575248359E+03  0.39773966807E+02  0.16562402108E+03  0.00000000000E+00 0. -1.
         -3    1    6    6    0  503  0.15691198730E+02 -0.28180651433E+03 -0.47216745451E+01  0.28228251708E+03  0.00000000000E+00 0.  1.
<mgrwt>
<rscale>  0 0.21322640E+04</rscale>
<asrwt>0</asrwt>
<pdfrwt beam="1">  1        2 0.19528039E+00 0.21322640E+04</pdfrwt>
<pdfrwt beam="2">  1       -1 0.13776427E+00 0.21322640E+04</pdfrwt>
<totfact> 0.78917628E+00</totfact>
</mgrwt>
</event>
<event>
12    7  0.1606355E-007  0.1651605E+04  0.7818608E-02  0.8789458E-01
          2   -1    0    0  501    0  0.00000000000E+00  0.00000000000E+00  0.70822245120E+03  0.70822245120E+03  0.00000000000E+00 0. -1.
         -1   -1    0    0    0  501 -0.00000000000E+00 -0.00000000000E+00 -0.96290281977E+03  0.96290281977E+03  0.00000000000E+00 0.  1.
         24    2    1    2    0    0 -0.55124636180E+03  0.16793955783E+03 -0.11201975687E+02  0.58195594191E+03  0.80442448889E+02 0.  0.
        254    2    1    2    0    0  0.55124636180E+03 -0.16793955783E+03 -0.24347839288E+03  0.10891693291E+04  0.89158950929E+03 0.  0.
         23    2    4    4    0    0  0.70261089382E+03 -0.35550844697E+03 -0.11533417402E+03  0.80088454841E+03  0.89809599679E+02 0.  0.
         23    2    4    4    0    0 -0.15136453202E+03  0.18756888914E+03 -0.12814421887E+03  0.28828478065E+03  0.92703097029E+02 0.  0.
          2    1    3    3  502    0 -0.29600104188E+03  0.87173199213E+02  0.34035803130E+02  0.31044197421E+03  0.00000000000E+00 0. -1.
         -1    1    3    3    0  502 -0.25524531992E+03  0.80766358618E+02 -0.45237778818E+02  0.27151396770E+03  0.00000000000E+00 0.  1.
         13    1    5    5    0    0  0.71816203700E+02 -0.65246313256E+02 -0.19006233644E+00  0.97029297798E+02  0.00000000000E+00 0.  1.
        -13    1    5    5    0    0  0.63079469012E+03 -0.29026213372E+03 -0.11514411168E+03  0.70385525061E+03  0.00000000000E+00 0. -1.
          1    1    6    6  503    0 -0.77180165734E+02  0.71991293122E+02 -0.10524716070E+03  0.14905196780E+03  0.00000000000E+00 0. -1.
         -1    1    6    6    0  503 -0.74184366286E+02  0.11557759602E+03 -0.22897058165E+02  0.13923281286E+03  0.00000000000E+00 0.  1.
<mgrwt>
<rscale>  0 0.16516045E+04</rscale>
<asrwt>0</asrwt>
<pdfrwt beam="1">  1        2 0.10895730E+00 0.16516045E+04</pdfrwt>
<pdfrwt beam="2">  1       -1 0.14813889E+00 0.16516045E+04</pdfrwt>
<totfact> 0.15889779E+01</totfact>
</mgrwt>
</event>
<event>
12    7  0.1606355E-007  0.1541555E+04  0.7818608E-02  0.8857280E-01
         -1   -1    0    0    0  501 -0.00000000000E+00  0.00000000000E+00  0.51759260376E+03  0.51759260376E+03  0.00000000000E+00 0.  1.
          2   -1    0    0  501    0  0.00000000000E+00 -0.00000000000E+00 -0.11478096958E+04  0.11478096958E+04  0.00000000000E+00 0. -1.
         24    2    1    2    0    0 -0.45593442418E+03  0.22342779192E+03 -0.25898162278E+03  0.57533968099E+03  0.78409758458E+02 0.  0.
        254    2    1    2    0    0  0.45593442418E+03 -0.22342779192E+03 -0.37123546926E+03  0.10900626186E+04  0.89029464865E+03 0.  0.
         23    2    4    4    0    0  0.41502420060E+03 -0.54272288321E+03 -0.21814413136E+03  0.72302126867E+03  0.91540580397E+02 0.  0.
         23    2    4    4    0    0  0.40910223578E+02  0.31929509129E+03 -0.15309133790E+03  0.36704134990E+03  0.87517958609E+02 0.  0.
          2    1    3    3  502    0 -0.44020284882E+03  0.22552887376E+03 -0.23762832344E+03  0.54873403495E+03  0.00000000000E+00 0. -1.
         -1    1    3    3    0  502 -0.15731575358E+02 -0.21010818395E+01 -0.21353299344E+02  0.26605646036E+02  0.00000000000E+00 0.  1.
         13    1    5    5    0    0  0.32536249401E+03 -0.38902498239E+03 -0.12567343373E+03  0.52248923566E+03  0.00000000000E+00 0.  1.
        -13    1    5    5    0    0  0.89661706597E+02 -0.15369790082E+03 -0.92470697625E+02  0.20053203301E+03  0.00000000000E+00 0. -1.
          2    1    6    6  503    0  0.33367174268E+02  0.39725127752E+02 -0.97940274851E+01  0.52795615991E+02  0.00000000000E+00 0. -1.
         -2    1    6    6    0  503  0.75430493097E+01  0.27956996354E+03 -0.14329731042E+03  0.31424573391E+03  0.00000000000E+00 0.  1.
<mgrwt>
<rscale>  0 0.15415548E+04</rscale>
<asrwt>0</asrwt>
<pdfrwt beam="1">  1        2 0.17658611E+00 0.15415548E+04</pdfrwt>
<pdfrwt beam="2">  1       -1 0.79629631E-01 0.15415548E+04</pdfrwt>
<totfact> 0.35245844E+01</totfact>
</mgrwt>
</event>
<event>
12    7  0.1606355E-007  0.1274724E+04  0.7818608E-02  0.9049853E-01
         -1   -1    0    0    0  501 -0.00000000000E+00  0.00000000000E+00  0.11413225259E+04  0.11413225259E+04  0.00000000000E+00 0.  1.
          2   -1    0    0  501    0  0.00000000000E+00 -0.00000000000E+00 -0.35592965031E+03  0.35592965031E+03  0.00000000000E+00 0. -1.
         24    2    1    2    0    0  0.31924177658E+02  0.28203067177E+03  0.43437775156E+02  0.29719014806E+03  0.76646531925E+02 0.  0.
        254    2    1    2    0    0 -0.31924177658E+02 -0.28203067177E+03  0.74195510048E+03  0.12000620282E+04  0.89949488461E+03 0.  0.
         23    2    4    4    0    0  0.17312615211E+03 -0.28001287915E+03  0.87455439663E+03  0.93930010362E+03  0.95180959003E+02 0.  0.
         23    2    4    4    0    0 -0.20505032976E+03 -0.20177926137E+01 -0.13259929615E+03  0.26076192457E+03  0.91457633584E+02 0.  0.
          2    1    3    3  502    0  0.15578807809E+02  0.20721871926E+03 -0.26380258631E+01  0.20782024936E+03  0.00000000000E+00 0. -1.
         -3    1    3    3    0  502  0.16345369850E+02  0.74811952505E+02  0.46075801019E+02  0.89369898695E+02  0.00000000000E+00 0.  1.
         13    1    5    5    0    0  0.12353589230E+03 -0.18082938727E+03  0.69076135317E+03  0.72464586594E+03  0.00000000000E+00 0. -1.
        -13    1    5    5    0    0  0.49590259810E+02 -0.99183491883E+02  0.18379304346E+03  0.21465423768E+03  0.00000000000E+00 0.  1.
          4    1    6    6  503    0 -0.14417934310E+03  0.12469913010E+02 -0.13532485765E+03  0.19813126660E+03  0.00000000000E+00 0. -1.
         -4    1    6    6    0  503 -0.60870986667E+02 -0.14487705623E+02  0.27255614971E+01  0.62630657968E+02  0.00000000000E+00 0.  1.
<mgrwt>
<rscale>  0 0.12747243E+04</rscale>
<asrwt>0</asrwt>
<pdfrwt beam="1">  1        2 0.54758408E-01 0.12747243E+04</pdfrwt>
<pdfrwt beam="2">  1       -1 0.17558808E+00 0.12747243E+04</pdfrwt>
<totfact> 0.22831019E+01</totfact>
</mgrwt>
</event>
<event>
12    7  0.1606355E-007  0.2122072E+04  0.7818608E-02  0.8551582E-01
          2   -1    0    0  501    0  0.00000000000E+00  0.00000000000E+00  0.10571209643E+04  0.10571209643E+04  0.00000000000E+00 0. -1.
         -3   -1    0    0    0  501 -0.00000000000E+00 -0.00000000000E+00 -0.10649659573E+04  0.10649659573E+04  0.00000000000E+00 0.  1.
         24    2    1    2    0    0  0.71714593596E+03 -0.31333481985E+02  0.48257118457E+03  0.86791565669E+03  0.71572050455E+02 0.  0.
        254    2    1    2    0    0 -0.71714593596E+03  0.31333481985E+02 -0.49041617756E+03  0.12541712649E+04  0.90396761769E+03 0.  0.
         23    2    4    4    0    0 -0.56422177572E+03 -0.96297244667E+02  0.13144003084E+03  0.59471255101E+03  0.93739879928E+02 0.  0.
         23    2    4    4    0    0 -0.15292416023E+03  0.12763072665E+03 -0.62185620841E+03  0.65945871385E+03  0.92223913203E+02 0.  0.
          2    1    3    3  502    0  0.40642934494E+03 -0.53169964305E+02  0.27687192297E+03  0.49464120255E+03  0.00000000000E+00 0. -1.
         -1    1    3    3    0  502  0.31071659102E+03  0.21836482321E+02  0.20569926160E+03  0.37327445415E+03  0.00000000000E+00 0.  1.
         13    1    5    5    0    0 -0.35878946154E+03 -0.17693564080E+02  0.66102383900E+02  0.36525671121E+03  0.00000000000E+00 0. -1.
        -13    1    5    5    0    0 -0.20543231418E+03 -0.78603680587E+02  0.65337646945E+02  0.22945583980E+03  0.00000000000E+00 0.  1.
          4    1    6    6  503    0 -0.13272204865E+03  0.10577755099E+03 -0.59708760968E+03  0.62073959606E+03  0.00000000000E+00 0. -1.
         -4    1    6    6    0  503 -0.20202111582E+02  0.21853175663E+02 -0.24768598731E+02  0.38719117785E+02  0.00000000000E+00 0.  1.
<mgrwt>
<rscale>  0 0.21220724E+04</rscale>
<asrwt>0</asrwt>
<pdfrwt beam="1">  1        2 0.16263400E+00 0.21220724E+04</pdfrwt>
<pdfrwt beam="2">  1       -3 0.16384092E+00 0.21220724E+04</pdfrwt>
<totfact> 0.34371219E+00</totfact>
</mgrwt>
</event>
<event>
12    7  0.1606355E-007  0.1453876E+04  0.7818608E-02  0.8915718E-01
         -1   -1    0    0    0  501 -0.00000000000E+00  0.00000000000E+00  0.26132535439E+03  0.26132535439E+03  0.00000000000E+00 0.  1.
          2   -1    0    0  501    0  0.00000000000E+00 -0.00000000000E+00 -0.20221486297E+04  0.20221486297E+04  0.00000000000E+00 0. -1.
         24    2    1    2    0    0  0.15839788128E+03  0.56230125899E+02  0.96240417781E+02  0.20937416373E+03  0.79521107711E+02 0.  0.
        254    2    1    2    0    0 -0.15839788128E+03 -0.56230125899E+02 -0.18570636930E+04  0.20740998203E+04  0.90826911690E+03 0.  0.
         23    2    4    4    0    0  0.34290278053E+03 -0.10814974058E+03 -0.10936397374E+04  0.11548134230E+04  0.90925703027E+02 0.  0.
         23    2    4    4    0    0 -0.50130066181E+03  0.51919614680E+02 -0.76342395564E+03  0.91928639729E+03  0.90957925794E+02 0.  0.
          2    1    3    3  502    0  0.93127831313E+02  0.49036727223E+01  0.17385529247E+02  0.94863563070E+02  0.00000000000E+00 0. -1.
         -1    1    3    3    0  502  0.65270049967E+02  0.51326453177E+02  0.78854888534E+02  0.11451060066E+03  0.00000000000E+00 0.  1.
         13    1    5    5    0    0  0.27302494883E+03 -0.12294392800E+03 -0.87871225030E+03  0.92832809445E+03  0.00000000000E+00 0. -1.
        -13    1    5    5    0    0  0.69877831709E+02  0.14794187417E+02 -0.21492748711E+03  0.22648532857E+03  0.00000000000E+00 0.  1.
          2    1    6    6  503    0 -0.42880227149E+03  0.62810127750E+02 -0.59974869821E+03  0.73994256614E+03  0.00000000000E+00 0. -1.
         -2    1    6    6    0  503 -0.72498390325E+02 -0.10890513069E+02 -0.16367525744E+03  0.17934383115E+03  0.00000000000E+00 0.  1.
<mgrwt>
<rscale>  0 0.14538758E+04</rscale>
<asrwt>0</asrwt>
<pdfrwt beam="1">  1        2 0.31109979E+00 0.14538758E+04</pdfrwt>
<pdfrwt beam="2">  1       -1 0.40203901E-01 0.14538758E+04</pdfrwt>
<totfact> 0.43301427E+01</totfact>
</mgrwt>
</event>
<event>
12    7  0.1606355E-007  0.2605451E+04  0.7818608E-02  0.8366352E-01
          2   -1    0    0  501    0  0.00000000000E+00  0.00000000000E+00  0.25531181992E+04  0.25531181992E+04  0.00000000000E+00 0. -1.
         -1   -1    0    0    0  501 -0.00000000000E+00 -0.00000000000E+00 -0.66471437391E+03  0.66471437391E+03  0.00000000000E+00 0.  1.
         24    2    1    2    0    0  0.48188228200E+03 -0.71197558293E+03 -0.10372822242E+03  0.86974891961E+03  0.81141078645E+02 0.  0.
        254    2    1    2    0    0 -0.48188228200E+03  0.71197558293E+03  0.19921320477E+04  0.23480836535E+04  0.89765638409E+03 0.  0.
         23    2    4    4    0    0  0.21730167593E+03  0.34275014425E+03  0.45194029502E+03  0.61455686362E+03  0.93447464472E+02 0.  0.
         23    2    4    4    0    0 -0.69918395793E+03  0.36922543868E+03  0.15401917527E+04  0.17335267898E+04  0.87970816557E+02 0.  0.
          2    1    3    3  502    0  0.31825380302E+03 -0.42225050644E+03 -0.34452722062E+02  0.52987542251E+03  0.00000000000E+00 0. -1.
         -1    1    3    3    0  502  0.16362847899E+03 -0.28972507649E+03 -0.69275500357E+02  0.33987349710E+03  0.00000000000E+00 0.  1.
         13    1    5    5    0    0  0.44406746818E+01  0.47184744419E+02  0.86284901451E+02  0.98443912538E+02  0.00000000000E+00 0. -1.
        -13    1    5    5    0    0  0.21286100124E+03  0.29556539983E+03  0.36565539357E+03  0.51611295108E+03  0.00000000000E+00 0.  1.
          3    1    6    6  503    0 -0.14231617763E+03  0.58870017814E+02  0.23515935954E+03  0.28110406932E+03  0.00000000000E+00 0. -1.
         -3    1    6    6    0  503 -0.55686778030E+03  0.31035542087E+03  0.13050323931E+04  0.14524227205E+04  0.00000000000E+00 0.  1.
<mgrwt>
<rscale>  0 0.26054515E+04</rscale>
<asrwt>0</asrwt>
<pdfrwt beam="1">  1        2 0.39278741E+00 0.26054515E+04</pdfrwt>
<pdfrwt beam="2">  1       -1 0.10226375E+00 0.26054515E+04</pdfrwt>
<totfact> 0.29498155E+00</totfact>
</mgrwt>
</event>
<event>
12    7  0.1606355E-007  0.1785825E+04  0.7818608E-02  0.8713874E-01
          2   -1    0    0  501    0  0.00000000000E+00  0.00000000000E+00  0.19284335399E+04  0.19284335399E+04  0.00000000000E+00 0. -1.
         -1   -1    0    0    0  501 -0.00000000000E+00 -0.00000000000E+00 -0.41344073288E+03  0.41344073288E+03  0.00000000000E+00 0.  1.
         24    2    1    2    0    0 -0.13831298672E+03  0.61103617606E+03  0.85078097246E+03  0.10596550716E+04  0.80900660563E+02 0.  0.
        254    2    1    2    0    0  0.13831298672E+03 -0.61103617606E+03  0.66421183458E+03  0.12822192012E+04  0.90022943077E+03 0.  0.
         23    2    4    4    0    0 -0.31139445767E+03 -0.72147609901E+02  0.41499484016E+03  0.53177837461E+03  0.91628251449E+02 0.  0.
         23    2    4    4    0    0  0.44970744439E+03 -0.53888856616E+03  0.24921699442E+03  0.75044082661E+03  0.91731410410E+02 0.  0.
          4    1    3    3  502    0 -0.10433869516E+03  0.32377186480E+03  0.50419243111E+03  0.60821442874E+03  0.00000000000E+00 0. -1.
         -3    1    3    3    0  502 -0.33974291556E+02  0.28726431126E+03  0.34658854135E+03  0.45144064284E+03  0.00000000000E+00 0.  1.
         13    1    5    5    0    0 -0.30057321780E+03 -0.47562525758E+02  0.39309011373E+03  0.49711798462E+03  0.00000000000E+00 0. -1.
        -13    1    5    5    0    0 -0.10821239863E+02 -0.24585084144E+02  0.21904726430E+02  0.34660389993E+02  0.00000000000E+00 0.  1.
          4    1    6    6  503    0  0.17065644186E+03 -0.17136690956E+03  0.45831422363E+02  0.24615190049E+03  0.00000000000E+00 0.  1.
         -4    1    6    6    0  503  0.27905100253E+03 -0.36752165660E+03  0.20338557205E+03  0.50428892612E+03  0.00000000000E+00 0. -1.
<mgrwt>
<rscale>  0 0.17858253E+04</rscale>
<asrwt>0</asrwt>
<pdfrwt beam="1">  1        2 0.29668208E+00 0.17858253E+04</pdfrwt>
<pdfrwt beam="2">  1       -1 0.63606268E-01 0.17858253E+04</pdfrwt>
<totfact> 0.19757732E+01</totfact>
</mgrwt>
</event>
<event>
12    7  0.1606355E-007  0.2462255E+04  0.7818608E-02  0.8416557E-01
          2   -1    0    0  501    0  0.00000000000E+00  0.00000000000E+00  0.25373391591E+04  0.25373391591E+04  0.00000000000E+00 0. -1.
         -1   -1    0    0    0  501 -0.00000000000E+00 -0.00000000000E+00 -0.59734829268E+03  0.59734829268E+03  0.00000000000E+00 0.  1.
         24    2    1    2    0    0  0.46370224252E+03  0.64664206154E+03 -0.58472161234E+02  0.80100456811E+03  0.70877352024E+02 0.  0.
        254    2    1    2    0    0 -0.46370224252E+03 -0.64664206154E+03  0.19984630276E+04  0.23336828837E+04  0.90501690767E+03 0.  0.
         23    2    4    4    0    0 -0.43885856183E+03 -0.34405509005E+03  0.37175534266E+03  0.67636260280E+03  0.91069168137E+02 0.  0.
         23    2    4    4    0    0 -0.24843680691E+02 -0.30258697148E+03  0.16267076850E+04  0.16573202809E+04  0.91414097401E+02 0.  0.
          2    1    3    3  502    0  0.25978445945E+03  0.32971297379E+03 -0.85173002717E+00  0.41976104619E+03  0.00000000000E+00 0. -1.
         -1    1    3    3    0  502  0.20391778307E+03  0.31692908775E+03 -0.57620431207E+02  0.38124352192E+03  0.00000000000E+00 0.  1.
         13    1    5    5    0    0 -0.46338325686E+02 -0.78089481294E+02  0.64239501688E+02  0.11122913779E+03  0.00000000000E+00 0.  1.
        -13    1    5    5    0    0 -0.39252023614E+03 -0.26596560876E+03  0.30751584097E+03  0.56513346501E+03  0.00000000000E+00 0. -1.
          2    1    6    6  503    0 -0.54041385501E+02 -0.22756439952E+03  0.11095685041E+04  0.11339525090E+04  0.00000000000E+00 0. -1.
         -2    1    6    6    0  503  0.29197704810E+02 -0.75022571962E+02  0.51713918082E+03  0.52336777185E+03  0.00000000000E+00 0.  1.
<mgrwt>
<rscale>  0 0.24622552E+04</rscale>
<asrwt>0</asrwt>
<pdfrwt beam="1">  1        2 0.39035986E+00 0.24622552E+04</pdfrwt>
<pdfrwt beam="2">  1       -1 0.91899739E-01 0.24622552E+04</pdfrwt>
<totfact> 0.38855199E+00</totfact>
</mgrwt>
</event>
<event>
12    7  0.1606355E-007  0.1503962E+04  0.7818608E-02  0.8881822E-01
          2   -1    0    0  501    0  0.00000000000E+00  0.00000000000E+00  0.27287620309E+04  0.27287620309E+04  0.00000000000E+00 0. -1.
         -1   -1    0    0    0  501 -0.00000000000E+00 -0.00000000000E+00 -0.20722784374E+03  0.20722784374E+03  0.00000000000E+00 0.  1.
         24    2    1    2    0    0 -0.22532015516E+03 -0.14065986713E+03  0.44073019424E+02  0.28099484870E+03  0.80382233218E+02 0.  0.
        254    2    1    2    0    0  0.22532015516E+03  0.14065986713E+03  0.24774611678E+04  0.26549950259E+04  0.91685897472E+03 0.  0.
         23    2    4    4    0    0  0.13947670082E+03  0.40557395476E+03  0.22256750370E+04  0.22684253756E+04  0.90445184744E+02 0.  0.
         23    2    4    4    0    0  0.85843454339E+02 -0.26491408764E+03  0.25178613073E+03  0.38656965033E+03  0.92148068073E+02 0.  0.
          4    1    3    3  502    0 -0.43135982835E+02  0.34035309468E+01 -0.51482633319E+01  0.43575241289E+02  0.00000000000E+00 0. -1.
         -3    1    3    3    0  502 -0.18218417232E+03 -0.14406339808E+03  0.49221282755E+02  0.23741960742E+03  0.00000000000E+00 0.  1.
         13    1    5    5    0    0  0.14597883384E+03  0.33949203167E+03  0.19634349972E+04  0.19979093191E+04  0.00000000000E+00 0. -1.
        -13    1    5    5    0    0 -0.65021330268E+01  0.66081923093E+02  0.26224003987E+03  0.27051605646E+03  0.00000000000E+00 0.  1.
          1    1    6    6  503    0  0.30328658513E+01 -0.14508866720E+03  0.10023951577E+03  0.17637426157E+03  0.00000000000E+00 0. -1.
         -1    1    6    6    0  503  0.82810588488E+02 -0.11982542044E+03  0.15154661496E+03  0.21019538876E+03  0.00000000000E+00 0.  1.
<mgrwt>
<rscale>  0 0.15039621E+04</rscale>
<asrwt>0</asrwt>
<pdfrwt beam="1">  1        2 0.41980952E+00 0.15039621E+04</pdfrwt>
<pdfrwt beam="2">  1       -1 0.31881209E-01 0.15039621E+04</pdfrwt>
<totfact> 0.25850583E+01</totfact>
</mgrwt>
</event>
<event>
12    7  0.1606355E-007  0.2373026E+04  0.7818608E-02  0.8449672E-01
          2   -1    0    0  501    0  0.00000000000E+00  0.00000000000E+00  0.15441508003E+04  0.15441508003E+04  0.00000000000E+00 0. -1.
         -3   -1    0    0    0  501 -0.00000000000E+00 -0.00000000000E+00 -0.91170665818E+03  0.91170665818E+03  0.00000000000E+00 0.  1.
         24    2    1    2    0    0 -0.44711866411E+03  0.23252352123E+03  0.11818168145E+04  0.12869876316E+04  0.75258839949E+02 0.  0.
        254    2    1    2    0    0  0.44711866411E+03 -0.23252352123E+03 -0.54937267241E+03  0.11688698269E+04  0.90025776937E+03 0.  0.
         23    2    4    4    0    0  0.55399864995E+03 -0.10440895237E+03 -0.71650703178E+03  0.91637700597E+03  0.92459488352E+02 0.  0.
         23    2    4    4    0    0 -0.10687998584E+03 -0.12811456886E+03  0.16713435937E+03  0.25249282093E+03  0.89342355082E+02 0.  0.
          2    1    3    3  502    0 -0.26273510633E+03  0.12206909574E+03  0.58862089769E+03  0.65605271239E+03  0.00000000000E+00 0. -1.
         -3    1    3    3    0  502 -0.18438355778E+03  0.11045442549E+03  0.59319591685E+03  0.63093491920E+03  0.00000000000E+00 0.  1.
         13    1    5    5    0    0  0.44997784430E+03 -0.11095212673E+03 -0.54216285482E+03  0.71325380892E+03  0.00000000000E+00 0. -1.
        -13    1    5    5    0    0  0.10402080565E+03  0.65431743625E+01 -0.17434417696E+03  0.20312319705E+03  0.00000000000E+00 0.  1.
          4    1    6    6  503    0 -0.10300788810E+03 -0.57732605047E+02  0.94107717817E+02  0.15099649416E+03  0.00000000000E+00 0. -1.
         -4    1    6    6    0  503 -0.38720977420E+01 -0.70381963818E+02  0.73026641554E+02  0.10149632677E+03  0.00000000000E+00 0.  1.
<mgrwt>
<rscale>  0 0.23730256E+04</rscale>
<asrwt>0</asrwt>
<pdfrwt beam="1">  1        2 0.23756166E+00 0.23730256E+04</pdfrwt>
<pdfrwt beam="2">  1       -3 0.14026256E+00 0.23730256E+04</pdfrwt>
<totfact> 0.26264570E+00</totfact>
</mgrwt>
</event>
<event>
12    7  0.1606355E-007  0.2133781E+04  0.7818608E-02  0.8546507E-01
         -1   -1    0    0    0  501 -0.00000000000E+00  0.00000000000E+00  0.17742117616E+04  0.17742117616E+04  0.00000000000E+00 0.  1.
          2   -1    0    0  501    0  0.00000000000E+00 -0.00000000000E+00 -0.64155562816E+03  0.64155562816E+03  0.00000000000E+00 0. -1.
         24    2    1    2    0    0 -0.54462616965E+02  0.33890310338E+03 -0.44663615697E+03  0.56620697550E+03  0.57314852025E+02 0.  0.
        254    2    1    2    0    0  0.54462616965E+02 -0.33890310338E+03  0.15792922904E+04  0.18495604142E+04  0.89938206412E+03 0.  0.
         23    2    4    4    0    0 -0.86283977388E+01  0.47387953033E+02  0.14078356719E+04  0.14117737845E+04  0.93722314752E+02 0.  0.
         23    2    4    4    0    0  0.63091014704E+02 -0.38629105642E+03  0.17145661850E+03  0.43778662971E+03  0.95176177260E+02 0.  0.
          2    1    3    3  502    0 -0.64014999011E+02  0.30591819509E+03 -0.38764173912E+03  0.49794576019E+03  0.00000000000E+00 0. -1.
         -1    1    3    3    0  502  0.95523820456E+01  0.32984908295E+02 -0.58994417852E+02  0.68261215311E+02  0.00000000000E+00 0.  1.
         13    1    5    5    0    0  0.41244702394E+02  0.25729358091E+02  0.51703519567E+03  0.51931543295E+03  0.00000000000E+00 0. -1.
        -13    1    5    5    0    0 -0.49873100133E+02  0.21658594942E+02  0.89080047621E+03  0.89245835156E+03  0.00000000000E+00 0.  1.
          2    1    6    6  503    0 -0.16794411582E+02 -0.12712931342E+03  0.29078853152E+02  0.13148952160E+03  0.00000000000E+00 0. -1.
         -2    1    6    6    0  503  0.79885426286E+02 -0.25916174300E+03  0.14237776535E+03  0.30629710811E+03  0.00000000000E+00 0.  1.
<mgrwt>
<rscale>  0 0.21337812E+04</rscale>
<asrwt>0</asrwt>
<pdfrwt beam="1">  1        2 0.98700867E-01 0.21337812E+04</pdfrwt>
<pdfrwt beam="2">  1       -1 0.27295565E+00 0.21337812E+04</pdfrwt>
<totfact> 0.23703775E+00</totfact>
</mgrwt>
</event>
<event>
12    7  0.1606355E-007  0.2632528E+04  0.7818608E-02  0.8357235E-01
         -1   -1    0    0    0  501 -0.00000000000E+00  0.00000000000E+00  0.51360622985E+03  0.51360622985E+03  0.00000000000E+00 0.  1.
          2   -1    0    0  501    0  0.00000000000E+00 -0.00000000000E+00 -0.33733052727E+04  0.33733052727E+04  0.00000000000E+00 0. -1.
         24    2    1    2    0    0  0.31460133650E+03 -0.10904957255E+04 -0.15208429172E+04  0.18994504048E+04  0.82424105341E+02 0.  0.
        254    2    1    2    0    0 -0.31460133650E+03  0.10904957255E+04 -0.13388561257E+04  0.19874610978E+04  0.93236846880E+03 0.  0.
         23    2    4    4    0    0  0.19742695372E+03  0.86090388101E+03 -0.93973428929E+03  0.12927597347E+04  0.89410864389E+02 0.  0.
         23    2    4    4    0    0 -0.51202829022E+03  0.22959184453E+03 -0.39912183642E+03  0.69470136316E+03  0.91795199283E+02 0.  0.
          4    1    3    3  502    0  0.12661297792E+03 -0.48794588194E+03 -0.61121567434E+03  0.79227938913E+03  0.00000000000E+00 0. -1.
         -3    1    3    3    0  502  0.18798835858E+03 -0.60254984360E+03 -0.90962724284E+03  0.11071710157E+04  0.00000000000E+00 0.  1.
         13    1    5    5    0    0 -0.58298149875E+01  0.64254802621E+02 -0.85940005605E+02  0.10746325403E+03  0.00000000000E+00 0.  1.
        -13    1    5    5    0    0  0.20325676871E+03  0.79664907839E+03 -0.85379428368E+03  0.11852964806E+04  0.00000000000E+00 0. -1.
          1    1    6    6  503    0 -0.51059678949E+03  0.23557926251E+03 -0.39623610181E+03  0.68790240496E+03  0.00000000000E+00 0. -1.
         -1    1    6    6    0  503 -0.14315007292E+01 -0.59874179840E+01 -0.28857346045E+01  0.67989582040E+01  0.00000000000E+00 0.  1.
<mgrwt>
<rscale>  0 0.26325278E+04</rscale>
<asrwt>0</asrwt>
<pdfrwt beam="1">  1        2 0.51897006E+00 0.26325278E+04</pdfrwt>
<pdfrwt beam="2">  1       -1 0.79016341E-01 0.26325278E+04</pdfrwt>
<totfact> 0.15974033E+00</totfact>
</mgrwt>
</event>
<event>
12    7  0.1606355E-007  0.1577795E+04  0.7818608E-02  0.8834307E-01
         -1   -1    0    0    0  501 -0.00000000000E+00  0.00000000000E+00  0.34899812019E+03  0.34899812019E+03  0.00000000000E+00 0.  1.
          2   -1    0    0  501    0  0.00000000000E+00 -0.00000000000E+00 -0.17832741157E+04  0.17832741157E+04  0.00000000000E+00 0. -1.
         24    2    1    2    0    0 -0.38622963208E+03  0.35508371802E+03 -0.51833453440E+03  0.74220929976E+03  0.83343743624E+02 0.  0.
        254    2    1    2    0    0  0.38622963208E+03 -0.35508371802E+03 -0.91594146113E+03  0.13900629362E+04  0.90447135430E+03 0.  0.
         23    2    4    4    0    0  0.55315218122E+03 -0.46064706589E+03 -0.92183727878E+03  0.11729904168E+04  0.89159937338E+02 0.  0.
         23    2    4    4    0    0 -0.16692254914E+03  0.10556334787E+03  0.58958176550E+01  0.21707251936E+03  0.89883036057E+02 0.  0.
          4    1    3    3  502    0  0.37398572419E+01 -0.87821445985E-01 -0.41989081218E+01  0.56236175378E+01  0.00000000000E+00 0. -1.
         -3    1    3    3    0  502 -0.38996948932E+03  0.35517153946E+03 -0.51413562628E+03  0.73658568222E+03  0.00000000000E+00 0.  1.
         13    1    5    5    0    0  0.91156591157E+01 -0.25071288577E+02 -0.20501190080E+02  0.33644665947E+02  0.00000000000E+00 0.  1.
        -13    1    5    5    0    0  0.54403652210E+03 -0.43557577731E+03 -0.90133608870E+03  0.11393457508E+04  0.00000000000E+00 0. -1.
          1    1    6    6  503    0 -0.15956669491E+03  0.66521513518E+02 -0.12423933449E+02  0.17332338564E+03  0.00000000000E+00 0. -1.
         -1    1    6    6    0  503 -0.73558542261E+01  0.39041834353E+02  0.18319751104E+02  0.43749133723E+02  0.00000000000E+00 0.  1.
<mgrwt>
<rscale>  0 0.15777951E+04</rscale>
<asrwt>0</asrwt>
<pdfrwt beam="1">  1        2 0.27434986E+00 0.15777951E+04</pdfrwt>
<pdfrwt beam="2">  1       -1 0.53692019E-01 0.15777951E+04</pdfrwt>
<totfact> 0.33766986E+01</totfact>
</mgrwt>
</event>
<event>
12    7  0.1606355E-007  0.1452020E+04  0.7818608E-02  0.8917001E-01
         -1   -1    0    0    0  501 -0.00000000000E+00  0.00000000000E+00  0.58516932969E+03  0.58516932969E+03  0.00000000000E+00 0.  1.
          2   -1    0    0  501    0  0.00000000000E+00 -0.00000000000E+00 -0.90074883665E+03  0.90074883665E+03  0.00000000000E+00 0. -1.
         24    2    1    2    0    0 -0.29613524398E+03  0.16559015974E+03  0.17179416899E+03  0.38551988933E+03  0.63215226341E+02 0.  0.
        254    2    1    2    0    0  0.29613524398E+03 -0.16559015974E+03 -0.48737367595E+03  0.11003982770E+04  0.92640546432E+03 0.  0.
         23    2    4    4    0    0  0.44181832133E+03  0.13515986506E+03 -0.57498657966E+03  0.74311097330E+03  0.90181670341E+02 0.  0.
         23    2    4    4    0    0 -0.14568307736E+03 -0.30075002480E+03  0.87612903712E+02  0.35728730371E+03  0.91126615517E+02 0.  0.
          2    1    3    3  502    0 -0.21197454795E+02 -0.19058937334E+01  0.21406056750E+02  0.30185820947E+02  0.00000000000E+00 0. -1.
         -1    1    3    3    0  502 -0.27493778918E+03  0.16749605347E+03  0.15038811224E+03  0.35533406838E+03  0.00000000000E+00 0.  1.
         13    1    5    5    0    0  0.30553307742E+03  0.13459234757E+03 -0.42499315958E+03  0.54044865354E+03  0.00000000000E+00 0.  1.
        -13    1    5    5    0    0  0.13628524392E+03  0.56751748893E+00 -0.14999342008E+03  0.20266231977E+03  0.00000000000E+00 0. -1.
          1    1    6    6  503    0 -0.66119221582E+02 -0.91571193528E+02 -0.94588031369E+01  0.11334241882E+03  0.00000000000E+00 0. -1.
         -1    1    6    6    0  503 -0.79563855775E+02 -0.20917883127E+03  0.97071706849E+02  0.24394488490E+03  0.00000000000E+00 0.  1.
<mgrwt>
<rscale>  0 0.14520201E+04</rscale>
<asrwt>0</asrwt>
<pdfrwt beam="1">  1        2 0.13857674E+00 0.14520201E+04</pdfrwt>
<pdfrwt beam="2">  1       -1 0.90026051E-01 0.14520201E+04</pdfrwt>
<totfact> 0.39137754E+01</totfact>
</mgrwt>
</event>
<event>
12    7  0.1606355E-007  0.1275601E+04  0.7818608E-02  0.9049141E-01
         -1   -1    0    0    0  501 -0.00000000000E+00  0.00000000000E+00  0.38853510382E+03  0.38853510382E+03  0.00000000000E+00 0.  1.
          2   -1    0    0  501    0  0.00000000000E+00 -0.00000000000E+00 -0.10469822116E+04  0.10469822116E+04  0.00000000000E+00 0. -1.
         24    2    1    2    0    0  0.10105903126E+03  0.65578746633E+02 -0.50130380077E+03  0.52177579397E+03  0.80193383131E+02 0.  0.
        254    2    1    2    0    0 -0.10105903126E+03 -0.65578746633E+02 -0.15714330704E+03  0.91374152149E+03  0.89202917516E+03 0.  0.
         23    2    4    4    0    0  0.10845540752E+03  0.15780942395E+03  0.29315408649E+03  0.36168742279E+03  0.90620547742E+02 0.  0.
         23    2    4    4    0    0 -0.20951443878E+03 -0.22338817058E+03 -0.45029739353E+03  0.55205409870E+03  0.90539551865E+02 0.  0.
          4    1    3    3  502    0  0.81300170759E+02  0.47602251970E+02 -0.47512016347E+03  0.48437058323E+03  0.00000000000E+00 0. -1.
         -3    1    3    3    0  502  0.19758860498E+02  0.17976494663E+02 -0.26183637297E+02  0.37405210742E+02  0.00000000000E+00 0.  1.
         13    1    5    5    0    0  0.24814901929E+02 -0.71042354322E+01  0.24804252869E+02  0.35798051333E+02  0.00000000000E+00 0. -1.
        -13    1    5    5    0    0  0.83640505589E+02  0.16491365938E+03  0.26834983362E+03  0.32588937146E+03  0.00000000000E+00 0.  1.
          4    1    6    6  503    0 -0.58420032158E+02 -0.14662912252E+02 -0.10733117163E+03  0.12307673036E+03  0.00000000000E+00 0. -1.
         -4    1    6    6    0  503 -0.15109440662E+03 -0.20872525833E+03 -0.34296622190E+03  0.42897736833E+03  0.00000000000E+00 0.  1.
<mgrwt>
<rscale>  0 0.12756008E+04</rscale>
<asrwt>0</asrwt>
<pdfrwt beam="1">  1        2 0.16107418E+00 0.12756008E+04</pdfrwt>
<pdfrwt beam="2">  1       -1 0.59774632E-01 0.12756008E+04</pdfrwt>
<totfact> 0.74710924E+01</totfact>
</mgrwt>
</event>
<event>
12    7  0.1606355E-007  0.1616453E+04  0.7818608E-02  0.8810504E-01
         -1   -1    0    0    0  501 -0.00000000000E+00  0.00000000000E+00  0.47242172089E+03  0.47242172089E+03  0.00000000000E+00 0.  1.
          2   -1    0    0  501    0  0.00000000000E+00 -0.00000000000E+00 -0.13827262136E+04  0.13827262136E+04  0.00000000000E+00 0. -1.
         24    2    1    2    0    0  0.23396192743E+01 -0.52336034876E+03 -0.96084091993E+02  0.53818498469E+03  0.80618834884E+02 0.  0.
        254    2    1    2    0    0 -0.23396192743E+01  0.52336034876E+03 -0.81422040070E+03  0.13169629498E+04  0.89304256435E+03 0.  0.
         23    2    4    4    0    0  0.23834117879E+03  0.66179565013E+03 -0.41434545319E+03  0.82146881479E+03  0.91372091196E+02 0.  0.
         23    2    4    4    0    0 -0.24068079807E+03 -0.13843530137E+03 -0.39987494751E+03  0.49549413500E+03  0.92319472246E+02 0.  0.
          4    1    3    3  502    0 -0.33202844255E+02 -0.18659861851E+03 -0.53156308802E+02  0.19684274552E+03  0.00000000000E+00 0. -1.
         -3    1    3    3    0  502  0.35542463529E+02 -0.33676173024E+03 -0.42927783191E+02  0.34134223917E+03  0.00000000000E+00 0.  1.
         13    1    5    5    0    0  0.17544775545E+03  0.39957834824E+03 -0.29389152680E+03  0.52613401410E+03  0.00000000000E+00 0. -1.
        -13    1    5    5    0    0  0.62893423338E+02  0.26221730189E+03 -0.12045392639E+03  0.29533480068E+03  0.00000000000E+00 0.  1.
          2    1    6    6  503    0 -0.24229010029E+03 -0.11665246186E+03 -0.35280295062E+03  0.44360141064E+03  0.00000000000E+00 0. -1.
         -2    1    6    6    0  503  0.16093022247E+01 -0.21782839512E+02 -0.47071996884E+02  0.51892724360E+02  0.00000000000E+00 0.  1.
<mgrwt>
<rscale>  0 0.16164528E+04</rscale>
<asrwt>0</asrwt>
<pdfrwt beam="1">  1        2 0.21272711E+00 0.16164528E+04</pdfrwt>
<pdfrwt beam="2">  1       -1 0.72680265E-01 0.16164528E+04</pdfrwt>
<totfact> 0.30851734E+01</totfact>
</mgrwt>
</event>
<event>
12    7  0.1606355E-007  0.1101564E+04  0.7818608E-02  0.9203668E-01
         -1   -1    0    0    0  501 -0.00000000000E+00  0.00000000000E+00  0.49059459906E+03  0.49059459906E+03  0.00000000000E+00 0.  1.
          2   -1    0    0  501    0  0.00000000000E+00 -0.00000000000E+00 -0.61835382635E+03  0.61835382635E+03  0.00000000000E+00 0. -1.
         24    2    1    2    0    0  0.16334077292E+03  0.22224016134E+02 -0.84473450340E+02  0.20132834753E+03  0.78887417977E+02 0.  0.
        254    2    1    2    0    0 -0.16334077292E+03 -0.22224016134E+02 -0.43285776954E+02  0.90762007789E+03  0.89147430266E+03 0.  0.
         23    2    4    4    0    0 -0.48545592026E+03 -0.68622349626E+02  0.14694686920E+03  0.51943851589E+03  0.88580539852E+02 0.  0.
         23    2    4    4    0    0  0.32211514734E+03  0.46398333492E+02 -0.19023264616E+03  0.38818156200E+03  0.92657929596E+02 0.  0.
          4    1    3    3  502    0  0.10061640512E+03 -0.25656885359E+02 -0.47485729666E+02  0.11417894406E+03  0.00000000000E+00 0. -1.
         -3    1    3    3    0  502  0.62724367801E+02  0.47880901493E+02 -0.36987720674E+02  0.87149403466E+02  0.00000000000E+00 0.  1.
         13    1    5    5    0    0 -0.11237487003E+03 -0.48721813167E+02  0.15896542219E+02  0.12350962128E+03  0.00000000000E+00 0. -1.
        -13    1    5    5    0    0 -0.37308105022E+03 -0.19900536459E+02  0.13105032698E+03  0.39592889461E+03  0.00000000000E+00 0.  1.
          3    1    6    6  503    0  0.82515774840E+02 -0.14033854936E+02 -0.14463257811E+02  0.84941085514E+02  0.00000000000E+00 0. -1.
         -3    1    6    6    0  503  0.23959937250E+03  0.60432188427E+02 -0.17576938835E+03  0.30324047649E+03  0.00000000000E+00 0.  1.
<mgrwt>
<rscale>  0 0.11015644E+04</rscale>
<asrwt>0</asrwt>
<pdfrwt beam="1">  1        2 0.95131358E-01 0.11015644E+04</pdfrwt>
<pdfrwt beam="2">  1       -1 0.75476092E-01 0.11015644E+04</pdfrwt>
<totfact> 0.95738580E+01</totfact>
</mgrwt>
</event>
<event>
12    7  0.1606355E-007  0.1344392E+04  0.7818608E-02  0.8995084E-01
         -1   -1    0    0    0  501 -0.00000000000E+00  0.00000000000E+00  0.29805003086E+03  0.29805003086E+03  0.00000000000E+00 0.  1.
          2   -1    0    0  501    0  0.00000000000E+00 -0.00000000000E+00 -0.15160125669E+04  0.15160125669E+04  0.00000000000E+00 0. -1.
         24    2    1    2    0    0 -0.18544291699E+03 -0.30208847838E+03 -0.21689558762E+03  0.42346818924E+03  0.81456044230E+02 0.  0.
        254    2    1    2    0    0  0.18544291699E+03  0.30208847838E+03 -0.10010669484E+04  0.13905944085E+04  0.89775901530E+03 0.  0.
         23    2    4    4    0    0 -0.15739834121E+03 -0.16567400671E+03 -0.20903591326E+02  0.24805715505E+03  0.94198077073E+02 0.  0.
         23    2    4    4    0    0  0.34284125820E+03  0.46776248509E+03 -0.98016335710E+03  0.11425372535E+04  0.91264988874E+02 0.  0.
          4    1    3    3  502    0 -0.95260825488E+02 -0.13954974027E+03 -0.14992856794E+03  0.22589229816E+03  0.00000000000E+00 0. -1.
         -3    1    3    3    0  502 -0.90182091500E+02 -0.16253873811E+03 -0.66967019679E+02  0.19757589109E+03  0.00000000000E+00 0.  1.
         13    1    5    5    0    0 -0.28320993270E+02 -0.47241465996E+02 -0.45135666426E+02  0.71211397634E+02  0.00000000000E+00 0. -1.
        -13    1    5    5    0    0 -0.12907734794E+03 -0.11843254071E+03  0.24232075100E+02  0.17684575741E+03  0.00000000000E+00 0.  1.
          4    1    6    6  503    0  0.11419366510E+03  0.12538387474E+03 -0.21706472002E+03  0.27546034537E+03  0.00000000000E+00 0. -1.
         -4    1    6    6    0  503  0.22864759310E+03  0.34237861035E+03 -0.76309863707E+03  0.86707690810E+03  0.00000000000E+00 0.  1.
<mgrwt>
<rscale>  0 0.13443922E+04</rscale>
<asrwt>0</asrwt>
<pdfrwt beam="1">  1        2 0.23323270E+00 0.13443922E+04</pdfrwt>
<pdfrwt beam="2">  1       -1 0.45853851E-01 0.13443922E+04</pdfrwt>
<totfact> 0.65433150E+01</totfact>
</mgrwt>
</event>
<event>
12    7  0.1606355E-007  0.1697873E+04  0.7818608E-02  0.8762578E-01
         -1   -1    0    0    0  501 -0.00000000000E+00  0.00000000000E+00  0.10253010852E+04  0.10253010852E+04  0.00000000000E+00 0.  1.
          2   -1    0    0  501    0  0.00000000000E+00 -0.00000000000E+00 -0.70290917009E+03  0.70290917009E+03  0.00000000000E+00 0. -1.
         24    2    1    2    0    0 -0.19498558842E+03  0.36519954774E+03  0.57327652755E+03  0.71182740528E+03  0.81622230466E+02 0.  0.
        254    2    1    2    0    0  0.19498558842E+03 -0.36519954774E+03 -0.25088461243E+03  0.10163828500E+04  0.89370068798E+03 0.  0.
         23    2    4    4    0    0 -0.34014148086E+02 -0.61158458227E+03 -0.68876421636E+02  0.62301495747E+03  0.90614635849E+02 0.  0.
         23    2    4    4    0    0  0.22899973650E+03  0.24638503453E+03 -0.18200819079E+03  0.39336789255E+03  0.92004634722E+02 0.  0.
          2    1    3    3  502    0 -0.26658354284E+02  0.54840368991E+02  0.42418362362E+02  0.74279548933E+02  0.00000000000E+00 0. -1.
         -1    1    3    3    0  502 -0.16832723413E+03  0.31035917875E+03  0.53085816519E+03  0.63754785635E+03  0.00000000000E+00 0.  1.
         13    1    5    5    0    0  0.12160188051E+01 -0.15401259986E+03 -0.56082716145E+02  0.16391043490E+03  0.00000000000E+00 0. -1.
        -13    1    5    5    0    0 -0.35230166891E+02 -0.45757198241E+03 -0.12793705491E+02  0.45910452257E+03  0.00000000000E+00 0.  1.
          1    1    6    6  503    0  0.10785958552E+02  0.24300255719E+02  0.90334573192E+01  0.28079221517E+02  0.00000000000E+00 0. -1.
         -1    1    6    6    0  503  0.21821377795E+03  0.22208477881E+03 -0.19104164811E+03  0.36528867103E+03  0.00000000000E+00 0.  1.
<mgrwt>
<rscale>  0 0.16978734E+04</rscale>
<asrwt>0</asrwt>
<pdfrwt beam="1">  1        2 0.10813987E+00 0.16978734E+04</pdfrwt>
<pdfrwt beam="2">  1       -1 0.15773863E+00 0.16978734E+04</pdfrwt>
<totfact> 0.13468784E+01</totfact>
</mgrwt>
</event>
<event>
12    7  0.1606355E-007  0.1773925E+04  0.7818608E-02  0.8720290E-01
          2   -1    0    0  501    0  0.00000000000E+00  0.00000000000E+00  0.72253924551E+03  0.72253924551E+03  0.00000000000E+00 0. -1.
         -1   -1    0    0    0  501 -0.00000000000E+00 -0.00000000000E+00 -0.10888021930E+04  0.10888021930E+04  0.00000000000E+00 0.  1.
         24    2    1    2    0    0 -0.19563181689E+03 -0.18399359098E+03 -0.74414843820E+03  0.79505085651E+03  0.78889270885E+02 0.  0.
        254    2    1    2    0    0  0.19563181689E+03  0.18399359098E+03  0.37788549070E+03  0.10162905820E+04  0.90439131669E+03 0.  0.
         23    2    4    4    0    0 -0.35009621264E+03  0.13766617767E+03  0.12812034715E+03  0.40783400731E+03  0.91621065175E+02 0.  0.
         23    2    4    4    0    0  0.54572802954E+03  0.46327413305E+02  0.24976514355E+03  0.60845657470E+03  0.88721276604E+02 0.  0.
          2    1    3    3  502    0 -0.62171638948E+02 -0.31543861813E+02 -0.11933931274E+03  0.13821070679E+03  0.00000000000E+00 0. -1.
         -1    1    3    3    0  502 -0.13346017795E+03 -0.15244972916E+03 -0.62480912547E+03  0.65684014972E+03  0.00000000000E+00 0.  1.
         13    1    5    5    0    0 -0.78903637408E+02  0.16683009500E+02  0.66554755777E+02  0.10456405845E+03  0.00000000000E+00 0. -1.
        -13    1    5    5    0    0 -0.27119257523E+03  0.12098316817E+03  0.61565591374E+02  0.30326994886E+03  0.00000000000E+00 0.  1.
          3    1    6    6  503    0  0.25044823580E+03  0.38846056525E+02  0.71006575209E+02  0.26320195411E+03  0.00000000000E+00 0. -1.
         -3    1    6    6    0  503  0.29527979374E+03  0.74813567798E+01  0.17875856834E+03  0.34525462059E+03  0.00000000000E+00 0.  1.
<mgrwt>
<rscale>  0 0.17739248E+04</rscale>
<asrwt>0</asrwt>
<pdfrwt beam="1">  1        2 0.11115988E+00 0.17739248E+04</pdfrwt>
<pdfrwt beam="2">  1       -1 0.16750803E+00 0.17739248E+04</pdfrwt>
<totfact> 0.10911253E+01</totfact>
</mgrwt>
</event>
<event>
12    7  0.1606355E-007  0.1182116E+04  0.7818608E-02  0.9128656E-01
          2   -1    0    0  501    0  0.00000000000E+00  0.00000000000E+00  0.58915694941E+03  0.58915694941E+03  0.00000000000E+00 0. -1.
         -1   -1    0    0    0  501 -0.00000000000E+00 -0.00000000000E+00 -0.59296481389E+03  0.59296481389E+03  0.00000000000E+00 0.  1.
         24    2    1    2    0    0  0.13139369885E+03  0.38939829210E+01 -0.17998235939E+03  0.23688229187E+03  0.80250254289E+02 0.  0.
        254    2    1    2    0    0 -0.13139369885E+03 -0.38939829210E+01  0.17617449490E+03  0.94523947142E+03  0.91932624160E+03 0.  0.
         23    2    4    4    0    0  0.26213214344E+03  0.13204033537E+03 -0.20704915986E+03  0.37115980726E+03  0.93500465941E+02 0.  0.
         23    2    4    4    0    0 -0.39352584229E+03 -0.13593431829E+03  0.38322365476E+03  0.57407966417E+03  0.96779976261E+02 0.  0.
          2    1    3    3  502    0  0.36033645390E+02 -0.19513657549E+02 -0.12682286326E+02  0.42895766894E+02  0.00000000000E+00 0. -1.
         -1    1    3    3    0  502  0.95360053459E+02  0.23407640470E+02 -0.16730007306E+03  0.19398652498E+03  0.00000000000E+00 0.  1.
         13    1    5    5    0    0  0.61509348103E+02  0.23435358210E+02 -0.43181199275E+01  0.65964096888E+02  0.00000000000E+00 0. -1.
        -13    1    5    5    0    0  0.20062279534E+03  0.10860497716E+03 -0.20273103993E+03  0.30519571037E+03  0.00000000000E+00 0.  1.
          1    1    6    6  503    0 -0.14112204584E+02 -0.89976774119E+01 -0.40929885568E+01  0.17229772847E+02  0.00000000000E+00 0. -1.
         -1    1    6    6    0  503 -0.37941363771E+03 -0.12693664088E+03  0.38731664331E+03  0.55684989132E+03  0.00000000000E+00 0.  1.
<mgrwt>
<rscale>  0 0.11821156E+04</rscale>
<asrwt>0</asrwt>
<pdfrwt beam="1">  1        2 0.90639531E-01 0.11821156E+04</pdfrwt>
<pdfrwt beam="2">  1       -1 0.91225356E-01 0.11821156E+04</pdfrwt>
<totfact> 0.67147292E+01</totfact>
</mgrwt>
</event>
<event>
12    7  0.1606355E-007  0.1435389E+04  0.7818608E-02  0.8928593E-01
          2   -1    0    0  501    0  0.00000000000E+00  0.00000000000E+00  0.26473119690E+04  0.26473119690E+04  0.00000000000E+00 0. -1.
         -1   -1    0    0    0  501 -0.00000000000E+00 -0.00000000000E+00 -0.19456918692E+03  0.19456918692E+03  0.00000000000E+00 0.  1.
         24    2    1    2    0    0  0.11591560936E+03  0.28341051829E+03  0.14465429248E+03  0.34797254880E+03  0.80012999008E+02 0.  0.
        254    2    1    2    0    0 -0.11591560936E+03 -0.28341051829E+03  0.23080884896E+04  0.24939086071E+04  0.89361608900E+03 0.  0.
         23    2    4    4    0    0 -0.48547635921E+02 -0.59570082839E+03  0.13313558161E+04  0.14624188124E+04  0.94573378545E+02 0.  0.
         23    2    4    4    0    0 -0.67367973442E+02  0.31229031010E+03  0.97673267353E+03  0.10314897947E+04  0.88886441583E+02 0.  0.
          4    1    3    3  502    0  0.58120129637E+02  0.53685491570E+02  0.28055292173E+02  0.83947488902E+02  0.00000000000E+00 0. -1.
         -3    1    3    3    0  502  0.57795479726E+02  0.22972502672E+03  0.11659900031E+03  0.26402505989E+03  0.00000000000E+00 0.  1.
         13    1    5    5    0    0  0.16967036807E+02 -0.20786545173E+03  0.53528768052E+03  0.57448135503E+03  0.00000000000E+00 0. -1.
        -13    1    5    5    0    0 -0.65514672728E+02 -0.38783537666E+03  0.79606813556E+03  0.88793745736E+03  0.00000000000E+00 0.  1.
          3    1    6    6  503    0 -0.47102450468E+02  0.11594719104E+03  0.26795092266E+03  0.29573651940E+03  0.00000000000E+00 0. -1.
         -3    1    6    6    0  503 -0.20265522975E+02  0.19634311907E+03  0.70878175087E+03  0.73575327535E+03  0.00000000000E+00 0.  1.
<mgrwt>
<rscale>  0 0.14353889E+04</rscale>
<asrwt>0</asrwt>
<pdfrwt beam="1">  1        2 0.40727874E+00 0.14353889E+04</pdfrwt>
<pdfrwt beam="2">  1       -1 0.29933723E-01 0.14353889E+04</pdfrwt>
<totfact> 0.32471351E+01</totfact>
</mgrwt>
</event>
<event>
12    7  0.1606355E-007  0.2197210E+04  0.7818608E-02  0.8519590E-01
         -1   -1    0    0    0  501 -0.00000000000E+00  0.00000000000E+00  0.14271811473E+04  0.14271811473E+04  0.00000000000E+00 0.  1.
          2   -1    0    0  501    0  0.00000000000E+00 -0.00000000000E+00 -0.84567601215E+03  0.84567601215E+03  0.00000000000E+00 0. -1.
         24    2    1    2    0    0  0.24323713977E+03 -0.85909660549E+03  0.35587952402E+03  0.96457346577E+03  0.80873058020E+02 0.  0.
        254    2    1    2    0    0 -0.24323713977E+03  0.85909660549E+03  0.22562561110E+03  0.13082836937E+04  0.92924056249E+03 0.  0.
         23    2    4    4    0    0  0.21751066611E+03  0.13161012596E+03 -0.20605233158E+03  0.34045342054E+03  0.93908748666E+02 0.  0.
         23    2    4    4    0    0 -0.46074780589E+03  0.72748647953E+03  0.43167794268E+03  0.96783027312E+03  0.93938665328E+02 0.  0.
          2    1    3    3  502    0  0.10946210021E+03 -0.48271289714E+03  0.22968363257E+03  0.54566314107E+03  0.00000000000E+00 0. -1.
         -1    1    3    3    0  502  0.13377503956E+03 -0.37638370835E+03  0.12619589145E+03  0.41891032470E+03  0.00000000000E+00 0.  1.
         13    1    5    5    0    0  0.19030708181E+03  0.82824092424E+02 -0.19226800831E+03  0.28291978137E+03  0.00000000000E+00 0.  1.
        -13    1    5    5    0    0  0.27203584302E+02  0.48786033537E+02 -0.13784323272E+02  0.57533639162E+02  0.00000000000E+00 0. -1.
          2    1    6    6  503    0 -0.10956189135E+03  0.21151804108E+03  0.16103528387E+03  0.28753443688E+03  0.00000000000E+00 0. -1.
         -2    1    6    6    0  503 -0.35118591453E+03  0.51596843845E+03  0.27064265881E+03  0.68029583624E+03  0.00000000000E+00 0.  1.
<mgrwt>
<rscale>  0 0.21972099E+04</rscale>
<asrwt>0</asrwt>
<pdfrwt beam="1">  1        2 0.13010400E+00 0.21972099E+04</pdfrwt>
<pdfrwt beam="2">  1       -1 0.21956633E+00 0.21972099E+04</pdfrwt>
<totfact> 0.36929378E+00</totfact>
</mgrwt>
</event>
<event>
12    7  0.1606355E-007  0.1738260E+04  0.7818608E-02  0.8739839E-01
         -1   -1    0    0    0  501 -0.00000000000E+00  0.00000000000E+00  0.51840915573E+03  0.51840915573E+03  0.00000000000E+00 0.  1.
          2   -1    0    0  501    0  0.00000000000E+00 -0.00000000000E+00 -0.14571244924E+04  0.14571244924E+04  0.00000000000E+00 0. -1.
         24    2    1    2    0    0  0.47995689169E+03  0.39002995313E+03 -0.18845190718E+03  0.65164340669E+03  0.81504760259E+02 0.  0.
        254    2    1    2    0    0 -0.47995689169E+03 -0.39002995313E+03 -0.75026342951E+03  0.13238902415E+04  0.89850329746E+03 0.  0.
         23    2    4    4    0    0 -0.25758836208E+03  0.18899168778E+03  0.18611084686E+02  0.33185115124E+03  0.87802003264E+02 0.  0.
         23    2    4    4    0    0 -0.22236852961E+03 -0.57902164091E+03 -0.76887451420E+03  0.99203909022E+03  0.90882970562E+02 0.  0.
          2    1    3    3  502    0  0.34704453056E+03  0.32646353092E+03 -0.14300669591E+03  0.49746282101E+03  0.00000000000E+00 0. -1.
         -1    1    3    3    0  502  0.13291236113E+03  0.63566422215E+02 -0.45445211267E+02  0.15418058568E+03  0.00000000000E+00 0.  1.
         13    1    5    5    0    0 -0.84003383075E+02  0.34290901211E+02  0.38336020039E+02  0.98499160943E+02  0.00000000000E+00 0.  1.
        -13    1    5    5    0    0 -0.17358497901E+03  0.15470078657E+03 -0.19724935353E+02  0.23335199030E+03  0.00000000000E+00 0. -1.
          3    1    6    6  503    0 -0.78466049198E+02 -0.19029585852E+03 -0.19046154519E+03  0.28043722086E+03  0.00000000000E+00 0. -1.
         -3    1    6    6    0  503 -0.14390248041E+03 -0.38872578239E+03 -0.57841296901E+03  0.71160186936E+03  0.00000000000E+00 0.  1.
<mgrwt>
<rscale>  0 0.17382597E+04</rscale>
<asrwt>0</asrwt>
<pdfrwt beam="1">  1        2 0.22417300E+00 0.17382597E+04</pdfrwt>
<pdfrwt beam="2">  1       -1 0.79755255E-01 0.17382597E+04</pdfrwt>
<totfact> 0.22787891E+01</totfact>
</mgrwt>
</event>
<event>
12    7  0.1606355E-007  0.2986102E+04  0.7818608E-02  0.8247711E-01
         -1   -1    0    0    0  501 -0.00000000000E+00  0.00000000000E+00  0.77968796213E+03  0.77968796213E+03  0.00000000000E+00 0.  1.
          2   -1    0    0  501    0  0.00000000000E+00 -0.00000000000E+00 -0.28590939085E+04  0.28590939085E+04  0.00000000000E+00 0. -1.
         24    2    1    2    0    0  0.12518441132E+04 -0.25951052521E+03 -0.39302163621E+03  0.13399104341E+04  0.80215761282E+02 0.  0.
        254    2    1    2    0    0 -0.12518441132E+04  0.25951052521E+03 -0.16863843101E+04  0.22988714365E+04  0.89803031340E+03 0.  0.
         23    2    4    4    0    0 -0.66596550612E+03 -0.30209857358E+03 -0.67219578123E+03  0.99716538326E+03  0.87852317934E+02 0.  0.
         23    2    4    4    0    0 -0.58587860709E+03  0.56160909879E+03 -0.10141885289E+04  0.13017060533E+04  0.84863153891E+02 0.  0.
          4    1    3    3  502    0  0.11408461971E+04 -0.23439777079E+03 -0.33351621716E+03  0.12114889300E+04  0.00000000000E+00 0. -1.
         -3    1    3    3    0  502  0.11099791609E+03 -0.25112754416E+02 -0.59505419054E+02  0.12842150407E+03  0.00000000000E+00 0.  1.
         13    1    5    5    0    0 -0.80367052345E+02 -0.75518087589E+01 -0.64782582225E+02  0.10350205736E+03  0.00000000000E+00 0. -1.
        -13    1    5    5    0    0 -0.58559845377E+03 -0.29454676483E+03 -0.60741319901E+03  0.89366332590E+03  0.00000000000E+00 0.  1.
          2    1    6    6  503    0 -0.55055663831E+03  0.49763333324E+03 -0.93892592538E+03  0.11968013368E+04  0.00000000000E+00 0.  1.
         -2    1    6    6    0  503 -0.35321968772E+02  0.63975765549E+02 -0.75262603501E+02  0.10490471649E+03  0.00000000000E+00 0. -1.
<mgrwt>
<rscale>  0 0.29861019E+04</rscale>
<asrwt>0</asrwt>
<pdfrwt beam="1">  1        2 0.43986060E+00 0.29861019E+04</pdfrwt>
<pdfrwt beam="2">  1       -1 0.11995200E+00 0.29861019E+04</pdfrwt>
<totfact> 0.12838981E+00</totfact>
</mgrwt>
</event>
<event>
12    7  0.1606355E-007  0.1215108E+04  0.7818608E-02  0.9099735E-01
         -1   -1    0    0    0  501 -0.00000000000E+00  0.00000000000E+00  0.34378118857E+03  0.34378118857E+03  0.00000000000E+00 0.  1.
          2   -1    0    0  501    0  0.00000000000E+00 -0.00000000000E+00 -0.10737108324E+04  0.10737108324E+04  0.00000000000E+00 0. -1.
         24    2    1    2    0    0 -0.37074119115E+02 -0.26889040241E+03 -0.64024223530E+02  0.28983893528E+03  0.78936483250E+02 0.  0.
        254    2    1    2    0    0  0.37074119115E+02  0.26889040241E+03 -0.66590542035E+03  0.11276530857E+04  0.86861666695E+03 0.  0.
         23    2    4    4    0    0  0.40014856441E+03  0.16532509739E+02 -0.49794835438E+03  0.64549966321E+03  0.91241734416E+02 0.  0.
         23    2    4    4    0    0 -0.36307444529E+03  0.25235789267E+03 -0.16795706597E+03  0.48215342253E+03  0.93567024233E+02 0.  0.
          4    1    3    3  502    0  0.21851295396E+01 -0.28808501187E+00 -0.13552390305E+02  0.13730443076E+02  0.00000000000E+00 0. -1.
         -3    1    3    3    0  502 -0.39259248655E+02 -0.26860231740E+03 -0.50471833225E+02  0.27610849221E+03  0.00000000000E+00 0.  1.
         13    1    5    5    0    0  0.21862657089E+02 -0.18330347516E+02 -0.55001678224E+02  0.61960971769E+02  0.00000000000E+00 0. -1.
        -13    1    5    5    0    0  0.37828590732E+03  0.34862857255E+02 -0.44294667616E+03  0.58353869144E+03  0.00000000000E+00 0.  1.
          3    1    6    6  503    0 -0.31350256642E+02  0.62693258919E+01  0.83760728398E+01  0.33049986912E+02  0.00000000000E+00 0. -1.
         -3    1    6    6    0  503 -0.33172418865E+03  0.24608856678E+03 -0.17633313881E+03  0.44910343561E+03  0.00000000000E+00 0.  1.
<mgrwt>
<rscale>  0 0.12151075E+04</rscale>
<asrwt>0</asrwt>
<pdfrwt beam="1">  1        2 0.16518628E+00 0.12151075E+04</pdfrwt>
<pdfrwt beam="2">  1       -1 0.52889414E-01 0.12151075E+04</pdfrwt>
<totfact> 0.91631942E+01</totfact>
</mgrwt>
</event>
<event>
12    7  0.1606355E-007  0.1247417E+04  0.7818608E-02  0.9072336E-01
         -1   -1    0    0    0  501 -0.00000000000E+00  0.00000000000E+00  0.20761000924E+03  0.20761000924E+03  0.00000000000E+00 0.  1.
          2   -1    0    0  501    0  0.00000000000E+00 -0.00000000000E+00 -0.18737657552E+04  0.18737657552E+04  0.00000000000E+00 0. -1.
         24    2    1    2    0    0  0.20078391383E+03 -0.96140120067E+02 -0.91398367109E+02  0.25437306837E+03  0.82431144988E+02 0.  0.
        254    2    1    2    0    0 -0.20078391383E+03  0.96140120067E+02 -0.15747573789E+04  0.18270026961E+04  0.89917792813E+03 0.  0.
         23    2    4    4    0    0 -0.44152323986E+03  0.19650365603E+03 -0.44145035879E+03  0.66061684817E+03  0.89329405244E+02 0.  0.
         23    2    4    4    0    0  0.24073932603E+03 -0.10036353596E+03 -0.11333070201E+04  0.11663858479E+04  0.89682116406E+02 0.  0.
          4    1    3    3  502    0 -0.49910682369E+01  0.47882629436E+01 -0.77602252203E+01  0.10395158471E+02  0.00000000000E+00 0. -1.
         -3    1    3    3    0  502  0.20577498207E+03 -0.10092838301E+03 -0.83638141889E+02  0.24397790990E+03  0.00000000000E+00 0.  1.
         13    1    5    5    0    0 -0.10153700750E+02  0.22832134405E+02 -0.35007263973E+02  0.43010609520E+02  0.00000000000E+00 0.  1.
        -13    1    5    5    0    0 -0.43136953911E+03  0.17367152162E+03 -0.40644309482E+03  0.61760623865E+03  0.00000000000E+00 0. -1.
          4    1    6    6  503    0  0.17131383857E+03 -0.72789675963E+02 -0.60979077011E+03  0.63756689965E+03  0.00000000000E+00 0. -1.
         -4    1    6    6    0  503  0.69425487454E+02 -0.27573859997E+02 -0.52351624996E+03  0.52881894826E+03  0.00000000000E+00 0.  1.
<mgrwt>
<rscale>  0 0.12474174E+04</rscale>
<asrwt>0</asrwt>
<pdfrwt beam="1">  1        2 0.28827167E+00 0.12474174E+04</pdfrwt>
<pdfrwt beam="2">  1       -1 0.31940000E-01 0.12474174E+04</pdfrwt>
<totfact> 0.80421839E+01</totfact>
</mgrwt>
</event>
<event>
12    7  0.1606355E-007  0.1671837E+04  0.7818608E-02  0.8777592E-01
         -1   -1    0    0    0  501 -0.00000000000E+00  0.00000000000E+00  0.10752871704E+04  0.10752871704E+04  0.00000000000E+00 0.  1.
          2   -1    0    0  501    0  0.00000000000E+00 -0.00000000000E+00 -0.64983555777E+03  0.64983555777E+03  0.00000000000E+00 0. -1.
         24    2    1    2    0    0  0.20968510182E+03  0.32893462930E+03  0.49192792333E+03  0.63299236688E+03  0.80749133153E+02 0.  0.
        254    2    1    2    0    0 -0.20968510182E+03 -0.32893462930E+03 -0.66476310651E+02  0.10921303613E+04  0.10179213103E+04 0.  0.
         23    2    4    4    0    0  0.18179138076E+03 -0.58153585045E+03 -0.29001493442E+02  0.61689255048E+03  0.92104726986E+02 0.  0.
         23    2    4    4    0    0 -0.39147648258E+03  0.25260122116E+03 -0.37474817209E+02  0.47523781085E+03  0.85938359296E+02 0.  0.
          4    1    3    3  502    0  0.33752386478E+02  0.22569727701E+02  0.25786199605E+02  0.48099316955E+02  0.00000000000E+00 0. -1.
         -3    1    3    3    0  502  0.17593271534E+03  0.30636490159E+03  0.46614172372E+03  0.58489304993E+03  0.00000000000E+00 0.  1.
         13    1    5    5    0    0  0.13657521595E+03 -0.30929993678E+03  0.95577213989E+01  0.33824634594E+03  0.00000000000E+00 0. -1.
        -13    1    5    5    0    0  0.45216164806E+02 -0.27223591368E+03 -0.38559214841E+02  0.27864620454E+03  0.00000000000E+00 0.  1.
          1    1    6    6  503    0 -0.86603492552E+01  0.57468120881E+00 -0.13793890271E+02  0.16297340780E+02  0.00000000000E+00 0. -1.
         -1    1    6    6    0  503 -0.38281613332E+03  0.25202653995E+03 -0.23680926939E+02  0.45894047007E+03  0.00000000000E+00 0.  1.
<mgrwt>
<rscale>  0 0.16718371E+04</rscale>
<asrwt>0</asrwt>
<pdfrwt beam="1">  1        2 0.99974701E-01 0.16718371E+04</pdfrwt>
<pdfrwt beam="2">  1       -1 0.16542880E+00 0.16718371E+04</pdfrwt>
<totfact> 0.13032247E+01</totfact>
</mgrwt>
</event>
<event>
12    7  0.1606355E-007  0.2648158E+04  0.7818608E-02  0.8352025E-01
          2   -1    0    0  501    0  0.00000000000E+00  0.00000000000E+00  0.11945866248E+04  0.11945866248E+04  0.00000000000E+00 0. -1.
         -1   -1    0    0    0  501 -0.00000000000E+00 -0.00000000000E+00 -0.14676082274E+04  0.14676082274E+04  0.00000000000E+00 0.  1.
         24    2    1    2    0    0  0.48480124710E+03  0.77844915943E+03 -0.84325021088E+03  0.12484552683E+04  0.80958606066E+02 0.  0.
        254    2    1    2    0    0 -0.48480124710E+03 -0.77844915943E+03  0.57022860828E+03  0.14137395839E+04  0.91240539368E+03 0.  0.
         23    2    4    4    0    0 -0.27784763505E+03 -0.92948834044E+03  0.27533114284E+03  0.10126343206E+04  0.92049691310E+02 0.  0.
         23    2    4    4    0    0 -0.20695361206E+03  0.15103918100E+03  0.29489746543E+03  0.40110526335E+03  0.90985083529E+02 0.  0.
          2    1    3    3  502    0  0.56323151487E+02  0.13887996218E+03 -0.11717812606E+03  0.19023841493E+03  0.00000000000E+00 0. -1.
         -1    1    3    3    0  502  0.42847809561E+03  0.63956919726E+03 -0.72607208481E+03  0.10582168534E+04  0.00000000000E+00 0.  1.
         13    1    5    5    0    0 -0.19493958339E+03 -0.58778326651E+03  0.13353006489E+03  0.63349892485E+03  0.00000000000E+00 0. -1.
        -13    1    5    5    0    0 -0.82908051658E+02 -0.34170507393E+03  0.14180107796E+03  0.37913539572E+03  0.00000000000E+00 0.  1.
          3    1    6    6  503    0 -0.91673986980E+02  0.62052138662E+02  0.19589514642E+03  0.22500999131E+03  0.00000000000E+00 0. -1.
         -3    1    6    6    0  503 -0.11527962507E+03  0.88987042339E+02  0.99002319018E+02  0.17609527203E+03  0.00000000000E+00 0.  1.
<mgrwt>
<rscale>  0 0.26481580E+04</rscale>
<asrwt>0</asrwt>
<pdfrwt beam="1">  1        2 0.18378256E+00 0.26481580E+04</pdfrwt>
<pdfrwt beam="2">  1       -1 0.22578588E+00 0.26481580E+04</pdfrwt>
<totfact> 0.19289007E+00</totfact>
</mgrwt>
</event>
<event>
12    7  0.1606355E-007  0.1877178E+04  0.7818608E-02  0.8666300E-01
         -1   -1    0    0    0  501 -0.00000000000E+00  0.00000000000E+00  0.76541411547E+03  0.76541411547E+03  0.00000000000E+00 0.  1.
          2   -1    0    0  501    0  0.00000000000E+00 -0.00000000000E+00 -0.11509449482E+04  0.11509449482E+04  0.00000000000E+00 0. -1.
         24    2    1    2    0    0 -0.68109267365E+03 -0.30932709179E+02 -0.33730293437E+03  0.76498278988E+03  0.81125437921E+02 0.  0.
        254    2    1    2    0    0  0.68109267365E+03  0.30932709179E+02 -0.48227898413E+02  0.11513762738E+04  0.92655131059E+03 0.  0.
         23    2    4    4    0    0 -0.21764088956E+03  0.27264212074E+02 -0.69344014968E+02  0.24743966747E+03  0.91142210624E+02 0.  0.
         23    2    4    4    0    0  0.89873356322E+03  0.36684971043E+01  0.21116116555E+02  0.90393660636E+03  0.94445870284E+02 0.  0.
          2    1    3    3  502    0 -0.56363731078E+03 -0.15048701096E+02 -0.30966931842E+03  0.64327954132E+03  0.00000000000E+00 0. -1.
         -1    1    3    3    0  502 -0.11745536287E+03 -0.15884008082E+02 -0.27633615953E+02  0.12170324856E+03  0.00000000000E+00 0.  1.
         13    1    5    5    0    0 -0.22005403115E+03  0.31240480692E+02 -0.50360365043E+02  0.22789451644E+03  0.00000000000E+00 0.  1.
        -13    1    5    5    0    0  0.24131415802E+01 -0.39762686178E+01 -0.18983649925E+02  0.19545151033E+02  0.00000000000E+00 0. -1.
          1    1    6    6  503    0  0.33955260496E+03 -0.40195624229E+02  0.27213537035E+02  0.34300471766E+03  0.00000000000E+00 0. -1.
         -1    1    6    6    0  503  0.55918095826E+03  0.43864121334E+02 -0.60974204795E+01  0.56093188870E+03  0.00000000000E+00 0.  1.
<mgrwt>
<rscale>  0 0.18771782E+04</rscale>
<asrwt>0</asrwt>
<pdfrwt beam="1">  1        2 0.17706845E+00 0.18771782E+04</pdfrwt>
<pdfrwt beam="2">  1       -1 0.11775602E+00 0.18771782E+04</pdfrwt>
<totfact> 0.14065614E+01</totfact>
</mgrwt>
</event>
<event>
12    7  0.1606355E-007  0.1404093E+04  0.7818608E-02  0.8950861E-01
         -3   -1    0    0    0  501 -0.00000000000E+00  0.00000000000E+00  0.50038239219E+03  0.50038239219E+03  0.00000000000E+00 0.  1.
          2   -1    0    0  501    0  0.00000000000E+00 -0.00000000000E+00 -0.98498558314E+03  0.98498558314E+03  0.00000000000E+00 0. -1.
         24    2    1    2    0    0 -0.23031761578E+03 -0.10655760741E+03 -0.47763575014E+03  0.54813219108E+03  0.88950892381E+02 0.  0.
        254    2    1    2    0    0  0.23031761578E+03  0.10655760741E+03 -0.69674408110E+01  0.93723578424E+03  0.90219822777E+03 0.  0.
         23    2    4    4    0    0 -0.22338067402E+03  0.33994488962E+03  0.27606376798E+02  0.41767039033E+03  0.90691727357E+02 0.  0.
         23    2    4    4    0    0  0.45369828979E+03 -0.23338728222E+03 -0.34573817609E+02  0.51956539391E+03  0.91875394014E+02 0.  0.
          4    1    3    3  502    0 -0.21070865160E+03 -0.87496828632E+02 -0.46510685561E+03  0.51805233135E+03  0.00000000000E+00 0. -1.
         -3    1    3    3    0  502 -0.19608964174E+02 -0.19060778773E+02 -0.12528894531E+02  0.30079859733E+02  0.00000000000E+00 0.  1.
         13    1    5    5    0    0 -0.12936933856E+03  0.24901559811E+03 -0.12424029928E+02  0.28089063776E+03  0.00000000000E+00 0. -1.
        -13    1    5    5    0    0 -0.94011335457E+02  0.90929291509E+02  0.40030406726E+02  0.13677975256E+03  0.00000000000E+00 0.  1.
          1    1    6    6  503    0  0.10875100345E+03 -0.10084131320E+03  0.10754548979E+01  0.14831354558E+03  0.00000000000E+00 0. -1.
         -1    1    6    6    0  503  0.34494728635E+03 -0.13254596901E+03 -0.35649272507E+02  0.37125184833E+03  0.00000000000E+00 0.  1.
<mgrwt>
<rscale>  0 0.14040932E+04</rscale>
<asrwt>0</asrwt>
<pdfrwt beam="1">  1        2 0.15153624E+00 0.14040932E+04</pdfrwt>
<pdfrwt beam="2">  1       -3 0.76981908E-01 0.14040932E+04</pdfrwt>
<totfact> 0.25216168E+01</totfact>
</mgrwt>
</event>
<event>
12    7  0.1606355E-007  0.2554154E+04  0.7818608E-02  0.8383943E-01
         -1   -1    0    0    0  501 -0.00000000000E+00  0.00000000000E+00  0.68542112221E+03  0.68542112221E+03  0.00000000000E+00 0.  1.
          2   -1    0    0  501    0  0.00000000000E+00 -0.00000000000E+00 -0.23794513990E+04  0.23794513990E+04  0.00000000000E+00 0. -1.
         24    2    1    2    0    0  0.15663628801E+03  0.16297550660E+03  0.57082492771E+03  0.61917754691E+03  0.80273246031E+02 0.  0.
        254    2    1    2    0    0 -0.15663628801E+03 -0.16297550660E+03 -0.22648552045E+04  0.24456949743E+04  0.89485131028E+03 0.  0.
         23    2    4    4    0    0 -0.98471444532E+02 -0.22309384351E+03 -0.10328274320E+03  0.28014049071E+03  0.91344847116E+02 0.  0.
         23    2    4    4    0    0 -0.58164843473E+02  0.60118336911E+02 -0.21615724613E+04  0.21655544836E+04  0.10116003393E+03 0.  0.
          2    1    3    3  502    0  0.11438764733E+03  0.97540236331E+02  0.27653015488E+03  0.31474999305E+03  0.00000000000E+00 0. -1.
         -3    1    3    3    0  502  0.42248640671E+02  0.65435270269E+02  0.29429477283E+03  0.30442755386E+03  0.00000000000E+00 0.  1.
         13    1    5    5    0    0 -0.96563451949E+02 -0.22923127121E+03 -0.88489055756E+02  0.26401096368E+03  0.00000000000E+00 0.  1.
        -13    1    5    5    0    0 -0.19079925830E+01  0.61374276966E+01 -0.14793687441E+02  0.16129527040E+02  0.00000000000E+00 0. -1.
          4    1    6    6  503    0 -0.34201714861E+02  0.70903034477E+02 -0.20218774472E+04  0.20234093528E+04  0.00000000000E+00 0.  1.
         -4    1    6    6    0  503 -0.23963128612E+02 -0.10784697566E+02 -0.13969501417E+03  0.14214513082E+03  0.00000000000E+00 0. -1.
<mgrwt>
<rscale>  0 0.25541545E+04</rscale>
<asrwt>0</asrwt>
<pdfrwt beam="1">  1        2 0.36606945E+00 0.25541545E+04</pdfrwt>
<pdfrwt beam="2">  1       -1 0.10544940E+00 0.25541545E+04</pdfrwt>
<totfact> 0.34763654E+00</totfact>
</mgrwt>
</event>
<event>
12    7  0.1606355E-007  0.1551475E+04  0.7818608E-02  0.8850926E-01
          2   -1    0    0  501    0  0.00000000000E+00  0.00000000000E+00  0.38745553434E+03  0.38745553434E+03  0.00000000000E+00 0. -1.
         -1   -1    0    0    0  501 -0.00000000000E+00 -0.00000000000E+00 -0.15531299443E+04  0.15531299443E+04  0.00000000000E+00 0.  1.
         24    2    1    2    0    0 -0.26206639787E+03  0.12138740249E+03 -0.91005221827E+03  0.95835748395E+03  0.82706279622E+02 0.  0.
        254    2    1    2    0    0  0.26206639787E+03 -0.12138740249E+03 -0.25562219172E+03  0.98222799472E+03  0.90333572405E+03 0.  0.
         23    2    4    4    0    0  0.27522936069E+03 -0.21393171622E+03 -0.55062234632E+03  0.65785186259E+03  0.89811606473E+02 0.  0.
         23    2    4    4    0    0 -0.13162962819E+02  0.92544313728E+02  0.29500015460E+03  0.32437613213E+03  0.97247469315E+02 0.  0.
          2    1    3    3  502    0  0.38431301191E+01  0.20051363458E+01 -0.22002985179E+01  0.48612276685E+01  0.00000000000E+00 0. -1.
         -1    1    3    3    0  502 -0.26590952799E+03  0.11938226614E+03 -0.90785191975E+03  0.95349625628E+03  0.00000000000E+00 0.  1.
         13    1    5    5    0    0  0.18854170935E+03 -0.93372590915E+02 -0.29729176182E+03  0.36420984136E+03  0.00000000000E+00 0.  1.
        -13    1    5    5    0    0  0.86687651346E+02 -0.12055912530E+03 -0.25333058451E+03  0.29364202124E+03  0.00000000000E+00 0. -1.
          4    1    6    6  503    0  0.34076499000E+01  0.41286717322E+02  0.23592412936E+02  0.47673966200E+02  0.00000000000E+00 0. -1.
         -4    1    6    6    0  503 -0.16570612719E+02  0.51257596406E+02  0.27140774167E+03  0.27670216593E+03  0.00000000000E+00 0.  1.
<mgrwt>
<rscale>  0 0.15514752E+04</rscale>
<asrwt>0</asrwt>
<pdfrwt beam="1">  1        2 0.59608546E-01 0.15514752E+04</pdfrwt>
<pdfrwt beam="2">  1       -1 0.23894306E+00 0.15514752E+04</pdfrwt>
<totfact> 0.74793338E+00</totfact>
</mgrwt>
</event>
<event>
12    7  0.1606355E-007  0.2276112E+04  0.7818608E-02  0.8487400E-01
         -1   -1    0    0    0  501 -0.00000000000E+00  0.00000000000E+00  0.58240755623E+03  0.58240755623E+03  0.00000000000E+00 0.  1.
          2   -1    0    0  501    0  0.00000000000E+00 -0.00000000000E+00 -0.22238226752E+04  0.22238226752E+04  0.00000000000E+00 0. -1.
         24    2    1    2    0    0 -0.74653312031E+03 -0.60623084979E+03 -0.68018841558E+03  0.11805728140E+04  0.79172883465E+02 0.  0.
        254    2    1    2    0    0  0.74653312031E+03  0.60623084979E+03 -0.96122670337E+03  0.16256574174E+04  0.89105427477E+03 0.  0.
         23    2    4    4    0    0  0.59030006205E+03  0.42241367730E+03 -0.11070051702E+04  0.13269306969E+04  0.91635962706E+02 0.  0.
         23    2    4    4    0    0  0.15623305826E+03  0.18381717248E+03  0.14577846681E+03  0.29872672048E+03  0.98938216819E+02 0.  0.
          2    1    3    3  502    0 -0.74857194512E+03 -0.60364169266E+03 -0.67799899696E+03  0.11766162884E+04  0.00000000000E+00 0. -1.
         -1    1    3    3    0  502  0.20388248039E+01 -0.25891571268E+01 -0.21894186154E+01  0.39565256326E+01  0.00000000000E+00 0.  1.
         13    1    5    5    0    0  0.20123172965E+03  0.94075714754E+02 -0.35665715450E+03  0.42017707574E+03  0.00000000000E+00 0. -1.
        -13    1    5    5    0    0  0.38906833241E+03  0.32833796255E+03 -0.75034801567E+03  0.90675362120E+03  0.00000000000E+00 0.  1.
          2    1    6    6  503    0  0.86069793190E+02  0.94683091990E+02  0.20270614803E+02  0.12955228687E+03  0.00000000000E+00 0. -1.
         -2    1    6    6    0  503  0.70163265071E+02  0.89134080494E+02  0.12550785201E+03  0.16917443361E+03  0.00000000000E+00 0.  1.
<mgrwt>
<rscale>  0 0.22761117E+04</rscale>
<asrwt>0</asrwt>
<pdfrwt beam="1">  1        2 0.34212656E+00 0.22761117E+04</pdfrwt>
<pdfrwt beam="2">  1       -1 0.89601163E-01 0.22761117E+04</pdfrwt>
<totfact> 0.63123389E+00</totfact>
</mgrwt>
</event>
<event>
12    7  0.1606355E-007  0.1183639E+04  0.7818608E-02  0.9127299E-01
         -1   -1    0    0    0  501 -0.00000000000E+00  0.00000000000E+00  0.14440208798E+03  0.14440208798E+03  0.00000000000E+00 0.  1.
          2   -1    0    0  501    0  0.00000000000E+00 -0.00000000000E+00 -0.24255215453E+04  0.24255215453E+04  0.00000000000E+00 0. -1.
         24    2    1    2    0    0 -0.15656032506E+03  0.14527028262E+03 -0.28244040381E+03  0.36314041174E+03  0.80521963120E+02 0.  0.
        254    2    1    2    0    0  0.15656032506E+03 -0.14527028262E+03 -0.19986790535E+04  0.22067832215E+04  0.91080164553E+03 0.  0.
         23    2    4    4    0    0  0.42239996269E+03 -0.27996226761E+03 -0.68689206783E+03  0.85845610405E+03  0.91244561280E+02 0.  0.
         23    2    4    4    0    0 -0.26583963764E+03  0.13469198500E+03 -0.13117869857E+04  0.13483271175E+04  0.91587532857E+02 0.  0.
          2    1    3    3  502    0 -0.15382064730E+02  0.35541431998E+02 -0.15210329128E+02  0.41607155827E+02  0.00000000000E+00 0. -1.
         -1    1    3    3    0  502 -0.14117826033E+03  0.10972885062E+03 -0.26723007468E+03  0.32153325592E+03  0.00000000000E+00 0.  1.
         13    1    5    5    0    0  0.34844786276E+03 -0.25944080278E+03 -0.61739952568E+03  0.75492225926E+03  0.00000000000E+00 0. -1.
        -13    1    5    5    0    0  0.73952099934E+02 -0.20521464836E+02 -0.69492542144E+02  0.10353384479E+03  0.00000000000E+00 0.  1.
          3    1    6    6  503    0 -0.15036505415E+03  0.58226838451E+02 -0.51694153410E+03  0.54150582998E+03  0.00000000000E+00 0. -1.
         -3    1    6    6    0  503 -0.11547458349E+03  0.76465146545E+02 -0.79484545156E+03  0.80682128748E+03  0.00000000000E+00 0.  1.
<mgrwt>
<rscale>  0 0.11836391E+04</rscale>
<asrwt>0</asrwt>
<pdfrwt beam="1">  1        2 0.37315718E+00 0.11836391E+04</pdfrwt>
<pdfrwt beam="2">  1       -1 0.22215705E-01 0.11836391E+04</pdfrwt>
<totfact> 0.74524007E+01</totfact>
</mgrwt>
</event>
<event>
12    7  0.1606355E-007  0.1388348E+04  0.7818608E-02  0.8962297E-01
          2   -1    0    0  501    0  0.00000000000E+00  0.00000000000E+00  0.28572517532E+04  0.28572517532E+04  0.00000000000E+00 0. -1.
         -1   -1    0    0    0  501 -0.00000000000E+00 -0.00000000000E+00 -0.16865060219E+03  0.16865060219E+03  0.00000000000E+00 0.  1.
         24    2    1    2    0    0 -0.89890147230E+02  0.25627265811E+03  0.15117215124E+03  0.32083970815E+03  0.79556176032E+02 0.  0.
        254    2    1    2    0    0  0.89890147230E+02 -0.25627265811E+03  0.25374289998E+04  0.27050626473E+04  0.89725251897E+03 0.  0.
         23    2    4    4    0    0 -0.23779353167E+03 -0.43818536158E+03  0.10147309786E+04  0.11342604093E+04  0.91189595960E+02 0.  0.
         23    2    4    4    0    0  0.32768367890E+03  0.18191270347E+03  0.15226980212E+04  0.15708022380E+04  0.91332260984E+02 0.  0.
          2    1    3    3  502    0 -0.29738709788E+02  0.35592227509E+02  0.56986675957E+02  0.73475701803E+02  0.00000000000E+00 0. -1.
         -1    1    3    3    0  502 -0.60151437443E+02  0.22068043060E+03  0.94185475288E+02  0.24736400634E+03  0.00000000000E+00 0.  1.
         13    1    5    5    0    0 -0.21438652343E+03 -0.32492045193E+03  0.82142399197E+03  0.90899519036E+03  0.00000000000E+00 0.  1.
        -13    1    5    5    0    0 -0.23407008237E+02 -0.11326490965E+03  0.19330698659E+03  0.22526521892E+03  0.00000000000E+00 0. -1.
          2    1    6    6  503    0  0.59141792835E+02  0.68529210531E+02  0.27539668399E+03  0.28989194177E+03  0.00000000000E+00 0. -1.
         -2    1    6    6    0  503  0.26854188606E+03  0.11338349294E+03  0.12473013372E+04  0.12809102962E+04  0.00000000000E+00 0.  1.
<mgrwt>
<rscale>  0 0.13883475E+04</rscale>
<asrwt>0</asrwt>
<pdfrwt beam="1">  1        2 0.43957716E+00 0.13883475E+04</pdfrwt>
<pdfrwt beam="2">  1       -1 0.25946249E-01 0.13883475E+04</pdfrwt>
<totfact> 0.31343978E+01</totfact>
</mgrwt>
</event>
<event>
12    7  0.1606355E-007  0.2121193E+04  0.7818608E-02  0.8551965E-01
          2   -1    0    0  501    0  0.00000000000E+00  0.00000000000E+00  0.18065859113E+04  0.18065859113E+04  0.00000000000E+00 0. -1.
         -1   -1    0    0    0  501 -0.00000000000E+00 -0.00000000000E+00 -0.62264701489E+03  0.62264701489E+03  0.00000000000E+00 0.  1.
         24    2    1    2    0    0 -0.68635311007E+03  0.51971147755E+03  0.45759431106E+03  0.97810963349E+03  0.78264231983E+02 0.  0.
        254    2    1    2    0    0  0.68635311007E+03 -0.51971147755E+03  0.72634458537E+03  0.14511232927E+04  0.91487799317E+03 0.  0.
         23    2    4    4    0    0  0.27187246640E+03  0.13151567906E+03  0.58004336232E+03  0.66020849961E+03  0.90630838854E+02 0.  0.
         23    2    4    4    0    0  0.41448064367E+03 -0.65122715662E+03  0.14630122305E+03  0.79091479311E+03  0.90835833285E+02 0.  0.
          4    1    3    3  502    0 -0.65194191386E+03  0.50825385078E+03  0.42575383077E+03  0.92984760058E+03  0.00000000000E+00 0. -1.
         -3    1    3    3    0  502 -0.34411196215E+02  0.11457626771E+02  0.31840480291E+02  0.48262032917E+02  0.00000000000E+00 0.  1.
         13    1    5    5    0    0  0.11683388344E+03  0.17660658047E+02  0.16703820284E+03  0.20460649151E+03  0.00000000000E+00 0.  1.
        -13    1    5    5    0    0  0.15503858296E+03  0.11385502102E+03  0.41300515948E+03  0.45560200809E+03  0.00000000000E+00 0. -1.
          1    1    6    6  503    0  0.31426279327E+03 -0.50092570989E+03  0.15058066999E+03  0.61021488694E+03  0.00000000000E+00 0. -1.
         -1    1    6    6    0  503  0.10021785040E+03 -0.15030144673E+03 -0.42794469410E+01  0.18069990618E+03  0.00000000000E+00 0.  1.
<mgrwt>
<rscale>  0 0.21211934E+04</rscale>
<asrwt>0</asrwt>
<pdfrwt beam="1">  1        2 0.27793629E+00 0.21211934E+04</pdfrwt>
<pdfrwt beam="2">  1       -1 0.95791849E-01 0.21211934E+04</pdfrwt>
<totfact> 0.94189156E+00</totfact>
</mgrwt>
</event>
<event>
12    7  0.1606355E-007  0.1989609E+04  0.7818608E-02  0.8611494E-01
         -1   -1    0    0    0  501 -0.00000000000E+00  0.00000000000E+00  0.96185673406E+03  0.96185673406E+03  0.00000000000E+00 0.  1.
          2   -1    0    0  501    0  0.00000000000E+00 -0.00000000000E+00 -0.10288813795E+04  0.10288813795E+04  0.00000000000E+00 0. -1.
         24    2    1    2    0    0  0.50918822296E+02  0.12186738315E+03  0.75184946560E+03  0.76753859908E+03  0.79959343515E+02 0.  0.
        254    2    1    2    0    0 -0.50918822296E+02 -0.12186738315E+03 -0.81887411106E+03  0.12231995145E+04  0.89900937536E+03 0.  0.
         23    2    4    4    0    0 -0.30248941398E+02 -0.12066704898E+03  0.16986284838E+03  0.22960668395E+03  0.91598618381E+02 0.  0.
         23    2    4    4    0    0 -0.20669880898E+02 -0.12003341793E+01 -0.98873695944E+03  0.99359283056E+03  0.95902310650E+02 0.  0.
          2    1    3    3  502    0  0.59966881632E+01  0.13601068680E+02  0.13943043161E+02  0.20380328524E+02  0.00000000000E+00 0. -1.
         -1    1    3    3    0  502  0.44922134133E+02  0.10826631447E+03  0.73790642244E+03  0.74715827056E+03  0.00000000000E+00 0.  1.
         13    1    5    5    0    0  0.29757411957E+02 -0.21493984634E+02  0.26648591714E+02  0.45361243173E+02  0.00000000000E+00 0. -1.
        -13    1    5    5    0    0 -0.60006353355E+02 -0.99173064341E+02  0.14321425667E+03  0.18424544078E+03  0.00000000000E+00 0.  1.
          1    1    6    6  503    0 -0.73178129570E+01  0.38324505168E+02 -0.20099654035E+03  0.20474844887E+03  0.00000000000E+00 0. -1.
         -1    1    6    6    0  503 -0.13352067941E+02 -0.39524839347E+02 -0.78774041909E+03  0.78884438168E+03  0.00000000000E+00 0.  1.
<mgrwt>
<rscale>  0 0.19896095E+04</rscale>
<asrwt>0</asrwt>
<pdfrwt beam="1">  1        2 0.15828944E+00 0.19896095E+04</pdfrwt>
<pdfrwt beam="2">  1       -1 0.14797796E+00 0.19896095E+04</pdfrwt>
<totfact> 0.92657825E+00</totfact>
</mgrwt>
</event>
<event>
12    7  0.1606355E-007  0.2527868E+04  0.7818608E-02  0.8393124E-01
          2   -1    0    0  501    0  0.00000000000E+00  0.00000000000E+00  0.28321414431E+04  0.28321414431E+04  0.00000000000E+00 0. -1.
         -1   -1    0    0    0  501 -0.00000000000E+00 -0.00000000000E+00 -0.56407095234E+03  0.56407095234E+03  0.00000000000E+00 0.  1.
         24    2    1    2    0    0 -0.21726248121E+02  0.10890876905E+04  0.76699494411E+03  0.13345843236E+04  0.79057225605E+02 0.  0.
        254    2    1    2    0    0  0.21726248121E+02 -0.10890876905E+04  0.15010755467E+04  0.20616280719E+04  0.90027689220E+03 0.  0.
         23    2    4    4    0    0 -0.19100931897E+03  0.68471591572E+01  0.55889820050E+03  0.59780290106E+03  0.92030790893E+02 0.  0.
         23    2    4    4    0    0  0.21273556709E+03 -0.10959348497E+04  0.94217734615E+03  0.14638251708E+04  0.93575439982E+02 0.  0.
          2    1    3    3  502    0 -0.78683289174E+01  0.83517712336E+03  0.62644585839E+03  0.10440388649E+04  0.00000000000E+00 0. -1.
         -1    1    3    3    0  502 -0.13857919204E+02  0.25391056714E+03  0.14054908572E+03  0.29054545862E+03  0.00000000000E+00 0.  1.
         13    1    5    5    0    0  0.66920639919E+01  0.10168638999E+02  0.16624629573E+02  0.20604932614E+02  0.00000000000E+00 0.  1.
        -13    1    5    5    0    0 -0.19770138296E+03 -0.33214798423E+01  0.54227357093E+03  0.57719796845E+03  0.00000000000E+00 0. -1.
          1    1    6    6  503    0  0.46141888574E+02 -0.41418984300E+03  0.31186916422E+03  0.52052346298E+03  0.00000000000E+00 0. -1.
         -1    1    6    6    0  503  0.16659367852E+03 -0.68174500666E+03  0.63030818193E+03  0.94330170786E+03  0.00000000000E+00 0.  1.
<mgrwt>
<rscale>  0 0.25278677E+04</rscale>
<asrwt>0</asrwt>
<pdfrwt beam="1">  1        2 0.43571406E+00 0.25278677E+04</pdfrwt>
<pdfrwt beam="2">  1       -1 0.86780148E-01 0.25278677E+04</pdfrwt>
<totfact> 0.29274111E+00</totfact>
</mgrwt>
</event>
<event>
12    7  0.1606355E-007  0.1414389E+04  0.7818608E-02  0.8943469E-01
         -1   -1    0    0    0  501 -0.00000000000E+00  0.00000000000E+00  0.39016858596E+03  0.39016858596E+03  0.00000000000E+00 0.  1.
          2   -1    0    0  501    0  0.00000000000E+00 -0.00000000000E+00 -0.12818150802E+04  0.12818150802E+04  0.00000000000E+00 0. -1.
         24    2    1    2    0    0  0.38809010910E+02  0.12295856451E+03  0.19869310212E+03  0.24995611369E+03  0.79838349352E+02 0.  0.
        254    2    1    2    0    0 -0.38809010910E+02 -0.12295856451E+03 -0.10903395964E+04  0.14220275525E+04  0.90371288400E+03 0.  0.
         23    2    4    4    0    0 -0.38357738063E+03 -0.25914789185E+03 -0.34433111086E+03  0.58399431090E+03  0.90532891666E+02 0.  0.
         23    2    4    4    0    0  0.34476836972E+03  0.13618932734E+03 -0.74600848551E+03  0.83803324159E+03  0.91423694435E+02 0.  0.
          2    1    3    3  502    0 -0.31382288942E+01  0.10329059061E+03  0.11751687974E+03  0.15648965337E+03  0.00000000000E+00 0. -1.
         -1    1    3    3    0  502  0.41947239804E+02  0.19667973903E+02  0.81176222381E+02  0.93466460320E+02  0.00000000000E+00 0.  1.
         13    1    5    5    0    0 -0.21464609523E+03 -0.10766235632E+03 -0.21781102071E+03  0.32420020036E+03  0.00000000000E+00 0.  1.
        -13    1    5    5    0    0 -0.16893128540E+03 -0.15148553553E+03 -0.12652009015E+03  0.25979411055E+03  0.00000000000E+00 0. -1.
          1    1    6    6  503    0  0.57718971386E+02  0.14637824668E+02 -0.60054344228E+02  0.84571093345E+02  0.00000000000E+00 0. -1.
         -1    1    6    6    0  503  0.28704939834E+03  0.12155150267E+03 -0.68595414128E+03  0.75346214824E+03  0.00000000000E+00 0.  1.
<mgrwt>
<rscale>  0 0.14143889E+04</rscale>
<asrwt>0</asrwt>
<pdfrwt beam="1">  1        2 0.19720232E+00 0.14143889E+04</pdfrwt>
<pdfrwt beam="2">  1       -1 0.60025935E-01 0.14143889E+04</pdfrwt>
<totfact> 0.52840903E+01</totfact>
</mgrwt>
</event>
<event>
12    7  0.1606355E-007  0.1701318E+04  0.7818608E-02  0.8760613E-01
         -1   -1    0    0    0  501 -0.00000000000E+00  0.00000000000E+00  0.64072029697E+03  0.64072029697E+03  0.00000000000E+00 0.  1.
          2   -1    0    0  501    0  0.00000000000E+00 -0.00000000000E+00 -0.11293861236E+04  0.11293861236E+04  0.00000000000E+00 0. -1.
         24    2    1    2    0    0 -0.28094637720E+03  0.24569017088E+03 -0.67979959053E+03  0.77933790491E+03  0.77107456275E+02 0.  0.
        254    2    1    2    0    0  0.28094637720E+03 -0.24569017088E+03  0.19113376391E+03  0.99076851564E+03  0.89766118828E+03 0.  0.
         23    2    4    4    0    0  0.45962711933E+03  0.17726434759E+03  0.63049613262E+02  0.50533202215E+03  0.93303060664E+02 0.  0.
         23    2    4    4    0    0 -0.17868074213E+03 -0.42295451847E+03  0.12808415065E+03  0.48543649349E+03  0.91791651369E+02 0.  0.
          2    1    3    3  502    0 -0.22659589809E+03  0.23335744169E+03 -0.57391161051E+03  0.65967865913E+03  0.00000000000E+00 0. -1.
         -3    1    3    3    0  502 -0.54350479117E+02  0.12332729183E+02 -0.10588798002E+03  0.11965924578E+03  0.00000000000E+00 0.  1.
         13    1    5    5    0    0  0.14127882162E+03  0.26787592144E+02 -0.15276488239E+02  0.14460515766E+03  0.00000000000E+00 0. -1.
        -13    1    5    5    0    0  0.31834829772E+03  0.15047675544E+03  0.78326101502E+02  0.36072686449E+03  0.00000000000E+00 0.  1.
          4    1    6    6  503    0 -0.10971188629E+03 -0.16578224401E+03  0.82808026187E+02  0.21535463687E+03  0.00000000000E+00 0. -1.
         -4    1    6    6    0  503 -0.68968855845E+02 -0.25717227446E+03  0.45276124463E+02  0.27008185661E+03  0.00000000000E+00 0.  1.
<mgrwt>
<rscale>  0 0.17013179E+04</rscale>
<asrwt>0</asrwt>
<pdfrwt beam="1">  1        2 0.17375171E+00 0.17013179E+04</pdfrwt>
<pdfrwt beam="2">  1       -1 0.98572354E-01 0.17013179E+04</pdfrwt>
<totfact> 0.22339114E+01</totfact>
</mgrwt>
</event>
<event>
12    7  0.1606355E-007  0.1783857E+04  0.7818608E-02  0.8714931E-01
         -1   -1    0    0    0  501 -0.00000000000E+00  0.00000000000E+00  0.66953917762E+03  0.66953917762E+03  0.00000000000E+00 0.  1.
          2   -1    0    0  501    0  0.00000000000E+00 -0.00000000000E+00 -0.11881851716E+04  0.11881851716E+04  0.00000000000E+00 0. -1.
         24    2    1    2    0    0 -0.34432583719E+03 -0.47267087375E+03  0.16607284354E+03  0.61332653455E+03  0.81309357256E+02 0.  0.
        254    2    1    2    0    0  0.34432583719E+03  0.47267087375E+03 -0.68471883752E+03  0.12443978147E+04  0.85889929424E+03 0.  0.
         23    2    4    4    0    0  0.31479405045E+03  0.32947364356E+03 -0.87290092278E+03  0.98897912801E+03  0.92062580068E+02 0.  0.
         23    2    4    4    0    0  0.29531786743E+02  0.14319723019E+03  0.18818208525E+03  0.25541868667E+03  0.91916457310E+02 0.  0.
          2    1    3    3  502    0 -0.33951410705E+02 -0.29868245067E+02 -0.65587338944E+01  0.45692749343E+02  0.00000000000E+00 0. -1.
         -1    1    3    3    0  502 -0.31037442649E+03 -0.44280262869E+03  0.17263157743E+03  0.56763378521E+03  0.00000000000E+00 0.  1.
         13    1    5    5    0    0  0.26056759559E+03  0.30533194285E+03 -0.79926633373E+03  0.89439909405E+03  0.00000000000E+00 0. -1.
        -13    1    5    5    0    0  0.54226454859E+02  0.24141700705E+02 -0.73634589047E+02  0.94580033959E+02  0.00000000000E+00 0.  1.
          4    1    6    6  503    0  0.46042153730E+02  0.73505994394E+02  0.50874038455E+02  0.10055435804E+03  0.00000000000E+00 0. -1.
         -4    1    6    6    0  503 -0.16510366987E+02  0.69691235798E+02  0.13730804680E+03  0.15486432863E+03  0.00000000000E+00 0.  1.
<mgrwt>
<rscale>  0 0.17838571E+04</rscale>
<asrwt>0</asrwt>
<pdfrwt beam="1">  1        2 0.18279772E+00 0.17838571E+04</pdfrwt>
<pdfrwt beam="2">  1       -1 0.10300603E+00 0.17838571E+04</pdfrwt>
<totfact> 0.18475198E+01</totfact>
</mgrwt>
</event>
<event>
12    7  0.1606355E-007  0.1903992E+04  0.7818608E-02  0.8652872E-01
         -1   -1    0    0    0  501 -0.00000000000E+00  0.00000000000E+00  0.45030518030E+03  0.45030518030E+03  0.00000000000E+00 0.  1.
          2   -1    0    0  501    0  0.00000000000E+00 -0.00000000000E+00 -0.20126274808E+04  0.20126274808E+04  0.00000000000E+00 0. -1.
         24    2    1    2    0    0  0.15434426679E+03 -0.65847468414E+03 -0.97235945025E+03  0.11871794944E+04  0.80629951130E+02 0.  0.
        254    2    1    2    0    0 -0.15434426679E+03  0.65847468414E+03 -0.58996285028E+03  0.12757531668E+04  0.90668567620E+03 0.  0.
         23    2    4    4    0    0 -0.47922213250E+03  0.62271668405E+03 -0.42097261176E+03  0.89641104629E+03  0.94365794616E+02 0.  0.
         23    2    4    4    0    0  0.32487786570E+03  0.35758000094E+02 -0.16899023852E+03  0.37934212046E+03  0.92295619873E+02 0.  0.
          4    1    3    3  502    0  0.90072513120E+02 -0.44274753085E+03 -0.58497762291E+03  0.73914630013E+03  0.00000000000E+00 0. -1.
         -3    1    3    3    0  502  0.64271753671E+02 -0.21572715329E+03 -0.38738182734E+03  0.44803319424E+03  0.00000000000E+00 0.  1.
         13    1    5    5    0    0 -0.10309793712E+03  0.12002836780E+03 -0.44519374477E+02  0.16437143432E+03  0.00000000000E+00 0.  1.
        -13    1    5    5    0    0 -0.37612419538E+03  0.50268831625E+03 -0.37645323729E+03  0.73203961198E+03  0.00000000000E+00 0. -1.
          3    1    6    6  503    0  0.25748168434E+03  0.53331242027E+02 -0.10003537957E+03  0.28133275016E+03  0.00000000000E+00 0. -1.
         -3    1    6    6    0  503  0.67396181366E+02 -0.17573241933E+02 -0.68954858953E+02  0.98009370307E+02  0.00000000000E+00 0.  1.
<mgrwt>
<rscale>  0 0.19039922E+04</rscale>
<asrwt>0</asrwt>
<pdfrwt beam="1">  1        2 0.30963500E+00 0.19039922E+04</pdfrwt>
<pdfrwt beam="2">  1       -1 0.69277719E-01 0.19039922E+04</pdfrwt>
<totfact> 0.14771397E+01</totfact>
</mgrwt>
</event>
<event>
12    7  0.1606355E-007  0.2010931E+04  0.7818608E-02  0.8601527E-01
         -1   -1    0    0    0  501 -0.00000000000E+00  0.00000000000E+00  0.28719998334E+03  0.28719998334E+03  0.00000000000E+00 0.  1.
          2   -1    0    0  501    0  0.00000000000E+00 -0.00000000000E+00 -0.35200594753E+04  0.35200594753E+04  0.00000000000E+00 0. -1.
         24    2    1    2    0    0 -0.48283192269E+03 -0.55714743943E+03 -0.69521385678E+03  0.10162530286E+04  0.76863363141E+02 0.  0.
        254    2    1    2    0    0  0.48283192269E+03  0.55714743943E+03 -0.25376456352E+04  0.27910064301E+04  0.89807103734E+03 0.  0.
         23    2    4    4    0    0  0.42892450221E+03 -0.10156570424E+03 -0.66774124410E+03  0.80558476648E+03  0.93790330180E+02 0.  0.
         23    2    4    4    0    0  0.53907420481E+02  0.65871314367E+03 -0.18699043911E+04  0.19854216636E+04  0.92453960748E+02 0.  0.
          4    1    3    3  502    0 -0.88943268269E+02 -0.11974279439E+03 -0.10295358017E+03  0.18124205210E+03  0.00000000000E+00 0. -1.
         -3    1    3    3    0  502 -0.39388865442E+03 -0.43740464503E+03 -0.59226027661E+03  0.83501097647E+03  0.00000000000E+00 0.  1.
         13    1    5    5    0    0  0.19586900027E+03 -0.45887265309E+02 -0.38953370036E+03  0.43841397115E+03  0.00000000000E+00 0. -1.
        -13    1    5    5    0    0  0.23305550194E+03 -0.55678438936E+02 -0.27820754374E+03  0.36717079532E+03  0.00000000000E+00 0.  1.
          3    1    6    6  503    0  0.11839347527E+02  0.62537577469E+02 -0.11363726197E+03  0.13024801747E+03  0.00000000000E+00 0. -1.
         -3    1    6    6    0  503  0.42068072954E+02  0.59617556620E+03 -0.17562671291E+04  0.18551736461E+04  0.00000000000E+00 0.  1.
<mgrwt>
<rscale>  0 0.20109312E+04</rscale>
<asrwt>0</asrwt>
<pdfrwt beam="1">  1        2 0.54154762E+00 0.20109312E+04</pdfrwt>
<pdfrwt beam="2">  1       -1 0.44184612E-01 0.20109312E+04</pdfrwt>
<totfact> 0.42375811E+00</totfact>
</mgrwt>
</event>
<event>
12    7  0.1606355E-007  0.1632369E+04  0.7818608E-02  0.8800906E-01
         -1   -1    0    0    0  501 -0.00000000000E+00  0.00000000000E+00  0.23685409389E+03  0.23685409389E+03  0.00000000000E+00 0.  1.
          2   -1    0    0  501    0  0.00000000000E+00 -0.00000000000E+00 -0.28125198101E+04  0.28125198101E+04  0.00000000000E+00 0. -1.
         24    2    1    2    0    0 -0.25202933827E+03  0.38220489644E+03 -0.15257297025E+04  0.15949301047E+04  0.79696572552E+02 0.  0.
        254    2    1    2    0    0  0.25202933827E+03 -0.38220489644E+03 -0.10499360137E+04  0.14544437993E+04  0.89634912959E+03 0.  0.
         23    2    4    4    0    0 -0.19136548572E+03 -0.28110193427E+03 -0.90206716074E+03  0.96725155421E+03  0.78812182195E+02 0.  0.
         23    2    4    4    0    0  0.44339482400E+03 -0.10110296217E+03 -0.14786885300E+03  0.48719224507E+03  0.93114483637E+02 0.  0.
          2    1    3    3  502    0 -0.18378160709E+03  0.27351282607E+03 -0.12111527571E+04  0.12551796470E+04  0.00000000000E+00 0. -1.
         -1    1    3    3    0  502 -0.68247731186E+02  0.10869207038E+03 -0.31457694536E+03  0.33975045773E+03  0.00000000000E+00 0.  1.
         13    1    5    5    0    0 -0.19221465631E+03 -0.28403600754E+03 -0.87185378362E+03  0.93688416984E+03  0.00000000000E+00 0.  1.
        -13    1    5    5    0    0  0.84917058664E+00  0.29340732726E+01 -0.30213377124E+02  0.30367384377E+02  0.00000000000E+00 0. -1.
          4    1    6    6  503    0  0.15915353079E+03 -0.47341033639E+02 -0.10040962068E+03  0.19404409745E+03  0.00000000000E+00 0. -1.
         -4    1    6    6    0  503  0.28424129320E+03 -0.53761928535E+02 -0.47459232320E+02  0.29314814762E+03  0.00000000000E+00 0.  1.
<mgrwt>
<rscale>  0 0.16323686E+04</rscale>
<asrwt>0</asrwt>
<pdfrwt beam="1">  1        2 0.43269536E+00 0.16323686E+04</pdfrwt>
<pdfrwt beam="2">  1       -1 0.36439091E-01 0.16323686E+04</pdfrwt>
<totfact> 0.17933865E+01</totfact>
</mgrwt>
</event>
<event>
12    7  0.1606355E-007  0.2581776E+04  0.7818608E-02  0.8374418E-01
          2   -1    0    0  501    0  0.00000000000E+00  0.00000000000E+00  0.21887744996E+04  0.21887744996E+04  0.00000000000E+00 0. -1.
         -1   -1    0    0    0  501 -0.00000000000E+00 -0.00000000000E+00 -0.76133583284E+03  0.76133583284E+03  0.00000000000E+00 0.  1.
         24    2    1    2    0    0 -0.88546784407E+03  0.69679178885E+03  0.49271673747E+03  0.12324109131E+04  0.80590170219E+02 0.  0.
        254    2    1    2    0    0  0.88546784407E+03 -0.69679178885E+03  0.93472192933E+03  0.17176994193E+04  0.89845095033E+03 0.  0.
         23    2    4    4    0    0  0.10323551761E+04 -0.44875555461E+03  0.65492699398E+03  0.13055779534E+04  0.92009061963E+02 0.  0.
         23    2    4    4    0    0 -0.14688733203E+03 -0.24803623424E+03  0.27979493535E+03  0.41212146597E+03  0.91983884778E+02 0.  0.
          4    1    3    3  502    0 -0.23957296237E+03  0.19357604676E+03  0.96273913714E+02  0.32270041314E+03  0.00000000000E+00 0. -1.
         -3    1    3    3    0  502 -0.64589488170E+03  0.50321574209E+03  0.39644282375E+03  0.90971049999E+03  0.00000000000E+00 0.  1.
         13    1    5    5    0    0  0.15677429962E+03 -0.81677676337E+02  0.68065543888E+02  0.18942635006E+03  0.00000000000E+00 0. -1.
        -13    1    5    5    0    0  0.87558087648E+03 -0.36707787827E+03  0.58686145009E+03  0.11161516033E+04  0.00000000000E+00 0.  1.
          3    1    6    6  503    0 -0.39545582712E+02 -0.10589659984E+03  0.56158803791E+02  0.12622105297E+03  0.00000000000E+00 0. -1.
         -3    1    6    6    0  503 -0.10734174931E+03 -0.14213963439E+03  0.22363613156E+03  0.28590041299E+03  0.00000000000E+00 0.  1.
<mgrwt>
<rscale>  0 0.25817765E+04</rscale>
<asrwt>0</asrwt>
<pdfrwt beam="1">  1        2 0.33673454E+00 0.25817765E+04</pdfrwt>
<pdfrwt beam="2">  1       -1 0.11712859E+00 0.25817765E+04</pdfrwt>
<totfact> 0.34669619E+00</totfact>
</mgrwt>
</event>
<event>
12    7  0.1606355E-007  0.1847372E+04  0.7818608E-02  0.8681505E-01
         -1   -1    0    0    0  501 -0.00000000000E+00  0.00000000000E+00  0.53320680812E+03  0.53320680812E+03  0.00000000000E+00 0.  1.
          2   -1    0    0  501    0  0.00000000000E+00 -0.00000000000E+00 -0.16001220545E+04  0.16001220545E+04  0.00000000000E+00 0. -1.
         24    2    1    2    0    0  0.68414476051E+03 -0.30556699769E+02 -0.27853372339E+03  0.74370552119E+03  0.80802858560E+02 0.  0.
        254    2    1    2    0    0 -0.68414476051E+03  0.30556699769E+02 -0.78838152299E+03  0.13896233414E+04  0.91679869113E+03 0.  0.
         23    2    4    4    0    0 -0.69107020770E+03  0.21654048528E+03 -0.18701052019E+03  0.75315825271E+03  0.88354995498E+02 0.  0.
         23    2    4    4    0    0  0.69254471879E+01 -0.18598378551E+03 -0.60137100280E+03  0.63646508873E+03  0.93823216058E+02 0.  0.
          4    1    3    3  502    0  0.13894411299E+03  0.33604077682E+01 -0.91137135109E+02  0.16620089130E+03  0.00000000000E+00 0. -1.
         -3    1    3    3    0  502  0.54520064752E+03 -0.33917107538E+02 -0.18739658828E+03  0.57750462989E+03  0.00000000000E+00 0.  1.
         13    1    5    5    0    0 -0.54813518629E+03  0.13890025153E+03 -0.12523787884E+03  0.57916317961E+03  0.00000000000E+00 0. -1.
        -13    1    5    5    0    0 -0.14293502141E+03  0.77640233754E+02 -0.61772641354E+02  0.17399507310E+03  0.00000000000E+00 0.  1.
          1    1    6    6  503    0  0.21411344147E+02 -0.16936128414E+03 -0.41419077821E+03  0.44799072645E+03  0.00000000000E+00 0. -1.
         -1    1    6    6    0  503 -0.14485896959E+02 -0.16622501373E+02 -0.18718022459E+03  0.18847436229E+03  0.00000000000E+00 0.  1.
<mgrwt>
<rscale>  0 0.18473722E+04</rscale>
<asrwt>0</asrwt>
<pdfrwt beam="1">  1        2 0.24617262E+00 0.18473722E+04</pdfrwt>
<pdfrwt beam="2">  1       -1 0.82031818E-01 0.18473722E+04</pdfrwt>
<totfact> 0.17661235E+01</totfact>
</mgrwt>
</event>
<event>
12    7  0.1606355E-007  0.1446428E+04  0.7818608E-02  0.8920881E-01
         -1   -1    0    0    0  501 -0.00000000000E+00  0.00000000000E+00  0.95168155896E+03  0.95168155896E+03  0.00000000000E+00 0.  1.
          2   -1    0    0  501    0  0.00000000000E+00 -0.00000000000E+00 -0.54959374328E+03  0.54959374328E+03  0.00000000000E+00 0. -1.
         24    2    1    2    0    0  0.28310045325E+03 -0.14710793332E+03  0.42837793439E+03  0.53999615215E+03  0.79382485346E+02 0.  0.
        254    2    1    2    0    0 -0.28310045325E+03  0.14710793332E+03 -0.26290118716E+02  0.96127915010E+03  0.90641040560E+03 0.  0.
         23    2    4    4    0    0 -0.24900514996E+03 -0.33006664083E+03  0.14115481031E+03  0.44629646918E+03  0.91149908616E+02 0.  0.
         23    2    4    4    0    0 -0.34095303294E+02  0.47717457415E+03 -0.16744492902E+03  0.51498268091E+03  0.91166295652E+02 0.  0.
          4    1    3    3  502    0  0.85708327791E+02 -0.39924357376E+02  0.19141883101E+03  0.21349716773E+03  0.00000000000E+00 0. -1.
         -3    1    3    3    0  502  0.19739212546E+03 -0.10718357595E+03  0.23695910338E+03  0.32649898441E+03  0.00000000000E+00 0.  1.
         13    1    5    5    0    0 -0.51189872310E+02 -0.13869083862E+03  0.41179201385E+02  0.15346425764E+03  0.00000000000E+00 0.  1.
        -13    1    5    5    0    0 -0.19781527765E+03 -0.19137580220E+03  0.99975608922E+02  0.29283221155E+03  0.00000000000E+00 0. -1.
          1    1    6    6  503    0 -0.38844448264E+02  0.77747141581E+02 -0.40132422911E+02  0.95729413210E+02  0.00000000000E+00 0.  1.
         -1    1    6    6    0  503  0.47491449696E+01  0.39942743257E+03 -0.12731250611E+03  0.41925326770E+03  0.00000000000E+00 0. -1.
<mgrwt>
<rscale>  0 0.14464276E+04</rscale>
<asrwt>0</asrwt>
<pdfrwt beam="1">  1        2 0.84552884E-01 0.14464276E+04</pdfrwt>
<pdfrwt beam="2">  1       -1 0.14641255E+00 0.14464276E+04</pdfrwt>
<totfact> 0.22749795E+01</totfact>
</mgrwt>
</event>
<event>
12    7  0.1606355E-007  0.1772781E+04  0.7818608E-02  0.8720910E-01
         -1   -1    0    0    0  501 -0.00000000000E+00  0.00000000000E+00  0.50916951325E+03  0.50916951325E+03  0.00000000000E+00 0.  1.
          2   -1    0    0  501    0  0.00000000000E+00 -0.00000000000E+00 -0.15430774285E+04  0.15430774285E+04  0.00000000000E+00 0. -1.
         24    2    1    2    0    0  0.44788149264E+03  0.89866115927E+02  0.13322177817E+03  0.48272373484E+03  0.81242918200E+02 0.  0.
        254    2    1    2    0    0 -0.44788149264E+03 -0.89866115927E+02 -0.11671296934E+04  0.15695232069E+04  0.94474209468E+03 0.  0.
         23    2    4    4    0    0 -0.49969013360E+03 -0.44671018326E+03 -0.78160646875E+03  0.10337862882E+04  0.92548367300E+02 0.  0.
         23    2    4    4    0    0  0.51808640960E+02  0.35684406734E+03 -0.38552322465E+03  0.53573691865E+03  0.91455265499E+02 0.  0.
          4    1    3    3  502    0  0.77125924670E+02 -0.71206719105E+01  0.14392125000E+01  0.77467306377E+02  0.00000000000E+00 0. -1.
         -3    1    3    3    0  502  0.37075556797E+03  0.96986787838E+02  0.13178256567E+03  0.40525642846E+03  0.00000000000E+00 0.  1.
         13    1    5    5    0    0 -0.16569612361E+03 -0.18781058030E+03 -0.34318297711E+03  0.42485594645E+03  0.00000000000E+00 0. -1.
        -13    1    5    5    0    0 -0.33399400999E+03 -0.25889960296E+03 -0.43842349164E+03  0.60893034178E+03  0.00000000000E+00 0.  1.
          4    1    6    6  503    0  0.12104649218E+02 -0.25073444852E+00 -0.76870825174E+01  0.14341430824E+02  0.00000000000E+00 0. -1.
         -4    1    6    6    0  503  0.39703991742E+02  0.35709480178E+03 -0.37783614213E+03  0.52139548782E+03  0.00000000000E+00 0.  1.
<mgrwt>
<rscale>  0 0.17727808E+04</rscale>
<asrwt>0</asrwt>
<pdfrwt beam="1">  1        2 0.23739653E+00 0.17727808E+04</pdfrwt>
<pdfrwt beam="2">  1       -1 0.78333772E-01 0.17727808E+04</pdfrwt>
<totfact> 0.21107803E+01</totfact>
</mgrwt>
</event>
<event>
12    7  0.1606355E-007  0.1428474E+04  0.7818608E-02  0.8933462E-01
         -1   -1    0    0    0  501 -0.00000000000E+00  0.00000000000E+00  0.32477347573E+03  0.32477347573E+03  0.00000000000E+00 0.  1.
          2   -1    0    0  501    0  0.00000000000E+00 -0.00000000000E+00 -0.15707386904E+04  0.15707386904E+04  0.00000000000E+00 0. -1.
         24    2    1    2    0    0 -0.21512815866E+03  0.16354782401E+03 -0.80295475046E+03  0.85092811827E+03  0.79462669126E+02 0.  0.
        254    2    1    2    0    0  0.21512815866E+03 -0.16354782401E+03 -0.44301046417E+03  0.10445840478E+04  0.90657021031E+03 0.  0.
         23    2    4    4    0    0 -0.54286821415E+02 -0.13909768812E+03 -0.66181529217E+03  0.68460663484E+03  0.91605336578E+02 0.  0.
         23    2    4    4    0    0  0.26941498007E+03 -0.24450135884E+02  0.21880482800E+03  0.35997741299E+03  0.92336041022E+02 0.  0.
          2    1    3    3  502    0 -0.11660614168E+03  0.13325056209E+03 -0.46355722588E+03  0.49622374615E+03  0.00000000000E+00 0. -1.
         -1    1    3    3    0  502 -0.98522016982E+02  0.30297261917E+02 -0.33939752458E+03  0.35470437212E+03  0.00000000000E+00 0.  1.
         13    1    5    5    0    0 -0.46946754192E+02 -0.10737200788E+03 -0.62306998044E+03  0.63399443715E+03  0.00000000000E+00 0. -1.
        -13    1    5    5    0    0 -0.73400672230E+01 -0.31725680249E+02 -0.38745311731E+02  0.50612197692E+02  0.00000000000E+00 0.  1.
          3    1    6    6  503    0  0.20994804649E+03 -0.52946884709E+01  0.20980336691E+03  0.29685630989E+03  0.00000000000E+00 0. -1.
         -3    1    6    6    0  503  0.59466933577E+02 -0.19155447413E+02  0.90014610919E+01  0.63121103099E+02  0.00000000000E+00 0.  1.
<mgrwt>
<rscale>  0 0.14284737E+04</rscale>
<asrwt>0</asrwt>
<pdfrwt beam="1">  1        2 0.24165211E+00 0.14284737E+04</pdfrwt>
<pdfrwt beam="2">  1       -1 0.49965150E-01 0.14284737E+04</pdfrwt>
<totfact> 0.51508543E+01</totfact>
</mgrwt>
</event>
<event>
12    7  0.1606355E-007  0.2413561E+04  0.7818608E-02  0.8434444E-01
         -1   -1    0    0    0  501 -0.00000000000E+00  0.00000000000E+00  0.11915176191E+04  0.11915176191E+04  0.00000000000E+00 0.  1.
          2   -1    0    0  501    0  0.00000000000E+00 -0.00000000000E+00 -0.12222388753E+04  0.12222388753E+04  0.00000000000E+00 0. -1.
         24    2    1    2    0    0  0.77512899789E+03  0.68281009006E+03 -0.10926807199E+03  0.10417539836E+04  0.79102897594E+02 0.  0.
        254    2    1    2    0    0 -0.77512899789E+03 -0.68281009006E+03  0.78546815843E+02  0.13720025108E+04  0.89953693912E+03 0.  0.
         23    2    4    4    0    0 -0.39689752394E+02 -0.61610081768E+03  0.69141765279E+02  0.62788057604E+03  0.91093029782E+02 0.  0.
         23    2    4    4    0    0 -0.73543924550E+03 -0.66709272386E+02  0.94050505641E+01  0.74412193474E+03  0.91148164764E+02 0.  0.
          4    1    3    3  502    0  0.55665618651E+03  0.50905704860E+03 -0.11202854938E+03  0.76259791803E+03  0.00000000000E+00 0. -1.
         -3    1    3    3    0  502  0.21847281138E+03  0.17375304147E+03  0.27604773912E+01  0.27915606561E+03  0.00000000000E+00 0.  1.
         13    1    5    5    0    0 -0.24894968970E+02 -0.33858922596E+03 -0.75494526233E+01  0.33958712822E+03  0.00000000000E+00 0. -1.
        -13    1    5    5    0    0 -0.14794783425E+02 -0.27751159172E+03  0.76691217902E+02  0.28829344782E+03  0.00000000000E+00 0.  1.
          1    1    6    6  503    0 -0.27422930685E+02 -0.22376186504E+01  0.18434786236E+02  0.33118958440E+02  0.00000000000E+00 0. -1.
         -1    1    6    6    0  503 -0.70801631481E+03 -0.64471653736E+02 -0.90297356721E+01  0.71100297630E+03  0.00000000000E+00 0.  1.
<mgrwt>
<rscale>  0 0.24135610E+04</rscale>
<asrwt>0</asrwt>
<pdfrwt beam="1">  1        2 0.18803675E+00 0.24135610E+04</pdfrwt>
<pdfrwt beam="2">  1       -1 0.18331040E+00 0.24135610E+04</pdfrwt>
<totfact> 0.37060840E+00</totfact>
</mgrwt>
</event>
<event>
12    7  0.1606355E-007  0.1596083E+04  0.7818608E-02  0.8822958E-01
          2   -1    0    0  501    0  0.00000000000E+00  0.00000000000E+00  0.20290848962E+04  0.20290848962E+04  0.00000000000E+00 0. -1.
         -1   -1    0    0    0  501 -0.00000000000E+00 -0.00000000000E+00 -0.31387086354E+03  0.31387086354E+03  0.00000000000E+00 0.  1.
         24    2    1    2    0    0  0.38688505915E+02  0.69267944881E+02  0.13722698207E+04  0.13767607770E+04  0.77787708675E+02 0.  0.
        254    2    1    2    0    0 -0.38688505915E+02 -0.69267944881E+02  0.34294421191E+03  0.96619498269E+03  0.89979284472E+03 0.  0.
         23    2    4    4    0    0 -0.41480407892E+03 -0.15437511571E+03  0.34602254478E+03  0.56955147279E+03  0.93611849760E+02 0.  0.
         23    2    4    4    0    0  0.37611557301E+03  0.85107170833E+02 -0.30783328671E+01  0.39664350990E+03  0.92792472904E+02 0.  0.
          2    1    3    3  502    0  0.10225947262E+02  0.78188002694E+02  0.85377025282E+03  0.85740397618E+03  0.00000000000E+00 0. -1.
         -1    1    3    3    0  502  0.28462558653E+02 -0.89200578132E+01  0.51849956790E+03  0.51935680085E+03  0.00000000000E+00 0.  1.
         13    1    5    5    0    0 -0.31115845264E+03 -0.13424754217E+03  0.30614099894E+03  0.45668840193E+03  0.00000000000E+00 0.  1.
        -13    1    5    5    0    0 -0.10364562628E+03 -0.20127573541E+02  0.39881545843E+02  0.11286307085E+03  0.00000000000E+00 0. -1.
          4    1    6    6  503    0  0.16562710457E+03  0.83406194635E+01  0.34705872042E+02  0.16942963512E+03  0.00000000000E+00 0. -1.
         -4    1    6    6    0  503  0.21048846844E+03  0.76766551370E+02 -0.37784204909E+02  0.22721387478E+03  0.00000000000E+00 0.  1.
<mgrwt>
<rscale>  0 0.15960835E+04</rscale>
<asrwt>0</asrwt>
<pdfrwt beam="1">  1        2 0.31216690E+00 0.15960835E+04</pdfrwt>
<pdfrwt beam="2">  1       -1 0.48287826E-01 0.15960835E+04</pdfrwt>
<totfact> 0.30168778E+01</totfact>
</mgrwt>
</event>
<event>
12    7  0.1606355E-007  0.2310377E+04  0.7818608E-02  0.8473841E-01
         -1   -1    0    0    0  501 -0.00000000000E+00  0.00000000000E+00  0.10347887516E+04  0.10347887516E+04  0.00000000000E+00 0.  1.
          2   -1    0    0  501    0  0.00000000000E+00 -0.00000000000E+00 -0.12895965013E+04  0.12895965013E+04  0.00000000000E+00 0. -1.
         24    2    1    2    0    0 -0.66959526303E+03  0.56446890708E+03  0.32996699948E+03  0.93929929336E+03  0.80137247375E+02 0.  0.
        254    2    1    2    0    0  0.66959526303E+03 -0.56446890708E+03 -0.58477474924E+03  0.13850859596E+04  0.89973254067E+03 0.  0.
         23    2    4    4    0    0  0.29968823492E+03 -0.76014200065E+03 -0.44492216172E+03  0.93481451371E+03  0.91068906565E+02 0.  0.
         23    2    4    4    0    0  0.36990702810E+03  0.19567309357E+03 -0.13985258752E+03  0.45027144587E+03  0.89813471954E+02 0.  0.
          4    1    3    3  502    0 -0.35437883933E+03  0.26438200840E+03  0.13396530665E+03  0.46198367018E+03  0.00000000000E+00 0. -1.
         -3    1    3    3    0  502 -0.31521642370E+03  0.30008689869E+03  0.19600169283E+03  0.47731562317E+03  0.00000000000E+00 0.  1.
         13    1    5    5    0    0  0.15952179088E+03 -0.28441658976E+03 -0.18371331258E+03  0.37428676107E+03  0.00000000000E+00 0. -1.
        -13    1    5    5    0    0  0.14016644405E+03 -0.47572541089E+03 -0.26120884914E+03  0.56052775264E+03  0.00000000000E+00 0.  1.
          1    1    6    6  503    0 -0.42084163822E+01  0.64775238595E+01 -0.71769472999E+01  0.10544081579E+02  0.00000000000E+00 0. -1.
         -1    1    6    6    0  503  0.37411544449E+03  0.18919556971E+03 -0.13267564022E+03  0.43972736429E+03  0.00000000000E+00 0.  1.
<mgrwt>
<rscale>  0 0.23103766E+04</rscale>
<asrwt>0</asrwt>
<pdfrwt beam="1">  1        2 0.19839946E+00 0.23103766E+04</pdfrwt>
<pdfrwt beam="2">  1       -1 0.15919827E+00 0.23103766E+04</pdfrwt>
<totfact> 0.51294836E+00</totfact>
</mgrwt>
</event>
<event>
12    7  0.1606355E-007  0.2074400E+04  0.7818608E-02  0.8572605E-01
          2   -1    0    0  501    0  0.00000000000E+00  0.00000000000E+00  0.27992016021E+04  0.27992016021E+04  0.00000000000E+00 0. -1.
         -1   -1    0    0    0  501 -0.00000000000E+00 -0.00000000000E+00 -0.38431795848E+03  0.38431795848E+03  0.00000000000E+00 0.  1.
         24    2    1    2    0    0 -0.38747511172E+03  0.61687884047E+03  0.34759346909E+03  0.81103299534E+03  0.79226471316E+02 0.  0.
        254    2    1    2    0    0  0.38747511172E+03 -0.61687884047E+03  0.20672901745E+04  0.23724865652E+04  0.90792476037E+03 0.  0.
         23    2    4    4    0    0  0.18659072996E+03 -0.52816512804E+03  0.41426606225E+03  0.70247413195E+03  0.89883439712E+02 0.  0.
         23    2    4    4    0    0  0.20088438176E+03 -0.88713712428E+02  0.16530241123E+04  0.16700124333E+04  0.90709172328E+02 0.  0.
          2    1    3    3  502    0 -0.15217079072E+02  0.50616904951E+01  0.12574407535E+02  0.20378810834E+02  0.00000000000E+00 0. -1.
         -1    1    3    3    0  502 -0.37225803265E+03  0.61181714998E+03  0.33501906155E+03  0.79065418451E+03  0.00000000000E+00 0.  1.
         13    1    5    5    0    0  0.17399040709E+03 -0.45420423616E+03  0.39057123105E+03  0.62379486727E+03  0.00000000000E+00 0.  1.
        -13    1    5    5    0    0  0.12600322866E+02 -0.73960891889E+02  0.23694831198E+02  0.78679264681E+02  0.00000000000E+00 0. -1.
          3    1    6    6  503    0  0.11141365363E+03 -0.96840420939E+02  0.99948712191E+03  0.10103294394E+04  0.00000000000E+00 0. -1.
         -3    1    6    6    0  503  0.89470728133E+02  0.81267085110E+01  0.65353699038E+03  0.65968299385E+03  0.00000000000E+00 0.  1.
<mgrwt>
<rscale>  0 0.20743996E+04</rscale>
<asrwt>0</asrwt>
<pdfrwt beam="1">  1        2 0.43064639E+00 0.20743996E+04</pdfrwt>
<pdfrwt beam="2">  1       -1 0.59125842E-01 0.20743996E+04</pdfrwt>
<totfact> 0.70631485E+00</totfact>
</mgrwt>
</event>
<event>
12    7  0.1606355E-007  0.4505046E+04  0.7818608E-02  0.7909754E-01
          2   -1    0    0  501    0  0.00000000000E+00  0.00000000000E+00  0.27687009174E+04  0.27687009174E+04  0.00000000000E+00 0. -1.
         -1   -1    0    0    0  501 -0.00000000000E+00 -0.00000000000E+00 -0.18325781893E+04  0.18325781893E+04  0.00000000000E+00 0.  1.
         24    2    1    2    0    0 -0.68490028511E+02  0.21020958199E+04 -0.64851149141E+02  0.21058613703E+04  0.83358980727E+02 0.  0.
        254    2    1    2    0    0  0.68490028511E+02 -0.21020958199E+04  0.10009738772E+04  0.24954177363E+04  0.89535649669E+03 0.  0.
         23    2    4    4    0    0  0.35954925688E+03 -0.14005347542E+04  0.94239052886E+03  0.17282972999E+04  0.90212981288E+02 0.  0.
         23    2    4    4    0    0 -0.29105922837E+03 -0.70156106567E+03  0.58583348299E+02  0.76712043648E+03  0.90212815488E+02 0.  0.
          2    1    3    3  502    0 -0.44013560816E+02  0.16773956373E+04 -0.83485152726E+02  0.16800485375E+04  0.00000000000E+00 0. -1.
         -1    1    3    3    0  502 -0.24476467694E+02  0.42470018256E+03  0.18634003586E+02  0.42581283286E+03  0.00000000000E+00 0.  1.
         13    1    5    5    0    0  0.43788328037E+01 -0.39178632047E+02  0.43639381847E+02  0.58809310774E+02  0.00000000000E+00 0.  1.
        -13    1    5    5    0    0  0.35517042407E+03 -0.13613561221E+04  0.89875114702E+03  0.16694879891E+04  0.00000000000E+00 0. -1.
          2    1    6    6  503    0 -0.22334033842E+03 -0.60765666119E+03  0.31205423240E+02  0.64815222217E+03  0.00000000000E+00 0. -1.
         -2    1    6    6    0  503 -0.67718889942E+02 -0.93904404477E+02  0.27377925059E+02  0.11896821431E+03  0.00000000000E+00 0.  1.
<mgrwt>
<rscale>  0 0.45050465E+04</rscale>
<asrwt>0</asrwt>
<pdfrwt beam="1">  1        2 0.42595399E+00 0.45050465E+04</pdfrwt>
<pdfrwt beam="2">  1       -1 0.28193511E+00 0.45050465E+04</pdfrwt>
<totfact> 0.89887973E-02</totfact>
</mgrwt>
</event>
<event>
12    7  0.1606355E-007  0.1938153E+04  0.7818608E-02  0.8636095E-01
         -1   -1    0    0    0  501 -0.00000000000E+00  0.00000000000E+00  0.35863997752E+03  0.35863997752E+03  0.00000000000E+00 0.  1.
          2   -1    0    0  501    0  0.00000000000E+00 -0.00000000000E+00 -0.26185297079E+04  0.26185297079E+04  0.00000000000E+00 0. -1.
         24    2    1    2    0    0  0.11620505197E+03  0.73564216198E+03 -0.98184313145E+03  0.12348614093E+04  0.78700450348E+02 0.  0.
        254    2    1    2    0    0 -0.11620505197E+03 -0.73564216198E+03 -0.12780465989E+04  0.17423082761E+04  0.92063131343E+03 0.  0.
         23    2    4    4    0    0  0.23361725283E+03 -0.94889217048E+02 -0.85036037886E+03  0.89136223553E+03  0.88503540426E+02 0.  0.
         23    2    4    4    0    0 -0.34982230480E+03 -0.64075294494E+03 -0.42768622003E+03  0.85094604052E+03  0.90849764401E+02 0.  0.
          4    1    3    3  502    0  0.85122855514E+02  0.66864462324E+03 -0.86462033504E+03  0.10963119339E+04  0.00000000000E+00 0. -1.
         -3    1    3    3    0  502  0.31082196460E+02  0.66997538740E+02 -0.11722279642E+03  0.13854947540E+03  0.00000000000E+00 0.  1.
         13    1    5    5    0    0 -0.27405237874E+00 -0.10274212000E+02 -0.79317572749E+01  0.12982577187E+02  0.00000000000E+00 0. -1.
        -13    1    5    5    0    0  0.23389130521E+03 -0.84615005047E+02 -0.84242862159E+03  0.87837965835E+03  0.00000000000E+00 0.  1.
          4    1    6    6  503    0 -0.18198016423E+01 -0.50377614999E+01 -0.17246878240E+02  0.18059499660E+02  0.00000000000E+00 0. -1.
         -4    1    6    6    0  503 -0.34800250316E+03 -0.63571518344E+03 -0.41043934179E+03  0.83288654086E+03  0.00000000000E+00 0.  1.
<mgrwt>
<rscale>  0 0.19381532E+04</rscale>
<asrwt>0</asrwt>
<pdfrwt beam="1">  1        2 0.40285073E+00 0.19381532E+04</pdfrwt>
<pdfrwt beam="2">  1       -1 0.55175381E-01 0.19381532E+04</pdfrwt>
<totfact> 0.10485815E+01</totfact>
</mgrwt>
</event>
<event>
12    7  0.1606355E-007  0.1383173E+04  0.7818608E-02  0.8966089E-01
         -1   -1    0    0    0  501 -0.00000000000E+00  0.00000000000E+00  0.48392872563E+03  0.48392872563E+03  0.00000000000E+00 0.  1.
          2   -1    0    0  501    0  0.00000000000E+00 -0.00000000000E+00 -0.98835235954E+03  0.98835235954E+03  0.00000000000E+00 0. -1.
         24    2    1    2    0    0 -0.44615242372E+02  0.14920055217E+03  0.23493686183E+03  0.29294620592E+03  0.79817453593E+02 0.  0.
        254    2    1    2    0    0  0.44615242372E+02 -0.14920055217E+03 -0.73936049573E+03  0.11793348792E+04  0.90549737169E+03 0.  0.
         23    2    4    4    0    0 -0.11345127647E+03 -0.33701237299E+03 -0.82582099676E+03  0.90372455586E+03  0.91045167381E+02 0.  0.
         23    2    4    4    0    0  0.15806651884E+03  0.18781182082E+03  0.86460501023E+02  0.27561032338E+03  0.90704617847E+02 0.  0.
          4    1    3    3  502    0 -0.25278099073E+02  0.42213494219E+02  0.22078446511E+02  0.53929761609E+02  0.00000000000E+00 0. -1.
         -3    1    3    3    0  502 -0.19337143299E+02  0.10698705795E+03  0.21285841531E+03  0.23901644431E+03  0.00000000000E+00 0.  1.
         13    1    5    5    0    0 -0.11713043098E+02  0.13074426130E+01 -0.48096180905E+02  0.49519161972E+02  0.00000000000E+00 0.  1.
        -13    1    5    5    0    0 -0.10173823337E+03 -0.33831981560E+03 -0.77772481585E+03  0.85420539389E+03  0.00000000000E+00 0. -1.
          2    1    6    6  503    0 -0.93643216796E+01  0.29878971460E+02  0.14087437637E+02  0.34335103832E+02  0.00000000000E+00 0.  1.
         -2    1    6    6    0  503  0.16743084052E+03  0.15793284936E+03  0.72373063386E+02  0.24127521955E+03  0.00000000000E+00 0. -1.
<mgrwt>
<rscale>  0 0.13831733E+04</rscale>
<asrwt>0</asrwt>
<pdfrwt beam="1">  1        2 0.15205421E+00 0.13831733E+04</pdfrwt>
<pdfrwt beam="2">  1       -1 0.74450574E-01 0.13831733E+04</pdfrwt>
<totfact> 0.51745535E+01</totfact>
</mgrwt>
</event>
<event>
12    7  0.1606355E-007  0.1334140E+04  0.7818608E-02  0.9002921E-01
          2   -1    0    0  501    0  0.00000000000E+00  0.00000000000E+00  0.74516916973E+03  0.74516916973E+03  0.00000000000E+00 0. -1.
         -1   -1    0    0    0  501 -0.00000000000E+00 -0.00000000000E+00 -0.59715623924E+03  0.59715623924E+03  0.00000000000E+00 0.  1.
         24    2    1    2    0    0  0.29259408074E+03  0.17393143029E+03  0.14988285997E+03  0.37981726526E+03  0.77024961837E+02 0.  0.
        254    2    1    2    0    0 -0.29259408074E+03 -0.17393143029E+03 -0.18699294816E+01  0.96250814371E+03  0.90030827584E+03 0.  0.
         23    2    4    4    0    0 -0.54045442808E+03 -0.33604872126E+03  0.63318107561E+02  0.64598049550E+03  0.90894916917E+02 0.  0.
         23    2    4    4    0    0  0.24786034734E+03  0.16211729098E+03 -0.65188037042E+02  0.31652764821E+03  0.90683538158E+02 0.  0.
          4    1    3    3  502    0  0.27075297952E+03  0.18111181327E+03  0.14354289363E+03  0.35596801421E+03  0.00000000000E+00 0. -1.
         -3    1    3    3    0  502  0.21841101220E+02 -0.71803829872E+01  0.63399663458E+01  0.23849251049E+02  0.00000000000E+00 0.  1.
         13    1    5    5    0    0 -0.19415548420E+03 -0.15601664761E+03  0.57558385840E+02  0.25563746626E+03  0.00000000000E+00 0.  1.
        -13    1    5    5    0    0 -0.34629894388E+03 -0.18003207365E+03  0.57597217204E+01  0.39034302923E+03  0.00000000000E+00 0. -1.
          2    1    6    6  503    0  0.20914276360E+03  0.16838684094E+03 -0.68683676905E+02  0.27715026834E+03  0.00000000000E+00 0. -1.
         -2    1    6    6    0  503  0.38717583738E+02 -0.62695499670E+01  0.34956398627E+01  0.39377379869E+02  0.00000000000E+00 0.  1.
<mgrwt>
<rscale>  0 0.13341401E+04</rscale>
<asrwt>0</asrwt>
<pdfrwt beam="1">  1        2 0.11464141E+00 0.13341401E+04</pdfrwt>
<pdfrwt beam="2">  1       -1 0.91870191E-01 0.13341401E+04</pdfrwt>
<totfact> 0.48758844E+01</totfact>
</mgrwt>
</event>
<event>
12    7  0.1606355E-007  0.1964141E+04  0.7818608E-02  0.8623572E-01
          2   -1    0    0  501    0  0.00000000000E+00  0.00000000000E+00  0.16252222186E+04  0.16252222186E+04  0.00000000000E+00 0. -1.
         -1   -1    0    0    0  501 -0.00000000000E+00 -0.00000000000E+00 -0.59343419531E+03  0.59343419531E+03  0.00000000000E+00 0.  1.
         24    2    1    2    0    0 -0.34571812899E+03  0.68483666695E+03  0.34506513512E+03  0.84494098439E+03  0.79580365169E+02 0.  0.
        254    2    1    2    0    0  0.34571812899E+03 -0.68483666695E+03  0.68672288815E+03  0.13737154295E+04  0.90938631561E+03 0.  0.
         23    2    4    4    0    0  0.34690445766E+03 -0.89227561911E+03  0.54045569250E+03  0.11036005013E+04  0.96660373116E+02 0.  0.
         23    2    4    4    0    0 -0.11863286678E+01  0.20743895216E+03  0.14626719565E+03  0.27011492819E+03  0.92388612168E+02 0.  0.
          2    1    3    3  502    0 -0.23297732937E+03  0.43279749451E+03  0.25987414109E+03  0.55599161546E+03  0.00000000000E+00 0. -1.
         -1    1    3    3    0  502 -0.11274079962E+03  0.25203917244E+03  0.85190994031E+02  0.28894936893E+03  0.00000000000E+00 0.  1.
         13    1    5    5    0    0  0.27538450704E+02 -0.17316901941E+03  0.10168673335E+03  0.20269698392E+03  0.00000000000E+00 0.  1.
        -13    1    5    5    0    0  0.31936600696E+03 -0.71910659970E+03  0.43876895914E+03  0.90090351738E+03  0.00000000000E+00 0. -1.
          2    1    6    6  503    0  0.13937468366E+02  0.17142700403E+03  0.15333787670E+03  0.23042129929E+03  0.00000000000E+00 0. -1.
         -2    1    6    6    0  503 -0.15123797034E+02  0.36011948127E+02 -0.70706810487E+01  0.39693628899E+02  0.00000000000E+00 0.  1.
<mgrwt>
<rscale>  0 0.19641410E+04</rscale>
<asrwt>0</asrwt>
<pdfrwt beam="1">  1        2 0.25003419E+00 0.19641410E+04</pdfrwt>
<pdfrwt beam="2">  1       -1 0.91297569E-01 0.19641410E+04</pdfrwt>
<totfact> 0.13408340E+01</totfact>
</mgrwt>
</event>
<event>
12    7  0.1606355E-007  0.2271301E+04  0.7818608E-02  0.8489323E-01
         -1   -1    0    0    0  501 -0.00000000000E+00  0.00000000000E+00  0.61789453092E+03  0.61789453092E+03  0.00000000000E+00 0.  1.
          2   -1    0    0  501    0  0.00000000000E+00 -0.00000000000E+00 -0.20872529728E+04  0.20872529728E+04  0.00000000000E+00 0. -1.
         24    2    1    2    0    0 -0.66687273930E+02  0.18862710064E+03 -0.17318732079E+04  0.17451436794E+04  0.78193848602E+02 0.  0.
        254    2    1    2    0    0  0.66687273930E+02 -0.18862710064E+03  0.26251476600E+03  0.96000382432E+03  0.90147987484E+03 0.  0.
         23    2    4    4    0    0 -0.39077723345E+03  0.13796371969E+01  0.29692553648E+02  0.40501836053E+03  0.10222267383E+03 0.  0.
         23    2    4    4    0    0  0.45746450738E+03 -0.19000673784E+03  0.23282221235E+03  0.55498546379E+03  0.91795133417E+02 0.  0.
          4    1    3    3  502    0 -0.24945854129E+02  0.15088273694E+03 -0.10686632880E+04  0.10795504245E+04  0.00000000000E+00 0. -1.
         -3    1    3    3    0  502 -0.41741419801E+02  0.37744363696E+02 -0.66320991989E+03  0.66559325489E+03  0.00000000000E+00 0.  1.
         13    1    5    5    0    0 -0.27304137214E+03  0.45868774647E+02  0.34847382499E+02  0.27905174332E+03  0.00000000000E+00 0. -1.
        -13    1    5    5    0    0 -0.11773586131E+03 -0.44489137450E+02 -0.51548288508E+01  0.12596661721E+03  0.00000000000E+00 0.  1.
          1    1    6    6  503    0  0.13537037391E+03 -0.84666295177E+02  0.11273441161E+03  0.19545477030E+03  0.00000000000E+00 0. -1.
         -1    1    6    6    0  503  0.32209413347E+03 -0.10534044266E+03  0.12008780074E+03  0.35953069349E+03  0.00000000000E+00 0.  1.
<mgrwt>
<rscale>  0 0.22713011E+04</rscale>
<asrwt>0</asrwt>
<pdfrwt beam="1">  1        2 0.32111584E+00 0.22713011E+04</pdfrwt>
<pdfrwt beam="2">  1       -1 0.95060698E-01 0.22713011E+04</pdfrwt>
<totfact> 0.66042707E+00</totfact>
</mgrwt>
</event>
<event>
12    7  0.1606355E-007  0.1344390E+04  0.7818608E-02  0.8995085E-01
         -1   -1    0    0    0  501 -0.00000000000E+00  0.00000000000E+00  0.20147367792E+03  0.20147367792E+03  0.00000000000E+00 0.  1.
          2   -1    0    0  501    0  0.00000000000E+00 -0.00000000000E+00 -0.22427066725E+04  0.22427066725E+04  0.00000000000E+00 0. -1.
         24    2    1    2    0    0 -0.18131576060E+02 -0.32836199459E+03 -0.30091844213E+03  0.45349186724E+03  0.83382320046E+02 0.  0.
        254    2    1    2    0    0  0.18131576060E+02  0.32836199459E+03 -0.17403145524E+04  0.19906884831E+04  0.90884296885E+03 0.  0.
         23    2    4    4    0    0  0.42093364888E+03  0.34548950481E+03 -0.95452685143E+03  0.11026469210E+04  0.90335970098E+02 0.  0.
         23    2    4    4    0    0 -0.40280207282E+03 -0.17127510217E+02 -0.78578770098E+03  0.88804156218E+03  0.92804330108E+02 0.  0.
          4    1    3    3  502    0  0.11983107727E+02 -0.18577187049E+03 -0.21468153651E+03  0.28415303070E+03  0.00000000000E+00 0. -1.
         -3    1    3    3    0  502 -0.30114683787E+02 -0.14259012410E+03 -0.86236905619E+02  0.16933883654E+03  0.00000000000E+00 0.  1.
         13    1    5    5    0    0  0.34645061910E+02  0.34510945189E+02 -0.14786731739E+03  0.15574347243E+03  0.00000000000E+00 0. -1.
        -13    1    5    5    0    0  0.38628858696E+03  0.31097855962E+03 -0.80665953404E+03  0.94690344852E+03  0.00000000000E+00 0.  1.
          2    1    6    6  503    0 -0.14418916875E+03 -0.50869828808E+02 -0.29254384987E+03  0.33009113887E+03  0.00000000000E+00 0. -1.
         -2    1    6    6    0  503 -0.25861290407E+03  0.33742318592E+02 -0.49324385111E+03  0.55795042331E+03  0.00000000000E+00 0.  1.
<mgrwt>
<rscale>  0 0.13443904E+04</rscale>
<asrwt>0</asrwt>
<pdfrwt beam="1">  1        2 0.34503179E+00 0.13443904E+04</pdfrwt>
<pdfrwt beam="2">  1       -1 0.30995951E-01 0.13443904E+04</pdfrwt>
<totfact> 0.52490999E+01</totfact>
</mgrwt>
</event>
<event>
12    7  0.1687431E-007  0.2245648E+04  0.7818608E-02  0.8499665E-01
          2   -1    0    0  501    0  0.00000000000E+00  0.00000000000E+00  0.87161008099E+03  0.87161008099E+03  0.00000000000E+00 0. -1.
         -1   -1    0    0    0  501 -0.00000000000E+00 -0.00000000000E+00 -0.14464428801E+04  0.14464428801E+04  0.00000000000E+00 0.  1.
         24    2    1    2    0    0  0.45845071561E+03 -0.31296642324E+03  0.54663100992E+03  0.78316126054E+03  0.80069084454E+02 0.  0.
        254    2    1    2    0    0 -0.45845071561E+03  0.31296642324E+03 -0.11214638090E+04  0.15348917006E+04  0.88886805362E+03 0.  0.
         23    2    4    4    0    0 -0.26697477438E+03  0.58172042234E+03 -0.95751950689E+03  0.11552720109E+04  0.90197744456E+02 0.  0.
         23    2    4    4    0    0 -0.19147594123E+03 -0.26875399910E+03 -0.16394430216E+03  0.37961968970E+03  0.91332505145E+02 0.  0.
          4    1    3    3  502    0  0.45368466532E+03 -0.29248766818E+03  0.52717481351E+03  0.75451447673E+03  0.00000000000E+00 0. -1.
         -3    1    3    3    0  502  0.47660502849E+01 -0.20478755063E+02  0.19456196409E+02  0.28646783815E+02  0.00000000000E+00 0.  1.
         13    1    5    5    0    0 -0.25168146761E+03  0.54344284531E+03 -0.92838622589E+03  0.11047962127E+04  0.00000000000E+00 0. -1.
        -13    1    5    5    0    0 -0.15293306765E+02  0.38277577031E+02 -0.29133280994E+02  0.50475798128E+02  0.00000000000E+00 0.  1.
          3    1    6    6  503    0 -0.18938248574E+03 -0.27606969671E+03 -0.16021042011E+03  0.37114361380E+03  0.00000000000E+00 0. -1.
         -3    1    6    6    0  503 -0.20934554857E+01  0.73156976186E+01 -0.37338820537E+01  0.84760759027E+01  0.00000000000E+00 0.  1.
<mgrwt>
<rscale>  0 0.22456484E+04</rscale>
<asrwt>0</asrwt>
<pdfrwt beam="1">  1        2 0.13409386E+00 0.22456484E+04</pdfrwt>
<pdfrwt beam="2">  1       -1 0.22252967E+00 0.22456484E+04</pdfrwt>
<totfact> 0.33708286E+00</totfact>
</mgrwt>
</event>
<event>
12    7  0.1606355E-007  0.1326040E+04  0.7818608E-02  0.9009166E-01
         -1   -1    0    0    0  501 -0.00000000000E+00  0.00000000000E+00  0.12587260613E+04  0.12587260613E+04  0.00000000000E+00 0.  1.
          2   -1    0    0  501    0  0.00000000000E+00 -0.00000000000E+00 -0.34923861531E+03  0.34923861531E+03  0.00000000000E+00 0. -1.
         24    2    1    2    0    0  0.14759651497E+03 -0.24139024513E+03  0.50053868818E+03  0.58054293796E+03  0.80231806501E+02 0.  0.
        254    2    1    2    0    0 -0.14759651497E+03  0.24139024513E+03  0.40894875777E+03  0.10274217386E+04  0.89905637244E+03 0.  0.
         23    2    4    4    0    0 -0.35347434872E+03 -0.11434912934E+03  0.46442778179E+03  0.60187643806E+03  0.92424258809E+02 0.  0.
         23    2    4    4    0    0  0.20587783375E+03  0.35573937447E+03 -0.55479024010E+02  0.42554530055E+03  0.95261197442E+02 0.  0.
          4    1    3    3  502    0  0.62681089002E+01  0.39713874967E+01  0.28603507643E+01  0.79525288008E+01  0.00000000000E+00 0. -1.
         -1    1    3    3    0  502  0.14132840607E+03 -0.24536163263E+03  0.49767833742E+03  0.57259040916E+03  0.00000000000E+00 0.  1.
         13    1    5    5    0    0 -0.33138063202E+03 -0.12809040392E+03  0.44488804720E+03  0.56933790441E+03  0.00000000000E+00 0.  1.
        -13    1    5    5    0    0 -0.22093716700E+02  0.13741274579E+02  0.19539734583E+02  0.32538533653E+02  0.00000000000E+00 0. -1.
          3    1    6    6  503    0 -0.25717584264E+01 -0.27043482938E+01  0.52835744043E+01  0.64686628899E+01  0.00000000000E+00 0. -1.
         -3    1    6    6    0  503  0.20844959218E+03  0.35844372277E+03 -0.60762598414E+02  0.41907663766E+03  0.00000000000E+00 0.  1.
<mgrwt>
<rscale>  0 0.13260403E+04</rscale>
<asrwt>0</asrwt>
<pdfrwt beam="1">  1        2 0.53729018E-01 0.13260403E+04</pdfrwt>
<pdfrwt beam="2">  1       -1 0.19365016E+00 0.13260403E+04</pdfrwt>
<totfact> 0.17286636E+01</totfact>
</mgrwt>
</event>
<event>
12    7  0.1606355E-007  0.1460103E+04  0.7818608E-02  0.8911426E-01
          2   -1    0    0  501    0  0.00000000000E+00  0.00000000000E+00  0.15109818387E+04  0.15109818387E+04  0.00000000000E+00 0. -1.
         -1   -1    0    0    0  501 -0.00000000000E+00 -0.00000000000E+00 -0.35273412643E+03  0.35273412643E+03  0.00000000000E+00 0.  1.
         24    2    1    2    0    0  0.20534272856E+03 -0.11675939212E+03  0.84254962448E+03  0.87869601029E+03  0.80115023317E+02 0.  0.
        254    2    1    2    0    0 -0.20534272856E+03  0.11675939212E+03  0.31569808779E+03  0.98501995485E+03  0.90266308056E+03 0.  0.
         23    2    4    4    0    0 -0.18546528516E+03 -0.37582883621E+03  0.10791879807E+03  0.44235837222E+03  0.91595722433E+02 0.  0.
         23    2    4    4    0    0 -0.19877443404E+02  0.49258822833E+03  0.20777928973E+03  0.54266158263E+03  0.90945503346E+02 0.  0.
          2    1    3    3  502    0  0.20136934895E+03 -0.11175544068E+03  0.84121221491E+03  0.87216792176E+03  0.00000000000E+00 0. -1.
         -1    1    3    3    0  502  0.39733796109E+01 -0.50039514402E+01  0.13374095681E+01  0.65280885335E+01  0.00000000000E+00 0.  1.
         13    1    5    5    0    0 -0.19288069840E+03 -0.32792039734E+03  0.98295619533E+02  0.39293355625E+03  0.00000000000E+00 0. -1.
        -13    1    5    5    0    0  0.74154132396E+01 -0.47908438870E+02  0.96231785347E+01  0.49424815969E+02  0.00000000000E+00 0.  1.
          1    1    6    6  503    0 -0.15007368543E+02  0.43643360353E+03  0.21334850939E+03  0.48602170513E+03  0.00000000000E+00 0. -1.
         -1    1    6    6    0  503 -0.48700748604E+01  0.56154624804E+02 -0.55692196603E+01  0.56639877504E+02  0.00000000000E+00 0.  1.
<mgrwt>
<rscale>  0 0.14601025E+04</rscale>
<asrwt>0</asrwt>
<pdfrwt beam="1">  1        2 0.23245874E+00 0.14601025E+04</pdfrwt>
<pdfrwt beam="2">  1       -1 0.54266789E-01 0.14601025E+04</pdfrwt>
<totfact> 0.47381442E+01</totfact>
</mgrwt>
</event>
<event>
12    7  0.1606355E-007  0.1929226E+04  0.7818608E-02  0.8640444E-01
         -1   -1    0    0    0  501 -0.00000000000E+00  0.00000000000E+00  0.37848642649E+03  0.37848642649E+03  0.00000000000E+00 0.  1.
          2   -1    0    0  501    0  0.00000000000E+00 -0.00000000000E+00 -0.24584197767E+04  0.24584197767E+04  0.00000000000E+00 0. -1.
         24    2    1    2    0    0 -0.65011786081E+02 -0.53257468424E+03 -0.15160401287E+04  0.16100961535E+04  0.78546960621E+02 0.  0.
        254    2    1    2    0    0  0.65011786081E+02  0.53257468424E+03 -0.56389322151E+03  0.12268100497E+04  0.94827475246E+03 0.  0.
         23    2    4    4    0    0 -0.31239092022E+03  0.58769399023E+03 -0.48026556637E+03  0.82599329740E+03  0.92938689048E+02 0.  0.
         23    2    4    4    0    0  0.37740270630E+03 -0.55119305992E+02 -0.83627655136E+02  0.40081675230E+03  0.90496097175E+02 0.  0.
          4    1    3    3  502    0 -0.16486331643E+02 -0.40907847646E+03 -0.11609721896E+04  0.12310456628E+04  0.00000000000E+00 0. -1.
         -3    1    3    3    0  502 -0.48525454438E+02 -0.12349620778E+03 -0.35506793913E+03  0.37905049065E+03  0.00000000000E+00 0.  1.
         13    1    5    5    0    0 -0.28269716024E+02  0.93321810301E+02 -0.39118646636E+02  0.10506381697E+03  0.00000000000E+00 0. -1.
        -13    1    5    5    0    0 -0.28412120419E+03  0.49437217993E+03 -0.44114691974E+03  0.72092948043E+03  0.00000000000E+00 0.  1.
          1    1    6    6  503    0  0.18013512577E+02 -0.18004136970E+02  0.10354580005E+02  0.27492779242E+02  0.00000000000E+00 0. -1.
         -1    1    6    6    0  503  0.35938919372E+03 -0.37115169022E+02 -0.93982235141E+02  0.37332397305E+03  0.00000000000E+00 0.  1.
<mgrwt>
<rscale>  0 0.19292263E+04</rscale>
<asrwt>0</asrwt>
<pdfrwt beam="1">  1        2 0.37821842E+00 0.19292263E+04</pdfrwt>
<pdfrwt beam="2">  1       -1 0.58228682E-01 0.19292263E+04</pdfrwt>
<totfact> 0.11703485E+01</totfact>
</mgrwt>
</event>
<event>
12    7  0.1606355E-007  0.1257276E+04  0.7818608E-02  0.9064149E-01
         -1   -1    0    0    0  501 -0.00000000000E+00  0.00000000000E+00  0.31357109119E+03  0.31357109119E+03  0.00000000000E+00 0.  1.
          2   -1    0    0  501    0  0.00000000000E+00 -0.00000000000E+00 -0.12602755849E+04  0.12602755849E+04  0.00000000000E+00 0. -1.
         24    2    1    2    0    0  0.77482063899E+02 -0.87073650790E+02  0.99019879384E+02  0.17326737897E+03  0.81433145676E+02 0.  0.
        254    2    1    2    0    0 -0.77482063899E+02  0.87073650790E+02 -0.10457243731E+04  0.14005792971E+04  0.92439040029E+03 0.  0.
         23    2    4    4    0    0 -0.70123574366E+01 -0.28292782020E+03 -0.95748606345E+03  0.10025617922E+04  0.90847459320E+02 0.  0.
         23    2    4    4    0    0 -0.70469706463E+02  0.37000147099E+03 -0.88238309648E+02  0.39801750493E+03  0.93620867758E+02 0.  0.
          4    1    3    3  502    0  0.72914099186E+01 -0.11518394727E+02 -0.14497477506E+02  0.19900123862E+02  0.00000000000E+00 0. -1.
         -3    1    3    3    0  502  0.70190653981E+02 -0.75555256063E+02  0.11351735689E+03  0.15336725511E+03  0.00000000000E+00 0.  1.
         13    1    5    5    0    0  0.24211241973E+01 -0.16548498626E+03 -0.40233138980E+03  0.43504217007E+03  0.00000000000E+00 0. -1.
        -13    1    5    5    0    0 -0.94334816338E+01 -0.11744283393E+03 -0.55515467365E+03  0.56751962212E+03  0.00000000000E+00 0.  1.
          1    1    6    6  503    0 -0.36768380039E+02  0.15899157499E+03  0.86004834717E+01  0.16341420686E+03  0.00000000000E+00 0. -1.
         -1    1    6    6    0  503 -0.33701326424E+02  0.21100989599E+03 -0.96838793119E+02  0.23460329806E+03  0.00000000000E+00 0.  1.
<mgrwt>
<rscale>  0 0.12572764E+04</rscale>
<asrwt>0</asrwt>
<pdfrwt beam="1">  1        2 0.19388855E+00 0.12572764E+04</pdfrwt>
<pdfrwt beam="2">  1       -1 0.48241707E-01 0.12572764E+04</pdfrwt>
<totfact> 0.83948966E+01</totfact>
</mgrwt>
</event>
<event>
12    7  0.1606355E-007  0.2744360E+04  0.7818608E-02  0.8320754E-01
          2   -1    0    0  501    0  0.00000000000E+00  0.00000000000E+00  0.15065781345E+04  0.15065781345E+04  0.00000000000E+00 0. -1.
         -1   -1    0    0    0  501 -0.00000000000E+00 -0.00000000000E+00 -0.12497712013E+04  0.12497712013E+04  0.00000000000E+00 0.  1.
         24    2    1    2    0    0  0.67047974120E+03 -0.97587212344E+03 -0.19240965677E+03  0.12023390174E+04  0.82025313738E+02 0.  0.
        254    2    1    2    0    0 -0.67047974120E+03  0.97587212344E+03  0.44921658991E+03  0.15540103184E+04  0.90071251823E+03 0.  0.
         23    2    4    4    0    0 -0.19731056720E+03  0.42076713890E+02 -0.21533821273E+03  0.31055877924E+03  0.96820967376E+02 0.  0.
         23    2    4    4    0    0 -0.47316917400E+03  0.93379540955E+03  0.66455480264E+03  0.12434515392E+04  0.93143494145E+02 0.  0.
          2    1    3    3  502    0  0.48916076240E+02 -0.39581880120E+02 -0.13621202835E+02  0.64382023230E+02  0.00000000000E+00 0. -1.
         -1    1    3    3    0  502  0.62156366496E+03 -0.93629024332E+03 -0.17878845393E+03  0.11379569942E+04  0.00000000000E+00 0.  1.
         13    1    5    5    0    0 -0.36584622575E+02  0.46234614698E+02 -0.85715815649E+02  0.10403497132E+03  0.00000000000E+00 0.  1.
        -13    1    5    5    0    0 -0.16072594462E+03 -0.41579008084E+01 -0.12962239708E+03  0.20652380792E+03  0.00000000000E+00 0. -1.
          3    1    6    6  503    0 -0.41150373564E+03  0.86902066365E+03  0.60643921177E+03  0.11367940692E+04  0.00000000000E+00 0. -1.
         -3    1    6    6    0  503 -0.61665438362E+02  0.64774745894E+02  0.58115590864E+02  0.10665746995E+03  0.00000000000E+00 0.  1.
<mgrwt>
<rscale>  0 0.27443600E+04</rscale>
<asrwt>0</asrwt>
<pdfrwt beam="1">  1        2 0.23178125E+00 0.27443600E+04</pdfrwt>
<pdfrwt beam="2">  1       -1 0.19227249E+00 0.27443600E+04</pdfrwt>
<totfact> 0.21340725E+00</totfact>
</mgrwt>
</event>
<event>
12    7  0.1606355E-007  0.1394407E+04  0.7818608E-02  0.8957877E-01
          2   -1    0    0  501    0  0.00000000000E+00  0.00000000000E+00  0.18458217628E+04  0.18458217628E+04  0.00000000000E+00 0. -1.
         -1   -1    0    0    0  501 -0.00000000000E+00 -0.00000000000E+00 -0.26334761269E+03  0.26334761269E+03  0.00000000000E+00 0.  1.
         24    2    1    2    0    0  0.19462503796E+03  0.21855256781E+01 -0.63841746992E+02  0.22313599960E+03  0.88488551428E+02 0.  0.
        254    2    1    2    0    0 -0.19462503796E+03 -0.21855256781E+01  0.16463158971E+04  0.18860333759E+04  0.89937877448E+03 0.  0.
         23    2    4    4    0    0 -0.23035107702E+03 -0.19616489032E+03  0.16368696730E+04  0.16670926171E+04  0.91176666807E+02 0.  0.
         23    2    4    4    0    0  0.35726039060E+02  0.19397936465E+03  0.94462240997E+01  0.21894075883E+03  0.94559404350E+02 0.  0.
          4    1    3    3  502    0  0.13182104089E+03 -0.38837429770E+02 -0.53239518483E+02  0.14737563944E+03  0.00000000000E+00 0. -1.
         -3    1    3    3    0  502  0.62803997077E+02  0.41022955448E+02 -0.10602228509E+02  0.75760360162E+02  0.00000000000E+00 0.  1.
         13    1    5    5    0    0 -0.41917647940E+02 -0.83416807519E+01  0.12801787173E+03  0.13496387787E+03  0.00000000000E+00 0. -1.
        -13    1    5    5    0    0 -0.18843342908E+03 -0.18782320957E+03  0.15088518013E+04  0.15321287392E+04  0.00000000000E+00 0.  1.
          3    1    6    6  503    0 -0.19552848463E+02  0.11814726381E+03 -0.18158477130E+02  0.12112316096E+03  0.00000000000E+00 0. -1.
         -3    1    6    6    0  503  0.55278887523E+02  0.75832100835E+02  0.27604701230E+02  0.97817597869E+02  0.00000000000E+00 0.  1.
<mgrwt>
<rscale>  0 0.13944070E+04</rscale>
<asrwt>0</asrwt>
<pdfrwt beam="1">  1        2 0.28397257E+00 0.13944070E+04</pdfrwt>
<pdfrwt beam="2">  1       -1 0.40515019E-01 0.13944070E+04</pdfrwt>
<totfact> 0.53714993E+01</totfact>
</mgrwt>
</event>
<event>
12    7  0.1606355E-007  0.2546190E+04  0.7818608E-02  0.8386713E-01
         -1   -1    0    0    0  501 -0.00000000000E+00  0.00000000000E+00  0.70582122690E+03  0.70582122690E+03  0.00000000000E+00 0.  1.
          2   -1    0    0  501    0  0.00000000000E+00 -0.00000000000E+00 -0.22962901764E+04  0.22962901764E+04  0.00000000000E+00 0. -1.
         24    2    1    2    0    0  0.47086854709E+03 -0.88656527558E+03 -0.12771549132E+03  0.10151992713E+04  0.81259690595E+02 0.  0.
        254    2    1    2    0    0 -0.47086854709E+03  0.88656527558E+03 -0.14627534582E+04  0.19869121320E+04  0.89468260531E+03 0.  0.
         23    2    4    4    0    0 -0.12526091392E+03 -0.16742939582E+03 -0.19353881249E+03  0.29876529130E+03  0.89891758281E+02 0.  0.
         23    2    4    4    0    0 -0.34560763316E+03  0.10539946714E+04 -0.12692146457E+04  0.16881468407E+04  0.92652767768E+02 0.  0.
          4    1    3    3  502    0  0.43913411525E+03 -0.85955092978E+03 -0.12672394223E+03  0.97351195658E+03  0.00000000000E+00 0. -1.
         -3    1    3    3    0  502  0.31734431836E+02 -0.27014345798E+02 -0.99154909098E+00  0.41687314767E+02  0.00000000000E+00 0.  1.
         13    1    5    5    0    0 -0.61420007975E+01 -0.56766251304E+02 -0.88082611771E+02  0.10496989072E+03  0.00000000000E+00 0.  1.
        -13    1    5    5    0    0 -0.11911891313E+03 -0.11066314451E+03 -0.10545620072E+03  0.19379540058E+03  0.00000000000E+00 0. -1.
          2    1    6    6  503    0 -0.31583860079E+03  0.10046118608E+04 -0.12253408833E+04  0.16156915834E+04  0.00000000000E+00 0. -1.
         -2    1    6    6    0  503 -0.29769032370E+02  0.49382810590E+02 -0.43873762481E+02  0.72455257257E+02  0.00000000000E+00 0.  1.
<mgrwt>
<rscale>  0 0.25461896E+04</rscale>
<asrwt>0</asrwt>
<pdfrwt beam="1">  1        2 0.35327542E+00 0.25461896E+04</pdfrwt>
<pdfrwt beam="2">  1       -1 0.10858788E+00 0.25461896E+04</pdfrwt>
<totfact> 0.36219588E+00</totfact>
</mgrwt>
</event>
<event>
12    7  0.1606355E-007  0.3174634E+04  0.7818608E-02  0.8195548E-01
          2   -1    0    0  501    0  0.00000000000E+00  0.00000000000E+00  0.27222235920E+04  0.27222235920E+04  0.00000000000E+00 0. -1.
         -1   -1    0    0    0  501 -0.00000000000E+00 -0.00000000000E+00 -0.92555807863E+03  0.92555807863E+03  0.00000000000E+00 0.  1.
         24    2    1    2    0    0 -0.63619223301E+02  0.29275273618E+03  0.24673852769E+04  0.24867895969E+04  0.79880063428E+02 0.  0.
        254    2    1    2    0    0  0.63619223301E+02 -0.29275273618E+03 -0.67071976356E+03  0.11609920737E+04  0.89904728676E+03 0.  0.
         23    2    4    4    0    0 -0.37537550803E+03 -0.23207716082E+03 -0.50973797156E+03  0.68042155109E+03  0.91510146619E+02 0.  0.
         23    2    4    4    0    0  0.43899473133E+03 -0.60675575362E+02 -0.16098179200E+03  0.48057052260E+03  0.92924648295E+02 0.  0.
          4    1    3    3  502    0 -0.12582169664E+02  0.20875107660E+03  0.15200017199E+04  0.15343208764E+04  0.00000000000E+00 0. -1.
         -3    1    3    3    0  502 -0.51037053637E+02  0.84001659584E+02  0.94738355696E+03  0.95246872057E+03  0.00000000000E+00 0.  1.
         13    1    5    5    0    0 -0.49776968891E+02 -0.70367663461E+02 -0.80755704246E+02  0.11811366755E+03  0.00000000000E+00 0. -1.
        -13    1    5    5    0    0 -0.32559853914E+03 -0.16170949736E+03 -0.42898226731E+03  0.56230788354E+03  0.00000000000E+00 0.  1.
          3    1    6    6  503    0  0.19839201818E+03  0.16980740855E+02 -0.56231971945E+02  0.20690522735E+03  0.00000000000E+00 0. -1.
         -3    1    6    6    0  503  0.24060271315E+03 -0.77656316217E+02 -0.10474982005E+03  0.27366529525E+03  0.00000000000E+00 0.  1.
<mgrwt>
<rscale>  0 0.31746345E+04</rscale>
<asrwt>0</asrwt>
<pdfrwt beam="1">  1        2 0.41880363E+00 0.31746345E+04</pdfrwt>
<pdfrwt beam="2">  1       -1 0.14239355E+00 0.31746345E+04</pdfrwt>
<totfact> 0.98951369E-01</totfact>
</mgrwt>
</event>
<event>
12    7  0.1606355E-007  0.1646661E+04  0.7818608E-02  0.8792384E-01
         -1   -1    0    0    0  501 -0.00000000000E+00  0.00000000000E+00  0.65197636677E+03  0.65197636677E+03  0.00000000000E+00 0.  1.
          2   -1    0    0  501    0  0.00000000000E+00 -0.00000000000E+00 -0.10397204531E+04  0.10397204531E+04  0.00000000000E+00 0. -1.
         24    2    1    2    0    0  0.19955522154E+03 -0.40020744310E+03  0.22224629644E+03  0.50586864499E+03  0.80755097339E+02 0.  0.
        254    2    1    2    0    0 -0.19955522154E+03  0.40020744310E+03 -0.60999038273E+03  0.11858281748E+04  0.91329727320E+03 0.  0.
         23    2    4    4    0    0 -0.17267284799E+03  0.54905921583E+03 -0.34140538210E+02  0.58366503435E+03  0.90649661028E+02 0.  0.
         23    2    4    4    0    0 -0.26882373549E+02 -0.14885177273E+03 -0.57584984452E+03  0.60216314048E+03  0.90099345562E+02 0.  0.
          2    1    3    3  502    0  0.15606784201E+03 -0.24562755468E+03  0.16985220250E+03  0.33695672960E+03  0.00000000000E+00 0. -1.
         -1    1    3    3    0  502  0.43487379536E+02 -0.15457988841E+03  0.52394093945E+02  0.16891191539E+03  0.00000000000E+00 0.  1.
         13    1    5    5    0    0 -0.10446300211E+03  0.41825721454E+03 -0.55296930654E+02  0.43463705188E+03  0.00000000000E+00 0. -1.
        -13    1    5    5    0    0 -0.68209845883E+02  0.13080200129E+03  0.21156392444E+02  0.14902798247E+03  0.00000000000E+00 0.  1.
          3    1    6    6  503    0 -0.33523711446E+02 -0.42753761914E+02 -0.32812122279E+03  0.33258872535E+03  0.00000000000E+00 0. -1.
         -3    1    6    6    0  503  0.66413378965E+01 -0.10609801082E+03 -0.24772862173E+03  0.26957441513E+03  0.00000000000E+00 0.  1.
<mgrwt>
<rscale>  0 0.16466611E+04</rscale>
<asrwt>0</asrwt>
<pdfrwt beam="1">  1        2 0.15995699E+00 0.16466611E+04</pdfrwt>
<pdfrwt beam="2">  1       -1 0.10030406E+00 0.16466611E+04</pdfrwt>
<totfact> 0.24519078E+01</totfact>
</mgrwt>
</event>
<event>
12    7  0.1606355E-007  0.1360858E+04  0.7818608E-02  0.8982649E-01
          2   -1    0    0  501    0  0.00000000000E+00  0.00000000000E+00  0.14219365524E+04  0.14219365524E+04  0.00000000000E+00 0. -1.
         -1   -1    0    0    0  501 -0.00000000000E+00 -0.00000000000E+00 -0.32560098495E+03  0.32560098495E+03  0.00000000000E+00 0.  1.
         24    2    1    2    0    0  0.98413388740E+02 -0.11318562477E+03  0.75749842771E+03  0.77614388169E+03  0.78097864068E+02 0.  0.
        254    2    1    2    0    0 -0.98413388740E+02  0.11318562477E+03  0.33883713974E+03  0.97139365566E+03  0.89794144924E+03 0.  0.
         23    2    4    4    0    0 -0.20877914614E+03 -0.12041930866E+03  0.56108235905E+03  0.61823426887E+03  0.96491739566E+02 0.  0.
         23    2    4    4    0    0  0.11036575740E+03  0.23360493343E+03 -0.22224521931E+03  0.35315938679E+03  0.92610742602E+02 0.  0.
          2    1    3    3  502    0  0.63577415946E+02 -0.51133751980E+02  0.56601148655E+03  0.57186165400E+03  0.00000000000E+00 0. -1.
         -1    1    3    3    0  502  0.34835972794E+02 -0.62051872786E+02  0.19148694116E+03  0.20428222769E+03  0.00000000000E+00 0.  1.
         13    1    5    5    0    0 -0.20284750291E+03 -0.92806602670E+02  0.43308273359E+03  0.48715585706E+03  0.00000000000E+00 0.  1.
        -13    1    5    5    0    0 -0.59316432271E+01 -0.27612705992E+02  0.12799962546E+03  0.13107841180E+03  0.00000000000E+00 0. -1.
          4    1    6    6  503    0  0.40834842088E+02  0.14673150818E+02 -0.48961356832E+02  0.65421710051E+02  0.00000000000E+00 0. -1.
         -4    1    6    6    0  503  0.69530915311E+02  0.21893178261E+03 -0.17328386248E+03  0.28773767674E+03  0.00000000000E+00 0.  1.
<mgrwt>
<rscale>  0 0.13608585E+04</rscale>
<asrwt>0</asrwt>
<pdfrwt beam="1">  1        2 0.21875947E+00 0.13608585E+04</pdfrwt>
<pdfrwt beam="2">  1       -1 0.50092460E-01 0.13608585E+04</pdfrwt>
<totfact> 0.62534195E+01</totfact>
</mgrwt>
</event>
<event>
12    7  0.1606355E-007  0.2202295E+04  0.7818608E-02  0.8517474E-01
          2   -1    0    0  501    0  0.00000000000E+00  0.00000000000E+00  0.13799066853E+04  0.13799066853E+04  0.00000000000E+00 0. -1.
         -1   -1    0    0    0  501 -0.00000000000E+00 -0.00000000000E+00 -0.87870118989E+03  0.87870118989E+03  0.00000000000E+00 0.  1.
         24    2    1    2    0    0  0.85860218213E+03  0.14616716833E+03 -0.84575661007E+02  0.87860363469E+03  0.78922469553E+02 0.  0.
        254    2    1    2    0    0 -0.85860218213E+03 -0.14616716833E+03  0.58578115643E+03  0.13800042405E+04  0.89594061876E+03 0.  0.
         23    2    4    4    0    0 -0.88658141375E+03 -0.20079848313E+03  0.75048697630E+03  0.11822098338E+04  0.89681410528E+02 0.  0.
         23    2    4    4    0    0  0.27979231617E+02  0.54631314793E+02 -0.16470581987E+03  0.19779440676E+03  0.90703926545E+02 0.  0.
          4    1    3    3  502    0  0.91535852514E+02  0.38021519291E+02  0.19228519761E+01  0.99137004113E+02  0.00000000000E+00 0. -1.
         -3    1    3    3    0  502  0.76706632961E+03  0.10814564904E+03 -0.86498512984E+02  0.77946663058E+03  0.00000000000E+00 0.  1.
         13    1    5    5    0    0 -0.83370827589E+03 -0.20468824955E+03  0.68712950956E+03  0.10995970770E+04  0.00000000000E+00 0.  1.
        -13    1    5    5    0    0 -0.52873137859E+02  0.38897664296E+01  0.63357466740E+02  0.82612756773E+02  0.00000000000E+00 0. -1.
          2    1    6    6  503    0 -0.23627815334E+02  0.50021229487E+02 -0.64410715734E+02  0.84906639071E+02  0.00000000000E+00 0. -1.
         -2    1    6    6    0  503  0.51607046951E+02  0.46100853055E+01 -0.10029510413E+03  0.11288776769E+03  0.00000000000E+00 0.  1.
<mgrwt>
<rscale>  0 0.22022948E+04</rscale>
<asrwt>0</asrwt>
<pdfrwt beam="1">  1        2 0.21229334E+00 0.22022948E+04</pdfrwt>
<pdfrwt beam="2">  1       -1 0.13518480E+00 0.22022948E+04</pdfrwt>
<totfact> 0.71038024E+00</totfact>
</mgrwt>
</event>
<event>
12    7  0.1606355E-007  0.1257578E+04  0.7818608E-02  0.9063900E-01
          2   -1    0    0  501    0  0.00000000000E+00  0.00000000000E+00  0.86670933262E+03  0.86670933262E+03  0.00000000000E+00 0. -1.
         -1   -1    0    0    0  501 -0.00000000000E+00 -0.00000000000E+00 -0.45618003910E+03  0.45618003910E+03  0.00000000000E+00 0.  1.
         24    2    1    2    0    0  0.24498105365E+03 -0.95388726841E+01  0.27241793658E+03  0.37345395952E+03  0.71760859585E+02 0.  0.
        254    2    1    2    0    0 -0.24498105365E+03  0.95388726841E+01  0.13811135694E+03  0.94943541221E+03  0.90677789359E+03 0.  0.
         23    2    4    4    0    0  0.24244956604E+03  0.66295003858E+02 -0.20991211901E+03  0.33962491862E+03  0.90028706695E+02 0.  0.
         23    2    4    4    0    0 -0.48743061970E+03 -0.56756131174E+02  0.34802347595E+03  0.60981049359E+03  0.99692681938E+02 0.  0.
          4    1    3    3  502    0  0.15454557304E+03  0.20250336466E+02  0.20140683114E+03  0.25467454113E+03  0.00000000000E+00 0. -1.
         -3    1    3    3    0  502  0.90435480611E+02 -0.29789209150E+02  0.71011105442E+02  0.11877941838E+03  0.00000000000E+00 0.  1.
         13    1    5    5    0    0  0.70506193292E+02 -0.20590566841E+02 -0.45880666855E+02  0.86603292815E+02  0.00000000000E+00 0. -1.
        -13    1    5    5    0    0  0.17194337275E+03  0.86885570699E+02 -0.16403145215E+03  0.25302162581E+03  0.00000000000E+00 0.  1.
          2    1    6    6  503    0 -0.37250773336E+03 -0.71925452510E+01  0.28852242949E+03  0.47123129824E+03  0.00000000000E+00 0. -1.
         -2    1    6    6    0  503 -0.11492288634E+03 -0.49563585923E+02  0.59501046459E+02  0.13857919535E+03  0.00000000000E+00 0.  1.
<mgrwt>
<rscale>  0 0.12575778E+04</rscale>
<asrwt>0</asrwt>
<pdfrwt beam="1">  1        2 0.13333990E+00 0.12575778E+04</pdfrwt>
<pdfrwt beam="2">  1       -1 0.70181544E-01 0.12575778E+04</pdfrwt>
<totfact> 0.71169476E+01</totfact>
</mgrwt>
</event>
<event>
12    7  0.1606355E-007  0.2104252E+04  0.7818608E-02  0.8559373E-01
         -1   -1    0    0    0  501 -0.00000000000E+00  0.00000000000E+00  0.42756609993E+03  0.42756609993E+03  0.00000000000E+00 0.  1.
          2   -1    0    0  501    0  0.00000000000E+00 -0.00000000000E+00 -0.25890004550E+04  0.25890004550E+04  0.00000000000E+00 0. -1.
         24    2    1    2    0    0 -0.65219226675E+03  0.35625005364E+03 -0.14999756995E+04  0.16758506565E+04  0.79243108785E+02 0.  0.
        254    2    1    2    0    0  0.65219226675E+03 -0.35625005364E+03 -0.66145865554E+03  0.13407158984E+04  0.89873395045E+03 0.  0.
         23    2    4    4    0    0  0.80572120811E+01 -0.70219204308E+02  0.19472982916E+03  0.22797475624E+03  0.95168943449E+02 0.  0.
         23    2    4    4    0    0  0.64413505467E+03 -0.28603084934E+03 -0.85618848470E+03  0.11127411422E+04  0.91708847363E+02 0.  0.
          4    1    3    3  502    0 -0.64964867651E+03  0.35499149863E+03 -0.15002843828E+04  0.16729959941E+04  0.00000000000E+00 0. -1.
         -3    1    3    3    0  502 -0.25435902319E+01  0.12585550190E+01  0.30868331254E+00  0.28546623953E+01  0.00000000000E+00 0.  1.
         13    1    5    5    0    0  0.14797476715E+02 -0.88742822389E+02  0.11591814632E+03  0.14673537572E+03  0.00000000000E+00 0. -1.
        -13    1    5    5    0    0 -0.67402646341E+01  0.18523618081E+02  0.78811682843E+02  0.81239380517E+02  0.00000000000E+00 0.  1.
          4    1    6    6  503    0  0.46891933358E+03 -0.24876457888E+03 -0.66224683799E+03  0.84872847928E+03  0.00000000000E+00 0. -1.
         -4    1    6    6    0  503  0.17521572108E+03 -0.37266270452E+02 -0.19394164671E+03  0.26401266287E+03  0.00000000000E+00 0.  1.
<mgrwt>
<rscale>  0 0.21042517E+04</rscale>
<asrwt>0</asrwt>
<pdfrwt beam="1">  1        2 0.39830776E+00 0.21042517E+04</pdfrwt>
<pdfrwt beam="2">  1       -1 0.65779400E-01 0.21042517E+04</pdfrwt>
<totfact> 0.75899922E+00</totfact>
</mgrwt>
</event>
<event>
12    7  0.1606355E-007  0.2298685E+04  0.7818608E-02  0.8478440E-01
         -1   -1    0    0    0  501 -0.00000000000E+00  0.00000000000E+00  0.10655686898E+04  0.10655686898E+04  0.00000000000E+00 0.  1.
          2   -1    0    0  501    0  0.00000000000E+00 -0.00000000000E+00 -0.12397022386E+04  0.12397022386E+04  0.00000000000E+00 0. -1.
         24    2    1    2    0    0  0.14679224473E+03  0.78707614137E+03  0.47549751774E+03  0.93439128999E+03  0.77151655842E+02 0.  0.
        254    2    1    2    0    0 -0.14679224473E+03 -0.78707614137E+03 -0.64963106651E+03  0.13708796384E+04  0.90346756712E+03 0.  0.
         23    2    4    4    0    0  0.15997137716E+03 -0.85100791900E+03 -0.39139254117E+03  0.95463616112E+03  0.91305854835E+02 0.  0.
         23    2    4    4    0    0 -0.30676362188E+03  0.63931777625E+02 -0.25823852534E+03  0.41624347723E+03  0.91544002906E+02 0.  0.
          2    1    3    3  502    0  0.35248197180E+02  0.77940612091E+02  0.36961647045E+02  0.93184428795E+02  0.00000000000E+00 0. -1.
         -1    1    3    3    0  502  0.11154404755E+03  0.70913552928E+03  0.43853587069E+03  0.84120686119E+03  0.00000000000E+00 0.  1.
         13    1    5    5    0    0  0.95082226480E+01 -0.10099814875E+03 -0.78043454293E+02  0.12799145716E+03  0.00000000000E+00 0.  1.
        -13    1    5    5    0    0  0.15046315451E+03 -0.75000977025E+03 -0.31334908688E+03  0.82664470396E+03  0.00000000000E+00 0. -1.
          3    1    6    6  503    0 -0.27103638421E+03  0.53518824509E+02 -0.18036247189E+03  0.32993273164E+03  0.00000000000E+00 0. -1.
         -3    1    6    6    0  503 -0.35727237678E+02  0.10412953115E+02 -0.77876053441E+02  0.86310745589E+02  0.00000000000E+00 0.  1.
<mgrwt>
<rscale>  0 0.22986847E+04</rscale>
<asrwt>0</asrwt>
<pdfrwt beam="1">  1        2 0.19072342E+00 0.22986847E+04</pdfrwt>
<pdfrwt beam="2">  1       -1 0.16393365E+00 0.22986847E+04</pdfrwt>
<totfact> 0.50601940E+00</totfact>
</mgrwt>
</event>
<event>
12    7  0.1606355E-007  0.1462575E+04  0.7818608E-02  0.8909729E-01
          2   -1    0    0  501    0  0.00000000000E+00  0.00000000000E+00  0.66284297245E+03  0.66284297245E+03  0.00000000000E+00 0. -1.
         -1   -1    0    0    0  501 -0.00000000000E+00 -0.00000000000E+00 -0.80679988923E+03  0.80679988923E+03  0.00000000000E+00 0.  1.
         24    2    1    2    0    0 -0.10489001869E+03 -0.38660872247E+03  0.16109540600E+03  0.43907679764E+03  0.79802782386E+02 0.  0.
        254    2    1    2    0    0  0.10489001869E+03  0.38660872247E+03 -0.30505232278E+03  0.10305660640E+04  0.89918923059E+03 0.  0.
         23    2    4    4    0    0  0.22753256671E+03  0.63810400988E+03 -0.26350834491E+03  0.73284923696E+03  0.93185620858E+02 0.  0.
         23    2    4    4    0    0 -0.12264254802E+03 -0.25149528741E+03 -0.41543977866E+02  0.29771682708E+03  0.92834976477E+02 0.  0.
          2    1    3    3  502    0 -0.32226750026E+02 -0.47902597529E+02  0.46723183672E+02  0.74271651117E+02  0.00000000000E+00 0. -1.
         -1    1    3    3    0  502 -0.72663268661E+02 -0.33870612495E+03  0.11437222233E+03  0.36480514652E+03  0.00000000000E+00 0.  1.
         13    1    5    5    0    0  0.28052741346E+02  0.14161203727E+03 -0.91042075913E+02  0.17067391418E+03  0.00000000000E+00 0.  1.
        -13    1    5    5    0    0  0.19947982536E+03  0.49649197262E+03 -0.17246626900E+03  0.56217532278E+03  0.00000000000E+00 0. -1.
          2    1    6    6  503    0 -0.24571806354E+01  0.18118312269E+01  0.11908843557E+02  0.12293942571E+02  0.00000000000E+00 0.  1.
         -2    1    6    6    0  503 -0.12018536738E+03 -0.25330711864E+03 -0.53452821424E+02  0.28542288451E+03  0.00000000000E+00 0. -1.
<mgrwt>
<rscale>  0 0.14625753E+04</rscale>
<asrwt>0</asrwt>
<pdfrwt beam="1">  1        2 0.10197584E+00 0.14625753E+04</pdfrwt>
<pdfrwt beam="2">  1       -1 0.12412306E+00 0.14625753E+04</pdfrwt>
<totfact> 0.27669793E+01</totfact>
</mgrwt>
</event>
<event>
12    7  0.1606355E-007  0.1428906E+04  0.7818608E-02  0.8933157E-01
          2   -1    0    0  501    0  0.00000000000E+00  0.00000000000E+00  0.77969483919E+03  0.77969483919E+03  0.00000000000E+00 0. -1.
         -1   -1    0    0    0  501 -0.00000000000E+00 -0.00000000000E+00 -0.65467022211E+03  0.65467022211E+03  0.00000000000E+00 0.  1.
         24    2    1    2    0    0  0.40832086124E+03 -0.94594780214E+02 -0.38855282638E+02  0.42837552278E+03  0.79509479674E+02 0.  0.
        254    2    1    2    0    0 -0.40832086124E+03  0.94594780214E+02  0.16387989973E+03  0.10059895385E+04  0.89971341654E+03 0.  0.
         23    2    4    4    0    0 -0.31532721111E+03 -0.23632600803E+03 -0.23968603643E+03  0.46967608562E+03  0.88684819453E+02 0.  0.
         23    2    4    4    0    0 -0.92993650133E+02  0.33092078824E+03  0.40356593616E+03  0.53631345290E+03  0.81303553883E+02 0.  0.
          4    1    3    3  502    0  0.36107895942E+03 -0.62087690281E+02 -0.16258960291E+02  0.36673866719E+03  0.00000000000E+00 0. -1.
         -3    1    3    3    0  502  0.47241901821E+02 -0.32507089932E+02 -0.22596322347E+02  0.61636855591E+02  0.00000000000E+00 0.  1.
         13    1    5    5    0    0 -0.19135960214E+03 -0.17413133803E+03 -0.11484741436E+03  0.28307269173E+03  0.00000000000E+00 0. -1.
        -13    1    5    5    0    0 -0.12396760897E+03 -0.62194669999E+02 -0.12483862208E+03  0.18660339389E+03  0.00000000000E+00 0.  1.
          3    1    6    6  503    0  0.98617418077E+00 -0.45977094991E+01  0.40870510564E+01  0.62302053330E+01  0.00000000000E+00 0. -1.
         -3    1    6    6    0  503 -0.93979824314E+02  0.33551849774E+03  0.39947888510E+03  0.53008324757E+03  0.00000000000E+00 0.  1.
<mgrwt>
<rscale>  0 0.14289059E+04</rscale>
<asrwt>0</asrwt>
<pdfrwt beam="1">  1        2 0.11995305E+00 0.14289059E+04</pdfrwt>
<pdfrwt beam="2">  1       -1 0.10071850E+00 0.14289059E+04</pdfrwt>
<totfact> 0.37073895E+01</totfact>
</mgrwt>
</event>
<event>
12    7  0.1606355E-007  0.1802777E+04  0.7818608E-02  0.8704824E-01
         -1   -1    0    0    0  501 -0.00000000000E+00  0.00000000000E+00  0.44199111265E+03  0.44199111265E+03  0.00000000000E+00 0.  1.
          2   -1    0    0  501    0  0.00000000000E+00 -0.00000000000E+00 -0.18382747048E+04  0.18382747048E+04  0.00000000000E+00 0. -1.
         24    2    1    2    0    0  0.28967371384E+02 -0.64942015832E+03 -0.65197105475E+03  0.92409039816E+03  0.79316814757E+02 0.  0.
        254    2    1    2    0    0 -0.28967371384E+02  0.64942015832E+03 -0.74431253738E+03  0.13561754193E+04  0.92877605693E+03 0.  0.
         23    2    4    4    0    0 -0.32745716521E+02  0.64751300258E+03 -0.93688351574E+03  0.11432407997E+04  0.94358007399E+02 0.  0.
         23    2    4    4    0    0  0.37783451364E+01  0.19071557412E+01  0.19257097835E+03  0.21293461959E+03  0.90772558527E+02 0.  0.
          4    1    3    3  502    0  0.23206905021E+02 -0.45201665237E+03 -0.50341160430E+03  0.67696444353E+03  0.00000000000E+00 0. -1.
         -3    1    3    3    0  502  0.57604663636E+01 -0.19740350595E+03 -0.14855945045E+03  0.24712595463E+03  0.00000000000E+00 0.  1.
         13    1    5    5    0    0 -0.23123391015E+02  0.11363199196E+03 -0.11639180806E+03  0.16429842906E+03  0.00000000000E+00 0.  1.
        -13    1    5    5    0    0 -0.96223255056E+01  0.53388101062E+03 -0.82049170768E+03  0.97894237063E+03  0.00000000000E+00 0. -1.
          2    1    6    6  503    0 -0.43362255124E+02 -0.52323739424E+00  0.10090558048E+03  0.10982939096E+03  0.00000000000E+00 0. -1.
         -2    1    6    6    0  503  0.47140600260E+02  0.24303931354E+01  0.91665397873E+02  0.10310522863E+03  0.00000000000E+00 0.  1.
<mgrwt>
<rscale>  0 0.18027768E+04</rscale>
<asrwt>0</asrwt>
<pdfrwt beam="1">  1        2 0.28281149E+00 0.18027768E+04</pdfrwt>
<pdfrwt beam="2">  1       -1 0.67998634E-01 0.18027768E+04</pdfrwt>
<totfact> 0.19340232E+01</totfact>
</mgrwt>
</event>
<event>
12    7  0.1606355E-007  0.1582079E+04  0.7818608E-02  0.8831634E-01
         -1   -1    0    0    0  501 -0.00000000000E+00  0.00000000000E+00  0.45495176557E+03  0.45495176557E+03  0.00000000000E+00 0.  1.
          2   -1    0    0  501    0  0.00000000000E+00 -0.00000000000E+00 -0.13754060654E+04  0.13754060654E+04  0.00000000000E+00 0. -1.
         24    2    1    2    0    0 -0.49287423001E+03  0.14134207098E+03 -0.40088669300E+03  0.65570619466E+03  0.79610837588E+02 0.  0.
        254    2    1    2    0    0  0.49287423001E+03 -0.14134207098E+03 -0.51956760686E+03  0.11746516363E+04  0.92030070140E+03 0.  0.
         23    2    4    4    0    0  0.65112647722E+03  0.15702945844E+03 -0.46511039735E+03  0.82058844413E+03  0.91726619669E+02 0.  0.
         23    2    4    4    0    0 -0.15825224721E+03 -0.29837152942E+03 -0.54457209502E+02  0.35406319220E+03  0.91245893519E+02 0.  0.
          4    1    3    3  502    0 -0.13334811237E+03  0.25316888403E+02 -0.14951779085E+03  0.20193621194E+03  0.00000000000E+00 0. -1.
         -1    1    3    3    0  502 -0.35952611763E+03  0.11602518258E+03 -0.25136890215E+03  0.45376998272E+03  0.00000000000E+00 0.  1.
         13    1    5    5    0    0  0.47311868749E+03  0.74753361801E+02 -0.30992334423E+03  0.57051015491E+03  0.00000000000E+00 0.  1.
        -13    1    5    5    0    0  0.17800778973E+03  0.82276096640E+02 -0.15518705312E+03  0.25007828922E+03  0.00000000000E+00 0. -1.
          1    1    6    6  503    0 -0.91490044675E+02 -0.24797911353E+03 -0.56936275139E+02  0.27038085814E+03  0.00000000000E+00 0. -1.
         -1    1    6    6    0  503 -0.66762202534E+02 -0.50392415896E+02  0.24790656368E+01  0.83682334058E+02  0.00000000000E+00 0.  1.
<mgrwt>
<rscale>  0 0.15820789E+04</rscale>
<asrwt>0</asrwt>
<pdfrwt beam="1">  1        2 0.21160093E+00 0.15820789E+04</pdfrwt>
<pdfrwt beam="2">  1       -1 0.69992581E-01 0.15820789E+04</pdfrwt>
<totfact> 0.33764665E+01</totfact>
</mgrwt>
</event>
<event>
12    7  0.1606355E-007  0.3671258E+04  0.7818608E-02  0.8074361E-01
         -1   -1    0    0    0  501 -0.00000000000E+00  0.00000000000E+00  0.94592158167E+03  0.94592158167E+03  0.00000000000E+00 0.  1.
          2   -1    0    0  501    0  0.00000000000E+00 -0.00000000000E+00 -0.35621711296E+04  0.35621711296E+04  0.00000000000E+00 0. -1.
         24    2    1    2    0    0 -0.10239617850E+04 -0.10094458290E+04 -0.61489147227E+02  0.14414367937E+04  0.80501529863E+02 0.  0.
        254    2    1    2    0    0  0.10239617850E+04  0.10094458290E+04 -0.25547604007E+04  0.30666559175E+04  0.90005510543E+03 0.  0.
         23    2    4    4    0    0  0.68668561388E+03  0.10896244240E+03 -0.13603393279E+04  0.15304306365E+04  0.91021424506E+02 0.  0.
         23    2    4    4    0    0  0.33727617111E+03  0.90048338658E+03 -0.11944210728E+04  0.15362252811E+04  0.93385598760E+02 0.  0.
          4    1    3    3  502    0 -0.68983691014E+02 -0.42875918028E+02 -0.80760591093E+01  0.81623015770E+02  0.00000000000E+00 0. -1.
         -3    1    3    3    0  502 -0.95497809398E+03 -0.96656991096E+03 -0.53413088118E+02  0.13598137780E+04  0.00000000000E+00 0.  1.
         13    1    5    5    0    0  0.23814350703E+03 -0.39273612991E+01 -0.43523346957E+03  0.49614103553E+03  0.00000000000E+00 0. -1.
        -13    1    5    5    0    0  0.44854210684E+03  0.11288980370E+03 -0.92510585836E+03  0.10342896009E+04  0.00000000000E+00 0.  1.
          4    1    6    6  503    0  0.31982850444E+03  0.88398772127E+03 -0.11465251824E+04  0.14826478198E+04  0.00000000000E+00 0.  1.
         -4    1    6    6    0  503  0.17447666675E+02  0.16495665311E+02 -0.47895890331E+02  0.53577461279E+02  0.00000000000E+00 0. -1.
<mgrwt>
<rscale>  0 0.36712584E+04</rscale>
<asrwt>0</asrwt>
<pdfrwt beam="1">  1        2 0.54802632E+00 0.36712584E+04</pdfrwt>
<pdfrwt beam="2">  1       -1 0.14552640E+00 0.36712584E+04</pdfrwt>
<totfact> 0.25523671E-01</totfact>
</mgrwt>
</event>
<event>
12    7  0.1606355E-007  0.1505092E+04  0.7818608E-02  0.8881074E-01
         -1   -1    0    0    0  501 -0.00000000000E+00  0.00000000000E+00  0.29613640366E+03  0.29613640366E+03  0.00000000000E+00 0.  1.
          2   -1    0    0  501    0  0.00000000000E+00 -0.00000000000E+00 -0.19123798581E+04  0.19123798581E+04  0.00000000000E+00 0. -1.
         24    2    1    2    0    0  0.19222961036E+03 -0.12577470915E+02 -0.11548572335E+04  0.11736655497E+04  0.81762931510E+02 0.  0.
        254    2    1    2    0    0 -0.19222961036E+03  0.12577470915E+02 -0.46138622093E+03  0.10348507120E+04  0.90605095631E+03 0.  0.
         23    2    4    4    0    0 -0.50315177700E+03  0.29269133444E+02 -0.55619458699E+02  0.51529324692E+03  0.91734471506E+02 0.  0.
         23    2    4    4    0    0  0.31092216664E+03 -0.16691662530E+02 -0.40576676223E+03  0.51955746510E+03  0.91335036567E+02 0.  0.
          2    1    3    3  502    0  0.64517738528E+02  0.78117907258E+00 -0.63141314076E+03  0.63470127080E+03  0.00000000000E+00 0. -1.
         -1    1    3    3    0  502  0.12771187183E+03 -0.13358649987E+02 -0.52344409271E+03  0.53896427890E+03  0.00000000000E+00 0.  1.
         13    1    5    5    0    0 -0.44710333306E+03  0.14496354225E+02 -0.21111568736E+02  0.44783616765E+03  0.00000000000E+00 0. -1.
        -13    1    5    5    0    0 -0.56048443942E+02  0.14772779219E+02 -0.34507889963E+02  0.67457079272E+02  0.00000000000E+00 0.  1.
          4    1    6    6  503    0  0.12885400657E+03  0.23173166203E+02 -0.11540464402E+03  0.17452387373E+03  0.00000000000E+00 0. -1.
         -4    1    6    6    0  503  0.18206816007E+03 -0.39864828733E+02 -0.29036211821E+03  0.34503359137E+03  0.00000000000E+00 0.  1.
<mgrwt>
<rscale>  0 0.15050917E+04</rscale>
<asrwt>0</asrwt>
<pdfrwt beam="1">  1        2 0.29421228E+00 0.15050917E+04</pdfrwt>
<pdfrwt beam="2">  1       -1 0.45559448E-01 0.15050917E+04</pdfrwt>
<totfact> 0.39357958E+01</totfact>
</mgrwt>
</event>
<event>
12    7  0.1606355E-007  0.3260046E+04  0.7818608E-02  0.8173137E-01
          2   -1    0    0  501    0  0.00000000000E+00  0.00000000000E+00  0.12345955886E+04  0.12345955886E+04  0.00000000000E+00 0. -1.
         -1   -1    0    0    0  501 -0.00000000000E+00 -0.00000000000E+00 -0.21521017161E+04  0.21521017161E+04  0.00000000000E+00 0.  1.
         24    2    1    2    0    0  0.10190903140E+04 -0.63997052665E+03  0.51448165575E+03  0.13112812430E+04  0.81607481668E+02 0.  0.
        254    2    1    2    0    0 -0.10190903140E+04  0.63997052665E+03 -0.14319877833E+04  0.20754160616E+04  0.89925273108E+03 0.  0.
         23    2    4    4    0    0 -0.88900075490E+03  0.83550488843E+03 -0.10198624110E+04  0.15927420895E+04  0.91199041937E+02 0.  0.
         23    2    4    4    0    0 -0.13008955914E+03 -0.19553436178E+03 -0.41212537222E+03  0.48267397219E+03  0.89274077805E+02 0.  0.
          2    1    3    3  502    0  0.86055908210E+03 -0.50417420819E+03  0.42237267384E+03  0.10831215267E+04  0.00000000000E+00 0. -1.
         -1    1    3    3    0  502  0.15853123194E+03 -0.13579631846E+03  0.92108981910E+02  0.22815971633E+03  0.00000000000E+00 0.  1.
         13    1    5    5    0    0 -0.11818831802E+02  0.16644413178E+02 -0.46985721117E+01  0.20947502359E+02  0.00000000000E+00 0.  1.
        -13    1    5    5    0    0 -0.87718192310E+03  0.81886047525E+03 -0.10151638389E+04  0.15717945871E+04  0.00000000000E+00 0. -1.
          1    1    6    6  503    0 -0.13702554362E+03 -0.20040125373E+03 -0.39749008362E+03  0.46576284596E+03  0.00000000000E+00 0. -1.
         -1    1    6    6    0  503  0.69359844811E+01  0.48668919479E+01 -0.14635288596E+02  0.16911126226E+02  0.00000000000E+00 0.  1.
<mgrwt>
<rscale>  0 0.32600462E+04</rscale>
<asrwt>0</asrwt>
<pdfrwt beam="1">  1        2 0.18993778E+00 0.32600462E+04</pdfrwt>
<pdfrwt beam="2">  1       -1 0.33109257E+00 0.32600462E+04</pdfrwt>
<totfact> 0.35689201E-01</totfact>
</mgrwt>
</event>
<event>
12    7  0.1606355E-007  0.2476072E+04  0.7818608E-02  0.8411560E-01
          2   -1    0    0  501    0  0.00000000000E+00  0.00000000000E+00  0.67681359019E+03  0.67681359019E+03  0.00000000000E+00 0. -1.
         -1   -1    0    0    0  501 -0.00000000000E+00 -0.00000000000E+00 -0.22646317375E+04  0.22646317375E+04  0.00000000000E+00 0.  1.
         24    2    1    2    0    0 -0.86317012885E+03 -0.37707017209E+03 -0.80749625922E+02  0.94989930621E+03  0.92431617047E+02 0.  0.
        254    2    1    2    0    0  0.86317012885E+03  0.37707017209E+03 -0.15070685214E+04  0.19915460215E+04  0.89875215801E+03 0.  0.
         23    2    4    4    0    0 -0.10701382722E+03  0.24734992672E+03 -0.16877275565E+03  0.33099865135E+03  0.91879914455E+02 0.  0.
         23    2    4    4    0    0  0.97018395606E+03  0.12972024537E+03 -0.13382957657E+04  0.16605473701E+04  0.91092048101E+02 0.  0.
          4    1    3    3  502    0 -0.13800655234E+03 -0.71938719235E+02  0.19281173177E+02  0.15682076219E+03  0.00000000000E+00 0. -1.
         -3    1    3    3    0  502 -0.72516357651E+03 -0.30513145286E+03 -0.10003079910E+03  0.79307854402E+03  0.00000000000E+00 0.  1.
         13    1    5    5    0    0 -0.10025177937E+03  0.13389081503E+03 -0.73545090617E+02  0.18271849926E+03  0.00000000000E+00 0. -1.
        -13    1    5    5    0    0 -0.67620478450E+01  0.11345911169E+03 -0.95227665036E+02  0.14828015209E+03  0.00000000000E+00 0.  1.
          1    1    6    6  503    0  0.93549885255E+03  0.14207839813E+03 -0.12881704156E+04  0.15983514613E+04  0.00000000000E+00 0. -1.
         -1    1    6    6    0  503  0.34685103515E+02 -0.12358152756E+02 -0.50125350120E+02  0.62195908788E+02  0.00000000000E+00 0.  1.
<mgrwt>
<rscale>  0 0.24760723E+04</rscale>
<asrwt>0</asrwt>
<pdfrwt beam="1">  1        2 0.10412517E+00 0.24760723E+04</pdfrwt>
<pdfrwt beam="2">  1       -1 0.34840488E+00 0.24760723E+04</pdfrwt>
<totfact> 0.69415521E-01</totfact>
</mgrwt>
</event>
<event>
12    7  0.1606355E-007  0.1981530E+04  0.7818608E-02  0.8615305E-01
         -1   -1    0    0    0  501 -0.00000000000E+00  0.00000000000E+00  0.12977738399E+04  0.12977738399E+04  0.00000000000E+00 0.  1.
          2   -1    0    0  501    0  0.00000000000E+00 -0.00000000000E+00 -0.75638367098E+03  0.75638367098E+03  0.00000000000E+00 0. -1.
         24    2    1    2    0    0  0.29236310525E+03  0.71890776262E+03  0.97430572992E+02  0.78622752488E+03  0.79727334411E+02 0.  0.
        254    2    1    2    0    0 -0.29236310525E+03 -0.71890776262E+03  0.44395959595E+03  0.12679299860E+04  0.89902267499E+03 0.  0.
         23    2    4    4    0    0 -0.18012497251E+03 -0.16331614822E+03 -0.25453744700E+03  0.36366739953E+03  0.91364629751E+02 0.  0.
         23    2    4    4    0    0 -0.11223813274E+03 -0.55559161440E+03  0.69849704295E+03  0.90426258649E+03  0.92267360852E+02 0.  0.
          4    1    3    3  502    0  0.45132819971E+01  0.34885080788E+02 -0.95140465235E+01  0.36439753803E+02  0.00000000000E+00 0. -1.
         -3    1    3    3    0  502  0.28784982325E+03  0.68402268184E+03  0.10694461951E+03  0.74978777108E+03  0.00000000000E+00 0.  1.
         13    1    5    5    0    0 -0.17955844829E+03 -0.14526286630E+03 -0.19766842677E+03  0.30399892043E+03  0.00000000000E+00 0. -1.
        -13    1    5    5    0    0 -0.56652421687E+00 -0.18053281924E+02 -0.56869020221E+02  0.59668479106E+02  0.00000000000E+00 0.  1.
          1    1    6    6  503    0  0.74748427360E+01 -0.17076688720E+03  0.19416404141E+03  0.25868296816E+03  0.00000000000E+00 0. -1.
         -1    1    6    6    0  503 -0.11971297548E+03 -0.38482472721E+03  0.50433300153E+03  0.64557961833E+03  0.00000000000E+00 0.  1.
<mgrwt>
<rscale>  0 0.19815297E+04</rscale>
<asrwt>0</asrwt>
<pdfrwt beam="1">  1        2 0.11636672E+00 0.19815297E+04</pdfrwt>
<pdfrwt beam="2">  1       -1 0.19965751E+00 0.19815297E+04</pdfrwt>
<totfact> 0.59599027E+00</totfact>
</mgrwt>
</event>
<event>
12    7  0.1606355E-007  0.1581481E+04  0.7818608E-02  0.8832006E-01
         -1   -1    0    0    0  501 -0.00000000000E+00  0.00000000000E+00  0.61013206658E+03  0.61013206658E+03  0.00000000000E+00 0.  1.
          2   -1    0    0  501    0  0.00000000000E+00 -0.00000000000E+00 -0.10248119101E+04  0.10248119101E+04  0.00000000000E+00 0. -1.
         24    2    1    2    0    0 -0.53703709607E+03 -0.50096423488E+02 -0.18843676922E+03  0.57688186614E+03  0.79785821325E+02 0.  0.
        254    2    1    2    0    0  0.53703709607E+03  0.50096423488E+02 -0.22624307429E+03  0.10580621105E+04  0.88169779794E+03 0.  0.
         23    2    4    4    0    0  0.12086873899E+03  0.38716196692E+03 -0.29730472058E+03  0.51031502433E+03  0.86762241142E+02 0.  0.
         23    2    4    4    0    0  0.41616835708E+03 -0.33706554343E+03  0.71061646289E+02  0.54774708620E+03  0.90376052521E+02 0.  0.
          2    1    3    3  502    0 -0.47701163803E+02  0.14318362903E+02 -0.31693836771E+02  0.59033175704E+02  0.00000000000E+00 0. -1.
         -1    1    3    3    0  502 -0.48933593226E+03 -0.64414786391E+02 -0.15674293245E+03  0.51784869043E+03  0.00000000000E+00 0.  1.
         13    1    5    5    0    0  0.51732789810E+02  0.55451294678E+02 -0.58558898927E+02  0.95813737358E+02  0.00000000000E+00 0. -1.
        -13    1    5    5    0    0  0.69135949180E+02  0.33171067224E+03 -0.23874582165E+03  0.41450128697E+03  0.00000000000E+00 0.  1.
          1    1    6    6  503    0  0.12668782218E+03 -0.15877520891E+03  0.24682316551E+02  0.20461815169E+03  0.00000000000E+00 0. -1.
         -1    1    6    6    0  503  0.28948053490E+03 -0.17829033452E+03  0.46379329738E+02  0.34312893451E+03  0.00000000000E+00 0.  1.
<mgrwt>
<rscale>  0 0.15814811E+04</rscale>
<asrwt>0</asrwt>
<pdfrwt beam="1">  1        2 0.15766337E+00 0.15814811E+04</pdfrwt>
<pdfrwt beam="2">  1       -1 0.93866474E-01 0.15814811E+04</pdfrwt>
<totfact> 0.29270819E+01</totfact>
</mgrwt>
</event>
<event>
12    7  0.1606355E-007  0.1289103E+04  0.7818608E-02  0.9038251E-01
          2   -1    0    0  501    0  0.00000000000E+00  0.00000000000E+00  0.18818367353E+04  0.18818367353E+04  0.00000000000E+00 0. -1.
         -1   -1    0    0    0  501 -0.00000000000E+00 -0.00000000000E+00 -0.22076663347E+03  0.22076663347E+03  0.00000000000E+00 0.  1.
         24    2    1    2    0    0  0.32184169506E+03  0.32380595088E+02  0.46390927287E+03  0.57115436144E+03  0.79843043038E+02 0.  0.
        254    2    1    2    0    0 -0.32184169506E+03 -0.32380595088E+02  0.11971608290E+04  0.15314490074E+04  0.89861639873E+03 0.  0.
         23    2    4    4    0    0 -0.37368270916E+02  0.78651557562E+02  0.12058769603E+04  0.12128193489E+04  0.95963922319E+02 0.  0.
         23    2    4    4    0    0 -0.28447342414E+03 -0.11103215265E+03 -0.87161313377E+01  0.31862965848E+03  0.90529665610E+02 0.  0.
          2    1    3    3  502    0  0.24700254161E+03  0.32091988203E+02  0.40686696563E+03  0.47705437739E+03  0.00000000000E+00 0. -1.
         -1    1    3    3    0  502  0.74839153445E+02  0.28860688455E+00  0.57042307242E+02  0.94099984048E+02  0.00000000000E+00 0.  1.
         13    1    5    5    0    0 -0.28345111267E+01  0.61300094350E+02  0.10641350002E+04  0.10659029199E+04  0.00000000000E+00 0. -1.
        -13    1    5    5    0    0 -0.34533759789E+02  0.17351463212E+02  0.14174196019E+03  0.14691642903E+03  0.00000000000E+00 0.  1.
          2    1    6    6  503    0  0.49396500572E+01 -0.51727664125E+01 -0.76351680893E+01  0.10462000134E+02  0.00000000000E+00 0.  1.
         -2    1    6    6    0  503 -0.28941307420E+03 -0.10585938624E+03 -0.10809632484E+01  0.30816765835E+03  0.00000000000E+00 0. -1.
<mgrwt>
<rscale>  0 0.12891032E+04</rscale>
<asrwt>0</asrwt>
<pdfrwt beam="1">  1        2 0.28951333E+00 0.12891032E+04</pdfrwt>
<pdfrwt beam="2">  1       -1 0.33964099E-01 0.12891032E+04</pdfrwt>
<totfact> 0.71145108E+01</totfact>
</mgrwt>
</event>
<event>
12    7  0.1606355E-007  0.2108945E+04  0.7818608E-02  0.8557313E-01
         -3   -1    0    0    0  501 -0.00000000000E+00  0.00000000000E+00  0.13465826099E+04  0.13465826099E+04  0.00000000000E+00 0.  1.
          2   -1    0    0  501    0  0.00000000000E+00 -0.00000000000E+00 -0.82572857379E+03  0.82572857379E+03  0.00000000000E+00 0. -1.
         24    2    1    2    0    0  0.43032386356E+03  0.67986101467E+03  0.52875426216E+03  0.96617407206E+03  0.80756677468E+02 0.  0.
        254    2    1    2    0    0 -0.43032386356E+03 -0.67986101467E+03 -0.79002260903E+01  0.12061371116E+04  0.89850692349E+03 0.  0.
         23    2    4    4    0    0  0.17094558929E+02 -0.46855114927E+02 -0.34089201861E+03  0.35750468080E+03  0.95470428424E+02 0.  0.
         23    2    4    4    0    0 -0.44741842249E+03 -0.63300589974E+03  0.33299179252E+03  0.84863243078E+03  0.91726521841E+02 0.  0.
          2    1    3    3  502    0  0.24110855645E+02  0.74669222849E+02  0.68359145038E+02  0.10406631977E+03  0.00000000000E+00 0. -1.
         -1    1    3    3    0  502  0.40621300791E+03  0.60519179182E+03  0.46039511712E+03  0.86210775228E+03  0.00000000000E+00 0.  1.
         13    1    5    5    0    0  0.53835631410E+02 -0.46181980889E+02 -0.22893109327E+03  0.23966746971E+03  0.00000000000E+00 0.  1.
        -13    1    5    5    0    0 -0.36741072481E+02 -0.67313403814E+00 -0.11196092534E+03  0.11783721110E+03  0.00000000000E+00 0. -1.
          4    1    6    6  503    0 -0.95586605009E+02 -0.20052565705E+03  0.11357380475E+03  0.24949217887E+03  0.00000000000E+00 0. -1.
         -4    1    6    6    0  503 -0.35183181748E+03 -0.43248024269E+03  0.21941798777E+03  0.59914025191E+03  0.00000000000E+00 0.  1.
<mgrwt>
<rscale>  0 0.21089445E+04</rscale>
<asrwt>0</asrwt>
<pdfrwt beam="1">  1        2 0.12703516E+00 0.21089445E+04</pdfrwt>
<pdfrwt beam="2">  1       -3 0.20716656E+00 0.21089445E+04</pdfrwt>
<totfact> 0.25209237E+00</totfact>
</mgrwt>
</event>
<event>
12    7  0.1606355E-007  0.1816516E+04  0.7818608E-02  0.8697565E-01
          2   -1    0    0  501    0  0.00000000000E+00  0.00000000000E+00  0.21544875303E+04  0.21544875303E+04  0.00000000000E+00 0. -1.
         -1   -1    0    0    0  501 -0.00000000000E+00 -0.00000000000E+00 -0.38289044255E+03  0.38289044255E+03  0.00000000000E+00 0.  1.
         24    2    1    2    0    0  0.60844294501E+03 -0.25171855749E+03  0.39150033212E+03  0.77016738904E+03  0.79499984640E+02 0.  0.
        254    2    1    2    0    0 -0.60844294501E+03  0.25171855749E+03  0.13800967557E+04  0.17672105839E+04  0.88589002883E+03 0.  0.
         23    2    4    4    0    0 -0.11590000033E+02 -0.28272755167E+03  0.37692698894E+03  0.48008354504E+03  0.91307495044E+02 0.  0.
         23    2    4    4    0    0 -0.59685294498E+03  0.53444610916E+03  0.10031697667E+04  0.12871270388E+04  0.92088824859E+02 0.  0.
          4    1    3    3  502    0  0.80399825985E+02 -0.56218468589E+02  0.80579111380E+02  0.12695527330E+03  0.00000000000E+00 0. -1.
         -3    1    3    3    0  502  0.52804311903E+03 -0.19550008890E+03  0.31092122074E+03  0.64321211573E+03  0.00000000000E+00 0.  1.
         13    1    5    5    0    0 -0.50719535013E+02 -0.12765283558E+03  0.17038915259E+03  0.21886109975E+03  0.00000000000E+00 0. -1.
        -13    1    5    5    0    0  0.39129534980E+02 -0.15507471609E+03  0.20653783635E+03  0.26122244529E+03  0.00000000000E+00 0.  1.
          4    1    6    6  503    0 -0.20316423425E+03  0.17759906087E+03  0.40932406915E+03  0.49026862646E+03  0.00000000000E+00 0. -1.
         -4    1    6    6    0  503 -0.39368871073E+03  0.35684704829E+03  0.59384569757E+03  0.79685841236E+03  0.00000000000E+00 0.  1.
<mgrwt>
<rscale>  0 0.18165161E+04</rscale>
<asrwt>0</asrwt>
<pdfrwt beam="1">  1        2 0.33145961E+00 0.18165161E+04</pdfrwt>
<pdfrwt beam="2">  1       -1 0.58906223E-01 0.18165161E+04</pdfrwt>
<totfact> 0.17179244E+01</totfact>
</mgrwt>
</event>
<event>
12    7  0.1606355E-007  0.1794350E+04  0.7818608E-02  0.8709310E-01
          2   -1    0    0  501    0  0.00000000000E+00  0.00000000000E+00  0.10833815550E+04  0.10833815550E+04  0.00000000000E+00 0. -1.
         -1   -1    0    0    0  501 -0.00000000000E+00 -0.00000000000E+00 -0.74297290254E+03  0.74297290254E+03  0.00000000000E+00 0.  1.
         24    2    1    2    0    0  0.38909312501E+03 -0.54456550743E+03  0.11568437169E+03  0.68396586322E+03  0.80506995927E+02 0.  0.
        254    2    1    2    0    0 -0.38909312501E+03  0.54456550743E+03  0.22472428081E+03  0.11423885944E+04  0.89811226821E+03 0.  0.
         23    2    4    4    0    0 -0.44018142214E+03  0.66370287100E+03  0.40788373134E+03  0.89975686758E+03  0.94509772527E+02 0.  0.
         23    2    4    4    0    0  0.51088297131E+02 -0.11913736357E+03 -0.18315945053E+03  0.24263172677E+03  0.92298672868E+02 0.  0.
          2    1    3    3  502    0  0.13021275229E+03 -0.18918038341E+03  0.78541755851E+02  0.24272079791E+03  0.00000000000E+00 0. -1.
         -1    1    3    3    0  502  0.25888037272E+03 -0.35538512402E+03  0.37142615840E+02  0.44124506532E+03  0.00000000000E+00 0.  1.
         13    1    5    5    0    0 -0.31668577034E+03  0.44631487543E+03  0.23380694738E+03  0.59510716162E+03  0.00000000000E+00 0.  1.
        -13    1    5    5    0    0 -0.12349565180E+03  0.21738799556E+03  0.17407678396E+03  0.30464970596E+03  0.00000000000E+00 0. -1.
          1    1    6    6  503    0  0.46242743967E+02 -0.39699006705E+02 -0.25582836883E+02  0.66097534341E+02  0.00000000000E+00 0. -1.
         -1    1    6    6    0  503  0.48455531640E+01 -0.79438356864E+02 -0.15757661365E+03  0.17653419243E+03  0.00000000000E+00 0.  1.
<mgrwt>
<rscale>  0 0.17943502E+04</rscale>
<asrwt>0</asrwt>
<pdfrwt beam="1">  1        2 0.16667409E+00 0.17943502E+04</pdfrwt>
<pdfrwt beam="2">  1       -1 0.11430352E+00 0.17943502E+04</pdfrwt>
<totfact> 0.16741233E+01</totfact>
</mgrwt>
</event>
<event>
12    7  0.1606355E-007  0.1485307E+04  0.7818608E-02  0.8894283E-01
          2   -1    0    0  501    0  0.00000000000E+00  0.00000000000E+00  0.43685863335E+04  0.43685863335E+04  0.00000000000E+00 0. -1.
         -3   -1    0    0    0  501 -0.00000000000E+00 -0.00000000000E+00 -0.12624998430E+03  0.12624998430E+03  0.00000000000E+00 0.  1.
         24    2    1    2    0    0  0.73639471808E+02  0.24774797948E+03  0.25519239393E+04  0.25661740542E+04  0.78304861446E+02 0.  0.
        254    2    1    2    0    0 -0.73639471808E+02 -0.24774797948E+03  0.16904124099E+04  0.19286622636E+04  0.89187565185E+03 0.  0.
         23    2    4    4    0    0 -0.37623408449E+00 -0.42161284004E+03  0.16628048207E+04  0.17178780079E+04  0.91801143588E+02 0.  0.
         23    2    4    4    0    0 -0.73263237724E+02  0.17386486055E+03  0.27607589177E+02  0.21078425565E+03  0.89840590567E+02 0.  0.
          2    1    3    3  502    0  0.29878451015E+02  0.10982587388E+03  0.15050310541E+04  0.15093286316E+04  0.00000000000E+00 0. -1.
         -1    1    3    3    0  502  0.43761020793E+02  0.13792210560E+03  0.10468928852E+04  0.10568454226E+04  0.00000000000E+00 0.  1.
         13    1    5    5    0    0 -0.26611615686E+02 -0.23434547098E+03  0.10682705521E+04  0.10939963210E+04  0.00000000000E+00 0. -1.
        -13    1    5    5    0    0  0.26235381602E+02 -0.18726736906E+03  0.59453426855E+03  0.62388168689E+03  0.00000000000E+00 0.  1.
          2    1    6    6  503    0  0.63492198723E+01  0.11504941375E+02  0.26918436706E+02  0.29954607388E+02  0.00000000000E+00 0.  1.
         -2    1    6    6    0  503 -0.79612457596E+02  0.16235991918E+03  0.68915247104E+00  0.18082964827E+03  0.00000000000E+00 0. -1.
<mgrwt>
<rscale>  0 0.14853066E+04</rscale>
<asrwt>0</asrwt>
<pdfrwt beam="1">  1        2 0.67209009E+00 0.14853066E+04</pdfrwt>
<pdfrwt beam="2">  1       -3 0.19423078E-01 0.14853066E+04</pdfrwt>
<totfact> 0.26067969E+00</totfact>
</mgrwt>
</event>
<event>
12    7  0.1606355E-007  0.1742025E+04  0.7818608E-02  0.8737752E-01
         -1   -1    0    0    0  501 -0.00000000000E+00  0.00000000000E+00  0.23390601708E+03  0.23390601708E+03  0.00000000000E+00 0.  1.
          2   -1    0    0  501    0  0.00000000000E+00 -0.00000000000E+00 -0.32434504660E+04  0.32434504660E+04  0.00000000000E+00 0. -1.
         24    2    1    2    0    0 -0.23366291475E+03 -0.25567823367E+03 -0.41506916903E+02  0.35795734906E+03  0.80255359260E+02 0.  0.
        254    2    1    2    0    0  0.23366291475E+03  0.25567823367E+03 -0.29680375320E+04  0.31193991340E+04  0.89522871323E+03 0.  0.
         23    2    4    4    0    0 -0.65726272407E+02 -0.26416992876E+03 -0.15636799504E+04  0.15896856793E+04  0.88881255516E+02 0.  0.
         23    2    4    4    0    0  0.29938918716E+03  0.51984816243E+03 -0.14043575816E+04  0.15297134547E+04  0.89033921090E+02 0.  0.
          2    1    3    3  502    0 -0.94064497485E+02 -0.55340361189E+02 -0.31428452233E+02  0.11357126782E+03  0.00000000000E+00 0. -1.
         -1    1    3    3    0  502 -0.13959841726E+03 -0.20033787248E+03 -0.10078464669E+02  0.24438608124E+03  0.00000000000E+00 0.  1.
         13    1    5    5    0    0 -0.36757413173E+02 -0.20935058373E+03 -0.13680955042E+04  0.13845086070E+04  0.00000000000E+00 0. -1.
        -13    1    5    5    0    0 -0.28968859233E+02 -0.54819345036E+02 -0.19558444624E+03  0.20517707232E+03  0.00000000000E+00 0.  1.
          2    1    6    6  503    0  0.14567546772E+03  0.18610434494E+03 -0.62128623479E+03  0.66472005735E+03  0.00000000000E+00 0.  1.
         -2    1    6    6    0  503  0.15371371943E+03  0.33374381749E+03 -0.78307134677E+03  0.86499339731E+03  0.00000000000E+00 0. -1.
<mgrwt>
<rscale>  0 0.17420248E+04</rscale>
<asrwt>0</asrwt>
<pdfrwt beam="1">  1        2 0.49899237E+00 0.17420248E+04</pdfrwt>
<pdfrwt beam="2">  1       -1 0.35985542E-01 0.17420248E+04</pdfrwt>
<totfact> 0.97425120E+00</totfact>
</mgrwt>
</event>
<event>
12    7  0.1606355E-007  0.1436901E+04  0.7818608E-02  0.8927532E-01
         -1   -1    0    0    0  501 -0.00000000000E+00  0.00000000000E+00  0.30966927459E+03  0.30966927459E+03  0.00000000000E+00 0.  1.
          2   -1    0    0  501    0  0.00000000000E+00 -0.00000000000E+00 -0.16668467196E+04  0.16668467196E+04  0.00000000000E+00 0. -1.
         24    2    1    2    0    0  0.19212119466E+03 -0.16274097547E+03 -0.88759801061E+03  0.92611127222E+03  0.80353478812E+02 0.  0.
        254    2    1    2    0    0 -0.19212119466E+03  0.16274097547E+03 -0.46957943443E+03  0.10504047220E+04  0.90523480723E+03 0.  0.
         23    2    4    4    0    0 -0.94244150035E+02  0.40943117353E+02 -0.72510313563E+03  0.73768400861E+03  0.88571104710E+02 0.  0.
         23    2    4    4    0    0 -0.97877044626E+02  0.12179785812E+03  0.25552370120E+03  0.31272071338E+03  0.89929130977E+02 0.  0.
          4    1    3    3  502    0  0.18506581609E+03 -0.17185929229E+03 -0.84065476452E+03  0.87777298076E+03  0.00000000000E+00 0. -1.
         -3    1    3    3    0  502  0.70553785756E+01  0.91183168173E+01 -0.46943246086E+02  0.48338291463E+02  0.00000000000E+00 0.  1.
         13    1    5    5    0    0 -0.30796858460E+02 -0.36542761867E+01 -0.55271336531E+02  0.63377605409E+02  0.00000000000E+00 0. -1.
        -13    1    5    5    0    0 -0.63447291575E+02  0.44597393539E+02 -0.66983179910E+03  0.67430640320E+03  0.00000000000E+00 0.  1.
          1    1    6    6  503    0 -0.26670503505E+02 -0.11321298262E+02  0.34387238349E+02  0.44966317537E+02  0.00000000000E+00 0. -1.
         -1    1    6    6    0  503 -0.71206541121E+02  0.13311915638E+03  0.22113646285E+03  0.26775439585E+03  0.00000000000E+00 0.  1.
<mgrwt>
<rscale>  0 0.14369011E+04</rscale>
<asrwt>0</asrwt>
<pdfrwt beam="1">  1        2 0.25643796E+00 0.14369011E+04</pdfrwt>
<pdfrwt beam="2">  1       -1 0.47641427E-01 0.14369011E+04</pdfrwt>
<totfact> 0.49784733E+01</totfact>
</mgrwt>
</event>
<event>
12    7  0.1606355E-007  0.1304782E+04  0.7818608E-02  0.9025781E-01
          2   -1    0    0  501    0  0.00000000000E+00  0.00000000000E+00  0.16617664719E+04  0.16617664719E+04  0.00000000000E+00 0. -1.
         -1   -1    0    0    0  501 -0.00000000000E+00 -0.00000000000E+00 -0.25612148823E+03  0.25612148823E+03  0.00000000000E+00 0.  1.
         24    2    1    2    0    0  0.23098328789E+02  0.16344525754E+03  0.79628433077E+03  0.81727644053E+03  0.81388941628E+02 0.  0.
        254    2    1    2    0    0 -0.23098328789E+02 -0.16344525754E+03  0.60936065293E+03  0.11006115196E+04  0.90154169443E+03 0.  0.
         23    2    4    4    0    0  0.10862942757E+02 -0.50219022549E+03  0.17122899780E+03  0.53839026609E+03  0.90728621886E+02 0.  0.
         23    2    4    4    0    0 -0.33961271546E+02  0.33874496796E+03  0.43813165514E+03  0.56222125354E+03  0.90729650134E+02 0.  0.
          4    1    3    3  502    0  0.17315404664E+02  0.14072785448E+03  0.76582839972E+03  0.77884355944E+03  0.00000000000E+00 0. -1.
         -3    1    3    3    0  502  0.57829241254E+01  0.22717403054E+02  0.30455931047E+02  0.38432881090E+02  0.00000000000E+00 0.  1.
         13    1    5    5    0    0  0.36756066312E+01 -0.45252100997E+03  0.18076899127E+03  0.48730504076E+03  0.00000000000E+00 0.  1.
        -13    1    5    5    0    0  0.71873361258E+01 -0.49669215524E+02 -0.95399934752E+01  0.51085225328E+02  0.00000000000E+00 0. -1.
          1    1    6    6  503    0 -0.23068689232E+02  0.26419883785E+02  0.77197015353E+02  0.84791236938E+02  0.00000000000E+00 0. -1.
         -1    1    6    6    0  503 -0.10892582314E+02  0.31232508417E+03  0.36093463978E+03  0.47743001660E+03  0.00000000000E+00 0.  1.
<mgrwt>
<rscale>  0 0.13047821E+04</rscale>
<asrwt>0</asrwt>
<pdfrwt beam="1">  1        2 0.25565637E+00 0.13047821E+04</pdfrwt>
<pdfrwt beam="2">  1       -1 0.39403307E-01 0.13047821E+04</pdfrwt>
<totfact> 0.71978943E+01</totfact>
</mgrwt>
</event>
<event>
12    7  0.1606355E-007  0.1306250E+04  0.7818608E-02  0.9024624E-01
         -3   -1    0    0    0  501 -0.00000000000E+00  0.00000000000E+00  0.44144792950E+03  0.44144792950E+03  0.00000000000E+00 0.  1.
          2   -1    0    0  501    0  0.00000000000E+00 -0.00000000000E+00 -0.96630246912E+03  0.96630246912E+03  0.00000000000E+00 0. -1.
         24    2    1    2    0    0 -0.18336023886E+03  0.61072853279E+02  0.14831873706E+03  0.25512573278E+03  0.75761607435E+02 0.  0.
        254    2    1    2    0    0  0.18336023886E+03 -0.61072853279E+02 -0.67317327668E+03  0.11526246658E+04  0.91544005224E+03 0.  0.
         23    2    4    4    0    0 -0.43904906175E+02 -0.38461669351E+03 -0.38736558281E+02  0.39952690975E+03  0.90904284614E+02 0.  0.
         23    2    4    4    0    0  0.22726514503E+03  0.32354384023E+03 -0.63443671840E+03  0.75309775608E+03  0.91193299432E+02 0.  0.
          4    1    3    3  502    0 -0.11409374175E+02  0.30930426049E+02  0.21693042345E+02  0.39464581093E+02  0.00000000000E+00 0. -1.
         -3    1    3    3    0  502 -0.17195086468E+03  0.30142427230E+02  0.12662569472E+03  0.21566115169E+03  0.00000000000E+00 0.  1.
         13    1    5    5    0    0  0.59866036208E+01 -0.32140872335E+02  0.20577020012E+02  0.38630154671E+02  0.00000000000E+00 0. -1.
        -13    1    5    5    0    0 -0.49891509796E+02 -0.35247582117E+03 -0.59313578293E+02  0.36089675508E+03  0.00000000000E+00 0.  1.
          2    1    6    6  503    0  0.18573188237E+03  0.28915691135E+03 -0.59182540152E+03  0.68437223599E+03  0.00000000000E+00 0. -1.
         -2    1    6    6    0  503  0.41533262661E+02  0.34386928881E+02 -0.42611316874E+02  0.68725520084E+02  0.00000000000E+00 0.  1.
<mgrwt>
<rscale>  0 0.13062499E+04</rscale>
<asrwt>0</asrwt>
<pdfrwt beam="1">  1        2 0.14866192E+00 0.13062499E+04</pdfrwt>
<pdfrwt beam="2">  1       -3 0.67915066E-01 0.13062499E+04</pdfrwt>
<totfact> 0.34374599E+01</totfact>
</mgrwt>
</event>
<event>
12    7  0.1606355E-007  0.1395472E+04  0.7818608E-02  0.8957103E-01
          2   -1    0    0  501    0  0.00000000000E+00  0.00000000000E+00  0.66498192197E+03  0.66498192197E+03  0.00000000000E+00 0. -1.
         -1   -1    0    0    0  501 -0.00000000000E+00 -0.00000000000E+00 -0.73210303474E+03  0.73210303474E+03  0.00000000000E+00 0.  1.
         24    2    1    2    0    0  0.27618154842E+03  0.16960377356E+03 -0.26536890457E+03  0.42575684315E+03  0.76200697394E+02 0.  0.
        254    2    1    2    0    0 -0.27618154842E+03 -0.16960377356E+03  0.19824779180E+03  0.97132811356E+03  0.89394319146E+03 0.  0.
         23    2    4    4    0    0  0.25288037720E+03 -0.13088020385E+03  0.29945230697E+03  0.42343129069E+03  0.92435171077E+02 0.  0.
         23    2    4    4    0    0 -0.52906192562E+03 -0.38723569706E+02 -0.10120451517E+03  0.54789682287E+03  0.92425854803E+02 0.  0.
          4    1    3    3  502    0  0.71566217268E+02  0.48824774855E+02 -0.30998030633E+02  0.92013368577E+02  0.00000000000E+00 0. -1.
         -3    1    3    3    0  502  0.20461533115E+03  0.12077899870E+03 -0.23437087393E+03  0.33374347457E+03  0.00000000000E+00 0.  1.
         13    1    5    5    0    0  0.22140358939E+03 -0.86485855976E+02  0.27579404069E+03  0.36409024371E+03  0.00000000000E+00 0. -1.
        -13    1    5    5    0    0  0.31476787806E+02 -0.44394347876E+02  0.23658266281E+02  0.59341046985E+02  0.00000000000E+00 0.  1.
          1    1    6    6  503    0 -0.48559667842E+03 -0.30069800741E+02 -0.65360184169E+02  0.49089742379E+03  0.00000000000E+00 0. -1.
         -1    1    6    6    0  503 -0.43465247200E+02 -0.86537689655E+01 -0.35844330999E+02  0.56999399087E+02  0.00000000000E+00 0.  1.
<mgrwt>
<rscale>  0 0.13954717E+04</rscale>
<asrwt>0</asrwt>
<pdfrwt beam="1">  1        2 0.10230491E+00 0.13954717E+04</pdfrwt>
<pdfrwt beam="2">  1       -1 0.11263124E+00 0.13954717E+04</pdfrwt>
<totfact> 0.35087495E+01</totfact>
</mgrwt>
</event>
<event>
12    7  0.1606355E-007  0.1498428E+04  0.7818608E-02  0.8885499E-01
          2   -1    0    0  501    0  0.00000000000E+00  0.00000000000E+00  0.99313356940E+03  0.99313356940E+03  0.00000000000E+00 0. -1.
         -1   -1    0    0    0  501 -0.00000000000E+00 -0.00000000000E+00 -0.56520282195E+03  0.56520282195E+03  0.00000000000E+00 0.  1.
         24    2    1    2    0    0 -0.35092698876E+03  0.19558008678E+03  0.34094605992E+03  0.53263855375E+03  0.77835026681E+02 0.  0.
        254    2    1    2    0    0  0.35092698876E+03 -0.19558008678E+03  0.86984687517E+02  0.10256978376E+04  0.93972783103E+03 0.  0.
         23    2    4    4    0    0  0.63155756272E+03 -0.28204113904E+03 -0.21651378452E+02  0.69798667692E+03  0.91128808985E+02 0.  0.
         23    2    4    4    0    0 -0.28063057396E+03  0.86461052266E+02  0.10863606597E+03  0.32771116068E+03  0.96766613072E+02 0.  0.
          4    1    3    3  502    0 -0.30416760812E+03  0.18516447483E+03  0.32511191608E+03  0.48218417078E+03  0.00000000000E+00 0. -1.
         -3    1    3    3    0  502 -0.46759380638E+02  0.10415611942E+02  0.15834143844E+02  0.50454382971E+02  0.00000000000E+00 0.  1.
         13    1    5    5    0    0  0.33559193090E+03 -0.18961618372E+03 -0.39105387490E+02  0.38743447516E+03  0.00000000000E+00 0.  1.
        -13    1    5    5    0    0  0.29596563182E+03 -0.92424955325E+02  0.17454009038E+02  0.31055220176E+03  0.00000000000E+00 0. -1.
          3    1    6    6  503    0 -0.23551971225E+03  0.10714849027E+03  0.99664936968E+02  0.27727862068E+03  0.00000000000E+00 0. -1.
         -3    1    6    6    0  503 -0.45110861705E+02 -0.20687438004E+02  0.89711290014E+01  0.50432539997E+02  0.00000000000E+00 0.  1.
<mgrwt>
<rscale>  0 0.14984284E+04</rscale>
<asrwt>0</asrwt>
<pdfrwt beam="1">  1        2 0.15278978E+00 0.14984284E+04</pdfrwt>
<pdfrwt beam="2">  1       -1 0.86954280E-01 0.14984284E+04</pdfrwt>
<totfact> 0.36562353E+01</totfact>
</mgrwt>
</event>
<event>
12    7  0.1606355E-007  0.1142330E+04  0.7818608E-02  0.9164889E-01
         -1   -1    0    0    0  501 -0.00000000000E+00  0.00000000000E+00  0.10814123805E+04  0.10814123805E+04  0.00000000000E+00 0.  1.
          2   -1    0    0  501    0  0.00000000000E+00 -0.00000000000E+00 -0.30166969771E+03  0.30166969771E+03  0.00000000000E+00 0. -1.
         24    2    1    2    0    0 -0.17712152706E+02  0.13022582812E+03 -0.30171447374E+02  0.15670131589E+03  0.79827936839E+02 0.  0.
        254    2    1    2    0    0  0.17712152706E+02 -0.13022582812E+03  0.80991413021E+03  0.12263807624E+04  0.91146935731E+03 0.  0.
         23    2    4    4    0    0  0.37661857790E+03 -0.25234863275E+03  0.66631488690E+03  0.81096373762E+03  0.90361881083E+02 0.  0.
         23    2    4    4    0    0 -0.35890642519E+03  0.12212280462E+03  0.14359924331E+03  0.41541702475E+03  0.90679437119E+02 0.  0.
          4    1    3    3  502    0 -0.66258456644E+00  0.12781518897E+03 -0.72361318727E+01  0.12802157300E+03  0.00000000000E+00 0. -1.
         -3    1    3    3    0  502 -0.17049568140E+02  0.24106391575E+01 -0.22935315502E+02  0.28679742887E+02  0.00000000000E+00 0.  1.
         13    1    5    5    0    0  0.78189759824E+02 -0.97583354834E+02  0.20558389796E+03  0.24062603513E+03  0.00000000000E+00 0. -1.
        -13    1    5    5    0    0  0.29842881808E+03 -0.15476527791E+03  0.46073098894E+03  0.57033770249E+03  0.00000000000E+00 0.  1.
          4    1    6    6  503    0 -0.12154677291E+02 -0.23549635880E+01 -0.10341018325E+02  0.16131295470E+02  0.00000000000E+00 0. -1.
         -4    1    6    6    0  503 -0.34675174790E+03  0.12447776821E+03  0.15394026163E+03  0.39928572928E+03  0.00000000000E+00 0.  1.
<mgrwt>
<rscale>  0 0.11423298E+04</rscale>
<asrwt>0</asrwt>
<pdfrwt beam="1">  1        2 0.46410723E-01 0.11423298E+04</pdfrwt>
<pdfrwt beam="2">  1       -1 0.16637113E+00 0.11423298E+04</pdfrwt>
<totfact> 0.32413375E+01</totfact>
</mgrwt>
</event>
<event>
12    7  0.1606355E-007  0.1646027E+04  0.7818608E-02  0.8792760E-01
         -1   -1    0    0    0  501 -0.00000000000E+00  0.00000000000E+00  0.27479327933E+03  0.27479327933E+03  0.00000000000E+00 0.  1.
          2   -1    0    0  501    0  0.00000000000E+00 -0.00000000000E+00 -0.24649490937E+04  0.24649490937E+04  0.00000000000E+00 0. -1.
         24    2    1    2    0    0  0.19023677826E+03  0.11295388301E+02 -0.15767944119E+04  0.15901992483E+04  0.78328885284E+02 0.  0.
        254    2    1    2    0    0 -0.19023677826E+03 -0.11295388301E+02 -0.61336140253E+03  0.11495431248E+04  0.95337273301E+03 0.  0.
         23    2    4    4    0    0 -0.14316069955E+03 -0.13806696905E+02  0.23732884006E+03  0.29192763152E+03  0.90615412272E+02 0.  0.
         23    2    4    4    0    0 -0.47076078710E+02  0.25113086042E+01 -0.85069024260E+03  0.85761549328E+03  0.98020312219E+02 0.  0.
          4    1    3    3  502    0  0.10986345326E+03  0.44490017676E+02 -0.96640912801E+03  0.97365083204E+03  0.00000000000E+00 0. -1.
         -1    1    3    3    0  502  0.80373325000E+02 -0.33194629375E+02 -0.61038528385E+03  0.61654841621E+03  0.00000000000E+00 0.  1.
         13    1    5    5    0    0 -0.64157514184E+02 -0.50935810135E+02  0.12888006841E+03  0.15271121574E+03  0.00000000000E+00 0. -1.
        -13    1    5    5    0    0 -0.79003185370E+02  0.37129113230E+02  0.10844877165E+03  0.13921641577E+03  0.00000000000E+00 0.  1.
          4    1    6    6  503    0 -0.49072476788E+02  0.17702486861E+02 -0.83114488831E+03  0.83278047010E+03  0.00000000000E+00 0. -1.
         -4    1    6    6    0  503  0.19963980777E+01 -0.15191178256E+02 -0.19545354289E+02  0.24835023180E+02  0.00000000000E+00 0.  1.
<mgrwt>
<rscale>  0 0.16460273E+04</rscale>
<asrwt>0</asrwt>
<pdfrwt beam="1">  1        2 0.37922296E+00 0.16460273E+04</pdfrwt>
<pdfrwt beam="2">  1       -1 0.42275887E-01 0.16460273E+04</pdfrwt>
<totfact> 0.21870821E+01</totfact>
</mgrwt>
</event>
<event>
12    7  0.1606355E-007  0.2423686E+04  0.7818608E-02  0.8430689E-01
          2   -1    0    0  501    0  0.00000000000E+00  0.00000000000E+00  0.19825293969E+04  0.19825293969E+04  0.00000000000E+00 0. -1.
         -1   -1    0    0    0  501 -0.00000000000E+00 -0.00000000000E+00 -0.74075220536E+03  0.74075220536E+03  0.00000000000E+00 0.  1.
         24    2    1    2    0    0  0.18029869426E+03  0.10227575679E+04  0.51384965236E+03  0.11614068385E+04  0.79269901758E+02 0.  0.
        254    2    1    2    0    0 -0.18029869426E+03 -0.10227575679E+04  0.72792753914E+03  0.15618747638E+04  0.91161045053E+03 0.  0.
         23    2    4    4    0    0  0.13991190242E+03 -0.98771790032E+03  0.36006067267E+03  0.10643860207E+04  0.90066208740E+02 0.  0.
         23    2    4    4    0    0 -0.32021059667E+03 -0.35039667598E+02  0.36786686647E+03  0.49748874307E+03  0.91686495780E+02 0.  0.
          4    1    3    3  502    0  0.18842114562E+03  0.97496112698E+03  0.48714550893E+03  0.11060571749E+04  0.00000000000E+00 0. -1.
         -3    1    3    3    0  502 -0.81224513687E+01  0.47796440942E+02  0.26704143422E+02  0.55349663584E+02  0.00000000000E+00 0.  1.
         13    1    5    5    0    0  0.14871810521E+03 -0.87997732957E+03  0.30548906096E+03  0.94329250062E+03  0.00000000000E+00 0.  1.
        -13    1    5    5    0    0 -0.88062027899E+01 -0.10774057075E+03  0.54571611714E+02  0.12109352005E+03  0.00000000000E+00 0. -1.
          1    1    6    6  503    0 -0.13814087634E+02 -0.23164254686E+01 -0.39790733585E+01  0.14561176769E+02  0.00000000000E+00 0. -1.
         -1    1    6    6    0  503 -0.30639650904E+03 -0.32723242129E+02  0.37184593983E+03  0.48292756630E+03  0.00000000000E+00 0.  1.
<mgrwt>
<rscale>  0 0.24236856E+04</rscale>
<asrwt>0</asrwt>
<pdfrwt beam="1">  1        2 0.30500452E+00 0.24236856E+04</pdfrwt>
<pdfrwt beam="2">  1       -1 0.11396188E+00 0.24236856E+04</pdfrwt>
<totfact> 0.48949538E+00</totfact>
</mgrwt>
</event>
<event>
12    7  0.1606355E-007  0.1310763E+04  0.7818608E-02  0.9021073E-01
          2   -1    0    0  501    0  0.00000000000E+00  0.00000000000E+00  0.77621183363E+03  0.77621183363E+03  0.00000000000E+00 0. -1.
         -1   -1    0    0    0  501 -0.00000000000E+00 -0.00000000000E+00 -0.55336069870E+03  0.55336069870E+03  0.00000000000E+00 0.  1.
         24    2    1    2    0    0 -0.13747990455E+03  0.28542912893E+02  0.36492139030E+03  0.39924553264E+03  0.80709058981E+02 0.  0.
        254    2    1    2    0    0  0.13747990455E+03 -0.28542912893E+02 -0.14207025538E+03  0.93032699969E+03  0.90863025861E+03 0.  0.
         23    2    4    4    0    0 -0.23936701322E+03  0.16224055100E+03 -0.33945765741E+03  0.45526311743E+03  0.91730264949E+02 0.  0.
         23    2    4    4    0    0  0.37684691777E+03 -0.19078346390E+03  0.19738740204E+03  0.47506388226E+03  0.91170040106E+02 0.  0.
          4    1    3    3  502    0 -0.14225181642E+03  0.12826494731E+02  0.29979696929E+03  0.33208179871E+03  0.00000000000E+00 0. -1.
         -3    1    3    3    0  502  0.47719118684E+01  0.15716418162E+02  0.65124421014E+02  0.67163733928E+02  0.00000000000E+00 0.  1.
         13    1    5    5    0    0 -0.22880026503E+03  0.17070197398E+03 -0.30260589338E+03  0.41600366814E+03  0.00000000000E+00 0.  1.
        -13    1    5    5    0    0 -0.10566748185E+02 -0.84614229730E+01 -0.36851764037E+02  0.39259449291E+02  0.00000000000E+00 0. -1.
          4    1    6    6  503    0  0.26446316738E+03 -0.15548842228E+03  0.10139088245E+03  0.32310606216E+03  0.00000000000E+00 0. -1.
         -4    1    6    6    0  503  0.11238375039E+03 -0.35295041621E+02  0.95996519589E+02  0.15195782010E+03  0.00000000000E+00 0.  1.
<mgrwt>
<rscale>  0 0.13107633E+04</rscale>
<asrwt>0</asrwt>
<pdfrwt beam="1">  1        2 0.11941720E+00 0.13107633E+04</pdfrwt>
<pdfrwt beam="2">  1       -1 0.85132416E-01 0.13107633E+04</pdfrwt>
<totfact> 0.54733083E+01</totfact>
</mgrwt>
</event>
<event>
12    7  0.1606355E-007  0.1443176E+04  0.7818608E-02  0.8923145E-01
          2   -1    0    0  501    0  0.00000000000E+00  0.00000000000E+00  0.38344747383E+04  0.38344747383E+04  0.00000000000E+00 0. -1.
         -1   -1    0    0    0  501 -0.00000000000E+00 -0.00000000000E+00 -0.13579158301E+03  0.13579158301E+03  0.00000000000E+00 0.  1.
         24    2    1    2    0    0  0.26107739192E+03  0.67539372588E+02  0.22399912252E+04  0.22575991530E+04  0.80438020785E+02 0.  0.
        254    2    1    2    0    0 -0.26107739192E+03 -0.67539372588E+02  0.14586919300E+04  0.17126671683E+04  0.85599282187E+03 0.  0.
         23    2    4    4    0    0 -0.10079013820E+03 -0.76560766414E+02  0.15128173672E+04  0.15207492105E+04  0.89674811577E+02 0.  0.
         23    2    4    4    0    0 -0.16028725372E+03  0.90213938258E+01 -0.54125437177E+02  0.19191795776E+03  0.90164018918E+02 0.  0.
          2    1    3    3  502    0  0.25735977506E+03  0.77372434116E+02  0.21953243772E+04  0.22117119316E+04  0.00000000000E+00 0. -1.
         -1    1    3    3    0  502  0.37176168563E+01 -0.98330615282E+01  0.44666848067E+02  0.45887221428E+02  0.00000000000E+00 0.  1.
         13    1    5    5    0    0 -0.28248508370E+02 -0.33359043202E+02  0.10058363104E+04  0.10067857206E+04  0.00000000000E+00 0.  1.
        -13    1    5    5    0    0 -0.72541629829E+02 -0.43201723212E+02  0.50698105683E+03  0.51396348988E+03  0.00000000000E+00 0. -1.
          1    1    6    6  503    0 -0.15441811831E+03  0.26621034447E+02 -0.65851139527E+02  0.16997060721E+03  0.00000000000E+00 0. -1.
         -1    1    6    6    0  503 -0.58691354105E+01 -0.17599640622E+02  0.11725702350E+02  0.21947350548E+02  0.00000000000E+00 0.  1.
<mgrwt>
<rscale>  0 0.14431762E+04</rscale>
<asrwt>0</asrwt>
<pdfrwt beam="1">  1        2 0.58991911E+00 0.14431762E+04</pdfrwt>
<pdfrwt beam="2">  1       -1 0.20891016E-01 0.14431762E+04</pdfrwt>
<totfact> 0.99283300E+00</totfact>
</mgrwt>
</event>
<event>
12    7  0.1606355E-007  0.1927205E+04  0.7818608E-02  0.8641432E-01
          2   -1    0    0  501    0  0.00000000000E+00  0.00000000000E+00  0.22966447807E+04  0.22966447807E+04  0.00000000000E+00 0. -1.
         -1   -1    0    0    0  501 -0.00000000000E+00 -0.00000000000E+00 -0.40429859346E+03  0.40429859346E+03  0.00000000000E+00 0.  1.
         24    2    1    2    0    0 -0.29268690289E+03  0.42506903178E+03  0.15189475091E+04  0.16061603719E+04  0.78741984507E+02 0.  0.
        254    2    1    2    0    0  0.29268690289E+03 -0.42506903178E+03  0.37339867823E+03  0.10947830023E+04  0.89037853990E+03 0.  0.
         23    2    4    4    0    0 -0.19650917165E+03 -0.44217205958E+03  0.33472323735E+03  0.59543076312E+03  0.91466732928E+02 0.  0.
         23    2    4    4    0    0  0.48919607454E+03  0.17103027802E+02  0.38675440879E+02  0.49935223918E+03  0.90838076472E+02 0.  0.
          2    1    3    3  502    0 -0.22605402493E+03  0.28188973577E+03  0.11303487808E+04  0.11866973547E+04  0.00000000000E+00 0. -1.
         -1    1    3    3    0  502 -0.66632877961E+02  0.14317929601E+03  0.38859872824E+03  0.41946301722E+03  0.00000000000E+00 0.  1.
         13    1    5    5    0    0 -0.15236507055E+03 -0.34528030511E+03  0.21167816211E+03  0.43271381782E+03  0.00000000000E+00 0.  1.
        -13    1    5    5    0    0 -0.44144101104E+02 -0.96891754472E+02  0.12304507524E+03  0.16271694530E+03  0.00000000000E+00 0. -1.
          4    1    6    6  503    0  0.17423155181E+03  0.44379705665E+02 -0.69738761446E+01  0.17993006105E+03  0.00000000000E+00 0. -1.
         -4    1    6    6    0  503  0.31496452273E+03 -0.27276677863E+02  0.45649317023E+02  0.31942217812E+03  0.00000000000E+00 0.  1.
<mgrwt>
<rscale>  0 0.19272055E+04</rscale>
<asrwt>0</asrwt>
<pdfrwt beam="1">  1        2 0.35332996E+00 0.19272055E+04</pdfrwt>
<pdfrwt beam="2">  1       -1 0.62199785E-01 0.19272055E+04</pdfrwt>
<totfact> 0.12705015E+01</totfact>
</mgrwt>
</event>
<event>
12    7  0.1606355E-007  0.1744827E+04  0.7818608E-02  0.8736203E-01
          2   -1    0    0  501    0  0.00000000000E+00  0.00000000000E+00  0.41129322267E+04  0.41129322267E+04  0.00000000000E+00 0. -1.
         -1   -1    0    0    0  501 -0.00000000000E+00 -0.00000000000E+00 -0.18505182995E+03  0.18505182995E+03  0.00000000000E+00 0.  1.
         24    2    1    2    0    0  0.17402522464E+02  0.15532692999E+03  0.29977102845E+04  0.30028262798E+04  0.79179632221E+02 0.  0.
        254    2    1    2    0    0 -0.17402522464E+02 -0.15532692999E+03  0.93017011228E+03  0.12951577768E+04  0.88757418066E+03 0.  0.
         23    2    4    4    0    0 -0.36299030717E+03 -0.14964558193E+01  0.11335756448E+03  0.39055436683E+03  0.88986367219E+02 0.  0.
         23    2    4    4    0    0  0.34558778470E+03 -0.15383047417E+03  0.81681254779E+03  0.90460341001E+03  0.89609483023E+02 0.  0.
          4    1    3    3  502    0  0.21130889826E+02  0.15249680593E+03  0.23212457963E+04  0.23263455971E+04  0.00000000000E+00 0. -1.
         -3    1    3    3    0  502 -0.37283673625E+01  0.28301240573E+01  0.67646448818E+03  0.67648068273E+03  0.00000000000E+00 0.  1.
         13    1    5    5    0    0 -0.47174656366E+02 -0.16828892796E+02  0.44403659775E+02  0.66935378070E+02  0.00000000000E+00 0. -1.
        -13    1    5    5    0    0 -0.31581565080E+03  0.15332436977E+02  0.68953904707E+02  0.32361898876E+03  0.00000000000E+00 0.  1.
          2    1    6    6  503    0  0.22356440298E+01  0.58467998690E+01  0.39166802427E+02  0.39663857418E+02  0.00000000000E+00 0. -1.
         -2    1    6    6    0  503  0.34335214067E+03 -0.15967727403E+03  0.77764574537E+03  0.86493955259E+03  0.00000000000E+00 0.  1.
<mgrwt>
<rscale>  0 0.17448274E+04</rscale>
<asrwt>0</asrwt>
<pdfrwt beam="1">  1        2 0.63275873E+00 0.17448274E+04</pdfrwt>
<pdfrwt beam="2">  1       -1 0.28469516E-01 0.17448274E+04</pdfrwt>
<totfact> 0.33924653E+00</totfact>
</mgrwt>
</event>
<event>
12    7  0.1606355E-007  0.2266228E+04  0.7818608E-02  0.8491357E-01
          2   -1    0    0  501    0  0.00000000000E+00  0.00000000000E+00  0.18987213852E+04  0.18987213852E+04  0.00000000000E+00 0. -1.
         -1   -1    0    0    0  501 -0.00000000000E+00 -0.00000000000E+00 -0.67621664135E+03  0.67621664135E+03  0.00000000000E+00 0.  1.
         24    2    1    2    0    0  0.47724355806E+02  0.94475797507E+03  0.63051692833E+03  0.11393873402E+04  0.76201499453E+02 0.  0.
        254    2    1    2    0    0 -0.47724355806E+02 -0.94475797507E+03  0.59198781548E+03  0.14355506863E+04  0.90305645099E+03 0.  0.
         23    2    4    4    0    0  0.22588855252E+03  0.49100086906E+02  0.23066930745E+03  0.33932536810E+03  0.92178735853E+02 0.  0.
         23    2    4    4    0    0 -0.27361290832E+03 -0.99385806198E+03  0.36131850803E+03  0.10962253182E+04  0.92417601522E+02 0.  0.
          4    1    3    3  502    0  0.36867097624E+02  0.73226506436E+03  0.52583174996E+03  0.90225846443E+03  0.00000000000E+00 0. -1.
         -3    1    3    3    0  502  0.10857258182E+02  0.21249291071E+03  0.10468517837E+03  0.23712887578E+03  0.00000000000E+00 0.  1.
         13    1    5    5    0    0  0.18463923792E+03  0.74228777637E+02  0.19984172155E+03  0.28202530610E+03  0.00000000000E+00 0. -1.
        -13    1    5    5    0    0  0.41249314599E+02 -0.25128690731E+02  0.30827585902E+02  0.57300062001E+02  0.00000000000E+00 0.  1.
          2    1    6    6  503    0 -0.19239156115E+03 -0.59554594667E+03  0.18084530800E+03  0.65145568754E+03  0.00000000000E+00 0. -1.
         -2    1    6    6    0  503 -0.81221347175E+02 -0.39831211530E+03  0.18047320003E+03  0.44476963067E+03  0.00000000000E+00 0.  1.
<mgrwt>
<rscale>  0 0.22662277E+04</rscale>
<asrwt>0</asrwt>
<pdfrwt beam="1">  1        2 0.29211098E+00 0.22662277E+04</pdfrwt>
<pdfrwt beam="2">  1       -1 0.10403333E+00 0.22662277E+04</pdfrwt>
<totfact> 0.68465879E+00</totfact>
</mgrwt>
</event>
<event>
12    7  0.1606355E-007  0.2622774E+04  0.7818608E-02  0.8360506E-01
          2   -1    0    0  501    0  0.00000000000E+00  0.00000000000E+00  0.12556776988E+04  0.12556776988E+04  0.00000000000E+00 0. -1.
         -1   -1    0    0    0  501 -0.00000000000E+00 -0.00000000000E+00 -0.13695678360E+04  0.13695678360E+04  0.00000000000E+00 0.  1.
         24    2    1    2    0    0  0.63508271216E+03  0.38412638367E+02  0.91285934502E+03  0.11176262996E+04  0.10474148942E+03 0.  0.
        254    2    1    2    0    0 -0.63508271216E+03 -0.38412638367E+02 -0.10267494822E+04  0.15076192352E+04  0.90216166907E+03 0.  0.
         23    2    4    4    0    0 -0.36204946917E+02 -0.39082267611E+03 -0.35641033233E+03  0.53793604857E+03  0.91069781050E+02 0.  0.
         23    2    4    4    0    0 -0.59887776525E+03  0.35241003774E+03 -0.67033914985E+03  0.96968318664E+03  0.89908254480E+02 0.  0.
          2    1    3    3  502    0  0.48772889661E+03  0.23753807455E+02  0.77057376398E+03  0.91226511810E+03  0.00000000000E+00 0. -1.
         -1    1    3    3    0  502  0.14735381555E+03  0.14658830912E+02  0.14228558104E+03  0.20536118146E+03  0.00000000000E+00 0.  1.
         13    1    5    5    0    0  0.20594146519E+02 -0.51322165322E+02 -0.75818703309E+02  0.93843269848E+02  0.00000000000E+00 0. -1.
        -13    1    5    5    0    0 -0.56799093436E+02 -0.33950051078E+03 -0.28059162903E+03  0.44409277873E+03  0.00000000000E+00 0.  1.
          4    1    6    6  503    0 -0.45883119779E+03  0.23185013670E+03 -0.52286900146E+03  0.73326158132E+03  0.00000000000E+00 0. -1.
         -4    1    6    6    0  503 -0.14004656746E+03  0.12055990104E+03 -0.14747014838E+03  0.23642160532E+03  0.00000000000E+00 0.  1.
<mgrwt>
<rscale>  0 0.26227739E+04</rscale>
<asrwt>0</asrwt>
<pdfrwt beam="1">  1        2 0.19318118E+00 0.26227739E+04</pdfrwt>
<pdfrwt beam="2">  1       -1 0.21070275E+00 0.26227739E+04</pdfrwt>
<totfact> 0.22452274E+00</totfact>
</mgrwt>
</event>
<event>
12    7  0.1606355E-007  0.1331948E+04  0.7818608E-02  0.9004607E-01
         -1   -1    0    0    0  501 -0.00000000000E+00  0.00000000000E+00  0.52412343080E+03  0.52412343080E+03  0.00000000000E+00 0.  1.
          2   -1    0    0  501    0  0.00000000000E+00 -0.00000000000E+00 -0.84621536516E+03  0.84621536516E+03  0.00000000000E+00 0. -1.
         24    2    1    2    0    0  0.87328052758E+02 -0.33794776003E+03 -0.22942122028E+03  0.42524615921E+03  0.79782970005E+02 0.  0.
        254    2    1    2    0    0 -0.87328052758E+02  0.33794776003E+03 -0.92670714074E+02  0.94509263675E+03  0.87337125753E+03 0.  0.
         23    2    4    4    0    0 -0.33152978083E+03 -0.43412439216E+02  0.19628424512E+03  0.39844296831E+03  0.91829508649E+02 0.  0.
         23    2    4    4    0    0  0.24420172807E+03  0.38136019924E+03 -0.28895495919E+03  0.54664966844E+03  0.10129563663E+03 0.  0.
          2    1    3    3  502    0 -0.22372042073E+01  0.36867218912E+01 -0.44562438721E+00  0.43353871872E+01  0.00000000000E+00 0. -1.
         -1    1    3    3    0  502  0.89565256965E+02 -0.34163448192E+03 -0.22897559590E+03  0.42091077203E+03  0.00000000000E+00 0.  1.
         13    1    5    5    0    0 -0.28808908657E+03 -0.19515062909E+02  0.13261577336E+03  0.31774691631E+03  0.00000000000E+00 0. -1.
        -13    1    5    5    0    0 -0.43440694254E+02 -0.23897376308E+02  0.63668471756E+02  0.80696051994E+02  0.00000000000E+00 0.  1.
          4    1    6    6  503    0  0.24879155907E+03  0.38413306869E+03 -0.28902585241E+03  0.54128679800E+03  0.00000000000E+00 0. -1.
         -4    1    6    6    0  503 -0.45898309966E+01 -0.27728694449E+01  0.70893214660E-01  0.53628704425E+01  0.00000000000E+00 0.  1.
<mgrwt>
<rscale>  0 0.13319479E+04</rscale>
<asrwt>0</asrwt>
<pdfrwt beam="1">  1        2 0.13018698E+00 0.13319479E+04</pdfrwt>
<pdfrwt beam="2">  1       -1 0.80634375E-01 0.13319479E+04</pdfrwt>
<totfact> 0.54700107E+01</totfact>
</mgrwt>
</event>
<event>
12    7  0.1606355E-007  0.1448559E+04  0.7818608E-02  0.8919400E-01
         -1   -1    0    0    0  501 -0.00000000000E+00  0.00000000000E+00  0.18363775753E+03  0.18363775753E+03  0.00000000000E+00 0.  1.
          2   -1    0    0  501    0  0.00000000000E+00 -0.00000000000E+00 -0.28566068186E+04  0.28566068186E+04  0.00000000000E+00 0. -1.
         24    2    1    2    0    0  0.38657886744E+03  0.17517414891E+03 -0.63742876996E+03  0.77144754310E+03  0.93202316456E+02 0.  0.
        254    2    1    2    0    0 -0.38657886744E+03 -0.17517414891E+03 -0.20355402911E+04  0.22687970330E+04  0.90768193609E+03 0.  0.
         23    2    4    4    0    0 -0.47546028729E+02 -0.37050708550E+03 -0.17061064310E+04  0.17488401577E+04  0.90036760232E+02 0.  0.
         23    2    4    4    0    0 -0.33903283871E+03  0.19533293659E+03 -0.32943386008E+03  0.51995687525E+03  0.93435871615E+02 0.  0.
          2    1    3    3  502    0  0.20030932179E+03  0.58894268000E+02 -0.37559107532E+03  0.42972202068E+03  0.00000000000E+00 0. -1.
         -1    1    3    3    0  502  0.18626954565E+03  0.11627988091E+03 -0.26183769464E+03  0.34172552242E+03  0.00000000000E+00 0.  1.
         13    1    5    5    0    0 -0.31357980395E+02 -0.30375480261E+03 -0.15221401237E+04  0.15524692780E+04  0.00000000000E+00 0.  1.
        -13    1    5    5    0    0 -0.16188048334E+02 -0.66752282893E+02 -0.18396630731E+03  0.19637087973E+03  0.00000000000E+00 0. -1.
          1    1    6    6  503    0  0.15896585837E+01 -0.26969438600E+01 -0.16514874422E+02  0.16808973728E+02  0.00000000000E+00 0. -1.
         -1    1    6    6    0  503 -0.34062249730E+03  0.19802988045E+03 -0.31291898566E+03  0.50314790152E+03  0.00000000000E+00 0.  1.
<mgrwt>
<rscale>  0 0.14485591E+04</rscale>
<asrwt>0</asrwt>
<pdfrwt beam="1">  1        2 0.43947794E+00 0.14485591E+04</pdfrwt>
<pdfrwt beam="2">  1       -1 0.28251965E-01 0.14485591E+04</pdfrwt>
<totfact> 0.26919319E+01</totfact>
</mgrwt>
</event>
<event>
12    7  0.1606355E-007  0.1286767E+04  0.7818608E-02  0.9040126E-01
          2   -1    0    0  501    0  0.00000000000E+00  0.00000000000E+00  0.66388617425E+03  0.66388617425E+03  0.00000000000E+00 0. -1.
         -1   -1    0    0    0  501 -0.00000000000E+00 -0.00000000000E+00 -0.62351355363E+03  0.62351355363E+03  0.00000000000E+00 0.  1.
         24    2    1    2    0    0  0.14007482189E+03  0.12352382360E+03  0.25372436628E+03  0.32574243704E+03  0.82782791199E+02 0.  0.
        254    2    1    2    0    0 -0.14007482189E+03 -0.12352382360E+03 -0.21335174567E+03  0.96165729084E+03  0.91890515665E+03 0.  0.
         23    2    4    4    0    0 -0.15544054385E+03 -0.84354751594E+02  0.34323620322E+03  0.39623549533E+03  0.88960607967E+02 0.  0.
         23    2    4    4    0    0  0.15365721958E+02 -0.39169072004E+02 -0.55658794889E+03  0.56542179550E+03  0.90229376429E+02 0.  0.
          4    1    3    3  502    0  0.14221158932E+03  0.13105825005E+03  0.22862245752E+03  0.29944720591E+03  0.00000000000E+00 0. -1.
         -3    1    3    3    0  502 -0.21367674258E+01 -0.75344264482E+01  0.25101908762E+02  0.26295231135E+02  0.00000000000E+00 0.  1.
         13    1    5    5    0    0 -0.76939334465E+01  0.11356451916E+02  0.69065701668E+02  0.70414748163E+02  0.00000000000E+00 0. -1.
        -13    1    5    5    0    0 -0.14774661040E+03 -0.95711203511E+02  0.27417050156E+03  0.32582074717E+03  0.00000000000E+00 0.  1.
          3    1    6    6  503    0  0.39280200551E+01  0.70419642286E+01 -0.13848270126E+01  0.81814636591E+01  0.00000000000E+00 0. -1.
         -3    1    6    6    0  503  0.11437701903E+02 -0.46211036233E+02 -0.55520312188E+03  0.55724033185E+03  0.00000000000E+00 0.  1.
<mgrwt>
<rscale>  0 0.12867665E+04</rscale>
<asrwt>0</asrwt>
<pdfrwt beam="1">  1        2 0.10213633E+00 0.12867665E+04</pdfrwt>
<pdfrwt beam="2">  1       -1 0.95925162E-01 0.12867665E+04</pdfrwt>
<totfact> 0.51451119E+01</totfact>
</mgrwt>
</event>
<event>
12    7  0.1606355E-007  0.2740139E+04  0.7818608E-02  0.8322098E-01
         -1   -1    0    0    0  501 -0.00000000000E+00  0.00000000000E+00  0.59623081937E+03  0.59623081937E+03  0.00000000000E+00 0.  1.
          2   -1    0    0  501    0  0.00000000000E+00 -0.00000000000E+00 -0.31482614528E+04  0.31482614528E+04  0.00000000000E+00 0. -1.
         24    2    1    2    0    0 -0.67592700818E+03 -0.12558166058E+03  0.23995930194E+03  0.73247040777E+03  0.79273941546E+02 0.  0.
        254    2    1    2    0    0  0.67592700818E+03  0.12558166058E+03 -0.27919899354E+04  0.30120218644E+04  0.89689455268E+03 0.  0.
         23    2    4    4    0    0  0.10832299672E+03 -0.14492064061E+03 -0.19361040081E+04  0.19466392190E+04  0.90386145532E+02 0.  0.
         23    2    4    4    0    0  0.56760401146E+03  0.27050230119E+03 -0.85588592731E+03  0.10653826454E+04  0.84579263177E+02 0.  0.
          2    1    3    3  502    0 -0.49539473678E+03 -0.56252975718E+02  0.16774603277E+03  0.52604094329E+03  0.00000000000E+00 0. -1.
         -1    1    3    3    0  502 -0.18053227140E+03 -0.69328684858E+02  0.72213269162E+02  0.20642946448E+03  0.00000000000E+00 0.  1.
         13    1    5    5    0    0  0.42184353474E+02 -0.42646606124E+02 -0.11084109799E+04  0.11100329513E+04  0.00000000000E+00 0.  1.
        -13    1    5    5    0    0  0.66138643246E+02 -0.10227403449E+03 -0.82769302822E+03  0.83660626775E+03  0.00000000000E+00 0. -1.
          4    1    6    6  503    0  0.46014585110E+02  0.37710197568E-01 -0.77702753164E+02  0.90305378102E+02  0.00000000000E+00 0. -1.
         -4    1    6    6    0  503  0.52158942635E+03  0.27046459099E+03 -0.77818317415E+03  0.97507726729E+03  0.00000000000E+00 0.  1.
<mgrwt>
<rscale>  0 0.27401391E+04</rscale>
<asrwt>0</asrwt>
<pdfrwt beam="1">  1        2 0.48434791E+00 0.27401391E+04</pdfrwt>
<pdfrwt beam="2">  1       -1 0.91727820E-01 0.27401391E+04</pdfrwt>
<totfact> 0.16122572E+00</totfact>
</mgrwt>
</event>
<event>
12    7  0.1606355E-007  0.1648203E+04  0.7818608E-02  0.8791470E-01
         -1   -1    0    0    0  501 -0.00000000000E+00  0.00000000000E+00  0.59267859745E+03  0.59267859745E+03  0.00000000000E+00 0.  1.
          2   -1    0    0  501    0  0.00000000000E+00 -0.00000000000E+00 -0.11458881023E+04  0.11458881023E+04  0.00000000000E+00 0. -1.
         24    2    1    2    0    0 -0.88256909925E+02  0.23675079577E+03 -0.73808139856E+03  0.78427142132E+03  0.80481612510E+02 0.  0.
        254    2    1    2    0    0  0.88256909925E+02 -0.23675079577E+03  0.18487189374E+03  0.95429527840E+03  0.90147747605E+03 0.  0.
         23    2    4    4    0    0  0.43474137533E+03  0.68002115136E+02  0.32346101226E+01  0.44974477380E+03  0.92927648058E+02 0.  0.
         23    2    4    4    0    0 -0.34648446541E+03 -0.30475291090E+03  0.18163728362E+03  0.50455050459E+03  0.93023047746E+02 0.  0.
          2    1    3    3  502    0 -0.84217172076E+02  0.11141864875E+03 -0.37755893738E+03  0.40256353356E+03  0.00000000000E+00 0. -1.
         -3    1    3    3    0  502 -0.40397378487E+01  0.12533214701E+03 -0.36052246118E+03  0.38170788775E+03  0.00000000000E+00 0.  1.
         13    1    5    5    0    0  0.34360398458E+03  0.14373988394E+02  0.61527387376E+01  0.34395954116E+03  0.00000000000E+00 0. -1.
        -13    1    5    5    0    0  0.91137390753E+02  0.53628126742E+02 -0.29181286150E+01  0.10578523265E+03  0.00000000000E+00 0.  1.
          3    1    6    6  503    0 -0.17934858361E+03 -0.10177655747E+03  0.10037800577E+03  0.22934717381E+03  0.00000000000E+00 0. -1.
         -3    1    6    6    0  503 -0.16713588180E+03 -0.20297635343E+03  0.81259277847E+02  0.27520333078E+03  0.00000000000E+00 0.  1.
<mgrwt>
<rscale>  0 0.16482031E+04</rscale>
<asrwt>0</asrwt>
<pdfrwt beam="1">  1        2 0.17629047E+00 0.16482031E+04</pdfrwt>
<pdfrwt beam="2">  1       -1 0.91181324E-01 0.16482031E+04</pdfrwt>
<totfact> 0.26113660E+01</totfact>
</mgrwt>
</event>
<event>
12    7  0.1606355E-007  0.1888157E+04  0.7818608E-02  0.8660774E-01
         -1   -1    0    0    0  501 -0.00000000000E+00  0.00000000000E+00  0.76877913205E+03  0.76877913205E+03  0.00000000000E+00 0.  1.
          2   -1    0    0  501    0  0.00000000000E+00 -0.00000000000E+00 -0.11593496459E+04  0.11593496459E+04  0.00000000000E+00 0. -1.
         24    2    1    2    0    0 -0.24158392496E+03 -0.58105365476E+03  0.21905150711E+03  0.67134759084E+03  0.82084605481E+02 0.  0.
        254    2    1    2    0    0  0.24158392496E+03  0.58105365476E+03 -0.60962202101E+03  0.12567811871E+04  0.90104039941E+03 0.  0.
         23    2    4    4    0    0  0.53947403341E+03  0.52148480630E+03 -0.29949803780E+03  0.81314014472E+03  0.92299427836E+02 0.  0.
         23    2    4    4    0    0 -0.29789010845E+03  0.59568848462E+02 -0.31012398321E+03  0.44364104243E+03  0.91397621152E+02 0.  0.
          2    1    3    3  502    0 -0.10049031976E+03 -0.15267671654E+03  0.78664517943E+02  0.19898892060E+03  0.00000000000E+00 0. -1.
         -1    1    3    3    0  502 -0.14109360520E+03 -0.42837693822E+03  0.14038698917E+03  0.47235867025E+03  0.00000000000E+00 0.  1.
         13    1    5    5    0    0  0.51053652062E+03  0.46286533471E+03 -0.28742086113E+03  0.74666097285E+03  0.00000000000E+00 0.  1.
        -13    1    5    5    0    0  0.28937512785E+02  0.58619471588E+02 -0.12077176673E+02  0.66479171865E+02  0.00000000000E+00 0. -1.
          4    1    6    6  503    0 -0.13328990392E+03 -0.98250698980E+01 -0.17208631799E+03  0.21789087022E+03  0.00000000000E+00 0. -1.
         -4    1    6    6    0  503 -0.16460020453E+03  0.69393918360E+02 -0.13803766522E+03  0.22575017222E+03  0.00000000000E+00 0.  1.
<mgrwt>
<rscale>  0 0.18881566E+04</rscale>
<asrwt>0</asrwt>
<pdfrwt beam="1">  1        2 0.17836148E+00 0.18881566E+04</pdfrwt>
<pdfrwt beam="2">  1       -1 0.11827371E+00 0.18881566E+04</pdfrwt>
<totfact> 0.13741949E+01</totfact>
</mgrwt>
</event>
<event>
12    7  0.1606355E-007  0.1920635E+04  0.7818608E-02  0.8644653E-01
          2   -1    0    0  501    0  0.00000000000E+00  0.00000000000E+00  0.11098339762E+04  0.11098339762E+04  0.00000000000E+00 0. -1.
         -1   -1    0    0    0  501 -0.00000000000E+00 -0.00000000000E+00 -0.83094368492E+03  0.83094368492E+03  0.00000000000E+00 0.  1.
         24    2    1    2    0    0  0.37589286924E+03 -0.34423920117E+03 -0.43782943834E+03  0.67682483124E+03  0.81247512839E+02 0.  0.
        254    2    1    2    0    0 -0.37589286924E+03  0.34423920117E+03  0.71671972966E+03  0.12639528299E+04  0.90779596200E+03 0.  0.
         23    2    4    4    0    0 -0.10330834082E+03  0.62385359724E+03  0.41168958044E+03  0.76017050678E+03  0.92222365270E+02 0.  0.
         23    2    4    4    0    0 -0.27258452842E+03 -0.27961439607E+03  0.30503014921E+03  0.50378232315E+03  0.90921403207E+02 0.  0.
          2    1    3    3  502    0  0.31479742773E+03 -0.31551833526E+03 -0.35392271677E+03  0.56913138187E+03  0.00000000000E+00 0. -1.
         -1    1    3    3    0  502  0.61095441518E+02 -0.28720865910E+02 -0.83906721567E+02  0.10769344937E+03  0.00000000000E+00 0.  1.
         13    1    5    5    0    0 -0.21273489715E+02  0.10311798054E+03  0.11225589491E+03  0.15390667698E+03  0.00000000000E+00 0. -1.
        -13    1    5    5    0    0 -0.82034851110E+02  0.52073561670E+03  0.29943368553E+03  0.60626382980E+03  0.00000000000E+00 0.  1.
          2    1    6    6  503    0 -0.50777320655E+02 -0.10801734386E+02  0.31227375671E+02  0.60581868162E+02  0.00000000000E+00 0. -1.
         -2    1    6    6    0  503 -0.22180720776E+03 -0.26881266169E+03  0.27380277354E+03  0.44320045498E+03  0.00000000000E+00 0.  1.
<mgrwt>
<rscale>  0 0.19206348E+04</rscale>
<asrwt>0</asrwt>
<pdfrwt beam="1">  1        2 0.17074369E+00 0.19206348E+04</pdfrwt>
<pdfrwt beam="2">  1       -1 0.12783749E+00 0.19206348E+04</pdfrwt>
<totfact> 0.12121573E+01</totfact>
</mgrwt>
</event>
<event>
12    7  0.1606355E-007  0.1259092E+04  0.7818608E-02  0.9062649E-01
         -1   -1    0    0    0  501 -0.00000000000E+00  0.00000000000E+00  0.38144129221E+03  0.38144129221E+03  0.00000000000E+00 0.  1.
          2   -1    0    0  501    0  0.00000000000E+00 -0.00000000000E+00 -0.10390285640E+04  0.10390285640E+04  0.00000000000E+00 0. -1.
         24    2    1    2    0    0 -0.58470806658E+02  0.59008108585E+02  0.16635285949E+03  0.20078853275E+03  0.75775780533E+02 0.  0.
        254    2    1    2    0    0  0.58470806658E+02 -0.59008108585E+02 -0.82394013130E+03  0.12196813235E+04  0.89545764768E+03 0.  0.
         23    2    4    4    0    0  0.28590634105E+03 -0.37210820517E+03 -0.57696165524E+03  0.74937027975E+03  0.92000610603E+02 0.  0.
         23    2    4    4    0    0 -0.22743553440E+03  0.31310009658E+03 -0.24697847606E+03  0.47031104374E+03  0.10215438042E+03 0.  0.
          2    1    3    3  502    0  0.11294536824E+02  0.10110568313E+02  0.72360994755E+02  0.73931750389E+02  0.00000000000E+00 0. -1.
         -1    1    3    3    0  502 -0.69765343481E+02  0.48897540272E+02  0.93991864730E+02  0.12685678236E+03  0.00000000000E+00 0.  1.
         13    1    5    5    0    0  0.16324110866E+03 -0.19976077734E+03 -0.38669804967E+03  0.46485202951E+03  0.00000000000E+00 0. -1.
        -13    1    5    5    0    0  0.12266523239E+03 -0.17234742783E+03 -0.19026360557E+03  0.28451825024E+03  0.00000000000E+00 0.  1.
          1    1    6    6  503    0 -0.20811475058E+03  0.22535177467E+03 -0.16319720587E+03  0.34746006930E+03  0.00000000000E+00 0. -1.
         -1    1    6    6    0  503 -0.19320783821E+02  0.87748321912E+02 -0.83781270191E+02  0.12285097444E+03  0.00000000000E+00 0.  1.
<mgrwt>
<rscale>  0 0.12590924E+04</rscale>
<asrwt>0</asrwt>
<pdfrwt beam="1">  1        2 0.15985055E+00 0.12590924E+04</pdfrwt>
<pdfrwt beam="2">  1       -1 0.58683276E-01 0.12590924E+04</pdfrwt>
<totfact> 0.78470292E+01</totfact>
</mgrwt>
</event>
<event>
12    7  0.1606355E-007  0.3947000E+04  0.7818608E-02  0.8015324E-01
          2   -1    0    0  501    0  0.00000000000E+00  0.00000000000E+00  0.14682283354E+04  0.14682283354E+04  0.00000000000E+00 0. -1.
         -1   -1    0    0    0  501 -0.00000000000E+00 -0.00000000000E+00 -0.26526548323E+04  0.26526548323E+04  0.00000000000E+00 0.  1.
         24    2    1    2    0    0  0.18242277426E+04 -0.39452921326E+03 -0.69021075037E+03  0.19916702334E+04  0.83061914084E+02 0.  0.
        254    2    1    2    0    0 -0.18242277426E+04  0.39452921326E+03 -0.49421574649E+03  0.21292129344E+04  0.89768499977E+03 0.  0.
         23    2    4    4    0    0 -0.40644787733E+03  0.45899551950E+03  0.11635117148E+02  0.61973595607E+03  0.89780373068E+02 0.  0.
         23    2    4    4    0    0 -0.14177798653E+04 -0.64466306237E+02 -0.50585086364E+03  0.15094769783E+04  0.91542344107E+02 0.  0.
          4    1    3    3  502    0  0.67498410669E+03 -0.15374075978E+03 -0.21416351700E+03  0.72464182705E+03  0.00000000000E+00 0. -1.
         -3    1    3    3    0  502  0.11492436359E+04 -0.24078845349E+03 -0.47604723336E+03  0.12670284063E+04  0.00000000000E+00 0.  1.
         13    1    5    5    0    0 -0.25606021567E+03  0.23502192182E+03  0.32903793624E+02  0.34912003297E+03  0.00000000000E+00 0. -1.
        -13    1    5    5    0    0 -0.15038766166E+03  0.22397359768E+03 -0.21268676476E+02  0.27061592310E+03  0.00000000000E+00 0.  1.
          3    1    6    6  503    0 -0.16720135883E+03 -0.64346590461E+01 -0.91837016589E+02  0.19087099530E+03  0.00000000000E+00 0. -1.
         -3    1    6    6    0  503 -0.12505785064E+04 -0.58031647191E+02 -0.41401384705E+03  0.13186059830E+04  0.00000000000E+00 0.  1.
<mgrwt>
<rscale>  0 0.39470004E+04</rscale>
<asrwt>0</asrwt>
<pdfrwt beam="1">  1        2 0.22588128E+00 0.39470004E+04</pdfrwt>
<pdfrwt beam="2">  1       -1 0.40810074E+00 0.39470004E+04</pdfrwt>
<totfact> 0.75109395E-02</totfact>
</mgrwt>
</event>
<event>
12    7  0.1606355E-007  0.1900218E+04  0.7818608E-02  0.8654748E-01
          2   -1    0    0  501    0  0.00000000000E+00  0.00000000000E+00  0.40385470622E+04  0.40385470622E+04  0.00000000000E+00 0. -1.
         -1   -1    0    0    0  501 -0.00000000000E+00 -0.00000000000E+00 -0.22352268389E+03  0.22352268389E+03  0.00000000000E+00 0.  1.
         24    2    1    2    0    0  0.39932259910E+03  0.15951719022E+03  0.28400309432E+04  0.28735997106E+04  0.83037742243E+02 0.  0.
        254    2    1    2    0    0 -0.39932259910E+03 -0.15951719022E+03  0.97499343516E+03  0.13884700355E+04  0.89013064697E+03 0.  0.
         23    2    4    4    0    0 -0.17730089449E+03 -0.17545723105E+03 -0.10204071658E+03  0.28473444867E+03  0.91872473040E+02 0.  0.
         23    2    4    4    0    0 -0.22202170460E+03  0.15940040831E+02  0.10770341517E+04  0.11037355868E+04  0.93177032272E+02 0.  0.
          2    1    3    3  502    0  0.37345662285E+03  0.13723566811E+03  0.27147167332E+04  0.27437183564E+04  0.00000000000E+00 0. -1.
         -1    1    3    3    0  502  0.25865976250E+02  0.22281522110E+02  0.12531420997E+03  0.12988135422E+03  0.00000000000E+00 0.  1.
         13    1    5    5    0    0 -0.14594082861E+03 -0.18219508590E+03 -0.94092348274E+02  0.25168858692E+03  0.00000000000E+00 0.  1.
        -13    1    5    5    0    0 -0.31360065883E+02  0.67378548479E+01 -0.79483683094E+01  0.33045861752E+02  0.00000000000E+00 0. -1.
          4    1    6    6  503    0  0.52316437814E+01 -0.13632339270E+01  0.38990751010E+01  0.66656800132E+01  0.00000000000E+00 0. -1.
         -4    1    6    6    0  503 -0.22725334838E+03  0.17303274758E+02  0.10731350766E+04  0.10970699068E+04  0.00000000000E+00 0.  1.
<mgrwt>
<rscale>  0 0.19002178E+04</rscale>
<asrwt>0</asrwt>
<pdfrwt beam="1">  1        2 0.62131488E+00 0.19002178E+04</pdfrwt>
<pdfrwt beam="2">  1       -1 0.34388108E-01 0.19002178E+04</pdfrwt>
<totfact> 0.27526017E+00</totfact>
</mgrwt>
</event>
<event>
12    7  0.1606355E-007  0.2715774E+04  0.7818608E-02  0.8329905E-01
          2   -1    0    0  501    0  0.00000000000E+00  0.00000000000E+00  0.18020876572E+04  0.18020876572E+04  0.00000000000E+00 0. -1.
         -3   -1    0    0    0  501 -0.00000000000E+00 -0.00000000000E+00 -0.10231784001E+04  0.10231784001E+04  0.00000000000E+00 0.  1.
         24    2    1    2    0    0  0.41660561894E+03  0.57858625180E+02 -0.82746732277E+03  0.93099594900E+03  0.71717672675E+02 0.  0.
        254    2    1    2    0    0 -0.41660561894E+03 -0.57858625180E+02  0.16063765799E+04  0.18942701084E+04  0.91154027047E+03 0.  0.
         23    2    4    4    0    0 -0.24102739362E+02  0.23564679122E+03  0.47848147977E+02  0.25794805183E+03  0.90207538037E+02 0.  0.
         23    2    4    4    0    0 -0.39250287958E+03 -0.29350541640E+03  0.15585284319E+04  0.16363220565E+04  0.91296547602E+02 0.  0.
          2    1    3    3  502    0  0.13934422387E+02 -0.10786349118E+02 -0.25567254727E+02  0.31051537302E+02  0.00000000000E+00 0. -1.
         -1    1    3    3    0  502  0.40267119655E+03  0.68644974299E+02 -0.80190006804E+03  0.89994441170E+03  0.00000000000E+00 0.  1.
         13    1    5    5    0    0  0.19666073080E+02  0.18453158162E+03  0.27211801699E+02  0.18756103326E+03  0.00000000000E+00 0. -1.
        -13    1    5    5    0    0 -0.43768812442E+02  0.51115209604E+02  0.20636346278E+02  0.70387018570E+02  0.00000000000E+00 0.  1.
          4    1    6    6  503    0 -0.26668814299E+03 -0.17204725817E+03  0.87500590558E+03  0.93078362655E+03  0.00000000000E+00 0. -1.
         -4    1    6    6    0  503 -0.12581473659E+03 -0.12145815823E+03  0.68352252635E+03  0.70553842997E+03  0.00000000000E+00 0.  1.
<mgrwt>
<rscale>  0 0.27157740E+04</rscale>
<asrwt>0</asrwt>
<pdfrwt beam="1">  1        2 0.27724425E+00 0.27157740E+04</pdfrwt>
<pdfrwt beam="2">  1       -3 0.15741206E+00 0.27157740E+04</pdfrwt>
<totfact> 0.13592319E+00</totfact>
</mgrwt>
</event>
<event>
12    7  0.1606355E-007  0.1922205E+04  0.7818608E-02  0.8643882E-01
         -3   -1    0    0    0  501 -0.00000000000E+00  0.00000000000E+00  0.51218863449E+03  0.51218863449E+03  0.00000000000E+00 0.  1.
          2   -1    0    0  501    0  0.00000000000E+00 -0.00000000000E+00 -0.18034721841E+04  0.18034721841E+04  0.00000000000E+00 0. -1.
         24    2    1    2    0    0  0.33892757766E+03 -0.14225110318E+03 -0.12380051584E+04  0.12938013166E+04  0.78471622685E+02 0.  0.
        254    2    1    2    0    0 -0.33892757766E+03  0.14225110318E+03 -0.53278391299E+02  0.10218595020E+04  0.95197215063E+03 0.  0.
         23    2    4    4    0    0 -0.65412419911E+03 -0.38405620933E+01 -0.16020499479E+02  0.66071317537E+03  0.91608001421E+02 0.  0.
         23    2    4    4    0    0  0.31519662146E+03  0.14609166527E+03 -0.37257891820E+02  0.36114632662E+03  0.91361008594E+02 0.  0.
          2    1    3    3  502    0  0.22835319156E+03 -0.92664315522E+02 -0.94770965998E+03  0.97922696812E+03  0.00000000000E+00 0. -1.
         -1    1    3    3    0  502  0.11057438609E+03 -0.49586787658E+02 -0.29029549838E+03  0.31457434853E+03  0.00000000000E+00 0.  1.
         13    1    5    5    0    0 -0.64690390398E+03 -0.11801968567E+02 -0.75944389744E+01  0.64705612040E+03  0.00000000000E+00 0.  1.
        -13    1    5    5    0    0 -0.72202951346E+01  0.79614064738E+01 -0.84260605043E+01  0.13657054972E+02  0.00000000000E+00 0. -1.
          2    1    6    6  503    0  0.88746504672E+02  0.25522275225E+02 -0.48593033512E+02  0.10434850996E+03  0.00000000000E+00 0. -1.
         -2    1    6    6    0  503  0.22645011678E+03  0.12056939005E+03  0.11335141692E+02  0.25679781667E+03  0.00000000000E+00 0.  1.
<mgrwt>
<rscale>  0 0.19222049E+04</rscale>
<asrwt>0</asrwt>
<pdfrwt beam="1">  1        2 0.27745726E+00 0.19222049E+04</pdfrwt>
<pdfrwt beam="2">  1       -3 0.78798250E-01 0.19222049E+04</pdfrwt>
<totfact> 0.77159756E+00</totfact>
</mgrwt>
</event>
<event>
12    7  0.1606355E-007  0.1587240E+04  0.7818608E-02  0.8828425E-01
         -1   -1    0    0    0  501 -0.00000000000E+00  0.00000000000E+00  0.56133515107E+03  0.56133515107E+03  0.00000000000E+00 0.  1.
          2   -1    0    0  501    0  0.00000000000E+00 -0.00000000000E+00 -0.11220266461E+04  0.11220266461E+04  0.00000000000E+00 0. -1.
         24    2    1    2    0    0 -0.45149319705E+03 -0.25479657078E+03 -0.17436533496E+03  0.55275519036E+03  0.79797437166E+02 0.  0.
        254    2    1    2    0    0  0.45149319705E+03  0.25479657078E+03 -0.38632616009E+03  0.11306066068E+04  0.92749986414E+03 0.  0.
         23    2    4    4    0    0  0.60800850828E+03 -0.39669339376E+02 -0.47058450406E+03  0.77556535421E+03  0.93828783157E+02 0.  0.
         23    2    4    4    0    0 -0.15651531123E+03  0.29446591015E+03  0.84258343972E+02  0.35504125263E+03  0.88020495595E+02 0.  0.
          4    1    3    3  502    0 -0.61845982419E+02 -0.13169860195E+02 -0.40640863135E+02  0.75166817914E+02  0.00000000000E+00 0. -1.
         -3    1    3    3    0  502 -0.38964721463E+03 -0.24162671058E+03 -0.13372447182E+03  0.47758837245E+03  0.00000000000E+00 0.  1.
         13    1    5    5    0    0  0.43849279389E+03 -0.58933559216E+02 -0.30173791425E+03  0.53553231797E+03  0.00000000000E+00 0. -1.
        -13    1    5    5    0    0  0.16951571439E+03  0.19264219840E+02 -0.16884658982E+03  0.24003303623E+03  0.00000000000E+00 0.  1.
          3    1    6    6  503    0 -0.11922874342E+03  0.22270049417E+03  0.23131157406E+02  0.25366523965E+03  0.00000000000E+00 0. -1.
         -3    1    6    6    0  503 -0.37286567817E+02  0.71765415979E+02  0.61127186566E+02  0.10137601298E+03  0.00000000000E+00 0.  1.
<mgrwt>
<rscale>  0 0.15872404E+04</rscale>
<asrwt>0</asrwt>
<pdfrwt beam="1">  1        2 0.17261948E+00 0.15872404E+04</pdfrwt>
<pdfrwt beam="2">  1       -1 0.86359255E-01 0.15872404E+04</pdfrwt>
<totfact> 0.30579893E+01</totfact>
</mgrwt>
</event>
<event>
12    7  0.1606355E-007  0.3204077E+04  0.7818608E-02  0.8187741E-01
          2   -1    0    0  501    0  0.00000000000E+00  0.00000000000E+00  0.13455617945E+04  0.13455617945E+04  0.00000000000E+00 0. -1.
         -1   -1    0    0    0  501 -0.00000000000E+00 -0.00000000000E+00 -0.19074015335E+04  0.19074015335E+04  0.00000000000E+00 0.  1.
         24    2    1    2    0    0  0.11083680323E+04  0.84690368938E+03  0.22090489995E+03  0.14145751003E+04  0.80611322489E+02 0.  0.
        254    2    1    2    0    0 -0.11083680323E+04 -0.84690368938E+03 -0.78274463897E+03  0.18383882277E+04  0.90623206274E+03 0.  0.
         23    2    4    4    0    0 -0.77692052593E+03 -0.94893905664E+03 -0.81943366101E+03  0.14778363932E+04  0.91858823207E+02 0.  0.
         23    2    4    4    0    0 -0.33144750642E+03  0.10203536726E+03  0.36689022042E+02  0.36055183447E+03  0.91558043442E+02 0.  0.
          4    1    3    3  502    0  0.68397053287E+03  0.56104187086E+03  0.11560499876E+03  0.89215928310E+03  0.00000000000E+00 0. -1.
         -3    1    3    3    0  502  0.42439749948E+03  0.28586181852E+03  0.10529990118E+03  0.52241581718E+03  0.00000000000E+00 0.  1.
         13    1    5    5    0    0 -0.21380504068E+02 -0.32555585831E+02 -0.47088278112E+02  0.61108903268E+02  0.00000000000E+00 0.  1.
        -13    1    5    5    0    0 -0.75554002186E+03 -0.91638347081E+03 -0.77234538290E+03  0.14167274899E+04  0.00000000000E+00 0. -1.
          2    1    6    6  503    0 -0.90109543284E+02  0.70543837575E+02  0.13741508405E+00  0.11443854986E+03  0.00000000000E+00 0. -1.
         -2    1    6    6    0  503 -0.24133796314E+03  0.31491529686E+02  0.36551606958E+02  0.24611328461E+03  0.00000000000E+00 0.  1.
<mgrwt>
<rscale>  0 0.32040765E+04</rscale>
<asrwt>0</asrwt>
<pdfrwt beam="1">  1        2 0.20700951E+00 0.32040765E+04</pdfrwt>
<pdfrwt beam="2">  1       -1 0.29344639E+00 0.32040765E+04</pdfrwt>
<totfact> 0.54297069E-01</totfact>
</mgrwt>
</event>
<event>
12    7  0.1606355E-007  0.2161783E+04  0.7818608E-02  0.8534505E-01
          2   -1    0    0  501    0  0.00000000000E+00  0.00000000000E+00  0.29417098187E+04  0.29417098187E+04  0.00000000000E+00 0. -1.
         -1   -1    0    0    0  501 -0.00000000000E+00 -0.00000000000E+00 -0.39715905476E+03  0.39715905476E+03  0.00000000000E+00 0.  1.
         24    2    1    2    0    0 -0.25978638785E+03  0.51886079757E+03  0.22001477143E+04  0.22767764569E+04  0.79721861895E+02 0.  0.
        254    2    1    2    0    0  0.25978638785E+03 -0.51886079757E+03  0.34440304968E+03  0.10620924166E+04  0.82019591944E+03 0.  0.
         23    2    4    4    0    0  0.16344999671E+03 -0.71810218926E+03  0.15731255920E+03  0.75863589138E+03  0.91621606408E+02 0.  0.
         23    2    4    4    0    0  0.96336391144E+02  0.19924139169E+03  0.18709049048E+03  0.30345652524E+03  0.90028765753E+02 0.  0.
          2    1    3    3  502    0 -0.96193755823E+02  0.25959514245E+03  0.11452645860E+04  0.11782503335E+04  0.00000000000E+00 0. -1.
         -1    1    3    3    0  502 -0.16359263203E+03  0.25926565512E+03  0.10548831283E+04  0.10985261233E+04  0.00000000000E+00 0.  1.
         13    1    5    5    0    0 -0.74569773866E+01 -0.55746934702E+01  0.33709013194E+01  0.99018530961E+01  0.00000000000E+00 0.  1.
        -13    1    5    5    0    0  0.17090697410E+03 -0.71252749579E+03  0.15394165788E+03  0.74873403829E+03  0.00000000000E+00 0. -1.
          1    1    6    6  503    0  0.89763838943E+02  0.13230222185E+03  0.84644664103E+02  0.18090368667E+03  0.00000000000E+00 0. -1.
         -1    1    6    6    0  503  0.65725522013E+01  0.66939169844E+02  0.10244582638E+03  0.12255283858E+03  0.00000000000E+00 0.  1.
<mgrwt>
<rscale>  0 0.21617832E+04</rscale>
<asrwt>0</asrwt>
<pdfrwt beam="1">  1        2 0.45257073E+00 0.21617832E+04</pdfrwt>
<pdfrwt beam="2">  1       -1 0.61101395E-01 0.21617832E+04</pdfrwt>
<totfact> 0.53729074E+00</totfact>
</mgrwt>
</event>
<event>
12    7  0.1606355E-007  0.3098789E+04  0.7818608E-02  0.8216070E-01
          2   -1    0    0  501    0  0.00000000000E+00  0.00000000000E+00  0.21852901926E+04  0.21852901926E+04  0.00000000000E+00 0. -1.
         -1   -1    0    0    0  501 -0.00000000000E+00 -0.00000000000E+00 -0.10985373047E+04  0.10985373047E+04  0.00000000000E+00 0.  1.
         24    2    1    2    0    0  0.13521260963E+02  0.64281837298E+02 -0.10094451174E+04  0.10147377927E+04  0.79989773444E+02 0.  0.
        254    2    1    2    0    0 -0.13521260963E+02 -0.64281837298E+02  0.20961980054E+04  0.22690897046E+04  0.86626037112E+03 0.  0.
         23    2    4    4    0    0 -0.85871036811E+02 -0.36782230813E+03  0.46562895718E+03  0.60647380996E+03  0.91285656502E+02 0.  0.
         23    2    4    4    0    0  0.72349775848E+02  0.30354047083E+03  0.16305690482E+04  0.16626158946E+04  0.90359750911E+02 0.  0.
          4    1    3    3  502    0  0.60859604949E+01  0.48527192014E+02 -0.23206908861E+03  0.23716658527E+03  0.00000000000E+00 0. -1.
         -3    1    3    3    0  502  0.74353004683E+01  0.15754645284E+02 -0.77737602880E+03  0.77757120747E+03  0.00000000000E+00 0.  1.
         13    1    5    5    0    0 -0.86212231498E+02 -0.32345102740E+03  0.44676451827E+03  0.55825769209E+03  0.00000000000E+00 0. -1.
        -13    1    5    5    0    0  0.34119468736E+00 -0.44371280730E+02  0.18864438902E+02  0.48216117871E+02  0.00000000000E+00 0.  1.
          3    1    6    6  503    0  0.93962604168E+02  0.25303092445E+03  0.13596465775E+04  0.13861790777E+04  0.00000000000E+00 0. -1.
         -3    1    6    6    0  503 -0.21612828321E+02  0.50509546388E+02  0.27092247069E+03  0.27643681692E+03  0.00000000000E+00 0.  1.
<mgrwt>
<rscale>  0 0.30987887E+04</rscale>
<asrwt>0</asrwt>
<pdfrwt beam="1">  1        2 0.33619849E+00 0.30987887E+04</pdfrwt>
<pdfrwt beam="2">  1       -1 0.16900574E+00 0.30987887E+04</pdfrwt>
<totfact> 0.12716163E+00</totfact>
</mgrwt>
</event>
<event>
12    7  0.1606355E-007  0.2273897E+04  0.7818608E-02  0.8488285E-01
          2   -1    0    0  501    0  0.00000000000E+00  0.00000000000E+00  0.16768938246E+04  0.16768938246E+04  0.00000000000E+00 0. -1.
         -1   -1    0    0    0  501 -0.00000000000E+00 -0.00000000000E+00 -0.77086082899E+03  0.77086082899E+03  0.00000000000E+00 0.  1.
         24    2    1    2    0    0 -0.43170121284E+02  0.11569152430E+03  0.14017500738E+04  0.14094610960E+04  0.80181815215E+02 0.  0.
        254    2    1    2    0    0  0.43170121284E+02 -0.11569152430E+03 -0.49571707816E+03  0.10382935576E+04  0.90391919003E+03 0.  0.
         23    2    4    4    0    0  0.16351894829E+03  0.14327497092E+03  0.18149348297E+03  0.29772914699E+03  0.91850949158E+02 0.  0.
         23    2    4    4    0    0 -0.12034882701E+03 -0.25896649522E+03 -0.67721056113E+03  0.74056441066E+03  0.90961620605E+02 0.  0.
          2    1    3    3  502    0  0.86851137865E+01  0.22449556814E+02  0.61964872916E+03  0.62011608700E+03  0.00000000000E+00 0. -1.
         -1    1    3    3    0  502 -0.51855235071E+02  0.93241967487E+02  0.78210134464E+03  0.78934500897E+03  0.00000000000E+00 0.  1.
         13    1    5    5    0    0  0.14384333426E+03  0.97606283585E+02  0.95357761218E+02  0.19827000285E+03  0.00000000000E+00 0. -1.
        -13    1    5    5    0    0  0.19675614037E+02  0.45668687335E+02  0.86135721753E+02  0.99459144137E+02  0.00000000000E+00 0.  1.
          4    1    6    6  503    0 -0.76486637866E+02 -0.67469096654E+02 -0.20020871468E+03  0.22469048535E+03  0.00000000000E+00 0. -1.
         -4    1    6    6    0  503 -0.43862189143E+02 -0.19149739857E+03 -0.47700184645E+03  0.51587392531E+03  0.00000000000E+00 0.  1.
<mgrwt>
<rscale>  0 0.22738969E+04</rscale>
<asrwt>0</asrwt>
<pdfrwt beam="1">  1        2 0.25798367E+00 0.22738969E+04</pdfrwt>
<pdfrwt beam="2">  1       -1 0.11859397E+00 0.22738969E+04</pdfrwt>
<totfact> 0.66597692E+00</totfact>
</mgrwt>
</event>
<event>
12    7  0.1606355E-007  0.2663885E+04  0.7818608E-02  0.8346819E-01
         -1   -1    0    0    0  501 -0.00000000000E+00  0.00000000000E+00  0.97026896247E+03  0.97026896247E+03  0.00000000000E+00 0.  1.
          2   -1    0    0  501    0  0.00000000000E+00 -0.00000000000E+00 -0.18284319576E+04  0.18284319576E+04  0.00000000000E+00 0. -1.
         24    2    1    2    0    0  0.76689532206E+03 -0.77750700135E+03 -0.83686805112E+03  0.13780742951E+04  0.78070837218E+02 0.  0.
        254    2    1    2    0    0 -0.76689532206E+03  0.77750700135E+03 -0.21294943981E+02  0.14206266250E+04  0.90833967255E+03 0.  0.
         23    2    4    4    0    0 -0.69697607626E+03  0.94879401491E+03  0.94221004380E+02  0.11844230424E+04  0.89412595340E+02 0.  0.
         23    2    4    4    0    0 -0.69919245800E+02 -0.17128701355E+03 -0.11551594836E+03  0.23620358251E+03  0.90665628110E+02 0.  0.
          4    1    3    3  502    0  0.71269398490E+03 -0.69301233864E+03 -0.77066175196E+03  0.12578228626E+04  0.00000000000E+00 0. -1.
         -3    1    3    3    0  502  0.54201337155E+02 -0.84494662711E+02 -0.66206299159E+02  0.12025143253E+03  0.00000000000E+00 0.  1.
         13    1    5    5    0    0 -0.30407242556E+03  0.43423376621E+03  0.85409489326E+02  0.53694858652E+03  0.00000000000E+00 0.  1.
        -13    1    5    5    0    0 -0.39290365070E+03  0.51456024869E+03  0.88115150545E+01  0.64747445592E+03  0.00000000000E+00 0. -1.
          1    1    6    6  503    0 -0.74492077809E+01 -0.11439293800E+02  0.15230457508E+02  0.20452749818E+02  0.00000000000E+00 0. -1.
         -1    1    6    6    0  503 -0.62470038019E+02 -0.15984771975E+03 -0.13074640587E+03  0.21575083269E+03  0.00000000000E+00 0.  1.
<mgrwt>
<rscale>  0 0.26638850E+04</rscale>
<asrwt>0</asrwt>
<pdfrwt beam="1">  1        2 0.28129722E+00 0.26638850E+04</pdfrwt>
<pdfrwt beam="2">  1       -1 0.14927215E+00 0.26638850E+04</pdfrwt>
<totfact> 0.29456786E+00</totfact>
</mgrwt>
</event>
<event>
12    7  0.1606355E-007  0.2375761E+04  0.7818608E-02  0.8448634E-01
          2   -1    0    0  501    0  0.00000000000E+00  0.00000000000E+00  0.31756034849E+04  0.31756034849E+04  0.00000000000E+00 0. -1.
         -1   -1    0    0    0  501 -0.00000000000E+00 -0.00000000000E+00 -0.44434407406E+03  0.44434407406E+03  0.00000000000E+00 0.  1.
         24    2    1    2    0    0  0.37527776458E+03 -0.25831533898E+03  0.25519873836E+04  0.25938111322E+04  0.87500677970E+02 0.  0.
        254    2    1    2    0    0 -0.37527776458E+03  0.25831533898E+03  0.17927202726E+03  0.10261364268E+04  0.90180779084E+03 0.  0.
         23    2    4    4    0    0  0.17332615749E+03 -0.10472964210E+03  0.27705091648E+03  0.35470201554E+03  0.89699803239E+02 0.  0.
         23    2    4    4    0    0 -0.54860392207E+03  0.36304498108E+03 -0.97778889224E+02  0.67143441122E+03  0.92171230806E+02 0.  0.
          2    1    3    3  502    0  0.15669693037E+03 -0.14173387070E+03  0.98941593854E+03  0.10117244277E+04  0.00000000000E+00 0. -1.
         -1    1    3    3    0  502  0.21858083421E+03 -0.11658146829E+03  0.15625714451E+04  0.15820867046E+04  0.00000000000E+00 0.  1.
         13    1    5    5    0    0  0.14174941171E+03 -0.64382707637E+02  0.14377758509E+03  0.21191984980E+03  0.00000000000E+00 0. -1.
        -13    1    5    5    0    0  0.31576745778E+02 -0.40346934460E+02  0.13327333139E+03  0.14278216575E+03  0.00000000000E+00 0.  1.
          1    1    6    6  503    0 -0.40733802233E+03  0.21935938114E+03 -0.61984019672E+02  0.46678134198E+03  0.00000000000E+00 0. -1.
         -1    1    6    6    0  503 -0.14126589974E+03  0.14368559994E+03 -0.35794869552E+02  0.20465306924E+03  0.00000000000E+00 0.  1.
<mgrwt>
<rscale>  0 0.23757614E+04</rscale>
<asrwt>0</asrwt>
<pdfrwt beam="1">  1        2 0.48855437E+00 0.23757614E+04</pdfrwt>
<pdfrwt beam="2">  1       -1 0.68360629E-01 0.23757614E+04</pdfrwt>
<totfact> 0.29889942E+00</totfact>
</mgrwt>
</event>
<event>
12    7  0.1606355E-007  0.2616669E+04  0.7818608E-02  0.8362561E-01
          2   -1    0    0  501    0  0.00000000000E+00  0.00000000000E+00  0.25492689128E+04  0.25492689128E+04  0.00000000000E+00 0. -1.
         -1   -1    0    0    0  501 -0.00000000000E+00 -0.00000000000E+00 -0.67146257057E+03  0.67146257057E+03  0.00000000000E+00 0.  1.
         24    2    1    2    0    0 -0.71823297172E+03  0.32197135391E+03 -0.20495893357E+03  0.81938645332E+03  0.99306802506E+02 0.  0.
        254    2    1    2    0    0  0.71823297172E+03 -0.32197135391E+03  0.20827652758E+04  0.24013450300E+04  0.89945683876E+03 0.  0.
         23    2    4    4    0    0  0.90954983541E+03 -0.35523403178E+03  0.17254934865E+04  0.19846941541E+04  0.90614528144E+02 0.  0.
         23    2    4    4    0    0 -0.19131686369E+03  0.33262677869E+02  0.35727178923E+03  0.41665087594E+03  0.90808991653E+02 0.  0.
          2    1    3    3  502    0 -0.27582353470E+03  0.72283430659E+02 -0.82408728493E+02  0.29680753894E+03  0.00000000000E+00 0. -1.
         -1    1    3    3    0  502 -0.44240943702E+03  0.24968792326E+03 -0.12255020508E+03  0.52257891438E+03  0.00000000000E+00 0.  1.
         13    1    5    5    0    0  0.75649403781E+03 -0.29050039418E+03  0.14955867412E+04  0.17010154052E+04  0.00000000000E+00 0.  1.
        -13    1    5    5    0    0  0.15305579760E+03 -0.64733637600E+02  0.22990674538E+03  0.28367874891E+03  0.00000000000E+00 0. -1.
          2    1    6    6  503    0 -0.12425008596E+03  0.13616369280E+02  0.30426096436E+03  0.32893498416E+03  0.00000000000E+00 0. -1.
         -2    1    6    6    0  503 -0.67066777723E+02  0.19646308588E+02  0.53010824876E+02  0.87715891771E+02  0.00000000000E+00 0.  1.
<mgrwt>
<rscale>  0 0.26166686E+04</rscale>
<asrwt>0</asrwt>
<pdfrwt beam="1">  1        2 0.39219521E+00 0.26166686E+04</pdfrwt>
<pdfrwt beam="2">  1       -1 0.10330194E+00 0.26166686E+04</pdfrwt>
<totfact> 0.28937940E+00</totfact>
</mgrwt>
</event>
<event>
12    7  0.1606355E-007  0.1939828E+04  0.7818608E-02  0.8635281E-01
          2   -1    0    0  501    0  0.00000000000E+00  0.00000000000E+00  0.46589070783E+03  0.46589070783E+03  0.00000000000E+00 0. -1.
         -1   -1    0    0    0  501 -0.00000000000E+00 -0.00000000000E+00 -0.20192144937E+04  0.20192144937E+04  0.00000000000E+00 0.  1.
         24    2    1    2    0    0  0.36327481499E+03 -0.58744649190E+03 -0.10578438498E+04  0.12659358281E+04  0.80609789955E+02 0.  0.
        254    2    1    2    0    0 -0.36327481499E+03  0.58744649190E+03 -0.49547993611E+03  0.12191693735E+04  0.87396316975E+03 0.  0.
         23    2    4    4    0    0 -0.23496363656E+03 -0.14416898168E+03 -0.35364191681E+03  0.45749805651E+03  0.90825440244E+02 0.  0.
         23    2    4    4    0    0 -0.12831117843E+03  0.73161547359E+03 -0.14183801930E+03  0.76167131697E+03  0.91105497484E+02 0.  0.
          2    1    3    3  502    0  0.16920634802E+03 -0.34029272729E+03 -0.54339488771E+03  0.66310476732E+03  0.00000000000E+00 0. -1.
         -1    1    3    3    0  502  0.19406846697E+03 -0.24715376461E+03 -0.51444896209E+03  0.60283106077E+03  0.00000000000E+00 0.  1.
         13    1    5    5    0    0 -0.29005155095E+02  0.34259105472E+01 -0.10703400366E+02  0.31106247999E+02  0.00000000000E+00 0.  1.
        -13    1    5    5    0    0 -0.20595848146E+03 -0.14759489223E+03 -0.34293851645E+03  0.42639180851E+03  0.00000000000E+00 0. -1.
          3    1    6    6  503    0 -0.86263099329E+02  0.64552211201E+03 -0.13835919089E+03  0.66579530271E+03  0.00000000000E+00 0. -1.
         -3    1    6    6    0  503 -0.42048079104E+02  0.86093361577E+02 -0.34788284037E+01  0.95876014263E+02  0.00000000000E+00 0.  1.
<mgrwt>
<rscale>  0 0.19398281E+04</rscale>
<asrwt>0</asrwt>
<pdfrwt beam="1">  1        2 0.71675495E-01 0.19398281E+04</pdfrwt>
<pdfrwt beam="2">  1       -1 0.31064838E+00 0.19398281E+04</pdfrwt>
<totfact> 0.20097967E+00</totfact>
</mgrwt>
</event>
<event>
12    7  0.1606355E-007  0.4450600E+04  0.7818608E-02  0.7919343E-01
          2   -1    0    0  501    0  0.00000000000E+00  0.00000000000E+00  0.43735293715E+04  0.43735293715E+04  0.00000000000E+00 0. -1.
         -1   -1    0    0    0  501 -0.00000000000E+00 -0.00000000000E+00 -0.11322573470E+04  0.11322573470E+04  0.00000000000E+00 0.  1.
         24    2    1    2    0    0 -0.11466425520E+04  0.13719882864E+04  0.29986881673E+04  0.34922958966E+04  0.82818505713E+02 0.  0.
        254    2    1    2    0    0  0.11466425520E+04 -0.13719882864E+04  0.24258385718E+03  0.20134908218E+04  0.89339653103E+03 0.  0.
         23    2    4    4    0    0  0.79597249172E+03 -0.44826438445E+03 -0.18001214568E+03  0.93527712349E+03  0.88463321180E+02 0.  0.
         23    2    4    4    0    0  0.35067006032E+03 -0.92372390191E+03  0.42259600286E+03  0.10782136983E+04  0.87875249165E+02 0.  0.
          2    1    3    3  502    0 -0.10136235508E+04  0.12101724762E+04  0.26968804621E+04  0.31249182953E+04  0.00000000000E+00 0. -1.
         -1    1    3    3    0  502 -0.13301900121E+03  0.16181581018E+03  0.30180770516E+03  0.36737760139E+03  0.00000000000E+00 0.  1.
         13    1    5    5    0    0  0.21188901341E+03 -0.78732844005E+02 -0.58786571554E+02  0.23356300161E+03  0.00000000000E+00 0.  1.
        -13    1    5    5    0    0  0.58408347832E+03 -0.36953154044E+03 -0.12122557413E+03  0.70171412188E+03  0.00000000000E+00 0. -1.
          3    1    6    6  503    0  0.25869043184E+03 -0.71041902365E+03  0.36144288095E+03  0.83800768784E+03  0.00000000000E+00 0. -1.
         -3    1    6    6    0  503  0.91979628472E+02 -0.21330487826E+03  0.61153121911E+02  0.24020601046E+03  0.00000000000E+00 0.  1.
<mgrwt>
<rscale>  0 0.44506003E+04</rscale>
<asrwt>0</asrwt>
<pdfrwt beam="1">  1        2 0.67285067E+00 0.44506003E+04</pdfrwt>
<pdfrwt beam="2">  1       -1 0.17419344E+00 0.44506003E+04</pdfrwt>
<totfact> 0.31900676E-02</totfact>
</mgrwt>
</event>
<event>
12    7  0.1606355E-007  0.3221790E+04  0.7818608E-02  0.8183086E-01
         -1   -1    0    0    0  501 -0.00000000000E+00  0.00000000000E+00  0.15310620482E+04  0.15310620482E+04  0.00000000000E+00 0.  1.
          2   -1    0    0  501    0  0.00000000000E+00 -0.00000000000E+00 -0.16948903796E+04  0.16948903796E+04  0.00000000000E+00 0. -1.
         24    2    1    2    0    0  0.58306372410E+03  0.78697914261E+03  0.10397292527E+04  0.14306942430E+04  0.80929727750E+02 0.  0.
        254    2    1    2    0    0 -0.58306372410E+03 -0.78697914261E+03 -0.12035575840E+04  0.17952581848E+04  0.90282978164E+03 0.  0.
         23    2    4    4    0    0 -0.66363755516E+03 -0.91550490229E+03 -0.11362754716E+04  0.16055655428E+04  0.90303566008E+02 0.  0.
         23    2    4    4    0    0  0.80573831058E+02  0.12852575968E+03 -0.67282112428E+02  0.18969264199E+03  0.91898871693E+02 0.  0.
          4    1    3    3  502    0  0.28849283082E+03  0.45687896059E+03  0.57545055593E+03  0.78937306794E+03  0.00000000000E+00 0. -1.
         -3    1    3    3    0  502  0.29457089329E+03  0.33010018201E+03  0.46427869674E+03  0.64132117506E+03  0.00000000000E+00 0.  1.
         13    1    5    5    0    0 -0.33942115794E+03 -0.40334057761E+03 -0.49457697024E+03  0.72283934833E+03  0.00000000000E+00 0. -1.
        -13    1    5    5    0    0 -0.32421639723E+03 -0.51216432468E+03 -0.64169850136E+03  0.88272619444E+03  0.00000000000E+00 0.  1.
          1    1    6    6  503    0  0.88362912003E+02  0.62172098289E+02 -0.56806758370E+02  0.12206712014E+03  0.00000000000E+00 0. -1.
         -1    1    6    6    0  503 -0.77890809446E+01  0.66353661395E+02 -0.10475354058E+02  0.67625521847E+02  0.00000000000E+00 0.  1.
<mgrwt>
<rscale>  0 0.32217898E+04</rscale>
<asrwt>0</asrwt>
<pdfrwt beam="1">  1        2 0.26075236E+00 0.32217898E+04</pdfrwt>
<pdfrwt beam="2">  1       -1 0.23554801E+00 0.32217898E+04</pdfrwt>
<totfact> 0.81912926E-01</totfact>
</mgrwt>
</event>
<event>
12    7  0.1606355E-007  0.1615752E+04  0.7818608E-02  0.8810929E-01
         -1   -1    0    0    0  501 -0.00000000000E+00  0.00000000000E+00  0.17471513818E+04  0.17471513818E+04  0.00000000000E+00 0.  1.
          2   -1    0    0  501    0  0.00000000000E+00 -0.00000000000E+00 -0.37355894642E+03  0.37355894642E+03  0.00000000000E+00 0. -1.
         24    2    1    2    0    0 -0.29496029189E+03  0.13756716576E+03  0.91586029452E+03  0.97489172860E+03  0.75415545747E+02 0.  0.
        254    2    1    2    0    0  0.29496029189E+03 -0.13756716576E+03  0.45773214090E+03  0.11458185996E+04  0.99872681530E+03 0.  0.
         23    2    4    4    0    0 -0.95106706822E+02  0.36280910185E+03  0.59828619753E+02  0.39152401079E+03  0.95057126076E+02 0.  0.
         23    2    4    4    0    0  0.39006699871E+03 -0.50037626760E+03  0.39790352114E+03  0.75429458885E+03  0.90024674239E+02 0.  0.
          2    1    3    3  502    0 -0.59107847347E+02  0.81567064656E+01  0.10760913512E+03  0.12304468879E+03  0.00000000000E+00 0. -1.
         -1    1    3    3    0  502 -0.23585244454E+03  0.12941045929E+03  0.80825115939E+03  0.85184703981E+03  0.00000000000E+00 0.  1.
         13    1    5    5    0    0 -0.71946093153E+02  0.34769862585E+03  0.70294897624E+02  0.36195572571E+03  0.00000000000E+00 0.  1.
        -13    1    5    5    0    0 -0.23160613669E+02  0.15110475994E+02 -0.10466277870E+02  0.29568285083E+02  0.00000000000E+00 0. -1.
          3    1    6    6  503    0  0.12619413444E+03 -0.16441529491E+03  0.18107569832E+03  0.27521947113E+03  0.00000000000E+00 0. -1.
         -3    1    6    6    0  503  0.26387286427E+03 -0.33596097269E+03  0.21682782283E+03  0.47907511772E+03  0.00000000000E+00 0.  1.
<mgrwt>
<rscale>  0 0.16157525E+04</rscale>
<asrwt>0</asrwt>
<pdfrwt beam="1">  1        2 0.57470608E-01 0.16157525E+04</pdfrwt>
<pdfrwt beam="2">  1       -1 0.26879251E+00 0.16157525E+04</pdfrwt>
<totfact> 0.49553667E+00</totfact>
</mgrwt>
</event>
<event>
12    7  0.1606355E-007  0.1547671E+04  0.7818608E-02  0.8853356E-01
          2   -1    0    0  501    0  0.00000000000E+00  0.00000000000E+00  0.14452884978E+04  0.14452884978E+04  0.00000000000E+00 0. -1.
         -1   -1    0    0    0  501 -0.00000000000E+00 -0.00000000000E+00 -0.41432677751E+03  0.41432677751E+03  0.00000000000E+00 0.  1.
         24    2    1    2    0    0  0.71519460711E+02 -0.48494366755E+03  0.51619842953E+03  0.71635594123E+03  0.80122543154E+02 0.  0.
        254    2    1    2    0    0 -0.71519460711E+02  0.48494366755E+03  0.51476329079E+03  0.11432593341E+04  0.89541904466E+03 0.  0.
         23    2    4    4    0    0 -0.28676927553E+03  0.66153643406E+03  0.33369456043E+03  0.79881605479E+03  0.82993727113E+02 0.  0.
         23    2    4    4    0    0  0.21524981482E+03 -0.17659276652E+03  0.18106873036E+03  0.34444327933E+03  0.91311552341E+02 0.  0.
          2    1    3    3  502    0  0.47528095461E+02 -0.36639453847E+03  0.43475165373E+03  0.57053735908E+03  0.00000000000E+00 0. -1.
         -1    1    3    3    0  502  0.23991365250E+02 -0.11854912908E+03  0.81446775799E+02  0.14581858215E+03  0.00000000000E+00 0.  1.
         13    1    5    5    0    0 -0.13871404807E+03  0.34818510921E+03  0.12935978983E+03  0.39649516092E+03  0.00000000000E+00 0.  1.
        -13    1    5    5    0    0 -0.14805522746E+03  0.31335132486E+03  0.20433477060E+03  0.40232089387E+03  0.00000000000E+00 0. -1.
          3    1    6    6  503    0  0.16295860803E+03 -0.14193853278E+03  0.90546589088E+02  0.23430906900E+03  0.00000000000E+00 0. -1.
         -3    1    6    6    0  503  0.52291206786E+02 -0.34654233737E+02  0.90522141274E+02  0.11013421033E+03  0.00000000000E+00 0.  1.
<mgrwt>
<rscale>  0 0.15476714E+04</rscale>
<asrwt>0</asrwt>
<pdfrwt beam="1">  1        2 0.22235207E+00 0.15476714E+04</pdfrwt>
<pdfrwt beam="2">  1       -1 0.63742582E-01 0.15476714E+04</pdfrwt>
<totfact> 0.37336345E+01</totfact>
</mgrwt>
</event>
<event>
12    7  0.1606355E-007  0.1303497E+04  0.7818608E-02  0.9026797E-01
         -1   -1    0    0    0  501 -0.00000000000E+00  0.00000000000E+00  0.23807665059E+03  0.23807665059E+03  0.00000000000E+00 0.  1.
          2   -1    0    0  501    0  0.00000000000E+00 -0.00000000000E+00 -0.17841977992E+04  0.17841977992E+04  0.00000000000E+00 0. -1.
         24    2    1    2    0    0 -0.18772916304E+03 -0.26573043104E+03 -0.55659831298E+03  0.64961862116E+03  0.79672895674E+02 0.  0.
        254    2    1    2    0    0  0.18772916304E+03  0.26573043104E+03 -0.98952283559E+03  0.13726558286E+04  0.89396514527E+03 0.  0.
         23    2    4    4    0    0 -0.34215116539E+02 -0.17410318844E+03 -0.82121409257E+03  0.84434302591E+03  0.83904500116E+02 0.  0.
         23    2    4    4    0    0  0.22194427958E+03  0.43983361948E+03 -0.16830874302E+03  0.52831280268E+03  0.89853816991E+02 0.  0.
          4    1    3    3  502    0 -0.18550024877E+03 -0.26666949240E+03 -0.52123930830E+03  0.61417699158E+03  0.00000000000E+00 0. -1.
         -3    1    3    3    0  502 -0.22289142757E+01  0.93906136210E+00 -0.35359004679E+02  0.35441629575E+02  0.00000000000E+00 0.  1.
         13    1    5    5    0    0  0.17396991660E+02 -0.56299577705E+02 -0.38771098932E+03  0.39216337031E+03  0.00000000000E+00 0. -1.
        -13    1    5    5    0    0 -0.51612108199E+02 -0.11780361074E+03 -0.43350310325E+03  0.45217965560E+03  0.00000000000E+00 0.  1.
          1    1    6    6  503    0  0.17272802434E+01  0.71672961432E+02 -0.27745697336E+02  0.76875357678E+02  0.00000000000E+00 0. -1.
         -1    1    6    6    0  503  0.22021699934E+03  0.36816065805E+03 -0.14056304568E+03  0.45143744500E+03  0.00000000000E+00 0.  1.
<mgrwt>
<rscale>  0 0.13034966E+04</rscale>
<asrwt>0</asrwt>
<pdfrwt beam="1">  1        2 0.27449198E+00 0.13034966E+04</pdfrwt>
<pdfrwt beam="2">  1       -1 0.36627176E-01 0.13034966E+04</pdfrwt>
<totfact> 0.70286668E+01</totfact>
</mgrwt>
</event>
<event>
12    7  0.1606355E-007  0.1602072E+04  0.7818608E-02  0.8819276E-01
          2   -1    0    0  501    0  0.00000000000E+00  0.00000000000E+00  0.15243289679E+04  0.15243289679E+04  0.00000000000E+00 0. -1.
         -1   -1    0    0    0  501 -0.00000000000E+00 -0.00000000000E+00 -0.42094500904E+03  0.42094500904E+03  0.00000000000E+00 0.  1.
         24    2    1    2    0    0  0.51032686683E+02  0.18079788698E+03 -0.24050350937E+03  0.31569342398E+03  0.80797208369E+02 0.  0.
        254    2    1    2    0    0 -0.51032686683E+02 -0.18079788698E+03  0.13438874683E+04  0.16295805530E+04  0.90233421762E+03 0.  0.
         23    2    4    4    0    0 -0.41171607339E+03  0.10271293573E+02  0.33951554854E+03  0.54148778809E+03  0.91228243387E+02 0.  0.
         23    2    4    4    0    0  0.36068338671E+03 -0.19106918055E+03  0.10043719197E+04  0.10880927649E+04  0.92644345151E+02 0.  0.
          4    1    3    3  502    0  0.22096406847E+02  0.10295179215E+01 -0.31630720031E+02  0.38598102963E+02  0.00000000000E+00 0. -1.
         -3    1    3    3    0  502  0.28936279836E+02  0.17976836906E+03 -0.20887278934E+03  0.27709532102E+03  0.00000000000E+00 0.  1.
         13    1    5    5    0    0 -0.14743343058E+03 -0.28035158577E+02  0.84456660066E+02  0.17220776405E+03  0.00000000000E+00 0. -1.
        -13    1    5    5    0    0 -0.26428264281E+03  0.38306452149E+02  0.25505888847E+03  0.36928002404E+03  0.00000000000E+00 0.  1.
          3    1    6    6  503    0  0.28606914702E+03 -0.11739973024E+03  0.81399092424E+03  0.87074650632E+03  0.00000000000E+00 0. -1.
         -3    1    6    6    0  503  0.74614239695E+02 -0.73669450307E+02  0.19038099550E+03  0.21734625859E+03  0.00000000000E+00 0.  1.
<mgrwt>
<rscale>  0 0.16020720E+04</rscale>
<asrwt>0</asrwt>
<pdfrwt beam="1">  1        2 0.23451215E+00 0.16020720E+04</pdfrwt>
<pdfrwt beam="2">  1       -1 0.64760771E-01 0.16020720E+04</pdfrwt>
<totfact> 0.32482721E+01</totfact>
</mgrwt>
</event>
<event>
12    7  0.1606355E-007  0.1475151E+04  0.7818608E-02  0.8901148E-01
         -1   -1    0    0    0  501 -0.00000000000E+00  0.00000000000E+00  0.23423846658E+03  0.23423846658E+03  0.00000000000E+00 0.  1.
          2   -1    0    0  501    0  0.00000000000E+00 -0.00000000000E+00 -0.23224935545E+04  0.23224935545E+04  0.00000000000E+00 0. -1.
         24    2    1    2    0    0 -0.32053777337E+03 -0.25652303509E+02 -0.12124430268E+04  0.12569732223E+04  0.81000515528E+02 0.  0.
        254    2    1    2    0    0  0.32053777337E+03  0.25652303509E+02 -0.87581206108E+03  0.12997587987E+04  0.90494401139E+03 0.  0.
         23    2    4    4    0    0 -0.25212740267E+03 -0.15147015963E+03 -0.12171937535E+03  0.33171109929E+03  0.93301718184E+02 0.  0.
         23    2    4    4    0    0  0.57266517604E+03  0.17712246314E+03 -0.75409268574E+03  0.96804769946E+03  0.95617984460E+02 0.  0.
          2    1    3    3  502    0 -0.22902608817E+03  0.17372500157E+02 -0.80040897163E+03  0.83271199985E+03  0.00000000000E+00 0. -1.
         -1    1    3    3    0  502 -0.91511685197E+02 -0.43024803666E+02 -0.41203405517E+03  0.42426122246E+03  0.00000000000E+00 0.  1.
         13    1    5    5    0    0 -0.21500760307E+03 -0.12324717519E+03 -0.13632398149E+03  0.28284689056E+03  0.00000000000E+00 0. -1.
        -13    1    5    5    0    0 -0.37119799608E+02 -0.28222984444E+02  0.14604606146E+02  0.48864208728E+02  0.00000000000E+00 0.  1.
          1    1    6    6  503    0  0.55201058400E+03  0.15240542483E+03 -0.73003721528E+03  0.92784558741E+03  0.00000000000E+00 0. -1.
         -1    1    6    6    0  503  0.20654592037E+02  0.24717038308E+02 -0.24055470451E+02  0.40202112053E+02  0.00000000000E+00 0.  1.
<mgrwt>
<rscale>  0 0.14751506E+04</rscale>
<asrwt>0</asrwt>
<pdfrwt beam="1">  1        2 0.35730671E+00 0.14751506E+04</pdfrwt>
<pdfrwt beam="2">  1       -1 0.36036686E-01 0.14751506E+04</pdfrwt>
<totfact> 0.35798425E+01</totfact>
</mgrwt>
</event>
<event>
12    7  0.1606355E-007  0.3407398E+04  0.7818608E-02  0.8136093E-01
          2   -1    0    0  501    0  0.00000000000E+00  0.00000000000E+00  0.23055972173E+04  0.23055972173E+04  0.00000000000E+00 0. -1.
         -1   -1    0    0    0  501 -0.00000000000E+00 -0.00000000000E+00 -0.12589321744E+04  0.12589321744E+04  0.00000000000E+00 0.  1.
         24    2    1    2    0    0  0.68372000489E+03 -0.10715458675E+04  0.14622188860E+04  0.19391620404E+04  0.81128031299E+02 0.  0.
        254    2    1    2    0    0 -0.68372000489E+03  0.10715458675E+04 -0.41555384309E+03  0.16253673512E+04  0.92382381368E+03 0.  0.
         23    2    4    4    0    0  0.21729363236E+03  0.17934514104E+03 -0.35196500719E+02  0.29831624253E+03  0.91501828479E+02 0.  0.
         23    2    4    4    0    0 -0.90101363725E+03  0.89220072642E+03 -0.38035734237E+03  0.13270511087E+04  0.92440393862E+02 0.  0.
          2    1    3    3  502    0  0.42201084018E+03 -0.69982992428E+03  0.98908936010E+03  0.12830248768E+04  0.00000000000E+00 0. -1.
         -1    1    3    3    0  502  0.26170916471E+03 -0.37171594318E+03  0.47312952587E+03  0.65613716367E+03  0.00000000000E+00 0.  1.
         13    1    5    5    0    0  0.14452959520E+03  0.16539270727E+03 -0.43010523742E+02  0.22381567564E+03  0.00000000000E+00 0. -1.
        -13    1    5    5    0    0  0.72764037161E+02  0.13952433770E+02  0.78140230228E+01  0.74500566896E+02  0.00000000000E+00 0.  1.
          3    1    6    6  503    0 -0.78063893813E+03  0.77623362062E+03 -0.36213780966E+03  0.11589131023E+04  0.00000000000E+00 0. -1.
         -3    1    6    6    0  503 -0.12037469912E+03  0.11596710580E+03 -0.18219532710E+02  0.16813800637E+03  0.00000000000E+00 0.  1.
<mgrwt>
<rscale>  0 0.34073981E+04</rscale>
<asrwt>0</asrwt>
<pdfrwt beam="1">  1        2 0.35470726E+00 0.34073981E+04</pdfrwt>
<pdfrwt beam="2">  1       -1 0.19368187E+00 0.34073981E+04</pdfrwt>
<totfact> 0.70527700E-01</totfact>
</mgrwt>
</event>
<event>
12    7  0.1606355E-007  0.1995424E+04  0.7818608E-02  0.8608763E-01
         -1   -1    0    0    0  501 -0.00000000000E+00  0.00000000000E+00  0.58436449976E+03  0.58436449976E+03  0.00000000000E+00 0.  1.
          2   -1    0    0  501    0  0.00000000000E+00 -0.00000000000E+00 -0.17034386967E+04  0.17034386967E+04  0.00000000000E+00 0. -1.
         24    2    1    2    0    0  0.20195250056E+03 -0.66644294094E+03 -0.88891675592E+03  0.11320018009E+04  0.79524035240E+02 0.  0.
        254    2    1    2    0    0 -0.20195250056E+03  0.66644294094E+03 -0.23015744104E+03  0.11558013956E+04  0.89329357573E+03 0.  0.
         23    2    4    4    0    0  0.20190513589E+03  0.28553432117E+02  0.18433100355E+03  0.28977580503E+03  0.91712136195E+02 0.  0.
         23    2    4    4    0    0 -0.40385763645E+03  0.63788950882E+03 -0.41448844459E+03  0.86602559059E+03  0.90529756860E+02 0.  0.
          4    1    3    3  502    0  0.88530876623E+02 -0.41815643614E+03 -0.56326914493E+03  0.70708178510E+03  0.00000000000E+00 0. -1.
         -3    1    3    3    0  502  0.11342162394E+03 -0.24828650480E+03 -0.32564761099E+03  0.42492001575E+03  0.00000000000E+00 0.  1.
         13    1    5    5    0    0  0.62613806613E+02  0.52968070877E+02  0.73004868311E+02  0.10979898045E+03  0.00000000000E+00 0. -1.
        -13    1    5    5    0    0  0.13929132927E+03 -0.24414638760E+02  0.11132613524E+03  0.17997682458E+03  0.00000000000E+00 0.  1.
          3    1    6    6  503    0 -0.16706971260E+02  0.64296407559E+02 -0.54750411171E+02  0.86085762104E+02  0.00000000000E+00 0. -1.
         -3    1    6    6    0  503 -0.38715066519E+03  0.57359310126E+03 -0.35973803342E+03  0.77993982849E+03  0.00000000000E+00 0.  1.
<mgrwt>
<rscale>  0 0.19954239E+04</rscale>
<asrwt>0</asrwt>
<pdfrwt beam="1">  1        2 0.26206749E+00 0.19954239E+04</pdfrwt>
<pdfrwt beam="2">  1       -1 0.89902232E-01 0.19954239E+04</pdfrwt>
<totfact> 0.12514156E+01</totfact>
</mgrwt>
</event>
<event>
12    7  0.1606355E-007  0.2283241E+04  0.7818608E-02  0.8484558E-01
         -1   -1    0    0    0  501 -0.00000000000E+00  0.00000000000E+00  0.89504949537E+03  0.89504949537E+03  0.00000000000E+00 0.  1.
          2   -1    0    0  501    0  0.00000000000E+00 -0.00000000000E+00 -0.14561180139E+04  0.14561180139E+04  0.00000000000E+00 0. -1.
         24    2    1    2    0    0 -0.33935448977E+03 -0.37432079638E+03  0.61056134274E+03  0.79666596090E+03  0.81326328297E+02 0.  0.
        254    2    1    2    0    0  0.33935448977E+03  0.37432079638E+03 -0.11716298613E+04  0.15545015484E+04  0.88796452842E+03 0.  0.
         23    2    4    4    0    0  0.52696674991E+02  0.21586595555E+03  0.83731040345E+02  0.25422151241E+03  0.90788985743E+02 0.  0.
         23    2    4    4    0    0  0.28665781478E+03  0.15845484083E+03 -0.12553609016E+04  0.13002800360E+04  0.86697977299E+02 0.  0.
          4    1    3    3  502    0 -0.82232786677E+02 -0.11179986261E+03  0.11820486483E+03  0.18230148259E+03  0.00000000000E+00 0. -1.
         -3    1    3    3    0  502 -0.25712170310E+03 -0.26252093377E+03  0.49235647791E+03  0.61436447831E+03  0.00000000000E+00 0.  1.
         13    1    5    5    0    0  0.37178941089E+02  0.51814703120E+02  0.60323773207E+02  0.87783795394E+02  0.00000000000E+00 0.  1.
        -13    1    5    5    0    0  0.15517733903E+02  0.16405125243E+03  0.23407267138E+02  0.16643771701E+03  0.00000000000E+00 0. -1.
          4    1    6    6  503    0  0.16769777584E+03  0.43252171901E+02 -0.63276585909E+03  0.65603805288E+03  0.00000000000E+00 0. -1.
         -4    1    6    6    0  503  0.11896003894E+03  0.11520266893E+03 -0.62259504252E+03  0.64424198308E+03  0.00000000000E+00 0.  1.
<mgrwt>
<rscale>  0 0.22832413E+04</rscale>
<asrwt>0</asrwt>
<pdfrwt beam="1">  1        2 0.22401815E+00 0.22832413E+04</pdfrwt>
<pdfrwt beam="2">  1       -1 0.13769992E+00 0.22832413E+04</pdfrwt>
<totfact> 0.60853131E+00</totfact>
</mgrwt>
</event>
<event>
12    7  0.1606355E-007  0.1105686E+04  0.7818608E-02  0.9199667E-01
          2   -1    0    0  501    0  0.00000000000E+00  0.00000000000E+00  0.53932492793E+03  0.53932492793E+03  0.00000000000E+00 0. -1.
         -1   -1    0    0    0  501 -0.00000000000E+00 -0.00000000000E+00 -0.56670026334E+03  0.56670026334E+03  0.00000000000E+00 0.  1.
         24    2    1    2    0    0  0.53045482715E+01 -0.17963489481E+02 -0.17125760077E+03  0.18967208719E+03  0.79344247751E+02 0.  0.
        254    2    1    2    0    0 -0.53045482715E+01  0.17963489481E+02  0.14388226535E+03  0.91635310408E+03  0.90479283811E+03 0.  0.
         23    2    4    4    0    0 -0.29188301974E+02 -0.34869337697E+03 -0.19315297849E+03  0.40951622054E+03  0.89198843435E+02 0.  0.
         23    2    4    4    0    0  0.23883753703E+02  0.36665686645E+03  0.33703524384E+03  0.50683688355E+03  0.91011974625E+02 0.  0.
          2    1    3    3  502    0 -0.89992772704E+01  0.27925516289E+02 -0.37986572861E+02  0.47997928801E+02  0.00000000000E+00 0. -1.
         -1    1    3    3    0  502  0.14303825542E+02 -0.45889005771E+02 -0.13327102791E+03  0.14167415839E+03  0.00000000000E+00 0.  1.
         13    1    5    5    0    0  0.11935780867E+01 -0.18402013209E+03 -0.53976000804E+02  0.19177654264E+03  0.00000000000E+00 0.  1.
        -13    1    5    5    0    0 -0.30381880061E+02 -0.16467324488E+03 -0.13917697768E+03  0.21773967790E+03  0.00000000000E+00 0. -1.
          3    1    6    6  503    0  0.43567982530E+02  0.10047987306E+03  0.12317473524E+03  0.16482229641E+03  0.00000000000E+00 0. -1.
         -3    1    6    6    0  503 -0.19684228828E+02  0.26617699339E+03  0.21386050860E+03  0.34201458714E+03  0.00000000000E+00 0.  1.
<mgrwt>
<rscale>  0 0.11056864E+04</rscale>
<asrwt>0</asrwt>
<pdfrwt beam="1">  1        2 0.82973066E-01 0.11056864E+04</pdfrwt>
<pdfrwt beam="2">  1       -1 0.87184656E-01 0.11056864E+04</pdfrwt>
<totfact> 0.82873118E+01</totfact>
</mgrwt>
</event>
<event>
12    7  0.1606355E-007  0.1913089E+04  0.7818608E-02  0.8648368E-01
         -1   -1    0    0    0  501 -0.00000000000E+00  0.00000000000E+00  0.15983053541E+04  0.15983053541E+04  0.00000000000E+00 0.  1.
          2   -1    0    0  501    0  0.00000000000E+00 -0.00000000000E+00 -0.57246731060E+03  0.57246731060E+03  0.00000000000E+00 0. -1.
         24    2    1    2    0    0  0.25679889043E+03 -0.26044043561E+03  0.10979860884E+04  0.11608883305E+04  0.91177710629E+02 0.  0.
        254    2    1    2    0    0 -0.25679889043E+03  0.26044043561E+03 -0.72148044917E+02  0.10098843342E+04  0.93855534596E+03 0.  0.
         23    2    4    4    0    0 -0.49150552473E+02 -0.33746893756E+03 -0.10891849509E+03  0.36877417302E+03  0.88487804166E+02 0.  0.
         23    2    4    4    0    0 -0.20764833796E+03  0.59790937317E+03  0.36770450175E+02  0.64111016118E+03  0.95166811300E+02 0.  0.
          4    1    3    3  502    0  0.17637697779E+02 -0.10724147960E+01  0.11830863108E+03  0.11962094567E+03  0.00000000000E+00 0. -1.
         -3    1    3    3    0  502  0.23916119265E+03 -0.25936802081E+03  0.97967745732E+03  0.10412673848E+04  0.00000000000E+00 0.  1.
         13    1    5    5    0    0 -0.34461024372E+02 -0.19306321629E+03 -0.16740807150E+02  0.19682790023E+03  0.00000000000E+00 0.  1.
        -13    1    5    5    0    0 -0.14689528101E+02 -0.14440572127E+03 -0.92177687943E+02  0.17194627279E+03  0.00000000000E+00 0. -1.
          1    1    6    6  503    0 -0.99067896056E+02  0.30969163565E+03  0.65836170831E+02  0.33174954199E+03  0.00000000000E+00 0. -1.
         -1    1    6    6    0  503 -0.10858044190E+03  0.28821773752E+03 -0.29065720656E+02  0.30936061918E+03  0.00000000000E+00 0.  1.
<mgrwt>
<rscale>  0 0.19130892E+04</rscale>
<asrwt>0</asrwt>
<pdfrwt beam="1">  1        2 0.88071895E-01 0.19130892E+04</pdfrwt>
<pdfrwt beam="2">  1       -1 0.24589313E+00 0.19130892E+04</pdfrwt>
<totfact> 0.41599099E+00</totfact>
</mgrwt>
</event>
<event>
12    7  0.1606355E-007  0.1952590E+04  0.7818608E-02  0.8629113E-01
         -1   -1    0    0    0  501 -0.00000000000E+00  0.00000000000E+00  0.11189933178E+04  0.11189933178E+04  0.00000000000E+00 0.  1.
          2   -1    0    0  501    0  0.00000000000E+00 -0.00000000000E+00 -0.85179444059E+03  0.85179444059E+03  0.00000000000E+00 0. -1.
         24    2    1    2    0    0  0.47675850637E+03 -0.57599788613E+03 -0.43432679880E+02  0.75328962318E+03  0.80539558470E+02 0.  0.
        254    2    1    2    0    0 -0.47675850637E+03  0.57599788613E+03  0.31063155705E+03  0.12174981352E+04  0.90925106911E+03 0.  0.
         23    2    4    4    0    0 -0.45582934791E+03 -0.10607500338E+03  0.21706019694E+03  0.52417073138E+03  0.92776752377E+02 0.  0.
         23    2    4    4    0    0 -0.20929158456E+02  0.68207288952E+03  0.93571360108E+02  0.69332740379E+03  0.79283246200E+02 0.  0.
          2    1    3    3  502    0  0.37760541841E+03 -0.47364221155E+03 -0.52799331272E+01  0.60576453699E+03  0.00000000000E+00 0. -1.
         -1    1    3    3    0  502  0.99153087953E+02 -0.10235567459E+03 -0.38152746753E+02  0.14752508619E+03  0.00000000000E+00 0.  1.
         13    1    5    5    0    0 -0.59520628315E+02 -0.13300596732E+02  0.66401046045E+02  0.90159358828E+02  0.00000000000E+00 0.  1.
        -13    1    5    5    0    0 -0.39630871960E+03 -0.92774406649E+02  0.15065915090E+03  0.43401137255E+03  0.00000000000E+00 0. -1.
          3    1    6    6  503    0  0.17301093971E+02  0.52623130399E+03  0.70462706878E+02  0.53120966313E+03  0.00000000000E+00 0. -1.
         -3    1    6    6    0  503 -0.38230252427E+02  0.15584158553E+03  0.23108653230E+02  0.16211774066E+03  0.00000000000E+00 0.  1.
<mgrwt>
<rscale>  0 0.19525904E+04</rscale>
<asrwt>0</asrwt>
<pdfrwt beam="1">  1        2 0.13104530E+00 0.19525904E+04</pdfrwt>
<pdfrwt beam="2">  1       -1 0.17215282E+00 0.19525904E+04</pdfrwt>
<totfact> 0.79915257E+00</totfact>
</mgrwt>
</event>
<event>
12    7  0.1606355E-007  0.1937001E+04  0.7818608E-02  0.8636655E-01
          2   -1    0    0  501    0  0.00000000000E+00  0.00000000000E+00  0.16453344089E+04  0.16453344089E+04  0.00000000000E+00 0. -1.
         -1   -1    0    0    0  501 -0.00000000000E+00 -0.00000000000E+00 -0.57009253204E+03  0.57009253204E+03  0.00000000000E+00 0.  1.
         24    2    1    2    0    0  0.64221360043E+03 -0.35018991708E+03  0.20965549041E+03  0.76546077921E+03  0.83087262797E+02 0.  0.
        254    2    1    2    0    0 -0.64221360043E+03  0.35018991708E+03  0.86558638648E+03  0.14499661617E+04  0.90448371525E+03 0.  0.
         23    2    4    4    0    0 -0.51669500190E+03 -0.21924005375E+03  0.48839279074E+03  0.74983800518E+03  0.93217969373E+02 0.  0.
         23    2    4    4    0    0 -0.12551859853E+03  0.56942997083E+03  0.37719359573E+03  0.70012815656E+03  0.88876412464E+02 0.  0.
          2    1    3    3  502    0  0.23570133167E+03 -0.13716700941E+03  0.11951067733E+03  0.29774604652E+03  0.00000000000E+00 0. -1.
         -1    1    3    3    0  502  0.40651226876E+03 -0.21302290767E+03  0.90144813070E+02  0.46771473268E+03  0.00000000000E+00 0.  1.
         13    1    5    5    0    0 -0.66347393692E+02 -0.57757867349E+02  0.10333119452E+03  0.13570292426E+03  0.00000000000E+00 0. -1.
        -13    1    5    5    0    0 -0.45034760821E+03 -0.16148218640E+03  0.38506159622E+03  0.61413508093E+03  0.00000000000E+00 0.  1.
          3    1    6    6  503    0 -0.85373684295E+02  0.20519855481E+03  0.16374231861E+03  0.27605553748E+03  0.00000000000E+00 0. -1.
         -3    1    6    6    0  503 -0.40144914237E+02  0.36423141602E+03  0.21345127712E+03  0.42407261908E+03  0.00000000000E+00 0.  1.
<mgrwt>
<rscale>  0 0.19370006E+04</rscale>
<asrwt>0</asrwt>
<pdfrwt beam="1">  1        2 0.25312837E+00 0.19370006E+04</pdfrwt>
<pdfrwt beam="2">  1       -1 0.87706544E-01 0.19370006E+04</pdfrwt>
<totfact> 0.14306387E+01</totfact>
</mgrwt>
</event>
<event>
12    7  0.1606355E-007  0.1398696E+04  0.7818608E-02  0.8954763E-01
         -1   -1    0    0    0  501 -0.00000000000E+00  0.00000000000E+00  0.32249213384E+03  0.32249213384E+03  0.00000000000E+00 0.  1.
          2   -1    0    0  501    0  0.00000000000E+00 -0.00000000000E+00 -0.15165885258E+04  0.15165885258E+04  0.00000000000E+00 0. -1.
         24    2    1    2    0    0  0.10968974886E+03 -0.40044648985E+03 -0.32232324924E+03  0.53169675161E+03  0.80124443441E+02 0.  0.
        254    2    1    2    0    0 -0.10968974886E+03  0.40044648985E+03 -0.87177314276E+03  0.13073839081E+04  0.88140514995E+03 0.  0.
         23    2    4    4    0    0  0.29139356930E+03  0.50992573771E+02 -0.34410711090E+02  0.31109967014E+03  0.89935826651E+02 0.  0.
         23    2    4    4    0    0 -0.40108331816E+03  0.34945391608E+03 -0.83736243167E+03  0.99628423791E+03  0.91763681091E+02 0.  0.
          4    1    3    3  502    0  0.39959397171E+02 -0.45487718511E+02 -0.36848582696E+02  0.70878092556E+02  0.00000000000E+00 0. -1.
         -3    1    3    3    0  502  0.69730351692E+02 -0.35495877134E+03 -0.28547466654E+03  0.46081865906E+03  0.00000000000E+00 0.  1.
         13    1    5    5    0    0  0.34237672951E+02  0.35191184167E+02  0.87404148831E+01  0.49870156853E+02  0.00000000000E+00 0. -1.
        -13    1    5    5    0    0  0.25715589635E+03  0.15801389604E+02 -0.43151125973E+02  0.26122951329E+03  0.00000000000E+00 0.  1.
          4    1    6    6  503    0 -0.41996888342E+02  0.19604874046E+02 -0.12244206927E+03  0.13092039582E+03  0.00000000000E+00 0. -1.
         -4    1    6    6    0  503 -0.35908642982E+03  0.32984904203E+03 -0.71492036240E+03  0.86536384209E+03  0.00000000000E+00 0.  1.
<mgrwt>
<rscale>  0 0.13986963E+04</rscale>
<asrwt>0</asrwt>
<pdfrwt beam="1">  1        2 0.23332131E+00 0.13986963E+04</pdfrwt>
<pdfrwt beam="2">  1       -1 0.49614175E-01 0.13986963E+04</pdfrwt>
<totfact> 0.56121883E+01</totfact>
</mgrwt>
</event>
<event>
12    7  0.1606355E-007  0.1914763E+04  0.7818608E-02  0.8647542E-01
          2   -1    0    0  501    0  0.00000000000E+00  0.00000000000E+00  0.16643750124E+04  0.16643750124E+04  0.00000000000E+00 0. -1.
         -1   -1    0    0    0  501 -0.00000000000E+00 -0.00000000000E+00 -0.55070504912E+03  0.55070504912E+03  0.00000000000E+00 0.  1.
         24    2    1    2    0    0 -0.27770738919E+03  0.33282291800E+03 -0.26177979973E+03  0.51252717354E+03  0.79138810417E+02 0.  0.
        254    2    1    2    0    0  0.27770738919E+03 -0.33282291800E+03  0.13754497630E+04  0.17025528879E+04  0.90494850516E+03 0.  0.
         23    2    4    4    0    0 -0.41192914945E+02 -0.48699842837E+03  0.11896430126E+04  0.12893537438E+04  0.91204461958E+02 0.  0.
         23    2    4    4    0    0  0.31890030413E+03  0.15417551037E+03  0.18580675039E+03  0.41319914410E+03  0.10364310020E+03 0.  0.
          2    1    3    3  502    0 -0.14140044512E+03  0.17829133598E+03 -0.18267238167E+03  0.29180658901E+03  0.00000000000E+00 0. -1.
         -1    1    3    3    0  502 -0.13630694407E+03  0.15453158202E+03 -0.79107418067E+02  0.22072058453E+03  0.00000000000E+00 0.  1.
         13    1    5    5    0    0 -0.57759159151E+02 -0.25207076905E+03  0.55094049506E+03  0.60861418170E+03  0.00000000000E+00 0.  1.
        -13    1    5    5    0    0  0.16566244206E+02 -0.23492765932E+03  0.63870251753E+03  0.68073956214E+03  0.00000000000E+00 0. -1.
          3    1    6    6  503    0  0.26804994520E+03  0.15510270196E+03  0.12509694981E+03  0.33400129959E+03  0.00000000000E+00 0. -1.
         -3    1    6    6    0  503  0.50850358933E+02 -0.92719159080E+00  0.60709800581E+02  0.79197844506E+02  0.00000000000E+00 0.  1.
<mgrwt>
<rscale>  0 0.19147634E+04</rscale>
<asrwt>0</asrwt>
<pdfrwt beam="1">  1        2 0.25605769E+00 0.19147634E+04</pdfrwt>
<pdfrwt beam="2">  1       -1 0.84723854E-01 0.19147634E+04</pdfrwt>
<totfact> 0.15081506E+01</totfact>
</mgrwt>
</event>
<event>
12    7  0.1606355E-007  0.1310701E+04  0.7818608E-02  0.9021122E-01
          2   -1    0    0  501    0  0.00000000000E+00  0.00000000000E+00  0.56854725354E+03  0.56854725354E+03  0.00000000000E+00 0. -1.
         -1   -1    0    0    0  501 -0.00000000000E+00 -0.00000000000E+00 -0.75540671218E+03  0.75540671218E+03  0.00000000000E+00 0.  1.
         24    2    1    2    0    0  0.74912147195E+02 -0.91171098552E+02 -0.37175052854E+03  0.39807067727E+03  0.79610361290E+02 0.  0.
        254    2    1    2    0    0 -0.74912147195E+02  0.91171098552E+02  0.18489106990E+03  0.92588328845E+03  0.89952829700E+03 0.  0.
         23    2    4    4    0    0  0.25418862353E+03  0.29708013805E+03 -0.12565301418E+03  0.42029910060E+03  0.89410230071E+02 0.  0.
         23    2    4    4    0    0 -0.32910077072E+03 -0.20590903950E+03  0.31054408408E+03  0.50558418785E+03  0.92042886809E+02 0.  0.
          4    1    3    3  502    0  0.32811254260E+02 -0.13552685689E+02 -0.34687852494E+02  0.49633666056E+02  0.00000000000E+00 0. -1.
         -3    1    3    3    0  502  0.42100892935E+02 -0.77618412862E+02 -0.33706267604E+03  0.34843701121E+03  0.00000000000E+00 0.  1.
         13    1    5    5    0    0  0.14414270624E+03  0.11572202714E+03 -0.88479809242E+02  0.20493263277E+03  0.00000000000E+00 0. -1.
        -13    1    5    5    0    0  0.11004591729E+03  0.18135811091E+03 -0.37173204934E+02  0.21536646784E+03  0.00000000000E+00 0.  1.
          1    1    6    6  503    0 -0.34852953752E+02 -0.61672440321E+02  0.46401513622E+02  0.84683639192E+02  0.00000000000E+00 0. -1.
         -1    1    6    6    0  503 -0.29424781697E+03 -0.14423659917E+03  0.26414257046E+03  0.42090054866E+03  0.00000000000E+00 0.  1.
<mgrwt>
<rscale>  0 0.13107012E+04</rscale>
<asrwt>0</asrwt>
<pdfrwt beam="1">  1        2 0.87468809E-01 0.13107012E+04</pdfrwt>
<pdfrwt beam="2">  1       -1 0.11621642E+00 0.13107012E+04</pdfrwt>
<totfact> 0.39665021E+01</totfact>
</mgrwt>
</event>
<event>
12    7  0.1606355E-007  0.1434256E+04  0.7818608E-02  0.8929389E-01
         -1   -1    0    0    0  501 -0.00000000000E+00  0.00000000000E+00  0.51394920561E+03  0.51394920561E+03  0.00000000000E+00 0.  1.
          2   -1    0    0  501    0  0.00000000000E+00 -0.00000000000E+00 -0.10006296993E+04  0.10006296993E+04  0.00000000000E+00 0. -1.
         24    2    1    2    0    0 -0.17958599991E+03 -0.20114638715E+03 -0.51309508110E+03  0.58487505087E+03  0.78110578319E+02 0.  0.
        254    2    1    2    0    0  0.17958599991E+03  0.20114638715E+03  0.26414587381E+02  0.92970385408E+03  0.88934837125E+03 0.  0.
         23    2    4    4    0    0 -0.34145610238E+03  0.90815170078E+02 -0.91875288172E+02  0.37651724839E+03  0.92111371684E+02 0.  0.
         23    2    4    4    0    0  0.52104210229E+03  0.11033121707E+03  0.11828987555E+03  0.55318660569E+03  0.91460790736E+02 0.  0.
          2    1    3    3  502    0 -0.17867254987E+03 -0.16176242491E+03 -0.45030481765E+03  0.51074983210E+03  0.00000000000E+00 0. -1.
         -1    1    3    3    0  502 -0.91345004274E+00 -0.39383962245E+02 -0.62790263453E+02  0.74125218770E+02  0.00000000000E+00 0.  1.
         13    1    5    5    0    0 -0.26133443358E+03  0.43272268782E+02 -0.34571277488E+02  0.26713919340E+03  0.00000000000E+00 0. -1.
        -13    1    5    5    0    0 -0.80121668791E+02  0.47542901296E+02 -0.57304010684E+02  0.10937805499E+03  0.00000000000E+00 0.  1.
          4    1    6    6  503    0  0.43712002968E+03  0.57466000184E+02  0.10395467940E+03  0.45297112147E+03  0.00000000000E+00 0. -1.
         -4    1    6    6    0  503  0.83922072611E+02  0.52865216889E+02  0.14335196152E+02  0.10021548422E+03  0.00000000000E+00 0.  1.
<mgrwt>
<rscale>  0 0.14342564E+04</rscale>
<asrwt>0</asrwt>
<pdfrwt beam="1">  1        2 0.15394303E+00 0.14342564E+04</pdfrwt>
<pdfrwt beam="2">  1       -1 0.79069110E-01 0.14342564E+04</pdfrwt>
<totfact> 0.44590213E+01</totfact>
</mgrwt>
</event>
<event>
12    7  0.1606355E-007  0.1648282E+04  0.7818608E-02  0.8791423E-01
         -1   -1    0    0    0  501 -0.00000000000E+00  0.00000000000E+00  0.21058214094E+04  0.21058214094E+04  0.00000000000E+00 0.  1.
          2   -1    0    0  501    0  0.00000000000E+00 -0.00000000000E+00 -0.32253849482E+03  0.32253849482E+03  0.00000000000E+00 0. -1.
         24    2    1    2    0    0 -0.74022582088E+02 -0.55705396434E+03  0.80848777340E+03  0.98788257940E+03  0.80442831251E+02 0.  0.
        254    2    1    2    0    0  0.74022582088E+02  0.55705396434E+03  0.97479514116E+03  0.14404773248E+04  0.89942253374E+03 0.  0.
         23    2    4    4    0    0  0.25932444730E+03  0.73591058522E+03  0.72967555204E+03  0.10723033473E+04  0.92706520867E+02 0.  0.
         23    2    4    4    0    0 -0.18530186521E+03 -0.17885662088E+03  0.24511958912E+03  0.36817397749E+03  0.95613768096E+02 0.  0.
          4    1    3    3  502    0 -0.10214448090E+02 -0.92016294918E+01  0.84241364742E+01  0.16123616543E+02  0.00000000000E+00 0. -1.
         -3    1    3    3    0  502 -0.63808133998E+02 -0.54785233485E+03  0.80006363692E+03  0.97175896286E+03  0.00000000000E+00 0.  1.
         13    1    5    5    0    0  0.25938825869E+03  0.65045723052E+03  0.64734640679E+03  0.95364262062E+03  0.00000000000E+00 0.  1.
        -13    1    5    5    0    0 -0.63811396169E-01  0.85453354704E+02  0.82329145246E+02  0.11866072669E+03  0.00000000000E+00 0. -1.
          3    1    6    6  503    0 -0.99294942373E+02 -0.33765224512E+02  0.11072308802E+03  0.15250960032E+03  0.00000000000E+00 0.  1.
         -3    1    6    6    0  503 -0.86006922836E+02 -0.14509139637E+03  0.13439650110E+03  0.21566437718E+03  0.00000000000E+00 0. -1.
<mgrwt>
<rscale>  0 0.16482821E+04</rscale>
<asrwt>0</asrwt>
<pdfrwt beam="1">  1        2 0.49621308E-01 0.16482821E+04</pdfrwt>
<pdfrwt beam="2">  1       -1 0.32397252E+00 0.16482821E+04</pdfrwt>
<totfact> 0.25591996E+00</totfact>
</mgrwt>
</event>
<event>
12    7  0.1606355E-007  0.1523154E+04  0.7818608E-02  0.8869200E-01
         -1   -1    0    0    0  501 -0.00000000000E+00  0.00000000000E+00  0.77432135089E+03  0.77432135089E+03  0.00000000000E+00 0.  1.
          2   -1    0    0  501    0  0.00000000000E+00 -0.00000000000E+00 -0.74904208213E+03  0.74904208213E+03  0.00000000000E+00 0. -1.
         24    2    1    2    0    0  0.20740837101E+03 -0.41121493622E+03  0.20040369719E+03  0.50873896471E+03  0.80856268951E+02 0.  0.
        254    2    1    2    0    0 -0.20740837101E+03  0.41121493622E+03 -0.17512442844E+03  0.10146244683E+04  0.88694886557E+03 0.  0.
         23    2    4    4    0    0 -0.46210983734E+03  0.52986611724E+02  0.10472729084E+03  0.48564366491E+03  0.92351941168E+02 0.  0.
         23    2    4    4    0    0  0.25470146633E+03  0.35822832449E+03 -0.27985171927E+03  0.52898080340E+03  0.91122643576E+02 0.  0.
          4    1    3    3  502    0  0.14828509848E+03 -0.35078983684E+03  0.18255544336E+03  0.42233691522E+03  0.00000000000E+00 0. -1.
         -3    1    3    3    0  502  0.59123272533E+02 -0.60425099379E+02  0.17848253829E+02  0.86402049483E+02  0.00000000000E+00 0.  1.
         13    1    5    5    0    0 -0.41822685805E+02  0.33037587599E+02  0.78219495215E+01  0.53868377892E+02  0.00000000000E+00 0.  1.
        -13    1    5    5    0    0 -0.42028715153E+03  0.19949024125E+02  0.96905341316E+02  0.43177528702E+03  0.00000000000E+00 0. -1.
          2    1    6    6  503    0  0.15769869813E+03  0.28822725488E+03 -0.19168826465E+03  0.38037904865E+03  0.00000000000E+00 0. -1.
         -2    1    6    6    0  503  0.97002768198E+02  0.70001069613E+02 -0.88163454623E+02  0.14860175475E+03  0.00000000000E+00 0.  1.
<mgrwt>
<rscale>  0 0.15231537E+04</rscale>
<asrwt>0</asrwt>
<pdfrwt beam="1">  1        2 0.11523724E+00 0.15231537E+04</pdfrwt>
<pdfrwt beam="2">  1       -1 0.11912636E+00 0.15231537E+04</pdfrwt>
<totfact> 0.26082566E+01</totfact>
</mgrwt>
</event>
<event>
12    7  0.1606355E-007  0.1862130E+04  0.7818608E-02  0.8673940E-01
          2   -1    0    0  501    0  0.00000000000E+00  0.00000000000E+00  0.94874414493E+03  0.94874414493E+03  0.00000000000E+00 0. -1.
         -1   -1    0    0    0  501 -0.00000000000E+00 -0.00000000000E+00 -0.91371481412E+03  0.91371481412E+03  0.00000000000E+00 0.  1.
         24    2    1    2    0    0  0.40575096743E+03 -0.28327689963E+03  0.52573021453E+03  0.72621780443E+03  0.78232931534E+02 0.  0.
        254    2    1    2    0    0 -0.40575096743E+03  0.28327689963E+03 -0.49070088372E+03  0.11362411546E+04  0.89742796632E+03 0.  0.
         23    2    4    4    0    0  0.17337543647E+03  0.16457391113E+02  0.13306722928E+03  0.23928305669E+03  0.96018779490E+02 0.  0.
         23    2    4    4    0    0 -0.57912640390E+03  0.26681950852E+03 -0.62376811301E+03  0.89695809793E+03  0.94165433233E+02 0.  0.
          4    1    3    3  502    0  0.29397916356E+03 -0.20535279404E+03  0.42890550612E+03  0.55906480108E+03  0.00000000000E+00 0. -1.
         -3    1    3    3    0  502  0.11177180387E+03 -0.77924105594E+02  0.96824708412E+02  0.16715300336E+03  0.00000000000E+00 0.  1.
         13    1    5    5    0    0  0.16165872842E+03  0.23316270120E+02  0.75140877472E+02  0.17978694167E+03  0.00000000000E+00 0.  1.
        -13    1    5    5    0    0  0.11716708056E+02 -0.68588790072E+01  0.57926351810E+02  0.59496115024E+02  0.00000000000E+00 0. -1.
          1    1    6    6  503    0 -0.36855150428E+03  0.19465863413E+03 -0.45908499164E+03  0.62006550033E+03  0.00000000000E+00 0. -1.
         -1    1    6    6    0  503 -0.21057489962E+03  0.72160874387E+02 -0.16468312137E+03  0.27689259760E+03  0.00000000000E+00 0.  1.
<mgrwt>
<rscale>  0 0.18621295E+04</rscale>
<asrwt>0</asrwt>
<pdfrwt beam="1">  1        2 0.14596064E+00 0.18621295E+04</pdfrwt>
<pdfrwt beam="2">  1       -1 0.14057151E+00 0.18621295E+04</pdfrwt>
<totfact> 0.12092089E+01</totfact>
</mgrwt>
</event>
<event>
12    7  0.1606355E-007  0.2565004E+04  0.7818608E-02  0.8380187E-01
          2   -1    0    0  501    0  0.00000000000E+00  0.00000000000E+00  0.21820496627E+04  0.21820496627E+04  0.00000000000E+00 0. -1.
         -1   -1    0    0    0  501 -0.00000000000E+00 -0.00000000000E+00 -0.75379177341E+03  0.75379177341E+03  0.00000000000E+00 0.  1.
         24    2    1    2    0    0 -0.83755921624E+03  0.64949025398E+03  0.19073911752E+03  0.10799633190E+04  0.81217785619E+02 0.  0.
        254    2    1    2    0    0  0.83755921624E+03 -0.64949025398E+03  0.12375187718E+04  0.18558781171E+04  0.88853128497E+03 0.  0.
         23    2    4    4    0    0  0.92106316913E+03 -0.77016768909E+03  0.10146069732E+04  0.15745565409E+04  0.91023950972E+02 0.  0.
         23    2    4    4    0    0 -0.83503952890E+02  0.12067743511E+03  0.22291179856E+03  0.28132157618E+03  0.88973062187E+02 0.  0.
          2    1    3    3  502    0 -0.39774878128E+03  0.27985003413E+03  0.12158688019E+03  0.50130180934E+03  0.00000000000E+00 0. -1.
         -1    1    3    3    0  502 -0.43981043497E+03  0.36964021986E+03  0.69152237331E+02  0.57866150966E+03  0.00000000000E+00 0.  1.
         13    1    5    5    0    0  0.32982215711E+03 -0.25369779922E+03  0.30009995629E+03  0.51303529354E+03  0.00000000000E+00 0. -1.
        -13    1    5    5    0    0  0.59124101203E+03 -0.51646988988E+03  0.71450701693E+03  0.10615212474E+04  0.00000000000E+00 0.  1.
          3    1    6    6  503    0 -0.32866179489E+02  0.22826310839E+02  0.13368552969E+03  0.13954586009E+03  0.00000000000E+00 0. -1.
         -3    1    6    6    0  503 -0.50637773401E+02  0.97851124270E+02  0.89226268875E+02  0.14177571609E+03  0.00000000000E+00 0.  1.
<mgrwt>
<rscale>  0 0.25650038E+04</rscale>
<asrwt>0</asrwt>
<pdfrwt beam="1">  1        2 0.33569995E+00 0.25650038E+04</pdfrwt>
<pdfrwt beam="2">  1       -1 0.11596797E+00 0.25650038E+04</pdfrwt>
<totfact> 0.35874250E+00</totfact>
</mgrwt>
</event>
<event>
12    7  0.1606355E-007  0.1146005E+04  0.7818608E-02  0.9161477E-01
         -1   -1    0    0    0  501 -0.00000000000E+00  0.00000000000E+00  0.30983749249E+03  0.30983749249E+03  0.00000000000E+00 0.  1.
          2   -1    0    0  501    0  0.00000000000E+00 -0.00000000000E+00 -0.10596911566E+04  0.10596911566E+04  0.00000000000E+00 0. -1.
         24    2    1    2    0    0  0.92735610174E+02  0.75381476986E+02 -0.34299235780E+03  0.37546881058E+03  0.95135743782E+02 0.  0.
        254    2    1    2    0    0 -0.92735610174E+02 -0.75381476986E+02 -0.40686130631E+03  0.99405983850E+03  0.89907540255E+03 0.  0.
         23    2    4    4    0    0  0.53169382081E+02  0.34358016209E+03 -0.40620989283E+03  0.54117244758E+03  0.83587259935E+02 0.  0.
         23    2    4    4    0    0 -0.14590499225E+03 -0.41896163907E+03 -0.65141348008E+00  0.45288739091E+03  0.91046376805E+02 0.  0.
          4    1    3    3  502    0  0.27389385823E+02  0.60597181019E+02 -0.26224858713E+03  0.27054855064E+03  0.00000000000E+00 0. -1.
         -3    1    3    3    0  502  0.65346224351E+02  0.14784295968E+02 -0.80743770673E+02  0.10492025994E+03  0.00000000000E+00 0.  1.
         13    1    5    5    0    0  0.66071746621E+02  0.33621601004E+03 -0.39145428678E+03  0.52023373569E+03  0.00000000000E+00 0. -1.
        -13    1    5    5    0    0 -0.12902364541E+02  0.73641520490E+01 -0.14755606045E+02  0.20938711897E+02  0.00000000000E+00 0.  1.
          1    1    6    6  503    0 -0.13068270118E+03 -0.40184089496E+03 -0.19813161537E+02  0.42302084419E+03  0.00000000000E+00 0. -1.
         -1    1    6    6    0  503 -0.15222291071E+02 -0.17120744111E+02  0.19161748056E+02  0.29866546719E+02  0.00000000000E+00 0.  1.
<mgrwt>
<rscale>  0 0.11460053E+04</rscale>
<asrwt>0</asrwt>
<pdfrwt beam="1">  1        2 0.16302941E+00 0.11460053E+04</pdfrwt>
<pdfrwt beam="2">  1       -1 0.47667306E-01 0.11460053E+04</pdfrwt>
<totfact> 0.11449245E+02</totfact>
</mgrwt>
</event>
<event>
12    7  0.1606355E-007  0.1228960E+04  0.7818608E-02  0.9087879E-01
          2   -1    0    0  501    0  0.00000000000E+00  0.00000000000E+00  0.14630945084E+04  0.14630945084E+04  0.00000000000E+00 0. -1.
         -3   -1    0    0    0  501 -0.00000000000E+00 -0.00000000000E+00 -0.25807314210E+03  0.25807314210E+03  0.00000000000E+00 0.  1.
         24    2    1    2    0    0  0.12136838617E+03  0.20907706633E+02  0.62392733054E+03  0.64101466000E+03  0.80293606137E+02 0.  0.
        254    2    1    2    0    0 -0.12136838617E+03 -0.20907706633E+02  0.58109403571E+03  0.10801529905E+04  0.90216006734E+03 0.  0.
         23    2    4    4    0    0 -0.15012933683E+03 -0.31769529624E+03  0.66633901960E+03  0.75885984124E+03  0.91604861095E+02 0.  0.
         23    2    4    4    0    0  0.28760950667E+02  0.29678758961E+03 -0.85244983884E+02  0.32129314922E+03  0.83979252381E+02 0.  0.
          4    1    3    3  502    0  0.79114220202E+02  0.14103350703E+02  0.54795602939E+03  0.55381745593E+03  0.00000000000E+00 0. -1.
         -3    1    3    3    0  502  0.42254165964E+02  0.68043559300E+01  0.75971301144E+02  0.87197204074E+02  0.00000000000E+00 0.  1.
         13    1    5    5    0    0 -0.14400012326E+03 -0.22591941549E+03  0.44893233290E+03  0.52279619100E+03  0.00000000000E+00 0. -1.
        -13    1    5    5    0    0 -0.61292135723E+01 -0.91775880747E+02  0.21740668669E+03  0.23606365024E+03  0.00000000000E+00 0.  1.
          4    1    6    6  503    0  0.30639318571E+02  0.32969688026E+02 -0.37312945588E+01  0.45162935358E+02  0.00000000000E+00 0. -1.
         -4    1    6    6    0  503 -0.18783679037E+01  0.26381790158E+03 -0.81513689325E+02  0.27613021386E+03  0.00000000000E+00 0.  1.
<mgrwt>
<rscale>  0 0.12289596E+04</rscale>
<asrwt>0</asrwt>
<pdfrwt beam="1">  1        2 0.22509146E+00 0.12289596E+04</pdfrwt>
<pdfrwt beam="2">  1       -3 0.39703561E-01 0.12289596E+04</pdfrwt>
<totfact> 0.53092873E+01</totfact>
</mgrwt>
</event>
<event>
12    7  0.1606355E-007  0.1559150E+04  0.7818608E-02  0.8846044E-01
          2   -1    0    0  501    0  0.00000000000E+00  0.00000000000E+00  0.22683960049E+04  0.22683960049E+04  0.00000000000E+00 0. -1.
         -1   -1    0    0    0  501 -0.00000000000E+00 -0.00000000000E+00 -0.26791511173E+03  0.26791511173E+03  0.00000000000E+00 0.  1.
         24    2    1    2    0    0 -0.39693782419E+03  0.32744173863E+03  0.59348636911E+03  0.78967447735E+03  0.81129411326E+02 0.  0.
        254    2    1    2    0    0  0.39693782419E+03 -0.32744173863E+03  0.14069945241E+04  0.17466366393E+04  0.89795781109E+03 0.  0.
         23    2    4    4    0    0  0.53644297039E+03 -0.14729834078E+03  0.35453568637E+03  0.66587837868E+03  0.90722657599E+02 0.  0.
         23    2    4    4    0    0 -0.13950514620E+03 -0.18014339786E+03  0.10524588377E+04  0.10807582606E+04  0.91953701619E+02 0.  0.
          4    1    3    3  502    0 -0.29216036787E+03  0.26300572682E+03  0.49497527026E+03  0.63208402216E+03  0.00000000000E+00 0. -1.
         -3    1    3    3    0  502 -0.10477745632E+03  0.64436011816E+02  0.98511098848E+02  0.15759045519E+03  0.00000000000E+00 0.  1.
         13    1    5    5    0    0  0.30029421398E+02  0.98624968155E+01  0.33344929981E+02  0.45944742337E+02  0.00000000000E+00 0. -1.
        -13    1    5    5    0    0  0.50641354899E+03 -0.15716083759E+03  0.32119075639E+03  0.61993363634E+03  0.00000000000E+00 0.  1.
          3    1    6    6  503    0 -0.40053758256E+02 -0.11042531426E+03  0.39185886698E+03  0.40908608533E+03  0.00000000000E+00 0. -1.
         -3    1    6    6    0  503 -0.99451387946E+02 -0.69718083592E+02  0.66059997072E+03  0.67167217529E+03  0.00000000000E+00 0.  1.
<mgrwt>
<rscale>  0 0.15591505E+04</rscale>
<asrwt>0</asrwt>
<pdfrwt beam="1">  1        2 0.34898399E+00 0.15591505E+04</pdfrwt>
<pdfrwt beam="2">  1       -1 0.41217711E-01 0.15591505E+04</pdfrwt>
<totfact> 0.29870006E+01</totfact>
</mgrwt>
</event>
<event>
12    7  0.1606355E-007  0.1850708E+04  0.7818608E-02  0.8679789E-01
         -1   -1    0    0    0  501 -0.00000000000E+00  0.00000000000E+00  0.23456317244E+03  0.23456317244E+03  0.00000000000E+00 0.  1.
          2   -1    0    0  501    0  0.00000000000E+00 -0.00000000000E+00 -0.36505287160E+04  0.36505287160E+04  0.00000000000E+00 0. -1.
         24    2    1    2    0    0  0.54100096619E+03  0.44058974535E+03 -0.11396834892E+04  0.13386992787E+04  0.80224272755E+02 0.  0.
        254    2    1    2    0    0 -0.54100096619E+03 -0.44058974535E+03 -0.22762820544E+04  0.25463926098E+04  0.90324634690E+03 0.  0.
         23    2    4    4    0    0 -0.50916260579E+03  0.75891431863E+01 -0.53324766242E+03  0.74412197956E+03  0.10030103067E+03 0.  0.
         23    2    4    4    0    0 -0.31838360397E+02 -0.44817888853E+03 -0.17430343920E+04  0.18022706303E+04  0.90180573686E+02 0.  0.
          2    1    3    3  502    0  0.10118476869E+03  0.45756783634E+02 -0.19262736437E+03  0.22234509701E+03  0.00000000000E+00 0. -1.
         -1    1    3    3    0  502  0.43981619750E+03  0.39483296171E+03 -0.94705612485E+03  0.11163541816E+04  0.00000000000E+00 0.  1.
         13    1    5    5    0    0 -0.89626884462E+01 -0.15423957425E+02 -0.24344246802E+02  0.30180632849E+02  0.00000000000E+00 0. -1.
        -13    1    5    5    0    0 -0.50019991735E+03  0.23013100611E+02 -0.50890341562E+03  0.71394134671E+03  0.00000000000E+00 0.  1.
          1    1    6    6  503    0 -0.50592330072E+02 -0.25210870471E+03 -0.86467891034E+03  0.90210199026E+03  0.00000000000E+00 0. -1.
         -1    1    6    6    0  503  0.18753969676E+02 -0.19607018383E+03 -0.87835548163E+03  0.90016864002E+03  0.00000000000E+00 0.  1.
<mgrwt>
<rscale>  0 0.18507075E+04</rscale>
<asrwt>0</asrwt>
<pdfrwt beam="1">  1        2 0.56161981E+00 0.18507075E+04</pdfrwt>
<pdfrwt beam="2">  1       -1 0.36086642E-01 0.18507075E+04</pdfrwt>
<totfact> 0.50342252E+00</totfact>
</mgrwt>
</event>
<event>
12    7  0.1606355E-007  0.2504211E+04  0.7818608E-02  0.8401487E-01
         -1   -1    0    0    0  501 -0.00000000000E+00  0.00000000000E+00  0.49986502184E+03  0.49986502184E+03  0.00000000000E+00 0.  1.
          2   -1    0    0  501    0  0.00000000000E+00 -0.00000000000E+00 -0.31363830554E+04  0.31363830554E+04  0.00000000000E+00 0. -1.
         24    2    1    2    0    0  0.10425192192E+04  0.71408644627E+02 -0.70789451445E+03  0.12651627908E+04  0.87044393842E+02 0.  0.
        254    2    1    2    0    0 -0.10425192192E+04 -0.71408644627E+02 -0.19286235191E+04  0.23710852865E+04  0.90028397756E+03 0.  0.
         23    2    4    4    0    0  0.10302836477E+03 -0.10071895990E+03 -0.55004817906E+03  0.57590706166E+03  0.91415488558E+02 0.  0.
         23    2    4    4    0    0 -0.11455475840E+04  0.29310315278E+02 -0.13785753401E+04  0.17951782248E+04  0.95165796597E+02 0.  0.
          2    1    3    3  502    0  0.40421195493E+03 -0.12094412523E+02 -0.25530356533E+03  0.47823999184E+03  0.00000000000E+00 0. -1.
         -1    1    3    3    0  502  0.63830726432E+03  0.83503057150E+02 -0.45259094912E+03  0.78692279892E+03  0.00000000000E+00 0.  1.
         13    1    5    5    0    0 -0.11016264083E+02 -0.39464350181E+02 -0.14470985306E+03  0.15039858570E+03  0.00000000000E+00 0.  1.
        -13    1    5    5    0    0  0.11404462885E+03 -0.61254609724E+02 -0.40533832600E+03  0.42550847595E+03  0.00000000000E+00 0. -1.
          4    1    6    6  503    0 -0.95026267379E+03 -0.29641442299E+01 -0.11761487514E+04  0.15120627701E+04  0.00000000000E+00 0. -1.
         -4    1    6    6    0  503 -0.19528491023E+03  0.32274459508E+02 -0.20242658863E+03  0.28311545469E+03  0.00000000000E+00 0.  1.
<mgrwt>
<rscale>  0 0.25042110E+04</rscale>
<asrwt>0</asrwt>
<pdfrwt beam="1">  1        2 0.48252047E+00 0.25042110E+04</pdfrwt>
<pdfrwt beam="2">  1       -1 0.76902311E-01 0.25042110E+04</pdfrwt>
<totfact> 0.24534044E+00</totfact>
</mgrwt>
</event>
<event>
12    7  0.1606355E-007  0.2023003E+04  0.7818608E-02  0.8595941E-01
         -1   -1    0    0    0  501 -0.00000000000E+00  0.00000000000E+00  0.36691362899E+03  0.36691362899E+03  0.00000000000E+00 0.  1.
          2   -1    0    0  501    0  0.00000000000E+00 -0.00000000000E+00 -0.27884918586E+04  0.27884918586E+04  0.00000000000E+00 0. -1.
         24    2    1    2    0    0 -0.65711607742E+03  0.16025702174E+03 -0.27951743107E+03  0.73621047662E+03  0.79950105599E+02 0.  0.
        254    2    1    2    0    0  0.65711607742E+03 -0.16025702174E+03 -0.21420607985E+04  0.24191950109E+04  0.89810700041E+03 0.  0.
         23    2    4    4    0    0  0.61621540385E+03 -0.25270066016E+03 -0.69809703897E+03  0.96869112090E+03  0.86278411624E+02 0.  0.
         23    2    4    4    0    0  0.40900673570E+02  0.92443638416E+02 -0.14439637596E+04  0.14505038900E+04  0.93335442045E+02 0.  0.
          2    1    3    3  502    0 -0.95755073919E+02  0.32629413661E+01 -0.61614209855E+02  0.11391221104E+03  0.00000000000E+00 0. -1.
         -1    1    3    3    0  502 -0.56136100350E+03  0.15699408037E+03 -0.21790322121E+03  0.62229826558E+03  0.00000000000E+00 0.  1.
         13    1    5    5    0    0  0.62670090279E+02 -0.45938681307E+02 -0.11289338573E+03  0.13705042575E+03  0.00000000000E+00 0.  1.
        -13    1    5    5    0    0  0.55354531357E+03 -0.20676197885E+03 -0.58520365323E+03  0.83164069515E+03  0.00000000000E+00 0. -1.
          1    1    6    6  503    0  0.87653253658E+01 -0.18086183818E+00 -0.70619473742E+03  0.70624915632E+03  0.00000000000E+00 0. -1.
         -1    1    6    6    0  503  0.32135348204E+02  0.92624500254E+02 -0.73776902213E+03  0.74425473372E+03  0.00000000000E+00 0.  1.
<mgrwt>
<rscale>  0 0.20230034E+04</rscale>
<asrwt>0</asrwt>
<pdfrwt beam="1">  1        2 0.42899876E+00 0.20230034E+04</pdfrwt>
<pdfrwt beam="2">  1       -1 0.56448249E-01 0.20230034E+04</pdfrwt>
<totfact> 0.78879593E+00</totfact>
</mgrwt>
</event>
<event>
12    7  0.1606355E-007  0.2393977E+04  0.7818608E-02  0.8441762E-01
          2   -1    0    0  501    0  0.00000000000E+00  0.00000000000E+00  0.20957854051E+04  0.20957854051E+04  0.00000000000E+00 0. -1.
         -1   -1    0    0    0  501 -0.00000000000E+00 -0.00000000000E+00 -0.68364881179E+03  0.68364881179E+03  0.00000000000E+00 0.  1.
         24    2    1    2    0    0  0.78925097554E+03  0.64568834714E+03  0.46783087524E+03  0.11260110485E+04  0.95940656120E+02 0.  0.
        254    2    1    2    0    0 -0.78925097554E+03 -0.64568834714E+03  0.94430571810E+03  0.16534231684E+04  0.89569210145E+03 0.  0.
         23    2    4    4    0    0 -0.47294974111E+03 -0.71946380295E+02  0.85751725435E+03  0.98603848511E+03  0.89879437904E+02 0.  0.
         23    2    4    4    0    0 -0.31630123443E+03 -0.57374196684E+03  0.86788463750E+02  0.66738468331E+03  0.92971837951E+02 0.  0.
          4    1    3    3  502    0  0.12196740586E+03  0.58190674834E+02  0.64668773504E+02  0.14981406141E+03  0.00000000000E+00 0. -1.
         -3    1    3    3    0  502  0.66728356968E+03  0.58749767231E+03  0.40316210173E+03  0.97619698709E+03  0.00000000000E+00 0.  1.
         13    1    5    5    0    0 -0.33294136434E+03 -0.35365616219E+02  0.67169998941E+03  0.75052085559E+03  0.00000000000E+00 0.  1.
        -13    1    5    5    0    0 -0.14000837677E+03 -0.36580764076E+02  0.18581726494E+03  0.23551762952E+03  0.00000000000E+00 0. -1.
          2    1    6    6  503    0 -0.55269609444E+02 -0.18710717700E+03  0.19897366444E+02  0.19611152594E+03  0.00000000000E+00 0. -1.
         -2    1    6    6    0  503 -0.26103162498E+03 -0.38663478984E+03  0.66891097306E+02  0.47127315737E+03  0.00000000000E+00 0.  1.
<mgrwt>
<rscale>  0 0.23939768E+04</rscale>
<asrwt>0</asrwt>
<pdfrwt beam="1">  1        2 0.32242852E+00 0.23939768E+04</pdfrwt>
<pdfrwt beam="2">  1       -1 0.10517674E+00 0.23939768E+04</pdfrwt>
<totfact> 0.51282856E+00</totfact>
</mgrwt>
</event>
<event>
12    7  0.1606355E-007  0.1304990E+04  0.7818608E-02  0.9025618E-01
          2   -1    0    0  501    0  0.00000000000E+00  0.00000000000E+00  0.20392040372E+04  0.20392040372E+04  0.00000000000E+00 0. -1.
         -1   -1    0    0    0  501 -0.00000000000E+00 -0.00000000000E+00 -0.20878222294E+03  0.20878222294E+03  0.00000000000E+00 0.  1.
         24    2    1    2    0    0  0.94642910355E+02 -0.22723244548E+03  0.97306225038E+02  0.27590541055E+03  0.77868025409E+02 0.  0.
        254    2    1    2    0    0 -0.94642910355E+02  0.22723244548E+03  0.17331155893E+04  0.19720808496E+04  0.90819676665E+03 0.  0.
         23    2    4    4    0    0  0.37325894583E+03  0.49350828963E+02  0.45318409769E+03  0.59469992326E+03  0.80835804923E+02 0.  0.
         23    2    4    4    0    0 -0.46790185619E+03  0.17788161652E+03  0.12799314916E+04  0.13773809264E+04  0.91540027804E+02 0.  0.
          4    1    3    3  502    0  0.43747069897E+01 -0.85488601429E+02  0.57770061638E+02  0.10327061081E+03  0.00000000000E+00 0. -1.
         -3    1    3    3    0  502  0.90268203366E+02 -0.14174384405E+03  0.39536163400E+02  0.17263479974E+03  0.00000000000E+00 0.  1.
         13    1    5    5    0    0  0.14839087822E+02  0.62922024358E+01  0.10821162513E+01  0.16154297090E+02  0.00000000000E+00 0.  1.
        -13    1    5    5    0    0  0.35841985801E+03  0.43058626527E+02  0.45210198144E+03  0.57854562617E+03  0.00000000000E+00 0. -1.
          1    1    6    6  503    0 -0.24204612352E+03  0.10869732617E+03  0.79231909795E+03  0.83556626763E+03  0.00000000000E+00 0. -1.
         -1    1    6    6    0  503 -0.22585573267E+03  0.69184290347E+02  0.48761239362E+03  0.54181465873E+03  0.00000000000E+00 0.  1.
<mgrwt>
<rscale>  0 0.13049897E+04</rscale>
<asrwt>0</asrwt>
<pdfrwt beam="1">  1        2 0.31372368E+00 0.13049897E+04</pdfrwt>
<pdfrwt beam="2">  1       -1 0.32120343E-01 0.13049897E+04</pdfrwt>
<totfact> 0.64209186E+01</totfact>
</mgrwt>
</event>
<event>
12    7  0.1606355E-007  0.1378844E+04  0.7818608E-02  0.8969276E-01
         -1   -1    0    0    0  501 -0.00000000000E+00  0.00000000000E+00  0.58471244071E+03  0.58471244071E+03  0.00000000000E+00 0.  1.
          2   -1    0    0  501    0  0.00000000000E+00 -0.00000000000E+00 -0.81288287899E+03  0.81288287899E+03  0.00000000000E+00 0. -1.
         24    2    1    2    0    0 -0.23166637887E+03 -0.40919828498E+02 -0.38776680588E+03  0.46077946762E+03  0.81307309500E+02 0.  0.
        254    2    1    2    0    0  0.23166637887E+03  0.40919828498E+02  0.15959636760E+03  0.93681585208E+03  0.89264169558E+03 0.  0.
         23    2    4    4    0    0  0.13701004379E+03  0.68387203810E+02 -0.35897344468E+03  0.40121382392E+03  0.93070063798E+02 0.  0.
         23    2    4    4    0    0  0.94656335089E+02 -0.27467375311E+02  0.51856981229E+03  0.53560202815E+03  0.90777771876E+02 0.  0.
          2    1    3    3  502    0 -0.18704729104E+03 -0.12526153815E+02 -0.24473930876E+03  0.30828707865E+03  0.00000000000E+00 0. -1.
         -1    1    3    3    0  502 -0.44619087838E+02 -0.28393674683E+02 -0.14302749712E+03  0.15249238897E+03  0.00000000000E+00 0.  1.
         13    1    5    5    0    0  0.14067392411E+03  0.76211643575E+02 -0.28582206478E+03  0.32755399594E+03  0.00000000000E+00 0. -1.
        -13    1    5    5    0    0 -0.36638803230E+01 -0.78244397650E+01 -0.73151379909E+02  0.73659827988E+02  0.00000000000E+00 0.  1.
          1    1    6    6  503    0 -0.65212405093E+01 -0.31278554039E+02  0.10105073514E+03  0.10598172292E+03  0.00000000000E+00 0. -1.
         -1    1    6    6    0  503  0.10117757560E+03  0.38111787278E+01  0.41751907715E+03  0.42962030523E+03  0.00000000000E+00 0.  1.
<mgrwt>
<rscale>  0 0.13788441E+04</rscale>
<asrwt>0</asrwt>
<pdfrwt beam="1">  1        2 0.12505890E+00 0.13788441E+04</pdfrwt>
<pdfrwt beam="2">  1       -1 0.89955761E-01 0.13788441E+04</pdfrwt>
<totfact> 0.45394471E+01</totfact>
</mgrwt>
</event>
<event>
12    7  0.1606355E-007  0.1850869E+04  0.7818608E-02  0.8679706E-01
         -1   -1    0    0    0  501 -0.00000000000E+00  0.00000000000E+00  0.12133768724E+04  0.12133768724E+04  0.00000000000E+00 0.  1.
          2   -1    0    0  501    0  0.00000000000E+00 -0.00000000000E+00 -0.70582261224E+03  0.70582261224E+03  0.00000000000E+00 0. -1.
         24    2    1    2    0    0 -0.49016116389E+03 -0.26299554808E+03  0.63375624977E+03  0.84722544070E+03  0.81971570394E+02 0.  0.
        254    2    1    2    0    0  0.49016116389E+03  0.26299554808E+03 -0.12620198958E+03  0.10719740440E+04  0.90762149815E+03 0.  0.
         23    2    4    4    0    0 -0.15556440083E+03 -0.41259737212E+02  0.20794603962E+03  0.27843612328E+03  0.91555833397E+02 0.  0.
         23    2    4    4    0    0  0.64572556473E+03  0.30425528529E+03 -0.33414802920E+03  0.79353792070E+03  0.92275362931E+02 0.  0.
          4    1    3    3  502    0 -0.10504424535E+03 -0.96120350510E+02  0.15169916389E+03  0.20805300187E+03  0.00000000000E+00 0. -1.
         -3    1    3    3    0  502 -0.38511691855E+03 -0.16687519757E+03  0.48205708588E+03  0.63917243883E+03  0.00000000000E+00 0.  1.
         13    1    5    5    0    0 -0.10082576962E+03 -0.64991368243E+02  0.10484858620E+03  0.15932024289E+03  0.00000000000E+00 0.  1.
        -13    1    5    5    0    0 -0.54738631211E+02  0.23731631031E+02  0.10309745342E+03  0.11911588039E+03  0.00000000000E+00 0. -1.
          2    1    6    6  503    0  0.51377811729E+02 -0.41755288390E+00 -0.31596906120E+02  0.60317645551E+02  0.00000000000E+00 0. -1.
         -2    1    6    6    0  503  0.59434775300E+03  0.30467283817E+03 -0.30255112308E+03  0.73322027515E+03  0.00000000000E+00 0.  1.
<mgrwt>
<rscale>  0 0.18508688E+04</rscale>
<asrwt>0</asrwt>
<pdfrwt beam="1">  1        2 0.10858809E+00 0.18508688E+04</pdfrwt>
<pdfrwt beam="2">  1       -1 0.18667336E+00 0.18508688E+04</pdfrwt>
<totfact> 0.81167715E+00</totfact>
</mgrwt>
</event>
<event>
12    7  0.1606355E-007  0.2493108E+04  0.7818608E-02  0.8405445E-01
         -1   -1    0    0    0  501 -0.00000000000E+00  0.00000000000E+00  0.81065522789E+03  0.81065522789E+03  0.00000000000E+00 0.  1.
          2   -1    0    0  501    0  0.00000000000E+00 -0.00000000000E+00 -0.19168401167E+04  0.19168401167E+04  0.00000000000E+00 0. -1.
         24    2    1    2    0    0  0.73259132309E+03 -0.15079730583E+03 -0.13295796206E+04  0.15277078823E+04  0.81728403881E+02 0.  0.
        254    2    1    2    0    0 -0.73259132309E+03  0.15079730583E+03  0.22339473184E+03  0.11997874622E+04  0.91112835223E+03 0.  0.
         23    2    4    4    0    0 -0.60951907051E+03  0.45093399826E+03 -0.48195067023E+02  0.76516108181E+03  0.91070019917E+02 0.  0.
         23    2    4    4    0    0 -0.12307225258E+03 -0.30013669243E+03  0.27158979886E+03  0.43462638043E+03  0.99550279894E+02 0.  0.
          2    1    3    3  502    0  0.52840281788E+03 -0.14505423438E+03 -0.95342542288E+03  0.10996682708E+04  0.00000000000E+00 0. -1.
         -1    1    3    3    0  502  0.20418850521E+03 -0.57430714514E+01 -0.37615419774E+03  0.42803961149E+03  0.00000000000E+00 0.  1.
         13    1    5    5    0    0 -0.41285477896E+03  0.30099137265E+03  0.10312930352E+02  0.51102957982E+03  0.00000000000E+00 0. -1.
        -13    1    5    5    0    0 -0.19666429155E+03  0.14994262561E+03 -0.58507997375E+02  0.25413150198E+03  0.00000000000E+00 0.  1.
          2    1    6    6  503    0  0.11421214459E+02 -0.83787296557E+02  0.66026700390E+02  0.10728597471E+03  0.00000000000E+00 0. -1.
         -2    1    6    6    0  503 -0.13449346704E+03 -0.21634939588E+03  0.20556309847E+03  0.32734040573E+03  0.00000000000E+00 0.  1.
<mgrwt>
<rscale>  0 0.24931077E+04</rscale>
<asrwt>0</asrwt>
<pdfrwt beam="1">  1        2 0.29489848E+00 0.24931077E+04</pdfrwt>
<pdfrwt beam="2">  1       -1 0.12471619E+00 0.24931077E+04</pdfrwt>
<totfact> 0.42476232E+00</totfact>
</mgrwt>
</event>
<event>
12    7  0.1606355E-007  0.1557214E+04  0.7818608E-02  0.8847273E-01
         -3   -1    0    0    0  501 -0.00000000000E+00  0.00000000000E+00  0.58153692503E+03  0.58153692503E+03  0.00000000000E+00 0.  1.
          2   -1    0    0  501    0  0.00000000000E+00 -0.00000000000E+00 -0.10424600515E+04  0.10424600515E+04  0.00000000000E+00 0. -1.
         24    2    1    2    0    0  0.11344542465E+03 -0.36931863809E+03  0.20045493404E+03  0.44257491004E+03  0.80151416711E+02 0.  0.
        254    2    1    2    0    0 -0.11344542465E+03  0.36931863809E+03 -0.66137806052E+03  0.11814220665E+04  0.89948376275E+03 0.  0.
         23    2    4    4    0    0 -0.12416498467E+03  0.61452666360E+03 -0.22584846530E+03  0.67247904570E+03  0.90335895060E+02 0.  0.
         23    2    4    4    0    0  0.10719560017E+02 -0.24520802552E+03 -0.43552959522E+03  0.50894302079E+03  0.95368156936E+02 0.  0.
          4    1    3    3  502    0  0.53700077953E+02 -0.16757119854E+03  0.46944969958E+02  0.18211983735E+03  0.00000000000E+00 0. -1.
         -3    1    3    3    0  502  0.59745346696E+02 -0.20174743955E+03  0.15350996408E+03  0.26045507269E+03  0.00000000000E+00 0.  1.
         13    1    5    5    0    0 -0.62602439695E+01  0.10249541694E+02 -0.19956891978E+02  0.23292086573E+02  0.00000000000E+00 0.  1.
        -13    1    5    5    0    0 -0.11790474070E+03  0.60427712191E+03 -0.20589157332E+03  0.64918695913E+03  0.00000000000E+00 0. -1.
          4    1    6    6  503    0  0.38755465927E+02 -0.21154017085E+03 -0.32162529824E+03  0.38690316940E+03  0.00000000000E+00 0. -1.
         -4    1    6    6    0  503 -0.28035905909E+02 -0.33667854665E+02 -0.11390429698E+03  0.12203985139E+03  0.00000000000E+00 0.  1.
<mgrwt>
<rscale>  0 0.15572142E+04</rscale>
<asrwt>0</asrwt>
<pdfrwt beam="1">  1        2 0.16037847E+00 0.15572142E+04</pdfrwt>
<pdfrwt beam="2">  1       -3 0.89467220E-01 0.15572142E+04</pdfrwt>
<totfact> 0.16330885E+01</totfact>
</mgrwt>
</event>
<event>
12    7  0.1606355E-007  0.2511536E+04  0.7818608E-02  0.8398887E-01
         -3   -1    0    0    0  501 -0.00000000000E+00  0.00000000000E+00  0.57923989078E+03  0.57923989078E+03  0.00000000000E+00 0.  1.
          2   -1    0    0  501    0  0.00000000000E+00 -0.00000000000E+00 -0.27224522659E+04  0.27224522659E+04  0.00000000000E+00 0. -1.
         24    2    1    2    0    0 -0.85675761959E+03 -0.30054950028E+03 -0.17331708711E+04  0.19582795346E+04  0.81325558312E+02 0.  0.
        254    2    1    2    0    0  0.85675761959E+03  0.30054950028E+03 -0.41004150398E+03  0.13434126220E+04  0.90125457956E+03 0.  0.
         23    2    4    4    0    0  0.46766385036E+03 -0.13836104830E+03  0.15923407481E+03  0.52119485180E+03  0.91844032653E+02 0.  0.
         23    2    4    4    0    0  0.38909376923E+03  0.43891054858E+03 -0.56927557879E+03  0.82221777023E+03  0.89055859790E+02 0.  0.
          2    1    3    3  502    0 -0.48708707506E+03 -0.17840586703E+03 -0.10742355350E+04  0.11929226532E+04  0.00000000000E+00 0. -1.
         -1    1    3    3    0  502 -0.36967054453E+03 -0.12214363325E+03 -0.65893533615E+03  0.76535688137E+03  0.00000000000E+00 0.  1.
         13    1    5    5    0    0  0.98646565051E+02 -0.17630802856E+01  0.59681301821E+02  0.11530876391E+03  0.00000000000E+00 0.  1.
        -13    1    5    5    0    0  0.36901728531E+03 -0.13659796802E+03  0.99552772989E+02  0.40588608788E+03  0.00000000000E+00 0. -1.
          1    1    6    6  503    0  0.24752985474E+03  0.25999265824E+03 -0.28922402928E+03  0.46099647552E+03  0.00000000000E+00 0. -1.
         -1    1    6    6    0  503  0.14156391448E+03  0.17891789034E+03 -0.28005154951E+03  0.36122129471E+03  0.00000000000E+00 0.  1.
<mgrwt>
<rscale>  0 0.25115357E+04</rscale>
<asrwt>0</asrwt>
<pdfrwt beam="1">  1        2 0.41883881E+00 0.25115357E+04</pdfrwt>
<pdfrwt beam="2">  1       -3 0.89113828E-01 0.25115357E+04</pdfrwt>
<totfact> 0.16750250E+00</totfact>
</mgrwt>
</event>
<event>
12    7  0.1606355E-007  0.2468858E+04  0.7818608E-02  0.8414165E-01
          2   -1    0    0  501    0  0.00000000000E+00  0.00000000000E+00  0.14897909717E+04  0.14897909717E+04  0.00000000000E+00 0. -1.
         -1   -1    0    0    0  501 -0.00000000000E+00 -0.00000000000E+00 -0.10228382744E+04  0.10228382744E+04  0.00000000000E+00 0.  1.
         24    2    1    2    0    0 -0.67964046062E+02 -0.94031735232E+03  0.72345015798E+03  0.11908616799E+04  0.77172371401E+02 0.  0.
        254    2    1    2    0    0  0.67964046062E+02  0.94031735232E+03 -0.25649746068E+03  0.13217675663E+04  0.89020375047E+03 0.  0.
         23    2    4    4    0    0 -0.19431325758E+03  0.43643903628E+03 -0.49902051230E+03  0.69695212970E+03  0.92109309760E+02 0.  0.
         23    2    4    4    0    0  0.26227730364E+03  0.50387831605E+03  0.24252305162E+03  0.62481543659E+03  0.94308842922E+02 0.  0.
          2    1    3    3  502    0 -0.61581666907E+02 -0.93533502313E+03  0.71340935324E+03  0.11779629928E+04  0.00000000000E+00 0. -1.
         -1    1    3    3    0  502 -0.63823791554E+01 -0.49823291879E+01  0.10040804741E+02  0.12898687052E+02  0.00000000000E+00 0.  1.
         13    1    5    5    0    0 -0.18637047478E+02  0.13605422931E+03 -0.16407713712E+03  0.21396121092E+03  0.00000000000E+00 0.  1.
        -13    1    5    5    0    0 -0.17567621010E+03  0.30038480697E+03 -0.33494337518E+03  0.48299091878E+03  0.00000000000E+00 0. -1.
          1    1    6    6  503    0  0.18563891052E+03  0.40492364430E+03  0.15323290422E+03  0.47106823895E+03  0.00000000000E+00 0. -1.
         -1    1    6    6    0  503  0.76638393120E+02  0.98954671746E+02  0.89290147403E+02  0.15374719764E+03  0.00000000000E+00 0.  1.
<mgrwt>
<rscale>  0 0.24688582E+04</rscale>
<asrwt>0</asrwt>
<pdfrwt beam="1">  1        2 0.22919861E+00 0.24688582E+04</pdfrwt>
<pdfrwt beam="2">  1       -1 0.15735973E+00 0.24688582E+04</pdfrwt>
<totfact> 0.40104431E+00</totfact>
</mgrwt>
</event>
<event>
12    7  0.1606355E-007  0.2075357E+04  0.7818608E-02  0.8572177E-01
          2   -1    0    0  501    0  0.00000000000E+00  0.00000000000E+00  0.12637383050E+04  0.12637383050E+04  0.00000000000E+00 0. -1.
         -1   -1    0    0    0  501 -0.00000000000E+00 -0.00000000000E+00 -0.85205646455E+03  0.85205646455E+03  0.00000000000E+00 0.  1.
         24    2    1    2    0    0  0.28900535037E+03  0.14634123098E+03 -0.62106655825E+03  0.70469227484E+03  0.76991454111E+02 0.  0.
        254    2    1    2    0    0 -0.28900535037E+03 -0.14634123098E+03  0.10327483987E+04  0.14111024947E+04  0.90537348487E+03 0.  0.
         23    2    4    4    0    0 -0.13514976408E+02 -0.41111531171E+03  0.15346104643E+03  0.44800874005E+03  0.89236115373E+02 0.  0.
         23    2    4    4    0    0 -0.27549037396E+03  0.26477408073E+03  0.87928735225E+03  0.96309375463E+03  0.91668273725E+02 0.  0.
          2    1    3    3  502    0  0.32784772227E+02  0.23607962132E+01 -0.11361268795E+03  0.11827196419E+03  0.00000000000E+00 0. -1.
         -1    1    3    3    0  502  0.25622057814E+03  0.14398043477E+03 -0.50745387030E+03  0.58642031065E+03  0.00000000000E+00 0.  1.
         13    1    5    5    0    0  0.11260040947E+02 -0.31904826745E+02 -0.85485524890E+01  0.34896765486E+02  0.00000000000E+00 0. -1.
        -13    1    5    5    0    0 -0.24775017355E+02 -0.37921048496E+03  0.16200959892E+03  0.41311197457E+03  0.00000000000E+00 0.  1.
          4    1    6    6  503    0 -0.76330444053E+02  0.48764360695E+02  0.13168228279E+03  0.15982654086E+03  0.00000000000E+00 0. -1.
         -4    1    6    6    0  503 -0.19915992991E+03  0.21600972003E+03  0.74760506946E+03  0.80326721376E+03  0.00000000000E+00 0.  1.
<mgrwt>
<rscale>  0 0.20753567E+04</rscale>
<asrwt>0</asrwt>
<pdfrwt beam="1">  1        2 0.19442128E+00 0.20753567E+04</pdfrwt>
<pdfrwt beam="2">  1       -1 0.13108561E+00 0.20753567E+04</pdfrwt>
<totfact> 0.90750921E+00</totfact>
</mgrwt>
</event>
<event>
12    7  0.1606355E-007  0.1367125E+04  0.7818608E-02  0.8977965E-01
         -1   -1    0    0    0  501 -0.00000000000E+00  0.00000000000E+00  0.15121962129E+04  0.15121962129E+04  0.00000000000E+00 0.  1.
          2   -1    0    0  501    0  0.00000000000E+00 -0.00000000000E+00 -0.30899267344E+03  0.30899267344E+03  0.00000000000E+00 0. -1.
         24    2    1    2    0    0 -0.13560869579E+01  0.32435371154E+03  0.49233604078E+03  0.59657502169E+03  0.91103294616E+02 0.  0.
        254    2    1    2    0    0  0.13560869579E+01 -0.32435371154E+03  0.71086749865E+03  0.12246138646E+04  0.94294185804E+03 0.  0.
         23    2    4    4    0    0  0.21704609804E+03 -0.65670902498E+02  0.82223773577E+03  0.85800302415E+03  0.93126898414E+02 0.  0.
         23    2    4    4    0    0 -0.21569001108E+03 -0.25868280904E+03 -0.11137023713E+03  0.36661084048E+03  0.92526764037E+02 0.  0.
          4    1    3    3  502    0 -0.26244031279E+02  0.71488642948E+02  0.68588441005E+02  0.10248780165E+03  0.00000000000E+00 0. -1.
         -3    1    3    3    0  502  0.24887944321E+02  0.25286506859E+03  0.42374759977E+03  0.49408722003E+03  0.00000000000E+00 0.  1.
         13    1    5    5    0    0  0.25607024316E+02  0.20654836951E+02  0.76811826471E+02  0.83560748378E+02  0.00000000000E+00 0. -1.
        -13    1    5    5    0    0  0.19143907372E+03 -0.86325739449E+02  0.74542590930E+03  0.77444227577E+03  0.00000000000E+00 0.  1.
          1    1    6    6  503    0 -0.73455704222E+01  0.40252191631E+01  0.71213397140E+01  0.10994238194E+02  0.00000000000E+00 0. -1.
         -1    1    6    6    0  503 -0.20834444066E+03 -0.26270802820E+03 -0.11849157684E+03  0.35561660228E+03  0.00000000000E+00 0.  1.
<mgrwt>
<rscale>  0 0.13671248E+04</rscale>
<asrwt>0</asrwt>
<pdfrwt beam="1">  1        2 0.47537335E-01 0.13671248E+04</pdfrwt>
<pdfrwt beam="2">  1       -1 0.23264557E+00 0.13671248E+04</pdfrwt>
<totfact> 0.10766870E+01</totfact>
</mgrwt>
</event>
<event>
12    7  0.1606355E-007  0.1616649E+04  0.7818608E-02  0.8810385E-01
         -1   -1    0    0    0  501 -0.00000000000E+00  0.00000000000E+00  0.29912743847E+03  0.29912743847E+03  0.00000000000E+00 0.  1.
          2   -1    0    0  501    0  0.00000000000E+00 -0.00000000000E+00 -0.21843142096E+04  0.21843142096E+04  0.00000000000E+00 0. -1.
         24    2    1    2    0    0  0.47919773956E+01 -0.11922268575E+03  0.17773614876E+03  0.23032322688E+03  0.84980223708E+02 0.  0.
        254    2    1    2    0    0 -0.47919773956E+01  0.11922268575E+03 -0.20629229199E+04  0.22531184212E+04  0.89813954074E+03 0.  0.
         23    2    4    4    0    0 -0.77592408293E+02 -0.53127531929E+02  0.41767715574E+02  0.13815564256E+03  0.92191773133E+02 0.  0.
         23    2    4    4    0    0  0.72800430897E+02  0.17235021768E+03 -0.21046906355E+04  0.21149627787E+04  0.91325701121E+02 0.  0.
          2    1    3    3  502    0 -0.36819618715E+02 -0.47224951715E+02  0.50557287561E+02  0.78370400741E+02  0.00000000000E+00 0. -1.
         -1    1    3    3    0  502  0.41611596110E+02 -0.71997734034E+02  0.12717886120E+03  0.15195282614E+03  0.00000000000E+00 0.  1.
         13    1    5    5    0    0  0.16961767374E+02 -0.26448047746E+02  0.20847271664E+02  0.37706889528E+02  0.00000000000E+00 0. -1.
        -13    1    5    5    0    0 -0.94554175667E+02 -0.26679484184E+02  0.20920443910E+02  0.10044875303E+03  0.00000000000E+00 0.  1.
          3    1    6    6  503    0  0.51719815941E+01  0.85862715428E+02 -0.12963037323E+04  0.12991545411E+04  0.00000000000E+00 0. -1.
         -3    1    6    6    0  503  0.67628449303E+02  0.86487502251E+02 -0.80838690318E+03  0.81580823754E+03  0.00000000000E+00 0.  1.
<mgrwt>
<rscale>  0 0.16166488E+04</rscale>
<asrwt>0</asrwt>
<pdfrwt beam="1">  1        2 0.33604834E+00 0.16166488E+04</pdfrwt>
<pdfrwt beam="2">  1       -1 0.46019606E-01 0.16166488E+04</pdfrwt>
<totfact> 0.27011398E+01</totfact>
</mgrwt>
</event>
<event>
12    7  0.1606355E-007  0.1749754E+04  0.7818608E-02  0.8733485E-01
         -1   -1    0    0    0  501 -0.00000000000E+00  0.00000000000E+00  0.30749891360E+03  0.30749891360E+03  0.00000000000E+00 0.  1.
          2   -1    0    0  501    0  0.00000000000E+00 -0.00000000000E+00 -0.24891475605E+04  0.24891475605E+04  0.00000000000E+00 0. -1.
         24    2    1    2    0    0 -0.14816303259E+03 -0.54630190638E+03 -0.32512892371E+03  0.65768865554E+03  0.80296285360E+02 0.  0.
        254    2    1    2    0    0  0.14816303259E+03  0.54630190638E+03 -0.18565197232E+04  0.21389578186E+04  0.89893103733E+03 0.  0.
         23    2    4    4    0    0 -0.14303558163E+03  0.45329364612E+03 -0.17291319168E+04  0.17956189408E+04  0.91738146726E+02 0.  0.
         23    2    4    4    0    0  0.29119861422E+03  0.93008260257E+02 -0.12738780635E+03  0.34333887775E+03  0.90591182607E+02 0.  0.
          2    1    3    3  502    0 -0.59066883405E+02 -0.10928230085E+03 -0.90786823156E+02  0.15386281309E+03  0.00000000000E+00 0. -1.
         -1    1    3    3    0  502 -0.89096149188E+02 -0.43701960553E+03 -0.23434210056E+03  0.50382584244E+03  0.00000000000E+00 0.  1.
         13    1    5    5    0    0 -0.65842993119E+02  0.86609517399E+02 -0.35348357573E+03  0.36984746390E+03  0.00000000000E+00 0. -1.
        -13    1    5    5    0    0 -0.77192588512E+02  0.36668412872E+03 -0.13756483411E+04  0.14257714769E+04  0.00000000000E+00 0.  1.
          1    1    6    6  503    0  0.21895910682E+03  0.94402568000E+02 -0.12893286296E+03  0.27106939786E+03  0.00000000000E+00 0. -1.
         -1    1    6    6    0  503  0.72239507402E+02 -0.13943077435E+01  0.15450566073E+01  0.72269479891E+02  0.00000000000E+00 0.  1.
<mgrwt>
<rscale>  0 0.17497545E+04</rscale>
<asrwt>0</asrwt>
<pdfrwt beam="1">  1        2 0.38294578E+00 0.17497545E+04</pdfrwt>
<pdfrwt beam="2">  1       -1 0.47307525E-01 0.17497545E+04</pdfrwt>
<totfact> 0.17017463E+01</totfact>
</mgrwt>
</event>
<event>
12    7  0.1606355E-007  0.2104477E+04  0.7818608E-02  0.8559274E-01
         -1   -1    0    0    0  501 -0.00000000000E+00  0.00000000000E+00  0.71962516741E+03  0.71962516741E+03  0.00000000000E+00 0.  1.
          2   -1    0    0  501    0  0.00000000000E+00 -0.00000000000E+00 -0.15385875917E+04  0.15385875917E+04  0.00000000000E+00 0. -1.
         24    2    1    2    0    0 -0.72135593349E+03 -0.31893784739E+03 -0.12409497870E+02  0.79278615567E+03  0.79247458662E+02 0.  0.
        254    2    1    2    0    0  0.72135593349E+03  0.31893784739E+03 -0.80655292637E+03  0.14654266034E+04  0.93534580429E+03 0.  0.
         23    2    4    4    0    0 -0.12475785388E+03 -0.12172766174E+03 -0.35489282974E+03  0.40595884674E+03  0.92040854569E+02 0.  0.
         23    2    4    4    0    0  0.84611378737E+03  0.44066550913E+03 -0.45166009663E+03  0.10594677567E+04  0.91544810749E+02 0.  0.
          2    1    3    3  502    0 -0.47005492957E+01  0.28019471241E+01  0.44309500835E+01  0.70412633817E+01  0.00000000000E+00 0. -1.
         -1    1    3    3    0  502 -0.71665538420E+03 -0.32173979451E+03 -0.16840447954E+02  0.78574489229E+03  0.00000000000E+00 0.  1.
         13    1    5    5    0    0 -0.75802183299E+02 -0.67987885557E+02 -0.29398618100E+03  0.31112087393E+03  0.00000000000E+00 0. -1.
        -13    1    5    5    0    0 -0.48955670581E+02 -0.53739776185E+02 -0.60906648736E+02  0.94837972810E+02  0.00000000000E+00 0.  1.
          3    1    6    6  503    0  0.68694205540E+03  0.31756743677E+03 -0.34490052658E+03  0.83168193296E+03  0.00000000000E+00 0. -1.
         -3    1    6    6    0  503  0.15917173197E+03  0.12309807236E+03 -0.10675957005E+03  0.22778582369E+03  0.00000000000E+00 0.  1.
<mgrwt>
<rscale>  0 0.21044775E+04</rscale>
<asrwt>0</asrwt>
<pdfrwt beam="1">  1        2 0.23670578E+00 0.21044775E+04</pdfrwt>
<pdfrwt beam="2">  1       -1 0.11071156E+00 0.21044775E+04</pdfrwt>
<totfact> 0.95232217E+00</totfact>
</mgrwt>
</event>
<event>
12    7  0.1606355E-007  0.1374054E+04  0.7818608E-02  0.8972816E-01
          2   -1    0    0  501    0  0.00000000000E+00  0.00000000000E+00  0.16586909039E+04  0.16586909039E+04  0.00000000000E+00 0. -1.
         -3   -1    0    0    0  501 -0.00000000000E+00 -0.00000000000E+00 -0.28456561000E+03  0.28456561000E+03  0.00000000000E+00 0.  1.
         24    2    1    2    0    0  0.12741203281E+03  0.28379790638E+03  0.67051889373E+03  0.74308492764E+03  0.76187565039E+02 0.  0.
        254    2    1    2    0    0 -0.12741203281E+03 -0.28379790638E+03  0.70360640021E+03  0.12001715863E+04  0.92118119410E+03 0.  0.
         23    2    4    4    0    0 -0.40681671179E+03  0.92207656930E+01  0.66337446829E+03  0.78359575816E+03  0.91497363439E+02 0.  0.
         23    2    4    4    0    0  0.27940467898E+03 -0.29301867207E+03  0.40231931920E+02  0.41657582814E+03  0.89386214964E+02 0.  0.
          2    1    3    3  502    0  0.31525218999E+02  0.38117709728E+02  0.58167349199E+02  0.76356006579E+02  0.00000000000E+00 0. -1.
         -1    1    3    3    0  502  0.95886813806E+02  0.24568019665E+03  0.61235154453E+03  0.66672892106E+03  0.00000000000E+00 0.  1.
         13    1    5    5    0    0 -0.13335557881E+03 -0.39840753084E+02  0.22840780179E+03  0.26747171799E+03  0.00000000000E+00 0. -1.
        -13    1    5    5    0    0 -0.27346113298E+03  0.49061518777E+02  0.43496666650E+03  0.51612404017E+03  0.00000000000E+00 0.  1.
          2    1    6    6  503    0  0.80252014124E+02 -0.82836858688E+02 -0.28874079578E+02  0.11889509409E+03  0.00000000000E+00 0. -1.
         -2    1    6    6    0  503  0.19915266486E+03 -0.21018181338E+03  0.69106011498E+02  0.29768073404E+03  0.00000000000E+00 0.  1.
<mgrwt>
<rscale>  0 0.13740544E+04</rscale>
<asrwt>0</asrwt>
<pdfrwt beam="1">  1        2 0.25518321E+00 0.13740544E+04</pdfrwt>
<pdfrwt beam="2">  1       -3 0.43779325E-01 0.13740544E+04</pdfrwt>
<totfact> 0.33621056E+01</totfact>
</mgrwt>
</event>
<event>
12    7  0.1606355E-007  0.2209606E+04  0.7818608E-02  0.8514440E-01
         -1   -1    0    0    0  501 -0.00000000000E+00  0.00000000000E+00  0.63166233469E+03  0.63166233469E+03  0.00000000000E+00 0.  1.
          2   -1    0    0  501    0  0.00000000000E+00 -0.00000000000E+00 -0.19323459648E+04  0.19323459648E+04  0.00000000000E+00 0. -1.
         24    2    1    2    0    0 -0.61228895390E+03  0.41952849411E+03  0.83814475372E+02  0.75129246788E+03  0.80706787708E+02 0.  0.
        254    2    1    2    0    0  0.61228895390E+03 -0.41952849411E+03 -0.13844981055E+04  0.18127158316E+04  0.90454505783E+03 0.  0.
         23    2    4    4    0    0  0.16926062159E+03 -0.17068413298E+03  0.72133700016E+02  0.26720584423E+03  0.91724921590E+02 0.  0.
         23    2    4    4    0    0  0.44302833231E+03 -0.24884436112E+03 -0.14566318055E+04  0.15455099874E+04  0.92883179209E+02 0.  0.
          2    1    3    3  502    0 -0.12660268160E+03  0.90591366561E+02 -0.15145561688E+02  0.15641106969E+03  0.00000000000E+00 0. -1.
         -1    1    3    3    0  502 -0.48568627230E+03  0.32893712755E+03  0.98960037060E+02  0.59488139819E+03  0.00000000000E+00 0.  1.
         13    1    5    5    0    0  0.30855695958E+02 -0.94257316032E+02  0.28277723393E+02  0.10313168882E+03  0.00000000000E+00 0.  1.
        -13    1    5    5    0    0  0.13840492563E+03 -0.76426816950E+02  0.43855976623E+02  0.16407415541E+03  0.00000000000E+00 0. -1.
          4    1    6    6  503    0  0.33414923207E+03 -0.22906289662E+03 -0.11774310101E+04  0.12451784223E+04  0.00000000000E+00 0. -1.
         -4    1    6    6    0  503  0.10887910023E+03 -0.19781464507E+02 -0.27920079544E+03  0.30033156507E+03  0.00000000000E+00 0.  1.
<mgrwt>
<rscale>  0 0.22096064E+04</rscale>
<asrwt>0</asrwt>
<pdfrwt beam="1">  1        2 0.29728399E+00 0.22096064E+04</pdfrwt>
<pdfrwt beam="2">  1       -1 0.97178822E-01 0.22096064E+04</pdfrwt>
<totfact> 0.77053751E+00</totfact>
</mgrwt>
</event>
<event>
12    7  0.1606355E-007  0.2637675E+04  0.7818608E-02  0.8355515E-01
          2   -1    0    0  501    0  0.00000000000E+00  0.00000000000E+00  0.12935549402E+04  0.12935549402E+04  0.00000000000E+00 0. -1.
         -1   -1    0    0    0  501 -0.00000000000E+00 -0.00000000000E+00 -0.13446143851E+04  0.13446143851E+04  0.00000000000E+00 0.  1.
         24    2    1    2    0    0 -0.79136070494E+03  0.32781071028E+03 -0.83123392168E+03  0.11962201396E+04  0.79253786593E+02 0.  0.
        254    2    1    2    0    0  0.79136070494E+03 -0.32781071028E+03  0.78017447673E+03  0.14419491858E+04  0.85839012872E+03 0.  0.
         23    2    4    4    0    0  0.92798738624E+03 -0.41911425396E+03  0.68717814641E+03  0.12319794948E+04  0.93500394526E+02 0.  0.
         23    2    4    4    0    0 -0.13662668130E+03  0.91303543677E+02  0.92996330326E+02  0.20996969098E+03  0.91846429143E+02 0.  0.
          2    1    3    3  502    0 -0.38927383136E+03  0.19315795030E+03 -0.45751487407E+03  0.63100235304E+03  0.00000000000E+00 0. -1.
         -1    1    3    3    0  502 -0.40208687358E+03  0.13465275998E+03 -0.37371904761E+03  0.56521778654E+03  0.00000000000E+00 0.  1.
         13    1    5    5    0    0  0.69260081274E+03 -0.30234029028E+03  0.46058675932E+03  0.88501169472E+03  0.00000000000E+00 0. -1.
        -13    1    5    5    0    0  0.23538657350E+03 -0.11677396368E+03  0.22659138709E+03  0.34696780006E+03  0.00000000000E+00 0.  1.
          1    1    6    6  503    0 -0.13753764704E+03  0.10418593029E+03  0.75788754214E+02  0.18845489563E+03  0.00000000000E+00 0. -1.
         -1    1    6    6    0  503  0.91096574043E+00 -0.12882386608E+02  0.17207576112E+02  0.21514795350E+02  0.00000000000E+00 0.  1.
<mgrwt>
<rscale>  0 0.26376752E+04</rscale>
<asrwt>0</asrwt>
<pdfrwt beam="1">  1        2 0.19900845E+00 0.26376752E+04</pdfrwt>
<pdfrwt beam="2">  1       -1 0.20686375E+00 0.26376752E+04</pdfrwt>
<totfact> 0.22623699E+00</totfact>
</mgrwt>
</event>
<event>
12    7  0.1606355E-007  0.1611582E+04  0.7818608E-02  0.8813464E-01
         -1   -1    0    0    0  501 -0.00000000000E+00  0.00000000000E+00  0.45258323812E+03  0.45258323812E+03  0.00000000000E+00 0.  1.
          2   -1    0    0  501    0  0.00000000000E+00 -0.00000000000E+00 -0.14346514314E+04  0.14346514314E+04  0.00000000000E+00 0. -1.
         24    2    1    2    0    0 -0.44596626373E+03 -0.18221732180E+03 -0.26504937878E+02  0.48865653714E+03  0.77418594717E+02 0.  0.
        254    2    1    2    0    0  0.44596626373E+03  0.18221732180E+03 -0.95556325543E+03  0.13985781324E+04  0.90046132431E+03 0.  0.
         23    2    4    4    0    0  0.10824255271E+03 -0.19742129827E+01 -0.99139294541E+03  0.10014209214E+04  0.90904025758E+02 0.  0.
         23    2    4    4    0    0  0.33772371103E+03  0.18419153478E+03  0.35829689985E+02  0.39715721099E+03  0.92012265951E+02 0.  0.
          2    1    3    3  502    0 -0.82675864541E+02 -0.13595254964E+02  0.17928889001E+02  0.85682988953E+02  0.00000000000E+00 0. -1.
         -1    1    3    3    0  502 -0.36329039919E+03 -0.16862206683E+03 -0.44433826879E+02  0.40297354819E+03  0.00000000000E+00 0.  1.
         13    1    5    5    0    0  0.33195449336E+02  0.35312358295E+02 -0.55090245390E+03  0.55303021095E+03  0.00000000000E+00 0.  1.
        -13    1    5    5    0    0  0.75047103371E+02 -0.37286571278E+02 -0.44049049151E+03  0.44839071047E+03  0.00000000000E+00 0. -1.
          1    1    6    6  503    0  0.28135330638E+03  0.18437781311E+03  0.47113375073E+02  0.33966826624E+03  0.00000000000E+00 0. -1.
         -1    1    6    6    0  503  0.56370404643E+02 -0.18627833608E+00 -0.11283685089E+02  0.57488944750E+02  0.00000000000E+00 0.  1.
<mgrwt>
<rscale>  0 0.16115821E+04</rscale>
<asrwt>0</asrwt>
<pdfrwt beam="1">  1        2 0.22071560E+00 0.16115821E+04</pdfrwt>
<pdfrwt beam="2">  1       -1 0.69628193E-01 0.16115821E+04</pdfrwt>
<totfact> 0.31489067E+01</totfact>
</mgrwt>
</event>
<event>
12    7  0.1606355E-007  0.1773318E+04  0.7818608E-02  0.8720618E-01
         -1   -1    0    0    0  501 -0.00000000000E+00  0.00000000000E+00  0.12516168573E+04  0.12516168573E+04  0.00000000000E+00 0.  1.
          2   -1    0    0  501    0  0.00000000000E+00 -0.00000000000E+00 -0.62811922770E+03  0.62811922770E+03  0.00000000000E+00 0. -1.
         24    2    1    2    0    0  0.15602328337E+03 -0.40556780781E+03 -0.28538590034E+03  0.52648604682E+03  0.83150067362E+02 0.  0.
        254    2    1    2    0    0 -0.15602328337E+03  0.40556780781E+03  0.90888352996E+03  0.13532500382E+04  0.90354185468E+03 0.  0.
         23    2    4    4    0    0 -0.18610661156E+03  0.58097224257E+03  0.96520906167E+03  0.11454531448E+04  0.90939302701E+02 0.  0.
         23    2    4    4    0    0  0.30083328184E+02 -0.17540443477E+03 -0.56325531707E+02  0.20779689336E+03  0.91297650562E+02 0.  0.
          2    1    3    3  502    0  0.44282062206E+02 -0.16237582752E+03 -0.15489450252E+03  0.22873372578E+03  0.00000000000E+00 0. -1.
         -1    1    3    3    0  502  0.11174122117E+03 -0.24319198029E+03 -0.13049139782E+03  0.29775232105E+03  0.00000000000E+00 0.  1.
         13    1    5    5    0    0 -0.15722686630E+03  0.54235689440E+03  0.91925608170E+03  0.10788433770E+04  0.00000000000E+00 0. -1.
        -13    1    5    5    0    0 -0.28879745255E+02  0.38615348175E+02  0.45952979966E+02  0.66609767815E+02  0.00000000000E+00 0.  1.
          4    1    6    6  503    0  0.45621648753E+02 -0.84920733043E+02  0.63922182864E+01  0.96611211513E+02  0.00000000000E+00 0.  1.
         -4    1    6    6    0  503 -0.15538320569E+02 -0.90483701724E+02 -0.62717749993E+02  0.11118568185E+03  0.00000000000E+00 0. -1.
<mgrwt>
<rscale>  0 0.17733185E+04</rscale>
<asrwt>0</asrwt>
<pdfrwt beam="1">  1        2 0.96633728E-01 0.17733185E+04</pdfrwt>
<pdfrwt beam="2">  1       -1 0.19255644E+00 0.17733185E+04</pdfrwt>
<totfact> 0.85919149E+00</totfact>
</mgrwt>
</event>
<event>
12    7  0.1606355E-007  0.1708255E+04  0.7818608E-02  0.8756670E-01
          2   -1    0    0  501    0  0.00000000000E+00  0.00000000000E+00  0.16636507240E+04  0.16636507240E+04  0.00000000000E+00 0. -1.
         -1   -1    0    0    0  501 -0.00000000000E+00 -0.00000000000E+00 -0.43851383188E+03  0.43851383188E+03  0.00000000000E+00 0.  1.
         24    2    1    2    0    0 -0.50198073246E+03 -0.30126521767E+02  0.11225863874E+02  0.50941453075E+03  0.80528759130E+02 0.  0.
        254    2    1    2    0    0  0.50198073246E+03  0.30126521767E+02  0.12139110283E+04  0.15927500252E+04  0.90021130576E+03 0.  0.
         23    2    4    4    0    0  0.45083920694E+03  0.42232121095E+03  0.69786779785E+03  0.93641985150E+03  0.90837653408E+02 0.  0.
         23    2    4    4    0    0  0.51141525516E+02 -0.39219468918E+03  0.51604323044E+03  0.65633017367E+03  0.89646814433E+02 0.  0.
          4    1    3    3  502    0 -0.11028604848E+03 -0.59340522210E+01 -0.30985714700E+02  0.11470980770E+03  0.00000000000E+00 0. -1.
         -3    1    3    3    0  502 -0.39169468397E+03 -0.24192469546E+02  0.42211578574E+02  0.39470472305E+03  0.00000000000E+00 0.  1.
         13    1    5    5    0    0  0.27632748364E+03  0.19713504434E+03  0.37300424276E+03  0.50433249850E+03  0.00000000000E+00 0. -1.
        -13    1    5    5    0    0  0.17451172330E+03  0.22518616661E+03  0.32486355510E+03  0.43208735301E+03  0.00000000000E+00 0.  1.
          4    1    6    6  503    0 -0.80179587525E+01 -0.23143526890E+03  0.33332239859E+03  0.40586992098E+03  0.00000000000E+00 0. -1.
         -4    1    6    6    0  503  0.59159484268E+02 -0.16075942029E+03  0.18272083185E+03  0.25046025270E+03  0.00000000000E+00 0.  1.
<mgrwt>
<rscale>  0 0.17082551E+04</rscale>
<asrwt>0</asrwt>
<pdfrwt beam="1">  1        2 0.25594626E+00 0.17082551E+04</pdfrwt>
<pdfrwt beam="2">  1       -1 0.67463667E-01 0.17082551E+04</pdfrwt>
<totfact> 0.24768190E+01</totfact>
</mgrwt>
</event>
<event>
12    7  0.1606355E-007  0.1749376E+04  0.7818608E-02  0.8733694E-01
          2   -1    0    0  501    0  0.00000000000E+00  0.00000000000E+00  0.87676391393E+03  0.87676391393E+03  0.00000000000E+00 0. -1.
         -1   -1    0    0    0  501 -0.00000000000E+00 -0.00000000000E+00 -0.87261670650E+03  0.87261670650E+03  0.00000000000E+00 0.  1.
         24    2    1    2    0    0 -0.40629807676E+03  0.41485306652E+03 -0.27196621128E+03  0.64651459766E+03  0.82669891309E+02 0.  0.
        254    2    1    2    0    0  0.40629807676E+03 -0.41485306652E+03  0.27611341871E+03  0.11028660228E+04  0.89604333053E+03 0.  0.
         23    2    4    4    0    0  0.39090992745E+03 -0.34349463583E+03 -0.23531828091E+03  0.57816444779E+03  0.90001661893E+02 0.  0.
         23    2    4    4    0    0  0.15388149308E+02 -0.71358430696E+02  0.51143169962E+03  0.52470157497E+03  0.91763492923E+02 0.  0.
          4    1    3    3  502    0 -0.36010396990E+02  0.17600949932E+02 -0.22176003436E+01  0.40142992927E+02  0.00000000000E+00 0. -1.
         -3    1    3    3    0  502 -0.37028767977E+03  0.39725211659E+03 -0.26974861094E+03  0.60637160473E+03  0.00000000000E+00 0.  1.
         13    1    5    5    0    0  0.38195258026E+03 -0.33493901015E+03 -0.20946603593E+03  0.54949789290E+03  0.00000000000E+00 0. -1.
        -13    1    5    5    0    0  0.89573471869E+01 -0.85556256726E+01 -0.25852244974E+02  0.28666554894E+02  0.00000000000E+00 0.  1.
          3    1    6    6  503    0 -0.31974249390E+02 -0.20139938455E+02  0.91198562261E+02  0.98717513661E+02  0.00000000000E+00 0. -1.
         -3    1    6    6    0  503  0.47362398698E+02 -0.51218492242E+02  0.42023313736E+03  0.42598406131E+03  0.00000000000E+00 0.  1.
<mgrwt>
<rscale>  0 0.17493757E+04</rscale>
<asrwt>0</asrwt>
<pdfrwt beam="1">  1        2 0.13488676E+00 0.17493757E+04</pdfrwt>
<pdfrwt beam="2">  1       -1 0.13424872E+00 0.17493757E+04</pdfrwt>
<totfact> 0.15375229E+01</totfact>
</mgrwt>
</event>
<event>
12    7  0.1606355E-007  0.2019566E+04  0.7818608E-02  0.8597527E-01
          2   -1    0    0  501    0  0.00000000000E+00  0.00000000000E+00  0.36952169185E+04  0.36952169185E+04  0.00000000000E+00 0. -1.
         -1   -1    0    0    0  501 -0.00000000000E+00 -0.00000000000E+00 -0.27594097958E+03  0.27594097958E+03  0.00000000000E+00 0.  1.
         24    2    1    2    0    0  0.80205294200E+03  0.42014789847E+02  0.13067366414E+04  0.15358909648E+04  0.79663301327E+02 0.  0.
        254    2    1    2    0    0 -0.80205294200E+03 -0.42014789847E+02  0.21125392976E+04  0.24352669333E+04  0.90699977299E+03 0.  0.
         23    2    4    4    0    0 -0.31399324130E+03  0.42066857657E+03  0.97017962250E+03  0.11068360633E+04  0.91015187244E+02 0.  0.
         23    2    4    4    0    0 -0.48805970070E+03 -0.46268336642E+03  0.11423596751E+04  0.13284308699E+04  0.86398958080E+02 0.  0.
          2    1    3    3  502    0  0.21050217356E+03 -0.72882015537E+01  0.40133318214E+03  0.45324673859E+03  0.00000000000E+00 0. -1.
         -1    1    3    3    0  502  0.59155076844E+03  0.49302991400E+02  0.90540345922E+03  0.10826442262E+04  0.00000000000E+00 0.  1.
         13    1    5    5    0    0 -0.30602833369E+03  0.40459134241E+03  0.96101015221E+03  0.10866867111E+04  0.00000000000E+00 0. -1.
        -13    1    5    5    0    0 -0.79649076138E+01  0.16077234164E+02  0.91694702937E+01  0.20149352276E+02  0.00000000000E+00 0.  1.
          3    1    6    6  503    0 -0.29358579529E+03 -0.25465742301E+03  0.73465162834E+03  0.83111734268E+03  0.00000000000E+00 0. -1.
         -3    1    6    6    0  503 -0.19447390541E+03 -0.20802594340E+03  0.40770804675E+03  0.49731352726E+03  0.00000000000E+00 0.  1.
<mgrwt>
<rscale>  0 0.20195661E+04</rscale>
<asrwt>0</asrwt>
<pdfrwt beam="1">  1        2 0.56849488E+00 0.20195661E+04</pdfrwt>
<pdfrwt beam="2">  1       -1 0.42452461E-01 0.20195661E+04</pdfrwt>
<totfact> 0.34152603E+00</totfact>
</mgrwt>
</event>
<event>
12    7  0.1606355E-007  0.1853748E+04  0.7818608E-02  0.8678228E-01
         -1   -1    0    0    0  501 -0.00000000000E+00  0.00000000000E+00  0.63711220397E+03  0.63711220397E+03  0.00000000000E+00 0.  1.
          2   -1    0    0  501    0  0.00000000000E+00 -0.00000000000E+00 -0.13484209998E+04  0.13484209998E+04  0.00000000000E+00 0. -1.
         24    2    1    2    0    0  0.57193970812E+03  0.38033100772E+03 -0.19779681012E+03  0.71948309016E+03  0.82253472631E+02 0.  0.
        254    2    1    2    0    0 -0.57193970812E+03 -0.38033100772E+03 -0.51351198569E+03  0.12660501136E+04  0.93135472593E+03 0.  0.
         23    2    4    4    0    0 -0.80233090616E+03 -0.32618995087E+03 -0.51680658969E+03  0.10122619009E+04  0.86315339227E+02 0.  0.
         23    2    4    4    0    0  0.23039119804E+03 -0.54141056850E+02  0.32946040023E+01  0.25378821272E+03  0.91576439819E+02 0.  0.
          4    1    3    3  502    0  0.53730282634E+03  0.32985984586E+03 -0.17737490791E+03  0.65495320677E+03  0.00000000000E+00 0. -1.
         -3    1    3    3    0  502  0.34636881788E+02  0.50471161868E+02 -0.20421902214E+02  0.64529883390E+02  0.00000000000E+00 0.  1.
         13    1    5    5    0    0 -0.22745277281E+02 -0.13574539881E+02 -0.35202847426E+02  0.44055149965E+02  0.00000000000E+00 0.  1.
        -13    1    5    5    0    0 -0.77958562888E+03 -0.31261541099E+03 -0.48160374227E+03  0.96820675091E+03  0.00000000000E+00 0. -1.
          3    1    6    6  503    0  0.99763301800E+02 -0.60108705828E+02  0.30113735914E+02  0.12030216122E+03  0.00000000000E+00 0. -1.
         -3    1    6    6    0  503  0.13062789624E+03  0.59676489784E+01 -0.26819131912E+02  0.13348605150E+03  0.00000000000E+00 0.  1.
<mgrwt>
<rscale>  0 0.18537481E+04</rscale>
<asrwt>0</asrwt>
<pdfrwt beam="1">  1        2 0.20744938E+00 0.18537481E+04</pdfrwt>
<pdfrwt beam="2">  1       -1 0.98017263E-01 0.18537481E+04</pdfrwt>
<totfact> 0.16564015E+01</totfact>
</mgrwt>
</event>
<event>
12    7  0.1606355E-007  0.1167101E+04  0.7818608E-02  0.9142150E-01
          2   -1    0    0  501    0  0.00000000000E+00  0.00000000000E+00  0.84398127897E+03  0.84398127897E+03  0.00000000000E+00 0. -1.
         -1   -1    0    0    0  501 -0.00000000000E+00 -0.00000000000E+00 -0.40348220282E+03  0.40348220282E+03  0.00000000000E+00 0.  1.
         24    2    1    2    0    0  0.60880930470E+02 -0.54006127842E+02 -0.13037582083E+03  0.17325824522E+03  0.79983844244E+02 0.  0.
        254    2    1    2    0    0 -0.60880930470E+02  0.54006127842E+02  0.57087489697E+03  0.10742052366E+04  0.90630877340E+03 0.  0.
         23    2    4    4    0    0 -0.34312517070E+03 -0.14236213032E+03  0.60679152706E+03  0.71737060686E+03  0.91775657820E+02 0.  0.
         23    2    4    4    0    0  0.28224424023E+03  0.19636825817E+03 -0.35916630081E+02  0.35683462971E+03  0.88423100425E+02 0.  0.
          2    1    3    3  502    0  0.50473467963E+02  0.75626896805E+01 -0.49673516399E+02  0.71219544192E+02  0.00000000000E+00 0. -1.
         -1    1    3    3    0  502  0.10407462507E+02 -0.61568817522E+02 -0.80702304427E+02  0.10203870102E+03  0.00000000000E+00 0.  1.
         13    1    5    5    0    0 -0.13164699366E+02  0.10895674769E+02  0.15246924645E+02  0.22901828512E+02  0.00000000000E+00 0.  1.
        -13    1    5    5    0    0 -0.32996047133E+03 -0.15325780509E+03  0.59154460241E+03  0.69446877835E+03  0.00000000000E+00 0. -1.
          2    1    6    6  503    0  0.74233882063E+02  0.69822057690E+02  0.26863065413E+02  0.10539171348E+03  0.00000000000E+00 0. -1.
         -2    1    6    6    0  503  0.20801035816E+03  0.12654620048E+03 -0.62779695494E+02  0.25144291624E+03  0.00000000000E+00 0.  1.
<mgrwt>
<rscale>  0 0.11671014E+04</rscale>
<asrwt>0</asrwt>
<pdfrwt beam="1">  1        2 0.12984327E+00 0.11671014E+04</pdfrwt>
<pdfrwt beam="2">  1       -1 0.62074185E-01 0.11671014E+04</pdfrwt>
<totfact> 0.95220780E+01</totfact>
</mgrwt>
</event>
<event>
12    7  0.1606355E-007  0.2201627E+04  0.7818608E-02  0.8517751E-01
         -1   -1    0    0    0  501 -0.00000000000E+00  0.00000000000E+00  0.21479446022E+04  0.21479446022E+04  0.00000000000E+00 0.  1.
          2   -1    0    0  501    0  0.00000000000E+00 -0.00000000000E+00 -0.56416263222E+03  0.56416263222E+03  0.00000000000E+00 0. -1.
         24    2    1    2    0    0  0.53024470386E+02  0.55229705817E+03 -0.23261935354E+03  0.60710190801E+03  0.81346961494E+02 0.  0.
        254    2    1    2    0    0 -0.53024470386E+02 -0.55229705817E+03  0.18164013236E+04  0.21050053265E+04  0.90768387738E+03 0.  0.
         23    2    4    4    0    0 -0.39362111603E+03 -0.56218277504E+03  0.13786522333E+04  0.15426979312E+04  0.90817789782E+02 0.  0.
         23    2    4    4    0    0  0.34059664565E+03  0.98857168692E+01  0.43774909028E+03  0.56230739529E+03  0.91986620441E+02 0.  0.
          4    1    3    3  502    0  0.39259102422E+02  0.39691018673E+03 -0.20581868193E+03  0.44882101475E+03  0.00000000000E+00 0. -1.
         -3    1    3    3    0  502  0.13765367964E+02  0.15538687144E+03 -0.26800671610E+02  0.15828089325E+03  0.00000000000E+00 0.  1.
         13    1    5    5    0    0 -0.36053995007E+03 -0.54817194337E+03  0.12978129818E+04  0.14542352185E+04  0.00000000000E+00 0. -1.
        -13    1    5    5    0    0 -0.33081165959E+02 -0.14010831670E+02  0.80839251494E+02  0.88462712639E+02  0.00000000000E+00 0.  1.
          2    1    6    6  503    0  0.14475232514E+03 -0.45704556924E+01  0.25909781182E+03  0.29682621311E+03  0.00000000000E+00 0. -1.
         -2    1    6    6    0  503  0.19584432051E+03  0.14456172562E+02  0.17865127845E+03  0.26548118218E+03  0.00000000000E+00 0.  1.
<mgrwt>
<rscale>  0 0.22016267E+04</rscale>
<asrwt>0</asrwt>
<pdfrwt beam="1">  1        2 0.86794252E-01 0.22016267E+04</pdfrwt>
<pdfrwt beam="2">  1       -1 0.33045301E+00 0.22016267E+04</pdfrwt>
<totfact> 0.11660018E+00</totfact>
</mgrwt>
</event>
<event>
12    7  0.1606355E-007  0.1802376E+04  0.7818608E-02  0.8705037E-01
          2   -1    0    0  501    0  0.00000000000E+00  0.00000000000E+00  0.13355404130E+04  0.13355404130E+04  0.00000000000E+00 0. -1.
         -1   -1    0    0    0  501 -0.00000000000E+00 -0.00000000000E+00 -0.60809811728E+03  0.60809811728E+03  0.00000000000E+00 0.  1.
         24    2    1    2    0    0  0.23100498111E+03 -0.85484149179E+01  0.95244425584E+03  0.98339069933E+03  0.80441471495E+02 0.  0.
        254    2    1    2    0    0 -0.23100498111E+03  0.85484149179E+01 -0.22500196016E+03  0.96024783091E+03  0.90444106386E+03 0.  0.
         23    2    4    4    0    0 -0.23111304697E+03  0.19722916581E+03 -0.51364020196E+03  0.60420920386E+03  0.94498257268E+02 0.  0.
         23    2    4    4    0    0  0.10806586538E+00 -0.18868075089E+03  0.28863824180E+03  0.35603862705E+03  0.88606048815E+02 0.  0.
          2    1    3    3  502    0  0.95254914730E+02 -0.10380583556E+02  0.55971905899E+03  0.56786149746E+03  0.00000000000E+00 0. -1.
         -1    1    3    3    0  502  0.13575006638E+03  0.18321686383E+01  0.39272519685E+03  0.41552920187E+03  0.00000000000E+00 0.  1.
         13    1    5    5    0    0 -0.11546682758E+03  0.15622400257E+03 -0.34012799334E+03  0.39169577366E+03  0.00000000000E+00 0. -1.
        -13    1    5    5    0    0 -0.11564621939E+03  0.41005163234E+02 -0.17351220862E+03  0.21251343019E+03  0.00000000000E+00 0.  1.
          3    1    6    6  503    0 -0.41374587642E+02 -0.10167192480E+03  0.17974162343E+03  0.21060885069E+03  0.00000000000E+00 0. -1.
         -3    1    6    6    0  503  0.41482653508E+02 -0.87008826091E+02  0.10889661837E+03  0.14542977636E+03  0.00000000000E+00 0.  1.
<mgrwt>
<rscale>  0 0.18023758E+04</rscale>
<asrwt>0</asrwt>
<pdfrwt beam="1">  1        2 0.20546775E+00 0.18023758E+04</pdfrwt>
<pdfrwt beam="2">  1       -1 0.93553557E-01 0.18023758E+04</pdfrwt>
<totfact> 0.18796592E+01</totfact>
</mgrwt>
</event>
<event>
12    7  0.1606355E-007  0.2220016E+04  0.7818608E-02  0.8510143E-01
         -1   -1    0    0    0  501 -0.00000000000E+00  0.00000000000E+00  0.50791844892E+03  0.50791844892E+03  0.00000000000E+00 0.  1.
          2   -1    0    0  501    0  0.00000000000E+00 -0.00000000000E+00 -0.24258182702E+04  0.24258182702E+04  0.00000000000E+00 0. -1.
         24    2    1    2    0    0 -0.91998466447E+03  0.32296989827E+02 -0.68092187821E+03  0.11478560749E+04  0.80647913648E+02 0.  0.
        254    2    1    2    0    0  0.91998466447E+03 -0.32296989827E+02 -0.12369779431E+04  0.17858806443E+04  0.90102184517E+03 0.  0.
         23    2    4    4    0    0  0.91592763262E+03 -0.12257093672E+03 -0.53331363238E+03  0.10708178185E+04  0.90996193044E+02 0.  0.
         23    2    4    4    0    0  0.40570318491E+01  0.90273946891E+02 -0.70366431071E+03  0.71506282579E+03  0.89473670295E+02 0.  0.
          4    1    3    3  502    0 -0.43055430222E+03  0.37679250226E+02 -0.36082761063E+03  0.56302157831E+03  0.00000000000E+00 0. -1.
         -3    1    3    3    0  502 -0.48943036226E+03 -0.53822603990E+01 -0.32009426759E+03  0.58483449656E+03  0.00000000000E+00 0.  1.
         13    1    5    5    0    0  0.73670525853E+03 -0.12571049768E+03 -0.40196574413E+03  0.84859544344E+03  0.00000000000E+00 0.  1.
        -13    1    5    5    0    0  0.17922237409E+03  0.31395609590E+01 -0.13134788824E+03  0.22222237503E+03  0.00000000000E+00 0. -1.
          1    1    6    6  503    0 -0.31138243612E+02  0.86274986264E+02 -0.51364257307E+03  0.52176781843E+03  0.00000000000E+00 0. -1.
         -1    1    6    6    0  503  0.35195275462E+02  0.39989606267E+01 -0.19002173763E+03  0.19329500737E+03  0.00000000000E+00 0.  1.
<mgrwt>
<rscale>  0 0.22200161E+04</rscale>
<asrwt>0</asrwt>
<pdfrwt beam="1">  1        2 0.37320280E+00 0.22200161E+04</pdfrwt>
<pdfrwt beam="2">  1       -1 0.78141302E-01 0.22200161E+04</pdfrwt>
<totfact> 0.65423905E+00</totfact>
</mgrwt>
</event>
<event>
12    7  0.1606355E-007  0.1350132E+04  0.7818608E-02  0.8990728E-01
         -1   -1    0    0    0  501 -0.00000000000E+00  0.00000000000E+00  0.40973018602E+03  0.40973018602E+03  0.00000000000E+00 0.  1.
          2   -1    0    0  501    0  0.00000000000E+00 -0.00000000000E+00 -0.11122299842E+04  0.11122299842E+04  0.00000000000E+00 0. -1.
         24    2    1    2    0    0 -0.34187857166E+02 -0.10273020301E+03  0.23032190800E+03  0.26581962617E+03  0.76743652305E+02 0.  0.
        254    2    1    2    0    0  0.34187857166E+02  0.10273020301E+03 -0.93282170613E+03  0.12561405440E+04  0.83427239357E+03 0.  0.
         23    2    4    4    0    0 -0.41653240505E+02 -0.21494158871E+03 -0.88188891552E+03  0.91312574432E+03  0.90198041150E+02 0.  0.
         23    2    4    4    0    0  0.75841097672E+02  0.31767179171E+03 -0.50932790611E+02  0.34301479968E+03  0.91639316315E+02 0.  0.
          2    1    3    3  502    0 -0.33738880028E+02 -0.11201769850E+03  0.18021620855E+03  0.21485846184E+03  0.00000000000E+00 0. -1.
         -1    1    3    3    0  502 -0.44897713882E+00  0.92874954892E+01  0.50105699445E+02  0.50961164329E+02  0.00000000000E+00 0.  1.
         13    1    5    5    0    0  0.14732978903E+02 -0.84334471620E+02 -0.21889440678E+03  0.23504068816E+03  0.00000000000E+00 0.  1.
        -13    1    5    5    0    0 -0.56386219409E+02 -0.13060711709E+03 -0.66299450873E+03  0.67808505616E+03  0.00000000000E+00 0. -1.
          1    1    6    6  503    0  0.83317756104E+02  0.28476940151E+03 -0.20231905683E+02  0.29739668883E+03  0.00000000000E+00 0. -1.
         -1    1    6    6    0  503 -0.74766584324E+01  0.32902390202E+02 -0.30700884928E+02  0.45618110852E+02  0.00000000000E+00 0.  1.
<mgrwt>
<rscale>  0 0.13501321E+04</rscale>
<asrwt>0</asrwt>
<pdfrwt beam="1">  1        2 0.17111230E+00 0.13501321E+04</pdfrwt>
<pdfrwt beam="2">  1       -1 0.63035414E-01 0.13501321E+04</pdfrwt>
<totfact> 0.60883778E+01</totfact>
</mgrwt>
</event>
<event>
12    7  0.1606355E-007  0.1702489E+04  0.7818608E-02  0.8759946E-01
         -1   -1    0    0    0  501 -0.00000000000E+00  0.00000000000E+00  0.12304609103E+04  0.12304609103E+04  0.00000000000E+00 0.  1.
          2   -1    0    0  501    0  0.00000000000E+00 -0.00000000000E+00 -0.58889886858E+03  0.58889886858E+03  0.00000000000E+00 0. -1.
         24    2    1    2    0    0 -0.25578837553E+03  0.50595305768E+03  0.46883159367E+03  0.74003337765E+03  0.80188198579E+02 0.  0.
        254    2    1    2    0    0  0.25578837553E+03 -0.50595305768E+03  0.17273044807E+03  0.10793264013E+04  0.90204960125E+03 0.  0.
         23    2    4    4    0    0  0.58202152585E+03 -0.25526830316E+03  0.12775793597E+03  0.65492823834E+03  0.93262768630E+02 0.  0.
         23    2    4    4    0    0 -0.32623315032E+03 -0.25068475451E+03  0.44972512102E+02  0.42439816292E+03  0.93916768104E+02 0.  0.
          2    1    3    3  502    0 -0.15563443332E+02  0.13322725338E+02  0.36916347907E+02  0.42220048811E+02  0.00000000000E+00 0. -1.
         -1    1    3    3    0  502 -0.24022493220E+03  0.49263033234E+03  0.43191524576E+03  0.69781332884E+03  0.00000000000E+00 0.  1.
         13    1    5    5    0    0  0.36467668050E+03 -0.14963342208E+03  0.33724166390E+02  0.39562174068E+03  0.00000000000E+00 0. -1.
        -13    1    5    5    0    0  0.21734484535E+03 -0.10563488109E+03  0.94033769583E+02  0.25930649765E+03  0.00000000000E+00 0.  1.
          3    1    6    6  503    0 -0.45272139301E+02 -0.42645257669E+02  0.41523147263E+02  0.74782059059E+02  0.00000000000E+00 0. -1.
         -3    1    6    6    0  503 -0.28096101102E+03 -0.20803949684E+03  0.34493648386E+01  0.34961610386E+03  0.00000000000E+00 0.  1.
<mgrwt>
<rscale>  0 0.17024888E+04</rscale>
<asrwt>0</asrwt>
<pdfrwt beam="1">  1        2 0.90599826E-01 0.17024888E+04</pdfrwt>
<pdfrwt beam="2">  1       -1 0.18930168E+00 0.17024888E+04</pdfrwt>
<totfact> 0.98519849E+00</totfact>
</mgrwt>
</event>
<event>
12    7  0.1606355E-007  0.1495315E+04  0.7818608E-02  0.8887574E-01
          2   -1    0    0  501    0  0.00000000000E+00  0.00000000000E+00  0.22841904804E+04  0.22841904804E+04  0.00000000000E+00 0. -1.
         -1   -1    0    0    0  501 -0.00000000000E+00 -0.00000000000E+00 -0.24472212409E+03  0.24472212409E+03  0.00000000000E+00 0.  1.
         24    2    1    2    0    0 -0.93956557629E+02  0.39207933861E+02 -0.12870141689E+03  0.18043032235E+03  0.75006331168E+02 0.  0.
        254    2    1    2    0    0  0.93956557629E+02 -0.39207933861E+02  0.21681697732E+04  0.23484822821E+04  0.89668487623E+03 0.  0.
         23    2    4    4    0    0 -0.18149163550E+03 -0.39199896190E+03  0.11739192663E+04  0.12541443230E+04  0.90493862505E+02 0.  0.
         23    2    4    4    0    0  0.27544819313E+03  0.35279102804E+03  0.99425050688E+03  0.10943379591E+04  0.93318175231E+02 0.  0.
          4    1    3    3  502    0 -0.43737816880E+02  0.54797774739E+02 -0.51380979788E+02  0.86924092321E+02  0.00000000000E+00 0. -1.
         -3    1    3    3    0  502 -0.50218740748E+02 -0.15589840877E+02 -0.77320437105E+02  0.93506230033E+02  0.00000000000E+00 0.  1.
         13    1    5    5    0    0 -0.78745090474E+02 -0.11449675947E+03  0.28124716832E+03  0.31370410723E+03  0.00000000000E+00 0.  1.
        -13    1    5    5    0    0 -0.10274654502E+03 -0.27750220243E+03  0.89267209797E+03  0.94044021573E+03  0.00000000000E+00 0. -1.
          2    1    6    6  503    0  0.45930497051E+02  0.62390245701E+02  0.99937727623E+02  0.12645039628E+03  0.00000000000E+00 0. -1.
         -2    1    6    6    0  503  0.22951769607E+03  0.29040078234E+03  0.89431277926E+03  0.96788756286E+03  0.00000000000E+00 0.  1.
<mgrwt>
<rscale>  0 0.14953153E+04</rscale>
<asrwt>0</asrwt>
<pdfrwt beam="1">  1        2 0.35141391E+00 0.14953153E+04</pdfrwt>
<pdfrwt beam="2">  1       -1 0.37649559E-01 0.14953153E+04</pdfrwt>
<totfact> 0.34708337E+01</totfact>
</mgrwt>
</event>
<event>
12    7  0.1606355E-007  0.1250242E+04  0.7818608E-02  0.9069982E-01
          4   -1    0    0  501    0  0.00000000000E+00  0.00000000000E+00  0.44586542828E+03  0.44586542828E+03  0.00000000000E+00 0. -1.
         -3   -1    0    0    0  501 -0.00000000000E+00 -0.00000000000E+00 -0.87644498462E+03  0.87644498462E+03  0.00000000000E+00 0.  1.
         24    2    1    2    0    0 -0.22603927546E+01 -0.15666358537E+03  0.20542275271E+03  0.26673200383E+03  0.66323948802E+02 0.  0.
        254    2    1    2    0    0  0.22603927546E+01  0.15666358537E+03 -0.63600230904E+03  0.10555784091E+04  0.82776702774E+03 0.  0.
         23    2    4    4    0    0 -0.22943452893E+02 -0.32617622254E+03 -0.34289128089E+03  0.48246865846E+03  0.91017831811E+02 0.  0.
         23    2    4    4    0    0  0.25203845648E+02  0.48283980790E+03 -0.29311102816E+03  0.57310975061E+03  0.93654671439E+02 0.  0.
          2    1    3    3  502    0 -0.28441695932E+02 -0.12848166973E+03  0.16234368225E+03  0.20897832589E+03  0.00000000000E+00 0. -1.
         -1    1    3    3    0  502  0.26181303178E+02 -0.28181915635E+02  0.43079070460E+02  0.57753677949E+02  0.00000000000E+00 0.  1.
         13    1    5    5    0    0 -0.21843447779E+02 -0.25670628067E+03 -0.20948055867E+03  0.33205022994E+03  0.00000000000E+00 0. -1.
        -13    1    5    5    0    0 -0.11000051142E+01 -0.69469941869E+02 -0.13341072221E+03  0.15041842851E+03  0.00000000000E+00 0.  1.
          3    1    6    6  503    0 -0.74771186123E+01  0.68305101946E-01 -0.19342463253E+00  0.74799319126E+01  0.00000000000E+00 0.  1.
         -3    1    6    6    0  503  0.32680964260E+02  0.48277150280E+03 -0.29291760352E+03  0.56562981869E+03  0.00000000000E+00 0. -1.
<mgrwt>
<rscale>  0 0.12502424E+04</rscale>
<asrwt>0</asrwt>
<pdfrwt beam="1">  1        4 0.68594682E-01 0.12502424E+04</pdfrwt>
<pdfrwt beam="2">  1       -3 0.13483769E+00 0.12502424E+04</pdfrwt>
<totfact> 0.18656778E+00</totfact>
</mgrwt>
</event>
<event>
12    7  0.1606355E-007  0.3394115E+04  0.7818608E-02  0.8139352E-01
         -1   -1    0    0    0  501 -0.00000000000E+00  0.00000000000E+00  0.22220307197E+04  0.22220307197E+04  0.00000000000E+00 0.  1.
          2   -1    0    0  501    0  0.00000000000E+00 -0.00000000000E+00 -0.12961138426E+04  0.12961138426E+04  0.00000000000E+00 0. -1.
         24    2    1    2    0    0  0.64623821691E+03  0.11699661177E+04 -0.43423442153E+03  0.14076231069E+04  0.79992053902E+02 0.  0.
        254    2    1    2    0    0 -0.64623821691E+03 -0.11699661177E+04  0.13601512986E+04  0.21105214554E+04  0.90434767039E+03 0.  0.
         23    2    4    4    0    0 -0.46767727575E+03 -0.12736466280E+04  0.10105043527E+04  0.16939523073E+04  0.86357427540E+02 0.  0.
         23    2    4    4    0    0 -0.17856094117E+03  0.10368051030E+03  0.34964694592E+03  0.41656914809E+03  0.92968868022E+02 0.  0.
          4    1    3    3  502    0  0.60663352117E+03  0.10899660923E+04 -0.38391988502E+03  0.13051531670E+04  0.00000000000E+00 0. -1.
         -3    1    3    3    0  502  0.39604695746E+02  0.80000025494E+02 -0.50314536511E+02  0.10246993993E+03  0.00000000000E+00 0.  1.
         13    1    5    5    0    0 -0.11827012196E+02 -0.50239410052E+02  0.20790710904E+02  0.55642880944E+02  0.00000000000E+00 0.  1.
        -13    1    5    5    0    0 -0.45585026355E+03 -0.12234072180E+04  0.98971364180E+03  0.16383094264E+04  0.00000000000E+00 0. -1.
          3    1    6    6  503    0 -0.18728144018E+03  0.89092728502E+02  0.33564011381E+03  0.39454548294E+03  0.00000000000E+00 0. -1.
         -3    1    6    6    0  503  0.87204990175E+01  0.14587781796E+02  0.14006832112E+02  0.22023665150E+02  0.00000000000E+00 0.  1.
<mgrwt>
<rscale>  0 0.33941154E+04</rscale>
<asrwt>0</asrwt>
<pdfrwt beam="1">  1        2 0.19940213E+00 0.33941154E+04</pdfrwt>
<pdfrwt beam="2">  1       -1 0.34185088E+00 0.33941154E+04</pdfrwt>
<totfact> 0.27587472E-01</totfact>
</mgrwt>
</event>
<event>
12    7  0.1606355E-007  0.1858694E+04  0.7818608E-02  0.8675694E-01
          2   -1    0    0  501    0  0.00000000000E+00  0.00000000000E+00  0.15285787778E+04  0.15285787778E+04  0.00000000000E+00 0. -1.
         -1   -1    0    0    0  501 -0.00000000000E+00 -0.00000000000E+00 -0.56502569528E+03  0.56502569528E+03  0.00000000000E+00 0.  1.
         24    2    1    2    0    0  0.84767662646E+02  0.78613024398E+02 -0.42205369203E+03  0.44488036156E+03  0.80147694341E+02 0.  0.
        254    2    1    2    0    0 -0.84767662646E+02 -0.78613024398E+02  0.13856067745E+04  0.16487241115E+04  0.88601326059E+03 0.  0.
         23    2    4    4    0    0 -0.34802420903E+03 -0.14783078202E+03  0.21926156236E+03  0.44763394238E+03  0.96569785444E+02 0.  0.
         23    2    4    4    0    0  0.26325654638E+03  0.69217757623E+02  0.11663452122E+04  0.12010901691E+04  0.90340097385E+02 0.  0.
          4    1    3    3  502    0  0.11599183530E+02  0.49233047449E+02 -0.86641742554E+02  0.10032559779E+03  0.00000000000E+00 0. -1.
         -3    1    3    3    0  502  0.73168479116E+02  0.29379976948E+02 -0.33541194948E+03  0.34455476377E+03  0.00000000000E+00 0.  1.
         13    1    5    5    0    0 -0.41520011147E+02 -0.36725014541E+02  0.69398543237E+02  0.88818893385E+02  0.00000000000E+00 0.  1.
        -13    1    5    5    0    0 -0.30650419788E+03 -0.11110576748E+03  0.14986301913E+03  0.35881504900E+03  0.00000000000E+00 0. -1.
          4    1    6    6  503    0  0.26187015394E+03  0.68415694898E+02  0.10371397841E+04  0.10718748139E+04  0.00000000000E+00 0. -1.
         -4    1    6    6    0  503  0.13863924392E+01  0.80206272437E+00  0.12920542802E+03  0.12921535520E+03  0.00000000000E+00 0.  1.
<mgrwt>
<rscale>  0 0.18586945E+04</rscale>
<asrwt>0</asrwt>
<pdfrwt beam="1">  1        2 0.23516596E+00 0.18586945E+04</pdfrwt>
<pdfrwt beam="2">  1       -1 0.86927031E-01 0.18586945E+04</pdfrwt>
<totfact> 0.17073145E+01</totfact>
</mgrwt>
</event>
<event>
12    7  0.1606355E-007  0.1416711E+04  0.7818608E-02  0.8941810E-01
         -1   -1    0    0    0  501 -0.00000000000E+00  0.00000000000E+00  0.51505497386E+03  0.51505497386E+03  0.00000000000E+00 0.  1.
          2   -1    0    0  501    0  0.00000000000E+00 -0.00000000000E+00 -0.97420190067E+03  0.97420190067E+03  0.00000000000E+00 0. -1.
         24    2    1    2    0    0 -0.25562350541E+03  0.24846211806E+03 -0.35919568120E+03  0.51426822433E+03  0.91506658428E+02 0.  0.
        254    2    1    2    0    0  0.25562350541E+03 -0.24846211806E+03 -0.99951245622E+02  0.97498865020E+03  0.90196220314E+03 0.  0.
         23    2    4    4    0    0  0.53688439072E+03 -0.24353120887E+03 -0.24561574950E+03  0.64477554650E+03  0.88634701311E+02 0.  0.
         23    2    4    4    0    0 -0.28126088531E+03 -0.49309091925E+01  0.14566450387E+03  0.33021310370E+03  0.93223101720E+02 0.  0.
          2    1    3    3  502    0 -0.15315852824E+03  0.91079599972E+02 -0.20198507567E+03  0.26935292665E+03  0.00000000000E+00 0. -1.
         -1    1    3    3    0  502 -0.10246497717E+03  0.15738251809E+03 -0.15721060553E+03  0.24491529768E+03  0.00000000000E+00 0.  1.
         13    1    5    5    0    0  0.42829204551E+03 -0.20269414225E+03 -0.23315523616E+03  0.52809123804E+03  0.00000000000E+00 0.  1.
        -13    1    5    5    0    0  0.10859234521E+03 -0.40837066611E+02 -0.12460513339E+02  0.11668430846E+03  0.00000000000E+00 0. -1.
          1    1    6    6  503    0 -0.32046016285E+02  0.30766084162E+02  0.17955547310E+02  0.47915558784E+02  0.00000000000E+00 0. -1.
         -1    1    6    6    0  503 -0.24921486902E+03 -0.35696993355E+02  0.12770895656E+03  0.28229754491E+03  0.00000000000E+00 0.  1.
<mgrwt>
<rscale>  0 0.14167110E+04</rscale>
<asrwt>0</asrwt>
<pdfrwt beam="1">  1        2 0.14987721E+00 0.14167110E+04</pdfrwt>
<pdfrwt beam="2">  1       -1 0.79239227E-01 0.14167110E+04</pdfrwt>
<totfact> 0.46234179E+01</totfact>
</mgrwt>
</event>
<event>
12    7  0.1606355E-007  0.1791193E+04  0.7818608E-02  0.8710997E-01
          2   -1    0    0  501    0  0.00000000000E+00  0.00000000000E+00  0.80139950303E+03  0.80139950303E+03  0.00000000000E+00 0. -1.
         -1   -1    0    0    0  501 -0.00000000000E+00 -0.00000000000E+00 -0.10008652582E+04  0.10008652582E+04  0.00000000000E+00 0.  1.
         24    2    1    2    0    0 -0.99880653565E+02 -0.65746050296E+03 -0.67258406457E+02  0.67319276824E+03  0.80214413015E+02 0.  0.
        254    2    1    2    0    0  0.99880653565E+02  0.65746050296E+03 -0.13220734869E+03  0.11290719930E+04  0.90282574417E+03 0.  0.
         23    2    4    4    0    0  0.41286478437E+03  0.13505530949E+03 -0.23596417042E+03  0.50457142833E+03  0.10107408061E+03 0.  0.
         23    2    4    4    0    0 -0.31298413080E+03  0.52240519347E+03  0.10375682173E+03  0.62450056464E+03  0.91483467806E+02 0.  0.
          4    1    3    3  502    0  0.65234987355E+01 -0.20075949672E+03 -0.22917339395E+02  0.20216858313E+03  0.00000000000E+00 0. -1.
         -3    1    3    3    0  502 -0.10640415230E+03 -0.45670100625E+03 -0.44341067063E+02  0.47102418511E+03  0.00000000000E+00 0.  1.
         13    1    5    5    0    0  0.19897046668E+03  0.11249209811E+03 -0.95695403472E+02  0.24779291554E+03  0.00000000000E+00 0. -1.
        -13    1    5    5    0    0  0.21389431768E+03  0.22563211382E+02 -0.14026876695E+03  0.25677851278E+03  0.00000000000E+00 0.  1.
          1    1    6    6  503    0 -0.29933148585E+01  0.14334798547E+02 -0.11064377373E+02  0.18353932273E+02  0.00000000000E+00 0. -1.
         -1    1    6    6    0  503 -0.30999081594E+03  0.50807039492E+03  0.11482119910E+03  0.60614663237E+03  0.00000000000E+00 0.  1.
<mgrwt>
<rscale>  0 0.17911928E+04</rscale>
<asrwt>0</asrwt>
<pdfrwt beam="1">  1        2 0.12329223E+00 0.17911928E+04</pdfrwt>
<pdfrwt beam="2">  1       -1 0.15397927E+00 0.17911928E+04</pdfrwt>
<totfact> 0.12043341E+01</totfact>
</mgrwt>
</event>
<event>
12    7  0.1606355E-007  0.1293167E+04  0.7818608E-02  0.9035001E-01
         -3   -1    0    0    0  501 -0.00000000000E+00  0.00000000000E+00  0.69861654221E+03  0.69861654221E+03  0.00000000000E+00 0.  1.
          2   -1    0    0  501    0  0.00000000000E+00 -0.00000000000E+00 -0.59842613170E+03  0.59842613170E+03  0.00000000000E+00 0. -1.
         24    2    1    2    0    0  0.61360611420E+02 -0.38045131273E+02 -0.29143177977E+03  0.31067221817E+03  0.79825987234E+02 0.  0.
        254    2    1    2    0    0 -0.61360611420E+02  0.38045131273E+02  0.39162219028E+03  0.98637045573E+03  0.90241131386E+03 0.  0.
         23    2    4    4    0    0  0.20707680471E+03 -0.29408381276E+03 -0.38981241109E+02  0.37293474505E+03  0.90524554302E+02 0.  0.
         23    2    4    4    0    0 -0.26843741613E+03  0.33212894404E+03  0.43060343139E+03  0.61343571068E+03  0.92280952362E+02 0.  0.
          2    1    3    3  502    0  0.65792865310E+02 -0.39927325821E+02 -0.14497286981E+03  0.16413416906E+03  0.00000000000E+00 0. -1.
         -1    1    3    3    0  502 -0.44322538891E+01  0.18821945484E+01 -0.14645890996E+03  0.14653804911E+03  0.00000000000E+00 0.  1.
         13    1    5    5    0    0  0.18955910346E+03 -0.24258295850E+03 -0.33032374631E+01  0.30787993900E+03  0.00000000000E+00 0.  1.
        -13    1    5    5    0    0  0.17517701251E+02 -0.51500854260E+02 -0.35678003646E+02  0.65054806055E+02  0.00000000000E+00 0. -1.
          2    1    6    6  503    0 -0.16028744503E+03  0.25252849606E+03  0.33182313512E+03  0.44673179801E+03  0.00000000000E+00 0. -1.
         -2    1    6    6    0  503 -0.10814997110E+03  0.79600447979E+02  0.98780296271E+02  0.16670391267E+03  0.00000000000E+00 0.  1.
<mgrwt>
<rscale>  0 0.12931673E+04</rscale>
<asrwt>0</asrwt>
<pdfrwt beam="1">  1        2 0.92065559E-01 0.12931673E+04</pdfrwt>
<pdfrwt beam="2">  1       -3 0.10747947E+00 0.12931673E+04</pdfrwt>
<totfact> 0.22664588E+01</totfact>
</mgrwt>
</event>
<event>
12    7  0.1606355E-007  0.1996485E+04  0.7818608E-02  0.8608266E-01
          2   -1    0    0  501    0  0.00000000000E+00  0.00000000000E+00  0.19674430122E+04  0.19674430122E+04  0.00000000000E+00 0. -1.
         -1   -1    0    0    0  501 -0.00000000000E+00 -0.00000000000E+00 -0.50648914174E+03  0.50648914174E+03  0.00000000000E+00 0.  1.
         24    2    1    2    0    0 -0.20041635498E+03 -0.65334833797E+03  0.93826868119E+02  0.69405378306E+03  0.76657723216E+02 0.  0.
        254    2    1    2    0    0  0.20041635498E+03  0.65334833797E+03  0.13671270024E+04  0.17798783709E+04  0.91208552700E+03 0.  0.
         23    2    4    4    0    0  0.47630990967E+03  0.88841998801E+02  0.72623557045E+03  0.87767241515E+03  0.90148398405E+02 0.  0.
         23    2    4    4    0    0 -0.27589355469E+03  0.56450633917E+03  0.64089143193E+03  0.90220595577E+03  0.91918978583E+02 0.  0.
          2    1    3    3  502    0 -0.55022745384E+02 -0.91734634176E+02  0.42945369529E+01  0.10705694123E+03  0.00000000000E+00 0. -1.
         -1    1    3    3    0  502 -0.14539360960E+03 -0.56161370380E+03  0.89532331166E+02  0.58699684184E+03  0.00000000000E+00 0.  1.
         13    1    5    5    0    0  0.38954028087E+03  0.50299390234E+02  0.53000498216E+03  0.65967942229E+03  0.00000000000E+00 0. -1.
        -13    1    5    5    0    0  0.86769628801E+02  0.38542608568E+02  0.19623058829E+03  0.21799299287E+03  0.00000000000E+00 0.  1.
          3    1    6    6  503    0 -0.10880651624E+03  0.31220623550E+03  0.36819413612E+03  0.49485201155E+03  0.00000000000E+00 0. -1.
         -3    1    6    6    0  503 -0.16708703845E+03  0.25230010367E+03  0.27269729581E+03  0.40735394422E+03  0.00000000000E+00 0.  1.
<mgrwt>
<rscale>  0 0.19964854E+04</rscale>
<asrwt>0</asrwt>
<pdfrwt beam="1">  1        2 0.30268354E+00 0.19964854E+04</pdfrwt>
<pdfrwt beam="2">  1       -1 0.77921407E-01 0.19964854E+04</pdfrwt>
<totfact> 0.12158309E+01</totfact>
</mgrwt>
</event>
<event>
12    7  0.1606355E-007  0.1064766E+04  0.7818608E-02  0.9240231E-01
          2   -1    0    0  501    0  0.00000000000E+00  0.00000000000E+00  0.76316983333E+03  0.76316983333E+03  0.00000000000E+00 0. -1.
         -1   -1    0    0    0  501 -0.00000000000E+00 -0.00000000000E+00 -0.37138711692E+03  0.37138711692E+03  0.00000000000E+00 0.  1.
         24    2    1    2    0    0  0.15968928046E+01  0.64748147813E+02  0.18087522898E+03  0.20822883942E+03  0.80302729696E+02 0.  0.
        254    2    1    2    0    0 -0.15968928046E+01 -0.64748147813E+02  0.21090748743E+03  0.92632811083E+03  0.89967045520E+03 0.  0.
         23    2    4    4    0    0 -0.26505924908E+03  0.54351093458E+02  0.45482963373E+03  0.53724704798E+03  0.92487555703E+02 0.  0.
         23    2    4    4    0    0  0.26346235628E+03 -0.11909924127E+03 -0.24392214630E+03  0.38908106285E+03  0.91044041902E+02 0.  0.
          4    1    3    3  502    0  0.39979444583E+02  0.42870643475E+02  0.11174602191E+03  0.12618804014E+03  0.00000000000E+00 0. -1.
         -3    1    3    3    0  502 -0.38382551778E+02  0.21877504337E+02  0.69129207074E+02  0.82040799288E+02  0.00000000000E+00 0.  1.
         13    1    5    5    0    0 -0.12302782508E+03  0.67852570152E+02  0.18837406154E+03  0.23499915762E+03  0.00000000000E+00 0. -1.
        -13    1    5    5    0    0 -0.14203142400E+03 -0.13501476694E+02  0.26645557219E+03  0.30224789036E+03  0.00000000000E+00 0.  1.
          3    1    6    6  503    0  0.22032155672E+03 -0.12910548078E+03 -0.18481802918E+03  0.31522613697E+03  0.00000000000E+00 0. -1.
         -3    1    6    6    0  503  0.43140799563E+02  0.10006239507E+02 -0.59104117117E+02  0.73854925876E+02  0.00000000000E+00 0.  1.
<mgrwt>
<rscale>  0 0.10647656E+04</rscale>
<asrwt>0</asrwt>
<pdfrwt beam="1">  1        2 0.11741074E+00 0.10647656E+04</pdfrwt>
<pdfrwt beam="2">  1       -1 0.57136480E-01 0.10647656E+04</pdfrwt>
<totfact> 0.12913979E+02</totfact>
</mgrwt>
</event>
<event>
12    7  0.1606355E-007  0.1451224E+04  0.7818608E-02  0.8917553E-01
         -1   -1    0    0    0  501 -0.00000000000E+00  0.00000000000E+00  0.50241098471E+03  0.50241098471E+03  0.00000000000E+00 0.  1.
          2   -1    0    0  501    0  0.00000000000E+00 -0.00000000000E+00 -0.10479717273E+04  0.10479717273E+04  0.00000000000E+00 0. -1.
         24    2    1    2    0    0  0.33152817410E+02  0.73249534253E+02  0.26515172671E+03  0.28853163604E+03  0.80501324526E+02 0.  0.
        254    2    1    2    0    0 -0.33152817410E+02 -0.73249534253E+02 -0.81071246929E+03  0.12618510760E+04  0.96361238392E+03 0.  0.
         23    2    4    4    0    0 -0.30980022237E+03  0.25496862530E+01 -0.89300709634E+03  0.94940292821E+03  0.89003187020E+02 0.  0.
         23    2    4    4    0    0  0.27664740496E+03 -0.75799220506E+02  0.82294627050E+02  0.31244814774E+03  0.92585802809E+02 0.  0.
          2    1    3    3  502    0  0.46585309193E+02  0.10767910891E+02  0.87147505834E+02  0.99402347611E+02  0.00000000000E+00 0. -1.
         -1    1    3    3    0  502 -0.13432491783E+02  0.62481623362E+02  0.17800422087E+03  0.18912928843E+03  0.00000000000E+00 0.  1.
         13    1    5    5    0    0 -0.49119661825E+02  0.33952861400E+02 -0.15819436725E+03  0.16908872170E+03  0.00000000000E+00 0. -1.
        -13    1    5    5    0    0 -0.26068056055E+03 -0.31403175147E+02 -0.73481272909E+03  0.78031420651E+03  0.00000000000E+00 0.  1.
          1    1    6    6  503    0  0.22124892914E+01 -0.64262403613E+01  0.22006167112E+02  0.23031783800E+02  0.00000000000E+00 0. -1.
         -1    1    6    6    0  503  0.27443491567E+03 -0.69372980144E+02  0.60288459939E+02  0.28941636394E+03  0.00000000000E+00 0.  1.
<mgrwt>
<rscale>  0 0.14512236E+04</rscale>
<asrwt>0</asrwt>
<pdfrwt beam="1">  1        2 0.16122642E+00 0.14512236E+04</pdfrwt>
<pdfrwt beam="2">  1       -1 0.77293998E-01 0.14512236E+04</pdfrwt>
<totfact> 0.43588320E+01</totfact>
</mgrwt>
</event>
<event>
12    7  0.1606355E-007  0.1721792E+04  0.7818608E-02  0.8749032E-01
         -1   -1    0    0    0  501 -0.00000000000E+00  0.00000000000E+00  0.25322765187E+03  0.25322765187E+03  0.00000000000E+00 0.  1.
          2   -1    0    0  501    0  0.00000000000E+00 -0.00000000000E+00 -0.29267808923E+04  0.29267808923E+04  0.00000000000E+00 0. -1.
         24    2    1    2    0    0  0.33377905330E+03  0.33622692065E+03 -0.16731634671E+04  0.17408281671E+04  0.80930347575E+02 0.  0.
        254    2    1    2    0    0 -0.33377905330E+03 -0.33622692065E+03 -0.10003897733E+04  0.14391803771E+04  0.91978446419E+03 0.  0.
         23    2    4    4    0    0 -0.43006545216E+03 -0.50283485700E+03 -0.10263025730E+04  0.12244139784E+04  0.89963507094E+02 0.  0.
         23    2    4    4    0    0  0.96286398858E+02  0.16660793635E+03  0.25912799603E+02  0.21476639872E+03  0.91781576451E+02 0.  0.
          2    1    3    3  502    0  0.32603887935E+03  0.30737133721E+03 -0.15152837074E+04  0.15801465767E+04  0.00000000000E+00 0. -1.
         -1    1    3    3    0  502  0.77401739490E+01  0.28855583440E+02 -0.15787975970E+03  0.16068159046E+03  0.00000000000E+00 0.  1.
         13    1    5    5    0    0 -0.31134574164E+03 -0.35123969626E+03 -0.79750933475E+03  0.92537918395E+03  0.00000000000E+00 0.  1.
        -13    1    5    5    0    0 -0.11871971052E+03 -0.15159516074E+03 -0.22879323820E+03  0.29903479442E+03  0.00000000000E+00 0. -1.
          2    1    6    6  503    0  0.96009723785E+02  0.10432509366E+03 -0.11271526601E+02  0.14222742190E+03  0.00000000000E+00 0. -1.
         -2    1    6    6    0  503  0.27667507261E+00  0.62282842693E+02  0.37184326204E+02  0.72538976821E+02  0.00000000000E+00 0.  1.
<mgrwt>
<rscale>  0 0.17217919E+04</rscale>
<asrwt>0</asrwt>
<pdfrwt beam="1">  1        2 0.45027396E+00 0.17217919E+04</pdfrwt>
<pdfrwt beam="2">  1       -1 0.38958102E-01 0.17217919E+04</pdfrwt>
<totfact> 0.13425333E+01</totfact>
</mgrwt>
</event>
<event>
12    7  0.1606355E-007  0.2725964E+04  0.7818608E-02  0.8326629E-01
         -1   -1    0    0    0  501 -0.00000000000E+00  0.00000000000E+00  0.94323557073E+03  0.94323557073E+03  0.00000000000E+00 0.  1.
          2   -1    0    0  501    0  0.00000000000E+00 -0.00000000000E+00 -0.19695183938E+04  0.19695183938E+04  0.00000000000E+00 0. -1.
         24    2    1    2    0    0 -0.99645416425E+03 -0.69616944895E+03 -0.37784269066E+03  0.12755130284E+04  0.81213198205E+02 0.  0.
        254    2    1    2    0    0  0.99645416425E+03  0.69616944895E+03 -0.64844013242E+03  0.16372409362E+04  0.88459622125E+03 0.  0.
         23    2    4    4    0    0  0.10937050548E+03 -0.25061780464E+01 -0.46931329650E+03  0.49035907300E+03  0.90713074074E+02 0.  0.
         23    2    4    4    0    0  0.88708365877E+03  0.69867562700E+03 -0.17912683592E+03  0.11468818632E+04  0.90479474513E+02 0.  0.
          4    1    3    3  502    0 -0.86409367587E+03 -0.62341947027E+03 -0.35291187603E+03  0.11224332982E+04  0.00000000000E+00 0. -1.
         -3    1    3    3    0  502 -0.13236048837E+03 -0.72749978681E+02 -0.24930814628E+02  0.15307973020E+03  0.00000000000E+00 0.  1.
         13    1    5    5    0    0  0.23634270408E+02 -0.14231945011E+02 -0.23546480966E+02  0.36270701157E+02  0.00000000000E+00 0.  1.
        -13    1    5    5    0    0  0.85736235073E+02  0.11725766965E+02 -0.44576681553E+03  0.45408837184E+03  0.00000000000E+00 0. -1.
          3    1    6    6  503    0  0.52398060055E+03  0.38551851076E+03 -0.63267930529E+02  0.65359239815E+03  0.00000000000E+00 0. -1.
         -3    1    6    6    0  503  0.36310305822E+03  0.31315711624E+03 -0.11585890539E+03  0.49328946502E+03  0.00000000000E+00 0.  1.
<mgrwt>
<rscale>  0 0.27259639E+04</rscale>
<asrwt>0</asrwt>
<pdfrwt beam="1">  1        2 0.30300282E+00 0.27259639E+04</pdfrwt>
<pdfrwt beam="2">  1       -1 0.14511317E+00 0.27259639E+04</pdfrwt>
<totfact> 0.26383369E+00</totfact>
</mgrwt>
</event>
<event>
12    7  0.1606355E-007  0.1504775E+04  0.7818608E-02  0.8881284E-01
          2   -1    0    0  501    0  0.00000000000E+00  0.00000000000E+00  0.10347558234E+04  0.10347558234E+04  0.00000000000E+00 0. -1.
         -1   -1    0    0    0  501 -0.00000000000E+00 -0.00000000000E+00 -0.54707303630E+03  0.54707303630E+03  0.00000000000E+00 0.  1.
         24    2    1    2    0    0 -0.24782836524E+03 -0.82836028615E+02 -0.26950362410E+03  0.38368697278E+03  0.79390071328E+02 0.  0.
        254    2    1    2    0    0  0.24782836524E+03  0.82836028615E+02  0.75718641124E+03  0.11981418870E+04  0.89102862673E+03 0.  0.
         23    2    4    4    0    0 -0.75144809010E+01 -0.19807287757E+03  0.77652302469E+03  0.80673761305E+03  0.92456671920E+02 0.  0.
         23    2    4    4    0    0  0.25534284614E+03  0.28090890619E+03 -0.19336613447E+02  0.39140427391E+03  0.93346764071E+02 0.  0.
          2    1    3    3  502    0 -0.78130155478E+02 -0.42577533242E+02 -0.14226257183E+03  0.16779692153E+03  0.00000000000E+00 0. -1.
         -1    1    3    3    0  502 -0.16969820976E+03 -0.40258495373E+02 -0.12724105227E+03  0.21589005125E+03  0.00000000000E+00 0.  1.
         13    1    5    5    0    0  0.39530863795E+02 -0.12108245966E+03  0.41369481099E+03  0.43285915477E+03  0.00000000000E+00 0.  1.
        -13    1    5    5    0    0 -0.47045344696E+02 -0.76990417917E+02  0.36282821369E+03  0.37387845827E+03  0.00000000000E+00 0. -1.
          4    1    6    6  503    0  0.21381587639E+03  0.17858614966E+03 -0.31257794417E+02  0.28033424970E+03  0.00000000000E+00 0. -1.
         -4    1    6    6    0  503  0.41526969750E+02  0.10232275653E+03  0.11921180970E+02  0.11107002420E+03  0.00000000000E+00 0.  1.
<mgrwt>
<rscale>  0 0.15047751E+04</rscale>
<asrwt>0</asrwt>
<pdfrwt beam="1">  1        2 0.15919320E+00 0.15047751E+04</pdfrwt>
<pdfrwt beam="2">  1       -1 0.84165083E-01 0.15047751E+04</pdfrwt>
<totfact> 0.36893032E+01</totfact>
</mgrwt>
</event>
<event>
12    7  0.1606355E-007  0.1472125E+04  0.7818608E-02  0.8903204E-01
         -1   -1    0    0    0  501 -0.00000000000E+00  0.00000000000E+00  0.13747333076E+04  0.13747333076E+04  0.00000000000E+00 0.  1.
          2   -1    0    0  501    0  0.00000000000E+00 -0.00000000000E+00 -0.39410434393E+03  0.39410434393E+03  0.00000000000E+00 0. -1.
         24    2    1    2    0    0  0.40798994870E+03  0.14170182114E+03  0.30303510503E+03  0.53357255014E+03  0.79587605959E+02 0.  0.
        254    2    1    2    0    0 -0.40798994870E+03 -0.14170182114E+03  0.67759385867E+03  0.12352651014E+04  0.93819573072E+03 0.  0.
         23    2    4    4    0    0 -0.53955284104E+03 -0.43459159921E+03  0.47688614060E+03  0.84636649231E+03  0.94491914119E+02 0.  0.
         23    2    4    4    0    0  0.13156289233E+03  0.29288977807E+03  0.20070771807E+03  0.38889860912E+03  0.88686658216E+02 0.  0.
          4    1    3    3  502    0  0.13785147888E+03  0.62061740001E+02  0.63970544198E+02  0.16415517149E+03  0.00000000000E+00 0. -1.
         -3    1    3    3    0  502  0.27013846983E+03  0.79640081141E+02  0.23906456083E+03  0.36941737865E+03  0.00000000000E+00 0.  1.
         13    1    5    5    0    0 -0.49897088436E+03 -0.42936466868E+03  0.45088905903E+03  0.79788903094E+03  0.00000000000E+00 0.  1.
        -13    1    5    5    0    0 -0.40581956674E+02 -0.52269305349E+01  0.25997081570E+02  0.48477461365E+02  0.00000000000E+00 0. -1.
          1    1    6    6  503    0  0.28714984330E+02  0.43560712428E+02  0.74926986790E+02  0.91302460765E+02  0.00000000000E+00 0. -1.
         -1    1    6    6    0  503  0.10284790800E+03  0.24932906564E+03  0.12578073128E+03  0.29759614836E+03  0.00000000000E+00 0.  1.
<mgrwt>
<rscale>  0 0.14721255E+04</rscale>
<asrwt>0</asrwt>
<pdfrwt beam="1">  1        2 0.60631438E-01 0.14721255E+04</pdfrwt>
<pdfrwt beam="2">  1       -1 0.21149743E+00 0.14721255E+04</pdfrwt>
<totfact> 0.11249167E+01</totfact>
</mgrwt>
</event>
<event>
12    7  0.1606355E-007  0.2067263E+04  0.7818608E-02  0.8575803E-01
         -1   -1    0    0    0  501 -0.00000000000E+00  0.00000000000E+00  0.21262894853E+04  0.21262894853E+04  0.00000000000E+00 0.  1.
          2   -1    0    0  501    0  0.00000000000E+00 -0.00000000000E+00 -0.50246884950E+03  0.50246884950E+03  0.00000000000E+00 0. -1.
         24    2    1    2    0    0 -0.11578930677E+03 -0.81511213858E+03  0.88720848576E+03  0.12129033001E+04  0.78616513960E+02 0.  0.
        254    2    1    2    0    0  0.11578930677E+03  0.81511213858E+03  0.73661215009E+03  0.14158550347E+04  0.88556934093E+03 0.  0.
         23    2    4    4    0    0 -0.30943399471E+03  0.42256714353E+03  0.82410998028E+02  0.53785819017E+03  0.90484652125E+02 0.  0.
         23    2    4    4    0    0  0.42522330148E+03  0.39254499505E+03  0.65420115206E+03  0.87799684452E+03  0.89402921553E+02 0.  0.
          2    1    3    3  502    0 -0.10749403989E+03 -0.78608199761E+03  0.87258029294E+03  0.11793541636E+04  0.00000000000E+00 0. -1.
         -1    1    3    3    0  502 -0.82952668796E+01 -0.29030140971E+02  0.14628192820E+02  0.33549136540E+02  0.00000000000E+00 0.  1.
         13    1    5    5    0    0 -0.18349867203E+03  0.31324883737E+03  0.36369363225E+02  0.36485521420E+03  0.00000000000E+00 0.  1.
        -13    1    5    5    0    0 -0.12593532268E+03  0.10931830617E+03  0.46041634803E+02  0.17300297598E+03  0.00000000000E+00 0. -1.
          1    1    6    6  503    0  0.41029680963E+03  0.39575164603E+03  0.64100479734E+03  0.85781698954E+03  0.00000000000E+00 0.  1.
         -1    1    6    6    0  503  0.14926491843E+02 -0.32066509821E+01  0.13196354716E+02  0.20179854981E+02  0.00000000000E+00 0. -1.
<mgrwt>
<rscale>  0 0.20672631E+04</rscale>
<asrwt>0</asrwt>
<pdfrwt beam="1">  1        2 0.77302901E-01 0.20672631E+04</pdfrwt>
<pdfrwt beam="2">  1       -1 0.32712145E+00 0.20672631E+04</pdfrwt>
<totfact> 0.14221896E+00</totfact>
</mgrwt>
</event>
<event>
12    7  0.1606355E-007  0.1688560E+04  0.7818608E-02  0.8767916E-01
         -1   -1    0    0    0  501 -0.00000000000E+00  0.00000000000E+00  0.41474709064E+03  0.41474709064E+03  0.00000000000E+00 0.  1.
          2   -1    0    0  501    0  0.00000000000E+00 -0.00000000000E+00 -0.17186585208E+04  0.17186585208E+04  0.00000000000E+00 0. -1.
         24    2    1    2    0    0  0.56260950833E+03  0.29101275638E+03 -0.64598943792E+03  0.90825352886E+03  0.80026467830E+02 0.  0.
        254    2    1    2    0    0 -0.56260950833E+03 -0.29101275638E+03 -0.65792199227E+03  0.12251520826E+04  0.81665071747E+03 0.  0.
         23    2    4    4    0    0 -0.31439635345E+03  0.11777458106E+03 -0.65109353273E+03  0.73818816941E+03  0.91011351375E+02 0.  0.
         23    2    4    4    0    0 -0.24821315487E+03 -0.40878733744E+03 -0.68284595427E+01  0.48696391319E+03  0.91489711912E+02 0.  0.
          4    1    3    3  502    0  0.39668924578E+03  0.16899580589E+03 -0.46392040813E+03  0.63335936498E+03  0.00000000000E+00 0. -1.
         -3    1    3    3    0  502  0.16592026255E+03  0.12201695048E+03 -0.18206902979E+03  0.27489416389E+03  0.00000000000E+00 0.  1.
         13    1    5    5    0    0 -0.30814878936E+03  0.12036189839E+03 -0.65222916597E+03  0.73133135302E+03  0.00000000000E+00 0. -1.
        -13    1    5    5    0    0 -0.62475640944E+01 -0.25873173247E+01  0.11356332440E+01  0.68568163835E+01  0.00000000000E+00 0.  1.
          2    1    6    6  503    0 -0.24230972385E+03 -0.36893553200E+03  0.13993739382E+02  0.44161437225E+03  0.00000000000E+00 0. -1.
         -2    1    6    6    0  503 -0.59034310290E+01 -0.39851805446E+02 -0.20822198925E+02  0.45349540938E+02  0.00000000000E+00 0.  1.
<mgrwt>
<rscale>  0 0.16885599E+04</rscale>
<asrwt>0</asrwt>
<pdfrwt beam="1">  1        2 0.26440901E+00 0.16885599E+04</pdfrwt>
<pdfrwt beam="2">  1       -1 0.63807244E-01 0.16885599E+04</pdfrwt>
<totfact> 0.25876092E+01</totfact>
</mgrwt>
</event>
<event>
12    7  0.1606355E-007  0.1601871E+04  0.7818608E-02  0.8819400E-01
         -1   -1    0    0    0  501 -0.00000000000E+00  0.00000000000E+00  0.16683538809E+03  0.16683538809E+03  0.00000000000E+00 0.  1.
          2   -1    0    0  501    0  0.00000000000E+00 -0.00000000000E+00 -0.38450921173E+04  0.38450921173E+04  0.00000000000E+00 0. -1.
         24    2    1    2    0    0 -0.10900046557E+03 -0.14758441116E+03 -0.25888447470E+04  0.25965729337E+04  0.80072565212E+02 0.  0.
        254    2    1    2    0    0  0.10900046557E+03  0.14758441116E+03 -0.10894119821E+04  0.14153545717E+04  0.88473037521E+03 0.  0.
         23    2    4    4    0    0 -0.28689740484E+03 -0.87273134907E+01 -0.75768687054E+02  0.31209439114E+03  0.96310581650E+02 0.  0.
         23    2    4    4    0    0  0.39589787042E+03  0.15631172465E+03 -0.10136432951E+04  0.11032601805E+04  0.92421952023E+02 0.  0.
          2    1    3    3  502    0 -0.55868494370E+02 -0.15993478906E+02 -0.80003063478E+03  0.80213845227E+03  0.00000000000E+00 0. -1.
         -1    1    3    3    0  502 -0.53131971202E+02 -0.13159093226E+03 -0.17888141123E+04  0.17944344814E+04  0.00000000000E+00 0.  1.
         13    1    5    5    0    0 -0.27135347176E+02  0.26992512557E+02 -0.22928874013E+02  0.44616768866E+02  0.00000000000E+00 0. -1.
        -13    1    5    5    0    0 -0.25976205767E+03 -0.35719826047E+02 -0.52839813040E+02  0.26747762228E+03  0.00000000000E+00 0.  1.
          2    1    6    6  503    0  0.69826534030E+02  0.14165829206E+02 -0.99751224722E+02  0.12258353236E+03  0.00000000000E+00 0. -1.
         -2    1    6    6    0  503  0.32607133639E+03  0.14214589545E+03 -0.91389207035E+03  0.98067664817E+03  0.00000000000E+00 0.  1.
<mgrwt>
<rscale>  0 0.16018707E+04</rscale>
<asrwt>0</asrwt>
<pdfrwt beam="1">  1        2 0.59155266E+00 0.16018707E+04</pdfrwt>
<pdfrwt beam="2">  1       -1 0.25666982E-01 0.16018707E+04</pdfrwt>
<totfact> 0.67443616E+00</totfact>
</mgrwt>
</event>
<event>
12    7  0.1606355E-007  0.1620129E+04  0.7818608E-02  0.8808277E-01
         -1   -1    0    0    0  501 -0.00000000000E+00  0.00000000000E+00  0.41851897738E+03  0.41851897738E+03  0.00000000000E+00 0.  1.
          2   -1    0    0  501    0  0.00000000000E+00 -0.00000000000E+00 -0.15679204654E+04  0.15679204654E+04  0.00000000000E+00 0. -1.
         24    2    1    2    0    0  0.22586199145E+03 -0.17427497665E+03 -0.99596932685E+03  0.10389992835E+04  0.78607916265E+02 0.  0.
        254    2    1    2    0    0 -0.22586199145E+03  0.17427497665E+03 -0.15343216116E+03  0.94744015924E+03  0.89034601172E+03 0.  0.
         23    2    4    4    0    0  0.75467477273E+02 -0.88397389754E+02 -0.42960189754E+03  0.45322423792E+03  0.85702863604E+02 0.  0.
         23    2    4    4    0    0 -0.30132946872E+03  0.26267236641E+03  0.27616973638E+03  0.49421592131E+03  0.90462328031E+02 0.  0.
          4    1    3    3  502    0  0.21676322618E+03 -0.18150523898E+03 -0.93035047037E+03  0.97235921640E+03  0.00000000000E+00 0. -1.
         -3    1    3    3    0  502  0.90987652732E+01  0.72302623214E+01 -0.65618856480E+02  0.66640067141E+02  0.00000000000E+00 0.  1.
         13    1    5    5    0    0  0.75000884591E+02 -0.77299703904E+02 -0.42876446732E+03  0.44208522408E+03  0.00000000000E+00 0.  1.
        -13    1    5    5    0    0  0.46659268162E+00 -0.11097685850E+02 -0.83743021606E+00  0.11139013840E+02  0.00000000000E+00 0. -1.
          4    1    6    6  503    0 -0.32323318000E+02  0.72848412408E+02  0.41086660476E+02  0.89664941566E+02  0.00000000000E+00 0. -1.
         -4    1    6    6    0  503 -0.26900615072E+03  0.18982395400E+03  0.23508307590E+03  0.40455097975E+03  0.00000000000E+00 0.  1.
<mgrwt>
<rscale>  0 0.16201290E+04</rscale>
<asrwt>0</asrwt>
<pdfrwt beam="1">  1        2 0.24121853E+00 0.16201290E+04</pdfrwt>
<pdfrwt beam="2">  1       -1 0.64387536E-01 0.16201290E+04</pdfrwt>
<totfact> 0.31014163E+01</totfact>
</mgrwt>
</event>
<event>
12    7  0.1606355E-007  0.1763116E+04  0.7818608E-02  0.8726164E-01
          2   -1    0    0  501    0  0.00000000000E+00  0.00000000000E+00  0.15077164231E+04  0.15077164231E+04  0.00000000000E+00 0. -1.
         -1   -1    0    0    0  501 -0.00000000000E+00 -0.00000000000E+00 -0.51544456012E+03  0.51544456012E+03  0.00000000000E+00 0.  1.
         24    2    1    2    0    0  0.52522032693E+03 -0.23404126312E+03  0.18436146854E+02  0.58085950315E+03  0.80163372115E+02 0.  0.
        254    2    1    2    0    0 -0.52522032693E+03  0.23404126312E+03  0.97383571609E+03  0.14423014800E+04  0.89512337290E+03 0.  0.
         23    2    4    4    0    0  0.20295217816E+03  0.19175576510E+03  0.45777693679E+03  0.54392500817E+03  0.91295293313E+02 0.  0.
         23    2    4    4    0    0 -0.72817250509E+03  0.42285498026E+02  0.51605877929E+03  0.89837647187E+03  0.93489897920E+02 0.  0.
          2    1    3    3  502    0  0.81034657982E+02 -0.51101441138E+02  0.29839035778E+02  0.10034112386E+03  0.00000000000E+00 0. -1.
         -1    1    3    3    0  502  0.44418566895E+03 -0.18293982199E+03 -0.11402888925E+02  0.48051837930E+03  0.00000000000E+00 0.  1.
         13    1    5    5    0    0  0.92923969614E+01 -0.58104870178E+01  0.25917030770E+01  0.11261763872E+02  0.00000000000E+00 0. -1.
        -13    1    5    5    0    0  0.19365978120E+03  0.19756625212E+03  0.45518523371E+03  0.53266324429E+03  0.00000000000E+00 0.  1.
          3    1    6    6  503    0 -0.25125184948E+03  0.52035785963E+02  0.15121698391E+03  0.29782845920E+03  0.00000000000E+00 0. -1.
         -3    1    6    6    0  503 -0.47692065561E+03 -0.97502879365E+01  0.36484179538E+03  0.60054801267E+03  0.00000000000E+00 0.  1.
<mgrwt>
<rscale>  0 0.17631157E+04</rscale>
<asrwt>0</asrwt>
<pdfrwt beam="1">  1        2 0.23195637E+00 0.17631157E+04</pdfrwt>
<pdfrwt beam="2">  1       -1 0.79299164E-01 0.17631157E+04</pdfrwt>
<totfact> 0.21549830E+01</totfact>
</mgrwt>
</event>
<event>
12    7  0.1606355E-007  0.1685460E+04  0.7818608E-02  0.8769701E-01
          2   -1    0    0  501    0  0.00000000000E+00  0.00000000000E+00  0.19750111708E+04  0.19750111708E+04  0.00000000000E+00 0. -1.
         -1   -1    0    0    0  501 -0.00000000000E+00 -0.00000000000E+00 -0.35958982332E+03  0.35958982332E+03  0.00000000000E+00 0.  1.
         24    2    1    2    0    0 -0.27118888647E+03 -0.10683271015E+03 -0.15027694709E+03  0.33607427067E+03  0.73526284214E+02 0.  0.
        254    2    1    2    0    0  0.27118888647E+03  0.10683271015E+03  0.17656982946E+04  0.19985267235E+04  0.88964147657E+03 0.  0.
         23    2    4    4    0    0  0.45459977588E+03  0.36095640039E+03  0.13390210955E+04  0.14623266559E+04  0.92039530070E+02 0.  0.
         23    2    4    4    0    0 -0.18341088941E+03 -0.25412369023E+03  0.42667719915E+03  0.53620006765E+03  0.85080408931E+02 0.  0.
          4    1    3    3  502    0 -0.48460723894E+02 -0.52274140394E+02 -0.36781539475E+02  0.80211652273E+02  0.00000000000E+00 0. -1.
         -3    1    3    3    0  502 -0.22272816258E+03 -0.54558569761E+02 -0.11349540762E+03  0.25586261839E+03  0.00000000000E+00 0.  1.
         13    1    5    5    0    0  0.20253269714E+03  0.20700469387E+03  0.59221409577E+03  0.65923286623E+03  0.00000000000E+00 0. -1.
        -13    1    5    5    0    0  0.25206707874E+03  0.15395170652E+03  0.74680699970E+03  0.80309378962E+03  0.00000000000E+00 0.  1.
          3    1    6    6  503    0 -0.29002357290E+02 -0.60512069218E+02  0.15324467500E+03  0.16729249136E+03  0.00000000000E+00 0. -1.
         -3    1    6    6    0  503 -0.15440853212E+03 -0.19361162101E+03  0.27343252415E+03  0.36890757629E+03  0.00000000000E+00 0.  1.
<mgrwt>
<rscale>  0 0.16854601E+04</rscale>
<asrwt>0</asrwt>
<pdfrwt beam="1">  1        2 0.30384787E+00 0.16854601E+04</pdfrwt>
<pdfrwt beam="2">  1       -1 0.55321513E-01 0.16854601E+04</pdfrwt>
<totfact> 0.24728853E+01</totfact>
</mgrwt>
</event>
<event>
12    7  0.1606355E-007  0.1098752E+04  0.7818608E-02  0.9206409E-01
          2   -1    0    0  501    0  0.00000000000E+00  0.00000000000E+00  0.10233964642E+04  0.10233964642E+04  0.00000000000E+00 0. -1.
         -1   -1    0    0    0  501 -0.00000000000E+00 -0.00000000000E+00 -0.29491397508E+03  0.29491397508E+03  0.00000000000E+00 0.  1.
         24    2    1    2    0    0  0.88339215986E+02  0.77743911883E+02  0.15915243263E+02  0.15973066754E+03  0.10683004385E+03 0.  0.
        254    2    1    2    0    0 -0.88339215986E+02 -0.77743911883E+02  0.71256724590E+03  0.11585797718E+04  0.90592884639E+03 0.  0.
         23    2    4    4    0    0  0.28454513085E+03  0.13780773489E+03  0.62997222102E+03  0.71040712733E+03  0.88636245506E+02 0.  0.
         23    2    4    4    0    0 -0.37288434683E+03 -0.21555164677E+03  0.82595024881E+02  0.44817264445E+03  0.92366295575E+02 0.  0.
          2    1    3    3  502    0 -0.71950283322E+01 -0.17187996308E+02 -0.12032987606E+02  0.22180812440E+02  0.00000000000E+00 0. -1.
         -1    1    3    3    0  502  0.95534244318E+02  0.94931908191E+02  0.27948230869E+02  0.13754985510E+03  0.00000000000E+00 0.  1.
         13    1    5    5    0    0  0.33092344318E+02  0.53004965980E+02  0.13597918781E+03  0.14964948776E+03  0.00000000000E+00 0. -1.
        -13    1    5    5    0    0  0.25145278653E+03  0.84802768910E+02  0.49399303321E+03  0.56075763956E+03  0.00000000000E+00 0.  1.
          4    1    6    6  503    0 -0.93715405508E+02 -0.11687385108E+02  0.10191462457E+02  0.94989673687E+02  0.00000000000E+00 0. -1.
         -4    1    6    6    0  503 -0.27916894132E+03 -0.20386426166E+03  0.72403562424E+02  0.35318297076E+03  0.00000000000E+00 0.  1.
<mgrwt>
<rscale>  0 0.10987519E+04</rscale>
<asrwt>0</asrwt>
<pdfrwt beam="1">  1        2 0.15744561E+00 0.10987519E+04</pdfrwt>
<pdfrwt beam="2">  1       -1 0.45371381E-01 0.10987519E+04</pdfrwt>
<totfact> 0.13281417E+02</totfact>
</mgrwt>
</event>
<event>
12    7  0.1606355E-007  0.1314697E+04  0.7818608E-02  0.9017991E-01
          2   -1    0    0  501    0  0.00000000000E+00  0.00000000000E+00  0.19112959517E+04  0.19112959517E+04  0.00000000000E+00 0. -1.
         -1   -1    0    0    0  501 -0.00000000000E+00 -0.00000000000E+00 -0.22608052017E+03  0.22608052017E+03  0.00000000000E+00 0.  1.
         24    2    1    2    0    0 -0.10437939530E+03 -0.12491450882E+02  0.94586404488E+03  0.95507316088E+03  0.80342122991E+02 0.  0.
        254    2    1    2    0    0  0.10437939530E+03  0.12491450882E+02  0.73935138667E+03  0.11823033110E+04  0.91659672252E+03 0.  0.
         23    2    4    4    0    0 -0.21893591938E+03 -0.35130424572E+03  0.28833236767E+03  0.51228333418E+03  0.89168662535E+02 0.  0.
         23    2    4    4    0    0  0.32331531468E+03  0.36379569661E+03  0.45101901900E+03  0.67001997683E+03  0.92889785598E+02 0.  0.
          2    1    3    3  502    0 -0.42909566737E+02 -0.26480150542E+02  0.67876797548E+03  0.68063822537E+03  0.00000000000E+00 0. -1.
         -1    1    3    3    0  502 -0.61469828567E+02  0.13988699660E+02  0.26709606940E+03  0.27443493551E+03  0.00000000000E+00 0.  1.
         13    1    5    5    0    0 -0.11220327758E+03 -0.25739416318E+03  0.20288272296E+03  0.34641410193E+03  0.00000000000E+00 0. -1.
        -13    1    5    5    0    0 -0.10673264179E+03 -0.93910082543E+02  0.85449644708E+02  0.16586923225E+03  0.00000000000E+00 0.  1.
          2    1    6    6  503    0  0.17042689182E+03  0.25615482774E+03  0.29924432100E+03  0.42919434395E+03  0.00000000000E+00 0. -1.
         -2    1    6    6    0  503  0.15288842286E+03  0.10764086886E+03  0.15177469800E+03  0.24082563287E+03  0.00000000000E+00 0.  1.
<mgrwt>
<rscale>  0 0.13146966E+04</rscale>
<asrwt>0</asrwt>
<pdfrwt beam="1">  1        2 0.29404552E+00 0.13146966E+04</pdfrwt>
<pdfrwt beam="2">  1       -1 0.34781620E-01 0.13146966E+04</pdfrwt>
<totfact> 0.65546886E+01</totfact>
</mgrwt>
</event>
<event>
12    7  0.1606355E-007  0.1242008E+04  0.7818608E-02  0.9076861E-01
         -1   -1    0    0    0  501 -0.00000000000E+00  0.00000000000E+00  0.45546203514E+03  0.45546203514E+03  0.00000000000E+00 0.  1.
          2   -1    0    0  501    0  0.00000000000E+00 -0.00000000000E+00 -0.84671346867E+03  0.84671346867E+03  0.00000000000E+00 0. -1.
         24    2    1    2    0    0 -0.14135103572E+03  0.18727607902E+03  0.76459779754E+02  0.25914198537E+03  0.79095041524E+02 0.  0.
        254    2    1    2    0    0  0.14135103572E+03 -0.18727607902E+03 -0.46771121328E+03  0.10430335184E+04  0.90228193846E+03 0.  0.
         23    2    4    4    0    0  0.39043567614E+03 -0.23575126193E+03  0.43199759678E+02  0.46537582307E+03  0.81790969916E+02 0.  0.
         23    2    4    4    0    0 -0.24908464042E+03  0.48475182914E+02 -0.51091097296E+03  0.57765769536E+03  0.90914186259E+02 0.  0.
          2    1    3    3  502    0  0.96073627828E+01  0.20565765084E+02  0.74678423096E+01  0.23896041135E+02  0.00000000000E+00 0. -1.
         -1    1    3    3    0  502 -0.15095839850E+03  0.16671031393E+03  0.68991937444E+02  0.23524594424E+03  0.00000000000E+00 0.  1.
         13    1    5    5    0    0  0.29735934732E+03 -0.21728331215E+03  0.28966040390E+02  0.36942340299E+03  0.00000000000E+00 0. -1.
        -13    1    5    5    0    0  0.93076328820E+02 -0.18467949779E+02  0.14233719288E+02  0.95952420086E+02  0.00000000000E+00 0.  1.
          1    1    6    6  503    0 -0.24229333064E+03  0.33738787259E+02 -0.50357559838E+03  0.55985064716E+03  0.00000000000E+00 0. -1.
         -1    1    6    6    0  503 -0.67913097830E+01  0.14736395655E+02 -0.73353745814E+01  0.17807048203E+02  0.00000000000E+00 0.  1.
<mgrwt>
<rscale>  0 0.12420078E+04</rscale>
<asrwt>0</asrwt>
<pdfrwt beam="1">  1        2 0.13026361E+00 0.12420078E+04</pdfrwt>
<pdfrwt beam="2">  1       -1 0.70071083E-01 0.12420078E+04</pdfrwt>
<totfact> 0.73808547E+01</totfact>
</mgrwt>
</event>
<event>
12    7  0.1606355E-007  0.1687946E+04  0.7818608E-02  0.8768269E-01
          2   -1    0    0  501    0  0.00000000000E+00  0.00000000000E+00  0.93177576583E+03  0.93177576583E+03  0.00000000000E+00 0. -1.
         -1   -1    0    0    0  501 -0.00000000000E+00 -0.00000000000E+00 -0.76444406366E+03  0.76444406366E+03  0.00000000000E+00 0.  1.
         24    2    1    2    0    0 -0.54651906188E+03  0.24680374846E+03  0.25809726504E+02  0.60546885950E+03  0.79568980111E+02 0.  0.
        254    2    1    2    0    0  0.54651906188E+03 -0.24680374846E+03  0.14152197567E+03  0.10907509700E+04  0.90006334982E+03 0.  0.
         23    2    4    4    0    0  0.78310221304E+03 -0.25034369662E+03  0.97282519243E+02  0.83320975713E+03  0.94093402096E+02 0.  0.
         23    2    4    4    0    0 -0.23658315117E+03  0.35399481667E+01  0.44239456425E+02  0.25754121285E+03  0.91576351563E+02 0.  0.
          4    1    3    3  502    0 -0.28909526283E+03  0.11903152593E+03  0.51811830124E+02  0.31690541317E+03  0.00000000000E+00 0. -1.
         -1    1    3    3    0  502 -0.25742379904E+03  0.12777222253E+03 -0.26002103621E+02  0.28856344633E+03  0.00000000000E+00 0.  1.
         13    1    5    5    0    0  0.27056631975E+02 -0.17093558889E+02  0.21119171222E+02  0.38344106228E+02  0.00000000000E+00 0.  1.
        -13    1    5    5    0    0  0.75604558107E+03 -0.23325013773E+03  0.76163348021E+02  0.79486565090E+03  0.00000000000E+00 0. -1.
          3    1    6    6  503    0 -0.14753628630E+03 -0.34516760076E+02  0.10888553478E+01  0.15152408425E+03  0.00000000000E+00 0. -1.
         -3    1    6    6    0  503 -0.89046864865E+02  0.38056708242E+02  0.43150601078E+02  0.10601712861E+03  0.00000000000E+00 0.  1.
<mgrwt>
<rscale>  0 0.16879460E+04</rscale>
<asrwt>0</asrwt>
<pdfrwt beam="1">  1        2 0.14335012E+00 0.16879460E+04</pdfrwt>
<pdfrwt beam="2">  1       -1 0.11760678E+00 0.16879460E+04</pdfrwt>
<totfact> 0.19733533E+01</totfact>
</mgrwt>
</event>
<event>
12    7  0.1606355E-007  0.1220119E+04  0.7818608E-02  0.9095426E-01
         -1   -1    0    0    0  501 -0.00000000000E+00  0.00000000000E+00  0.44591629886E+03  0.44591629886E+03  0.00000000000E+00 0.  1.
          2   -1    0    0  501    0  0.00000000000E+00 -0.00000000000E+00 -0.83462441963E+03  0.83462441963E+03  0.00000000000E+00 0. -1.
         24    2    1    2    0    0  0.16435727461E+03  0.19761139855E+03 -0.30855055385E+01  0.26881221808E+03  0.78656911265E+02 0.  0.
        254    2    1    2    0    0 -0.16435727461E+03 -0.19761139855E+03 -0.38562261524E+03  0.10117285004E+04  0.89934764057E+03 0.  0.
         23    2    4    4    0    0 -0.16214044850E+03  0.34126753769E+03 -0.14023460279E+03  0.41252376192E+03  0.88074133587E+02 0.  0.
         23    2    4    4    0    0 -0.22168261063E+01 -0.53887893624E+03 -0.24538801245E+03  0.59920473849E+03  0.91845629880E+02 0.  0.
          4    1    3    3  502    0  0.17069245126E+02  0.49700819015E+02  0.24999895236E+02  0.58193859657E+02  0.00000000000E+00 0. -1.
         -3    1    3    3    0  502  0.14728802948E+03  0.14791057954E+03 -0.28085400775E+02  0.21061835842E+03  0.00000000000E+00 0.  1.
         13    1    5    5    0    0 -0.66488988249E+02  0.84437425107E+02 -0.67599917036E+01  0.10768547630E+03  0.00000000000E+00 0.  1.
        -13    1    5    5    0    0 -0.95651460255E+02  0.25683011258E+03 -0.13347461109E+03  0.30483828562E+03  0.00000000000E+00 0. -1.
          4    1    6    6  503    0  0.11445564573E+02 -0.26334364449E+03 -0.16838830765E+03  0.31278666563E+03  0.00000000000E+00 0.  1.
         -4    1    6    6    0  503 -0.13662390679E+02 -0.27553529175E+03 -0.76999704793E+02  0.28641807286E+03  0.00000000000E+00 0. -1.
<mgrwt>
<rscale>  0 0.12201191E+04</rscale>
<asrwt>0</asrwt>
<pdfrwt beam="1">  1        2 0.12840376E+00 0.12201191E+04</pdfrwt>
<pdfrwt beam="2">  1       -1 0.68602508E-01 0.12201191E+04</pdfrwt>
<totfact> 0.78727343E+01</totfact>
</mgrwt>
</event>
<event>
12    7  0.1606355E-007  0.2798696E+04  0.7818608E-02  0.8303673E-01
          2   -1    0    0  501    0  0.00000000000E+00  0.00000000000E+00  0.10178091335E+04  0.10178091335E+04  0.00000000000E+00 0. -1.
         -1   -1    0    0    0  501 -0.00000000000E+00 -0.00000000000E+00 -0.19239119986E+04  0.19239119986E+04  0.00000000000E+00 0.  1.
         24    2    1    2    0    0 -0.14320741733E+03 -0.14103250073E+01  0.90413975118E+03  0.91897296146E+03  0.80822403051E+02 0.  0.
        254    2    1    2    0    0  0.14320741733E+03  0.14103250073E+01 -0.18102426163E+04  0.20227481706E+04  0.89107882838E+03 0.  0.
         23    2    4    4    0    0  0.50033157069E+03  0.65846891817E+02 -0.12288798924E+04  0.13312922526E+04  0.86751242073E+02 0.  0.
         23    2    4    4    0    0 -0.35712415337E+03 -0.64436566809E+02 -0.58136272388E+03  0.69145591802E+03  0.91863691306E+02 0.  0.
          2    1    3    3  502    0 -0.12284207297E+03  0.18111488937E+02  0.55621709395E+03  0.56990846328E+03  0.00000000000E+00 0. -1.
         -1    1    3    3    0  502 -0.20365344355E+02 -0.19521813944E+02  0.34792265723E+03  0.34906449817E+03  0.00000000000E+00 0.  1.
         13    1    5    5    0    0  0.94930183580E+02  0.30825855918E+02 -0.32639473128E+03  0.34131436207E+03  0.00000000000E+00 0. -1.
        -13    1    5    5    0    0  0.40540138711E+03  0.35021035898E+02 -0.90248516112E+03  0.98997789050E+03  0.00000000000E+00 0.  1.
          4    1    6    6  503    0 -0.28972125164E+02 -0.19533030729E+02 -0.10960494068E+03  0.11503984678E+03  0.00000000000E+00 0. -1.
         -4    1    6    6    0  503 -0.32815202820E+03 -0.44903536080E+02 -0.47175778320E+03  0.57641607123E+03  0.00000000000E+00 0.  1.
<mgrwt>
<rscale>  0 0.27986963E+04</rscale>
<asrwt>0</asrwt>
<pdfrwt beam="1">  1        2 0.15658602E+00 0.27986963E+04</pdfrwt>
<pdfrwt beam="2">  1       -1 0.29598646E+00 0.27986963E+04</pdfrwt>
<totfact> 0.85326268E-01</totfact>
</mgrwt>
</event>
<event>
12    7  0.1606355E-007  0.1769331E+04  0.7818608E-02  0.8722781E-01
          2   -1    0    0  501    0  0.00000000000E+00  0.00000000000E+00  0.19186213931E+04  0.19186213931E+04  0.00000000000E+00 0. -1.
         -1   -1    0    0    0  501 -0.00000000000E+00 -0.00000000000E+00 -0.40791437062E+03  0.40791437062E+03  0.00000000000E+00 0.  1.
         24    2    1    2    0    0  0.54759825315E+03 -0.30725001976E+03  0.32175506161E+03  0.71021715826E+03  0.81336773484E+02 0.  0.
        254    2    1    2    0    0 -0.54759825315E+03  0.30725001976E+03  0.11889519608E+04  0.16163186054E+04  0.89700203321E+03 0.  0.
         23    2    4    4    0    0 -0.32837659466E+03 -0.17594453190E+03  0.92128698015E+02  0.39488129803E+03  0.93036962064E+02 0.  0.
         23    2    4    4    0    0 -0.21922165849E+03  0.48319455166E+03  0.10968232628E+04  0.12214373074E+04  0.85747977962E+02 0.  0.
          4    1    3    3  502    0  0.35473155349E+03 -0.16260645805E+03  0.22501389976E+03  0.45045154049E+03  0.00000000000E+00 0. -1.
         -3    1    3    3    0  502  0.19286669966E+03 -0.14464356171E+03  0.96741161849E+02  0.25976561778E+03  0.00000000000E+00 0.  1.
         13    1    5    5    0    0 -0.14148424060E+02 -0.37375746937E+02  0.29849805364E+01  0.40075359903E+02  0.00000000000E+00 0.  1.
        -13    1    5    5    0    0 -0.31422817060E+03 -0.13856878496E+03  0.89143717479E+02  0.35480593813E+03  0.00000000000E+00 0. -1.
          3    1    6    6  503    0 -0.12149714729E+03  0.33002407828E+03  0.64897504525E+03  0.73813688324E+03  0.00000000000E+00 0. -1.
         -3    1    6    6    0  503 -0.97724511204E+02  0.15317047338E+03  0.44784821758E+03  0.48330042416E+03  0.00000000000E+00 0.  1.
<mgrwt>
<rscale>  0 0.17693312E+04</rscale>
<asrwt>0</asrwt>
<pdfrwt beam="1">  1        2 0.29517252E+00 0.17693312E+04</pdfrwt>
<pdfrwt beam="2">  1       -1 0.62756058E-01 0.17693312E+04</pdfrwt>
<totfact> 0.20582254E+01</totfact>
</mgrwt>
</event>
<event>
12    7  0.1606355E-007  0.1600865E+04  0.7818608E-02  0.8820017E-01
         -1   -1    0    0    0  501 -0.00000000000E+00  0.00000000000E+00  0.13225612285E+04  0.13225612285E+04  0.00000000000E+00 0.  1.
          2   -1    0    0  501    0  0.00000000000E+00 -0.00000000000E+00 -0.48443300672E+03  0.48443300672E+03  0.00000000000E+00 0. -1.
         24    2    1    2    0    0  0.91049536663E+01 -0.37987422342E+03  0.70555721685E+03  0.80541635668E+03  0.80605183189E+02 0.  0.
        254    2    1    2    0    0 -0.91049536663E+01  0.37987422342E+03  0.13257100495E+03  0.10015778786E+04  0.91716729644E+03 0.  0.
         23    2    4    4    0    0 -0.30242281554E+03  0.87942299451E+02 -0.26444703408E+03  0.42107904890E+03  0.90453989399E+02 0.  0.
         23    2    4    4    0    0  0.29331786187E+03  0.29193192397E+03  0.39701803903E+03  0.58049882966E+03  0.89977506061E+02 0.  0.
          4    1    3    3  502    0 -0.24768951738E+02 -0.48442823948E+02  0.81396604415E+02  0.97906155948E+02  0.00000000000E+00 0. -1.
         -3    1    3    3    0  502  0.33873905404E+02 -0.33143139947E+03  0.62416061244E+03  0.70751020073E+03  0.00000000000E+00 0.  1.
         13    1    5    5    0    0 -0.23944622916E+03  0.10628158388E+03 -0.20696471246E+03  0.33386324136E+03  0.00000000000E+00 0. -1.
        -13    1    5    5    0    0 -0.62976586378E+02 -0.18339284429E+02 -0.57482321617E+02  0.87215807533E+02  0.00000000000E+00 0.  1.
          4    1    6    6  503    0  0.29202066614E+03  0.29766422090E+03  0.39474212914E+03  0.57419631344E+03  0.00000000000E+00 0. -1.
         -4    1    6    6    0  503  0.12971957324E+01 -0.57322969265E+01  0.22759098845E+01  0.63025162137E+01  0.00000000000E+00 0.  1.
<mgrwt>
<rscale>  0 0.16008652E+04</rscale>
<asrwt>0</asrwt>
<pdfrwt beam="1">  1        2 0.74528155E-01 0.16008652E+04</pdfrwt>
<pdfrwt beam="2">  1       -1 0.20347096E+00 0.16008652E+04</pdfrwt>
<totfact> 0.99740249E+00</totfact>
</mgrwt>
</event>
<event>
12    7  0.1606355E-007  0.1817828E+04  0.7818608E-02  0.8696876E-01
          2   -1    0    0  501    0  0.00000000000E+00  0.00000000000E+00  0.25580978827E+04  0.25580978827E+04  0.00000000000E+00 0. -1.
         -1   -1    0    0    0  501 -0.00000000000E+00 -0.00000000000E+00 -0.32294478910E+03  0.32294478910E+03  0.00000000000E+00 0.  1.
         24    2    1    2    0    0 -0.12614983002E+02 -0.36556703327E+03 -0.65855593753E+02  0.38035127014E+03  0.80819155242E+02 0.  0.
        254    2    1    2    0    0  0.12614983002E+02  0.36556703327E+03  0.23010086874E+04  0.25006914017E+04  0.90830507731E+03 0.  0.
         23    2    4    4    0    0  0.37109296368E+03  0.43995417252E+03  0.16264636271E+04  0.17276759999E+04  0.90613291958E+02 0.  0.
         23    2    4    4    0    0 -0.35847798068E+03 -0.74387139243E+02  0.67454506026E+03  0.77301540179E+03  0.92205552779E+02 0.  0.
          2    1    3    3  502    0  0.60307608287E+01 -0.14565119004E+02  0.12628560232E+02  0.20198844059E+02  0.00000000000E+00 0. -1.
         -1    1    3    3    0  502 -0.18645743831E+02 -0.35100191427E+03 -0.78484153985E+02  0.36015242608E+03  0.00000000000E+00 0.  1.
         13    1    5    5    0    0  0.24627106408E+03  0.34858614702E+03  0.12403872422E+04  0.13117630310E+04  0.00000000000E+00 0. -1.
        -13    1    5    5    0    0  0.12482189960E+03  0.91368025496E+02  0.38607638494E+03  0.41591296891E+03  0.00000000000E+00 0.  1.
          4    1    6    6  503    0 -0.28806098884E+03 -0.95178964016E+02  0.52302165691E+03  0.60464024186E+03  0.00000000000E+00 0. -1.
         -4    1    6    6    0  503 -0.70416991840E+02  0.20791824773E+02  0.15152340335E+03  0.16837515993E+03  0.00000000000E+00 0.  1.
<mgrwt>
<rscale>  0 0.18178277E+04</rscale>
<asrwt>0</asrwt>
<pdfrwt beam="1">  1        2 0.39355351E+00 0.18178277E+04</pdfrwt>
<pdfrwt beam="2">  1       -1 0.49683815E-01 0.18178277E+04</pdfrwt>
<totfact> 0.14061282E+01</totfact>
</mgrwt>
</event>
<event>
12    7  0.2077415E-007  0.2801659E+04  0.7818608E-02  0.8302753E-01
         -1   -1    0    0    0  501 -0.00000000000E+00  0.00000000000E+00  0.10825390456E+04  0.10825390456E+04  0.00000000000E+00 0.  1.
          2   -1    0    0  501    0  0.00000000000E+00 -0.00000000000E+00 -0.18127044460E+04  0.18127044460E+04  0.00000000000E+00 0. -1.
         24    2    1    2    0    0 -0.43620464674E+03  0.96485174765E+03  0.37124436986E+03  0.11257018929E+04  0.90382413560E+02 0.  0.
        254    2    1    2    0    0  0.43620464674E+03 -0.96485174765E+03 -0.11014097703E+04  0.17695415987E+04  0.89272649722E+03 0.  0.
         23    2    4    4    0    0  0.41279677578E+03 -0.76793352113E+01 -0.36385487271E+03  0.55729149465E+03  0.87882258361E+02 0.  0.
         23    2    4    4    0    0  0.23407870961E+02 -0.95717241244E+03 -0.73755489756E+03  0.12122501041E+04  0.94000704194E+02 0.  0.
          4    1    3    3  502    0 -0.61517163209E+02  0.16722253796E+03  0.96406778706E+02  0.20258826608E+03  0.00000000000E+00 0. -1.
         -3    1    3    3    0  502 -0.37468748353E+03  0.79762920968E+03  0.27483759115E+03  0.92311362679E+03  0.00000000000E+00 0.  1.
         13    1    5    5    0    0  0.13638538635E+03 -0.93755768345E+01 -0.17698658831E+03  0.22363614979E+03  0.00000000000E+00 0. -1.
        -13    1    5    5    0    0  0.27641138943E+03  0.16962416232E+01 -0.18686828440E+03  0.33365534486E+03  0.00000000000E+00 0.  1.
          1    1    6    6  503    0  0.99021410846E+01 -0.25665218138E+02 -0.70731064650E+01  0.28403954921E+02  0.00000000000E+00 0. -1.
         -1    1    6    6    0  503  0.13505729877E+02 -0.93150719430E+03 -0.73048179110E+03  0.11838461492E+04  0.00000000000E+00 0.  1.
<mgrwt>
<rscale>  0 0.28016590E+04</rscale>
<asrwt>0</asrwt>
<pdfrwt beam="1">  1        2 0.27887761E+00 0.28016590E+04</pdfrwt>
<pdfrwt beam="2">  1       -1 0.16654447E+00 0.28016590E+04</pdfrwt>
<totfact> 0.21938832E+00</totfact>
</mgrwt>
</event>
<event>
12    7  0.1606355E-007  0.3292759E+04  0.7818608E-02  0.8164740E-01
          2   -1    0    0  501    0  0.00000000000E+00  0.00000000000E+00  0.33035750804E+04  0.33035750804E+04  0.00000000000E+00 0. -1.
         -1   -1    0    0    0  501 -0.00000000000E+00 -0.00000000000E+00 -0.82049477048E+03  0.82049477048E+03  0.00000000000E+00 0.  1.
         24    2    1    2    0    0  0.60921670605E+03  0.89218793085E+03  0.24909283745E+04  0.27161010218E+04  0.73049946535E+02 0.  0.
        254    2    1    2    0    0 -0.60921670605E+03 -0.89218793085E+03 -0.78480646637E+01  0.14079688290E+04  0.90286783780E+03 0.  0.
         23    2    4    4    0    0 -0.71683767753E+03 -0.31367548693E+03  0.12553109125E+03  0.79777506073E+03  0.91860903701E+02 0.  0.
         23    2    4    4    0    0  0.10762097148E+03 -0.57851244392E+03 -0.13337915592E+03  0.61019376831E+03  0.91035786216E+02 0.  0.
          2    1    3    3  502    0  0.45052742430E+03  0.61280668180E+03  0.18012284730E+04  0.19552317001E+04  0.00000000000E+00 0. -1.
         -1    1    3    3    0  502  0.15868928175E+03  0.27938124905E+03  0.68969990157E+03  0.76086932169E+03  0.00000000000E+00 0.  1.
         13    1    5    5    0    0 -0.14095421605E+03 -0.24546706062E+02  0.32304127871E+02  0.14667715732E+03  0.00000000000E+00 0. -1.
        -13    1    5    5    0    0 -0.57588346148E+03 -0.28912878087E+03  0.93226963382E+02  0.65109790341E+03  0.00000000000E+00 0.  1.
          3    1    6    6  503    0  0.87547334330E+02 -0.28100073384E+03 -0.96472449579E+02  0.30973033706E+03  0.00000000000E+00 0.  1.
         -3    1    6    6    0  503  0.20073637150E+02 -0.29751171008E+03 -0.36906706337E+02  0.30046343124E+03  0.00000000000E+00 0. -1.
<mgrwt>
<rscale>  0 0.32927594E+04</rscale>
<asrwt>0</asrwt>
<pdfrwt beam="1">  1        2 0.50824231E+00 0.32927594E+04</pdfrwt>
<pdfrwt beam="2">  1       -1 0.12622997E+00 0.32927594E+04</pdfrwt>
<totfact> 0.57342833E-01</totfact>
</mgrwt>
</event>
<event>
12    7  0.1606355E-007  0.1743760E+04  0.7818608E-02  0.8736792E-01
          2   -1    0    0  501    0  0.00000000000E+00  0.00000000000E+00  0.12084359963E+04  0.12084359963E+04  0.00000000000E+00 0. -1.
         -1   -1    0    0    0  501 -0.00000000000E+00 -0.00000000000E+00 -0.62905687966E+03  0.62905687966E+03  0.00000000000E+00 0.  1.
         24    2    1    2    0    0  0.21307620803E+03  0.59462275030E+03  0.21795718861E+03  0.67289365435E+03  0.79390480552E+02 0.  0.
        254    2    1    2    0    0 -0.21307620803E+03 -0.59462275030E+03  0.36142192799E+03  0.11645992216E+04  0.90922376302E+03 0.  0.
         23    2    4    4    0    0  0.23925754846E+03 -0.16167877432E+02  0.33834524068E+03  0.42426212245E+03  0.89528050876E+02 0.  0.
         23    2    4    4    0    0 -0.45233375649E+03 -0.57845487287E+03  0.23076687309E+02  0.74033709912E+03  0.91381724797E+02 0.  0.
          4    1    3    3  502    0  0.19520259217E+02  0.47748558985E+02 -0.40597875553E+01  0.51744055504E+02  0.00000000000E+00 0. -1.
         -3    1    3    3    0  502  0.19355594881E+03  0.54687419131E+03  0.22201697616E+03  0.62114959885E+03  0.00000000000E+00 0.  1.
         13    1    5    5    0    0  0.19957865564E+03 -0.13109212982E+02  0.21051000711E+03  0.29037554020E+03  0.00000000000E+00 0.  1.
        -13    1    5    5    0    0  0.39678892825E+02 -0.30586644504E+01  0.12783523357E+03  0.13388658225E+03  0.00000000000E+00 0. -1.
          4    1    6    6  503    0 -0.22380841274E+03 -0.35953502711E+03  0.11408154267E+02  0.42365762984E+03  0.00000000000E+00 0. -1.
         -4    1    6    6    0  503 -0.22852534375E+03 -0.21891984575E+03  0.11668533042E+02  0.31667946928E+03  0.00000000000E+00 0.  1.
<mgrwt>
<rscale>  0 0.17437603E+04</rscale>
<asrwt>0</asrwt>
<pdfrwt beam="1">  1        2 0.18591323E+00 0.17437603E+04</pdfrwt>
<pdfrwt beam="2">  1       -1 0.96777982E-01 0.17437603E+04</pdfrwt>
<totfact> 0.20790480E+01</totfact>
</mgrwt>
</event>
<event>
12    7  0.1606355E-007  0.3096726E+04  0.7818608E-02  0.8216637E-01
          2   -1    0    0  501    0  0.00000000000E+00  0.00000000000E+00  0.33895866243E+04  0.33895866243E+04  0.00000000000E+00 0. -1.
         -1   -1    0    0    0  501 -0.00000000000E+00 -0.00000000000E+00 -0.70729200683E+03  0.70729200683E+03  0.00000000000E+00 0.  1.
         24    2    1    2    0    0  0.31536724502E+03 -0.95689170559E+03  0.25467965141E+04  0.27399898782E+04  0.79207405550E+02 0.  0.
        254    2    1    2    0    0 -0.31536724502E+03  0.95689170559E+03  0.13549810340E+03  0.13568887529E+04  0.89871525876E+03 0.  0.
         23    2    4    4    0    0 -0.58454156164E+03  0.61150197895E+03 -0.90284707693E+02  0.85557802805E+03  0.90768530273E+02 0.  0.
         23    2    4    4    0    0  0.26917431662E+03  0.34538972663E+03  0.22578281109E+03  0.50131072487E+03  0.92658993595E+02 0.  0.
          2    1    3    3  502    0  0.26329206087E+03 -0.68629077482E+03  0.18533428004E+04  0.19937896762E+04  0.00000000000E+00 0. -1.
         -1    1    3    3    0  502  0.52075184150E+02 -0.27060093076E+03  0.69345371363E+03  0.74620020201E+03  0.00000000000E+00 0.  1.
         13    1    5    5    0    0 -0.14486843486E+03  0.10901643697E+03  0.34954245242E+01  0.18133853683E+03  0.00000000000E+00 0.  1.
        -13    1    5    5    0    0 -0.43967312679E+03  0.50248554199E+03 -0.93780132217E+02  0.67423949122E+03  0.00000000000E+00 0. -1.
          3    1    6    6  503    0  0.80210323119E+02  0.13378694150E+03  0.12619449792E+03  0.20064319813E+03  0.00000000000E+00 0. -1.
         -3    1    6    6    0  503  0.18896399351E+03  0.21160278513E+03  0.99588313176E+02  0.30066752674E+03  0.00000000000E+00 0.  1.
<mgrwt>
<rscale>  0 0.30967257E+04</rscale>
<asrwt>0</asrwt>
<pdfrwt beam="1">  1        2 0.52147485E+00 0.30967257E+04</pdfrwt>
<pdfrwt beam="2">  1       -1 0.10881416E+00 0.30967257E+04</pdfrwt>
<totfact> 0.73124515E-01</totfact>
</mgrwt>
</event>
<event>
12    7  0.1606355E-007  0.1526532E+04  0.7818608E-02  0.8866998E-01
          2   -1    0    0  501    0  0.00000000000E+00  0.00000000000E+00  0.98893815239E+03  0.98893815239E+03  0.00000000000E+00 0. -1.
         -1   -1    0    0    0  501 -0.00000000000E+00 -0.00000000000E+00 -0.58909166146E+03  0.58909166146E+03  0.00000000000E+00 0.  1.
         24    2    1    2    0    0 -0.30737975306E+03  0.37171213193E+03  0.42833362194E+02  0.49117923205E+03  0.82280735651E+02 0.  0.
        254    2    1    2    0    0  0.30737975306E+03 -0.37171213193E+03  0.35701312874E+03  0.10868505818E+04  0.90616421883E+03 0.  0.
         23    2    4    4    0    0 -0.23177717344E+03 -0.21086606235E+03 -0.11530883996E+03  0.34653948506E+03  0.92781095889E+02 0.  0.
         23    2    4    4    0    0  0.53915692651E+03 -0.16084606958E+03  0.47232196869E+03  0.74031109675E+03  0.91710568456E+02 0.  0.
          4    1    3    3  502    0 -0.28745410511E+02  0.63383166301E+02  0.28929956605E+02  0.75370198255E+02  0.00000000000E+00 0. -1.
         -3    1    3    3    0  502 -0.27863434255E+03  0.30832896563E+03  0.13903405589E+02  0.41580903379E+03  0.00000000000E+00 0.  1.
         13    1    5    5    0    0 -0.18125115106E+03 -0.16027596297E+03 -0.44688839580E+02  0.24604360681E+03  0.00000000000E+00 0. -1.
        -13    1    5    5    0    0 -0.50526022380E+02 -0.50590099375E+02 -0.70620000377E+02  0.10049587825E+03  0.00000000000E+00 0.  1.
          4    1    6    6  503    0  0.16474999226E+03 -0.65011927921E+02  0.98676617775E+02  0.20274660445E+03  0.00000000000E+00 0. -1.
         -4    1    6    6    0  503  0.37440693425E+03 -0.95834141662E+02  0.37364535092E+03  0.53756449230E+03  0.00000000000E+00 0.  1.
<mgrwt>
<rscale>  0 0.15265323E+04</rscale>
<asrwt>0</asrwt>
<pdfrwt beam="1">  1        2 0.15214433E+00 0.15265323E+04</pdfrwt>
<pdfrwt beam="2">  1       -1 0.90629486E-01 0.15265323E+04</pdfrwt>
<totfact> 0.33517093E+01</totfact>
</mgrwt>
</event>
<event>
12    7  0.1606355E-007  0.1236283E+04  0.7818608E-02  0.9081678E-01
          2   -1    0    0  501    0  0.00000000000E+00  0.00000000000E+00  0.17298699125E+04  0.17298699125E+04  0.00000000000E+00 0. -1.
         -1   -1    0    0    0  501 -0.00000000000E+00 -0.00000000000E+00 -0.22088304030E+03  0.22088304030E+03  0.00000000000E+00 0.  1.
         24    2    1    2    0    0  0.71361629088E+02  0.20204436084E+03  0.77658591558E+02  0.24809842150E+03  0.98018182267E+02 0.  0.
        254    2    1    2    0    0 -0.71361629088E+02 -0.20204436084E+03  0.14313282806E+04  0.17026545313E+04  0.89689319324E+03 0.  0.
         23    2    4    4    0    0 -0.36050912013E+03 -0.36468043129E+03  0.11324575476E+04  0.12469637190E+04  0.97466799238E+02 0.  0.
         23    2    4    4    0    0  0.28914749104E+03  0.16263607044E+03  0.29887073306E+03  0.45569081221E+03  0.90959541943E+02 0.  0.
          4    1    3    3  502    0 -0.55850556099E+01  0.13435689563E+01  0.26544500181E+02  0.27158949051E+02  0.00000000000E+00 0. -1.
         -1    1    3    3    0  502  0.76946684698E+02  0.20070079189E+03  0.51114091377E+02  0.22093947245E+03  0.00000000000E+00 0.  1.
         13    1    5    5    0    0 -0.97360903597E+01 -0.36017266279E+01  0.36704923152E+01  0.11010740394E+02  0.00000000000E+00 0.  1.
        -13    1    5    5    0    0 -0.35077302977E+03 -0.36107870466E+03  0.11287870552E+04  0.12359529787E+04  0.00000000000E+00 0. -1.
          3    1    6    6  503    0  0.37890421071E+02  0.41391631011E+02  0.15908227256E+02  0.58326861917E+02  0.00000000000E+00 0. -1.
         -3    1    6    6    0  503  0.25125706997E+03  0.12124443943E+03  0.28296250580E+03  0.39736395029E+03  0.00000000000E+00 0.  1.
<mgrwt>
<rscale>  0 0.12362830E+04</rscale>
<asrwt>0</asrwt>
<pdfrwt beam="1">  1        2 0.26613382E+00 0.12362830E+04</pdfrwt>
<pdfrwt beam="2">  1       -1 0.33982007E-01 0.12362830E+04</pdfrwt>
<totfact> 0.86597613E+01</totfact>
</mgrwt>
</event>
<event>
12    7  0.1606355E-007  0.1957570E+04  0.7818608E-02  0.8626719E-01
         -1   -1    0    0    0  501 -0.00000000000E+00  0.00000000000E+00  0.31896022756E+03  0.31896022756E+03  0.00000000000E+00 0.  1.
          2   -1    0    0  501    0  0.00000000000E+00 -0.00000000000E+00 -0.30035711413E+04  0.30035711413E+04  0.00000000000E+00 0. -1.
         24    2    1    2    0    0  0.26941498219E+03  0.16729461176E+03 -0.22638970668E+04  0.22874106816E+04  0.80285600281E+02 0.  0.
        254    2    1    2    0    0 -0.26941498219E+03 -0.16729461176E+03 -0.42071384694E+03  0.10351206872E+04  0.89101222011E+03 0.  0.
         23    2    4    4    0    0  0.34717974970E+02 -0.16105287909E+03 -0.62818349317E+03  0.65599033407E+03  0.92549714528E+02 0.  0.
         23    2    4    4    0    0 -0.30413295716E+03 -0.62417326726E+01  0.20746964623E+03  0.37913035316E+03  0.90334687279E+02 0.  0.
          4    1    3    3  502    0  0.25422093488E+03  0.13734502776E+03 -0.18836430640E+04  0.19056765552E+04  0.00000000000E+00 0. -1.
         -3    1    3    3    0  502  0.15194047308E+02  0.29949583999E+02 -0.38025400279E+03  0.38173412645E+03  0.00000000000E+00 0.  1.
         13    1    5    5    0    0 -0.17774343486E+01 -0.12634985276E+03 -0.53857079952E+03  0.55319612314E+03  0.00000000000E+00 0.  1.
        -13    1    5    5    0    0  0.36495409319E+02 -0.34703026331E+02 -0.89612693650E+02  0.10279421093E+03  0.00000000000E+00 0. -1.
          3    1    6    6  503    0 -0.65619347514E+02 -0.24986220000E+01  0.43259296781E+01  0.65809236036E+02  0.00000000000E+00 0. -1.
         -3    1    6    6    0  503 -0.23851360964E+03 -0.37431106727E+01  0.20314371655E+03  0.31332111712E+03  0.00000000000E+00 0.  1.
<mgrwt>
<rscale>  0 0.19575697E+04</rscale>
<asrwt>0</asrwt>
<pdfrwt beam="1">  1        2 0.46208785E+00 0.19575697E+04</pdfrwt>
<pdfrwt beam="2">  1       -1 0.49070806E-01 0.19575697E+04</pdfrwt>
<totfact> 0.76668451E+00</totfact>
</mgrwt>
</event>
<event>
12    7  0.1606355E-007  0.1795920E+04  0.7818608E-02  0.8708472E-01
         -1   -1    0    0    0  501 -0.00000000000E+00  0.00000000000E+00  0.46120707271E+03  0.46120707271E+03  0.00000000000E+00 0.  1.
          2   -1    0    0  501    0  0.00000000000E+00 -0.00000000000E+00 -0.17483088356E+04  0.17483088356E+04  0.00000000000E+00 0. -1.
         24    2    1    2    0    0 -0.31387504081E+03  0.57484024547E+03 -0.30256080492E+03  0.72591868578E+03  0.80349540335E+02 0.  0.
        254    2    1    2    0    0  0.31387504081E+03 -0.57484024547E+03 -0.98454095794E+03  0.14835972225E+04  0.89598045273E+03 0.  0.
         23    2    4    4    0    0 -0.19732409213E+03 -0.53554267435E+03 -0.62480625936E+03  0.85118372415E+03  0.91586664664E+02 0.  0.
         23    2    4    4    0    0  0.51119913294E+03 -0.39297571125E+02 -0.35973469858E+03  0.63241349834E+03  0.87572409527E+02 0.  0.
          4    1    3    3  502    0 -0.70979294856E+02  0.17510259321E+03 -0.55462490820E+02  0.19691385511E+03  0.00000000000E+00 0. -1.
         -3    1    3    3    0  502 -0.24289574596E+03  0.39973765226E+03 -0.24709831410E+03  0.52900483067E+03  0.00000000000E+00 0.  1.
         13    1    5    5    0    0 -0.63719290171E+02 -0.25237384457E+03 -0.33769248193E+03  0.42636711613E+03  0.00000000000E+00 0. -1.
        -13    1    5    5    0    0 -0.13360480195E+03 -0.28316882977E+03 -0.28711377743E+03  0.42481660802E+03  0.00000000000E+00 0.  1.
          2    1    6    6  503    0  0.17922833787E+03  0.27061380490E+02 -0.13632077042E+03  0.22680050233E+03  0.00000000000E+00 0. -1.
         -2    1    6    6    0  503  0.33197079507E+03 -0.66358951615E+02 -0.22341392816E+03  0.40561299601E+03  0.00000000000E+00 0.  1.
<mgrwt>
<rscale>  0 0.17959203E+04</rscale>
<asrwt>0</asrwt>
<pdfrwt beam="1">  1        2 0.26897060E+00 0.17959203E+04</pdfrwt>
<pdfrwt beam="2">  1       -1 0.70954933E-01 0.17959203E+04</pdfrwt>
<totfact> 0.19895010E+01</totfact>
</mgrwt>
</event>
<event>
12    7  0.1606355E-007  0.1377441E+04  0.7818608E-02  0.8970312E-01
         -1   -1    0    0    0  501 -0.00000000000E+00  0.00000000000E+00  0.57125635499E+03  0.57125635499E+03  0.00000000000E+00 0.  1.
          2   -1    0    0  501    0  0.00000000000E+00 -0.00000000000E+00 -0.83033779507E+03  0.83033779507E+03  0.00000000000E+00 0. -1.
         24    2    1    2    0    0  0.17725891223E+03  0.31316076361E+03  0.49527666406E+02  0.37207706399E+03  0.80609962059E+02 0.  0.
        254    2    1    2    0    0 -0.17725891223E+03 -0.31316076361E+03 -0.30860910649E+03  0.10295170861E+04  0.91387934875E+03 0.  0.
         23    2    4    4    0    0 -0.32810912659E+03 -0.50940882344E+03 -0.41981149981E+03  0.74270848113E+03  0.90671077105E+02 0.  0.
         23    2    4    4    0    0  0.15085021437E+03  0.19624805983E+03  0.11120239332E+03  0.28680860494E+03  0.92866115597E+02 0.  0.
          4    1    3    3  502    0  0.90009110865E+02  0.17447733497E+03 -0.12879012658E+02  0.19674818785E+03  0.00000000000E+00 0. -1.
         -3    1    3    3    0  502  0.87249801361E+02  0.13868342864E+03  0.62406679064E+02  0.17532887614E+03  0.00000000000E+00 0.  1.
         13    1    5    5    0    0 -0.26916962662E+03 -0.47009103538E+03 -0.36631818583E+03  0.65393186396E+03  0.00000000000E+00 0.  1.
        -13    1    5    5    0    0 -0.58939499979E+02 -0.39317788059E+02 -0.53493313983E+02  0.88776617172E+02  0.00000000000E+00 0. -1.
          4    1    6    6  503    0 -0.93101630022E+01  0.10642850351E+02 -0.56528971708E+01  0.15228415713E+02  0.00000000000E+00 0. -1.
         -4    1    6    6    0  503  0.16016037737E+03  0.18560520948E+03  0.11685529049E+03  0.27158018923E+03  0.00000000000E+00 0.  1.
<mgrwt>
<rscale>  0 0.13774407E+04</rscale>
<asrwt>0</asrwt>
<pdfrwt beam="1">  1        2 0.12774428E+00 0.13774407E+04</pdfrwt>
<pdfrwt beam="2">  1       -1 0.87885593E-01 0.13774407E+04</pdfrwt>
<totfact> 0.46434108E+01</totfact>
</mgrwt>
</event>
<event>
12    7  0.1606355E-007  0.1634145E+04  0.7818608E-02  0.8799842E-01
          2   -1    0    0  501    0  0.00000000000E+00  0.00000000000E+00  0.99479954839E+03  0.99479954839E+03  0.00000000000E+00 0. -1.
         -1   -1    0    0    0  501 -0.00000000000E+00 -0.00000000000E+00 -0.67109712748E+03  0.67109712748E+03  0.00000000000E+00 0.  1.
         24    2    1    2    0    0 -0.43391532976E+03  0.33404069574E+03 -0.50523806227E+02  0.55564093925E+03  0.79488983925E+02 0.  0.
        254    2    1    2    0    0  0.43391532976E+03 -0.33404069574E+03  0.37422622713E+03  0.11102557366E+04  0.89036893016E+03 0.  0.
         23    2    4    4    0    0  0.75142485440E+02 -0.44904337713E+03  0.51888054467E+03  0.69679324367E+03  0.94854926706E+02 0.  0.
         23    2    4    4    0    0  0.35877284432E+03  0.11500268139E+03 -0.14465431754E+03  0.41346249294E+03  0.89904343275E+02 0.  0.
          2    1    3    3  502    0 -0.20645554752E+03  0.19503997271E+03 -0.53729216707E+02  0.28905243951E+03  0.00000000000E+00 0. -1.
         -1    1    3    3    0  502 -0.22745978224E+03  0.13900072303E+03  0.32054104804E+01  0.26658849974E+03  0.00000000000E+00 0.  1.
         13    1    5    5    0    0  0.95269001094E+02 -0.30263563390E+03  0.35491151706E+03  0.47605324746E+03  0.00000000000E+00 0. -1.
        -13    1    5    5    0    0 -0.20126515654E+02 -0.14640774323E+03  0.16396902761E+03  0.22073999621E+03  0.00000000000E+00 0.  1.
          4    1    6    6  503    0  0.68476349045E+01  0.13584323701E+02 -0.22929367687E+02  0.27516901292E+02  0.00000000000E+00 0. -1.
         -4    1    6    6    0  503  0.35192520941E+03  0.10141835769E+03 -0.12172494985E+03  0.38594559165E+03  0.00000000000E+00 0.  1.
<mgrwt>
<rscale>  0 0.16341446E+04</rscale>
<asrwt>0</asrwt>
<pdfrwt beam="1">  1        2 0.15304608E+00 0.16341446E+04</pdfrwt>
<pdfrwt beam="2">  1       -1 0.10324571E+00 0.16341446E+04</pdfrwt>
<totfact> 0.24529941E+01</totfact>
</mgrwt>
</event>
<event>
12    7  0.1606355E-007  0.3169459E+04  0.7818608E-02  0.8196930E-01
         -1   -1    0    0    0  501 -0.00000000000E+00  0.00000000000E+00  0.20633702507E+04  0.20633702507E+04  0.00000000000E+00 0.  1.
          2   -1    0    0  501    0  0.00000000000E+00 -0.00000000000E+00 -0.12171192120E+04  0.12171192120E+04  0.00000000000E+00 0. -1.
         24    2    1    2    0    0  0.77835303453E+03 -0.71283892547E+03 -0.64989854489E+03  0.12415965413E+04  0.72256989860E+02 0.  0.
        254    2    1    2    0    0 -0.77835303453E+03  0.71283892547E+03  0.14961495836E+04  0.20388929215E+04  0.89702173265E+03 0.  0.
         23    2    4    4    0    0 -0.15486331231E+03  0.35923208562E+03  0.11863017753E+04  0.12525067273E+04  0.91819731968E+02 0.  0.
         23    2    4    4    0    0 -0.62348972221E+03  0.35360683985E+03  0.30984780833E+03  0.78638619417E+03  0.92845846235E+02 0.  0.
          2    1    3    3  502    0  0.47229260414E+03 -0.38847445954E+03 -0.39307938834E+03  0.72696912945E+03  0.00000000000E+00 0. -1.
         -1    1    3    3    0  502  0.30606043039E+03 -0.32436446593E+03 -0.25681915656E+03  0.51462741180E+03  0.00000000000E+00 0.  1.
         13    1    5    5    0    0 -0.22115851045E+02  0.33127731996E+02  0.56607688313E+02  0.69216962305E+02  0.00000000000E+00 0.  1.
        -13    1    5    5    0    0 -0.13274746127E+03  0.32610435362E+03  0.11296940869E+04  0.11832897650E+04  0.00000000000E+00 0. -1.
          3    1    6    6  503    0 -0.58674845933E+03  0.35350097213E+03  0.30291939911E+03  0.74899723242E+03  0.00000000000E+00 0. -1.
         -3    1    6    6    0  503 -0.36741262881E+02  0.10586771908E+00  0.69284092214E+01  0.37388961745E+02  0.00000000000E+00 0.  1.
<mgrwt>
<rscale>  0 0.31694590E+04</rscale>
<asrwt>0</asrwt>
<pdfrwt beam="1">  1        2 0.18724911E+00 0.31694590E+04</pdfrwt>
<pdfrwt beam="2">  1       -1 0.31744158E+00 0.31694590E+04</pdfrwt>
<totfact> 0.45239725E-01</totfact>
</mgrwt>
</event>
<event>
12    7  0.1606355E-007  0.1246301E+04  0.7818608E-02  0.9073267E-01
          2   -1    0    0  501    0  0.00000000000E+00  0.00000000000E+00  0.11681095857E+04  0.11681095857E+04  0.00000000000E+00 0. -1.
         -1   -1    0    0    0  501 -0.00000000000E+00 -0.00000000000E+00 -0.33243173420E+03  0.33243173420E+03  0.00000000000E+00 0.  1.
         24    2    1    2    0    0 -0.20541832174E+03 -0.14728302680E+03  0.27305844640E+02  0.26655148905E+03  0.80094383538E+02 0.  0.
        254    2    1    2    0    0  0.20541832174E+03  0.14728302680E+03  0.80837200687E+03  0.12339898309E+04  0.89742778221E+03 0.  0.
         23    2    4    4    0    0 -0.31930025518E+03  0.14984787214E+03  0.49808796007E+03  0.61738893418E+03  0.93115210020E+02 0.  0.
         23    2    4    4    0    0  0.52471857692E+03 -0.25648453404E+01  0.31028404680E+03  0.61660089667E+03  0.92651566008E+02 0.  0.
          2    1    3    3  502    0 -0.10506382970E+02 -0.23842672973E+02 -0.17689436331E+02  0.31492432350E+02  0.00000000000E+00 0. -1.
         -1    1    3    3    0  502 -0.19491193877E+03 -0.12344035383E+03  0.44995280971E+02  0.23505905670E+03  0.00000000000E+00 0.  1.
         13    1    5    5    0    0 -0.16685606667E+03  0.12444349396E+03  0.31814275839E+03  0.38018672372E+03  0.00000000000E+00 0.  1.
        -13    1    5    5    0    0 -0.15244418851E+03  0.25404378184E+02  0.17994520168E+03  0.23720221046E+03  0.00000000000E+00 0. -1.
          3    1    6    6  503    0  0.32669575207E+02  0.21529620900E+02  0.33652253088E+02  0.51607168671E+02  0.00000000000E+00 0. -1.
         -3    1    6    6    0  503  0.49204900171E+03 -0.24094466241E+02  0.27663179371E+03  0.56499372800E+03  0.00000000000E+00 0.  1.
<mgrwt>
<rscale>  0 0.12463012E+04</rscale>
<asrwt>0</asrwt>
<pdfrwt beam="1">  1        2 0.17970917E+00 0.12463012E+04</pdfrwt>
<pdfrwt beam="2">  1       -1 0.51143344E-01 0.12463012E+04</pdfrwt>
<totfact> 0.85332457E+01</totfact>
</mgrwt>
</event>
<event>
12    7  0.1606355E-007  0.2428828E+04  0.7818608E-02  0.8428789E-01
         -1   -1    0    0    0  501 -0.00000000000E+00  0.00000000000E+00  0.13347260286E+04  0.13347260286E+04  0.00000000000E+00 0.  1.
          2   -1    0    0  501    0  0.00000000000E+00 -0.00000000000E+00 -0.11049473280E+04  0.11049473280E+04  0.00000000000E+00 0. -1.
         24    2    1    2    0    0 -0.55318794049E+03  0.43671024377E+03 -0.67728762652E+03  0.98078625205E+03  0.80563072583E+02 0.  0.
        254    2    1    2    0    0  0.55318794049E+03 -0.43671024377E+03  0.90706632712E+03  0.14588871046E+04  0.89936062151E+03 0.  0.
         23    2    4    4    0    0  0.57962036921E+03 -0.47004190811E+03  0.24931262994E+03  0.79212401292E+03  0.91676041645E+02 0.  0.
         23    2    4    4    0    0 -0.26432428721E+02  0.33331664339E+02  0.65775369718E+03  0.66676309164E+03  0.10061521295E+03 0.  0.
          4    1    3    3  502    0 -0.50303897649E+03  0.41429096029E+03 -0.59899030359E+03  0.88514100314E+03  0.00000000000E+00 0. -1.
         -3    1    3    3    0  502 -0.50148963998E+02  0.22419283488E+02 -0.78297322930E+02  0.95645248916E+02  0.00000000000E+00 0.  1.
         13    1    5    5    0    0  0.19785101252E+02 -0.43611945867E+02  0.20752518849E+02  0.52193094298E+02  0.00000000000E+00 0. -1.
        -13    1    5    5    0    0  0.55983526795E+03 -0.42642996225E+03  0.22856011109E+03  0.73993091862E+03  0.00000000000E+00 0.  1.
          3    1    6    6  503    0  0.34964198889E+02 -0.69547491430E+01  0.23197308386E+03  0.23469634717E+03  0.00000000000E+00 0. -1.
         -3    1    6    6    0  503 -0.61396627610E+02  0.40286413482E+02  0.42578061333E+03  0.43206674447E+03  0.00000000000E+00 0.  1.
<mgrwt>
<rscale>  0 0.24288285E+04</rscale>
<asrwt>0</asrwt>
<pdfrwt beam="1">  1        2 0.16999190E+00 0.24288285E+04</pdfrwt>
<pdfrwt beam="2">  1       -1 0.20534246E+00 0.24288285E+04</pdfrwt>
<totfact> 0.30598044E+00</totfact>
</mgrwt>
</event>
<event>
12    7  0.1606355E-007  0.1211701E+04  0.7818608E-02  0.9102676E-01
         -1   -1    0    0    0  501 -0.00000000000E+00  0.00000000000E+00  0.31832295088E+03  0.31832295088E+03  0.00000000000E+00 0.  1.
          2   -1    0    0  501    0  0.00000000000E+00 -0.00000000000E+00 -0.11530892169E+04  0.11530892169E+04  0.00000000000E+00 0. -1.
         24    2    1    2    0    0  0.20454642950E+03  0.13005780964E+03 -0.12086319489E+03  0.28218241363E+03  0.79150028504E+02 0.  0.
        254    2    1    2    0    0 -0.20454642950E+03 -0.13005780964E+03 -0.71390307114E+03  0.11892297542E+04  0.91970404888E+03 0.  0.
         23    2    4    4    0    0 -0.28712636656E+03  0.17176792058E+03 -0.78192964132E+03  0.85523340609E+03  0.89802260558E+02 0.  0.
         23    2    4    4    0    0  0.82579937060E+02 -0.30182573022E+03  0.68026570186E+02  0.33399634807E+03  0.94909055657E+02 0.  0.
          2    1    3    3  502    0  0.19049142603E+03  0.11107325117E+03 -0.79222278804E+02  0.23430838648E+03  0.00000000000E+00 0. -1.
         -1    1    3    3    0  502  0.14055003469E+02  0.18984558471E+02 -0.41640916083E+02  0.47874027145E+02  0.00000000000E+00 0.  1.
         13    1    5    5    0    0 -0.94404341269E+01  0.23116782868E+02 -0.24760080332E+02  0.35164883403E+02  0.00000000000E+00 0. -1.
        -13    1    5    5    0    0 -0.27768593244E+03  0.14865113771E+03 -0.75716956099E+03  0.82006852269E+03  0.00000000000E+00 0.  1.
          2    1    6    6  503    0  0.18007588256E+02 -0.12591461501E+03 -0.16804249646E+02  0.12830099888E+03  0.00000000000E+00 0. -1.
         -2    1    6    6    0  503  0.64572348804E+02 -0.17591111521E+03  0.84830819832E+02  0.20569534918E+03  0.00000000000E+00 0.  1.
<mgrwt>
<rscale>  0 0.12117009E+04</rscale>
<asrwt>0</asrwt>
<pdfrwt beam="1">  1        2 0.17739834E+00 0.12117009E+04</pdfrwt>
<pdfrwt beam="2">  1       -1 0.48972762E-01 0.12117009E+04</pdfrwt>
<totfact> 0.94861210E+01</totfact>
</mgrwt>
</event>
<event>
12    7  0.1606355E-007  0.2315698E+04  0.7818608E-02  0.8471757E-01
          2   -1    0    0  501    0  0.00000000000E+00  0.00000000000E+00  0.32250210830E+04  0.32250210830E+04  0.00000000000E+00 0. -1.
         -1   -1    0    0    0  501 -0.00000000000E+00 -0.00000000000E+00 -0.41569162218E+03  0.41569162218E+03  0.00000000000E+00 0.  1.
         24    2    1    2    0    0 -0.50523288203E+03 -0.71066329318E+03  0.47578810160E+03  0.99652871990E+03  0.79953677907E+02 0.  0.
        254    2    1    2    0    0  0.50523288203E+03  0.71066329318E+03  0.23335413592E+04  0.26441839853E+04  0.88656138614E+03 0.  0.
         23    2    4    4    0    0 -0.94030932828E+02 -0.95010892331E+02  0.74813558288E+03  0.76534070275E+03  0.90391675097E+02 0.  0.
         23    2    4    4    0    0  0.59926381486E+03  0.80567418551E+03  0.15854057763E+04  0.18788432825E+04  0.91173415051E+02 0.  0.
          2    1    3    3  502    0 -0.31039930454E+02 -0.58149563721E+02  0.15101304340E+02  0.67623209302E+02  0.00000000000E+00 0. -1.
         -1    1    3    3    0  502 -0.47419295157E+03 -0.65251372946E+03  0.46068679726E+03  0.92890551060E+03  0.00000000000E+00 0.  1.
         13    1    5    5    0    0 -0.64004605641E+02 -0.66495392886E+02  0.26847868705E+03  0.28389968690E+03  0.00000000000E+00 0.  1.
        -13    1    5    5    0    0 -0.30026327188E+02 -0.28515499444E+02  0.47965689583E+03  0.48144101585E+03  0.00000000000E+00 0. -1.
          4    1    6    6  503    0  0.37726992384E+03  0.45418591334E+03  0.87045241178E+03  0.10518102683E+04  0.00000000000E+00 0. -1.
         -4    1    6    6    0  503  0.22199389101E+03  0.35148827217E+03  0.71495336456E+03  0.82703301422E+03  0.00000000000E+00 0.  1.
<mgrwt>
<rscale>  0 0.23156979E+04</rscale>
<asrwt>0</asrwt>
<pdfrwt beam="1">  1        2 0.49615707E+00 0.23156979E+04</pdfrwt>
<pdfrwt beam="2">  1       -1 0.63952559E-01 0.23156979E+04</pdfrwt>
<totfact> 0.31940439E+00</totfact>
</mgrwt>
</event>
<event>
12    7  0.1606355E-007  0.2215550E+04  0.7818608E-02  0.8511984E-01
         -1   -1    0    0    0  501 -0.00000000000E+00  0.00000000000E+00  0.34093500269E+03  0.34093500269E+03  0.00000000000E+00 0.  1.
          2   -1    0    0  501    0  0.00000000000E+00 -0.00000000000E+00 -0.35994102756E+04  0.35994102756E+04  0.00000000000E+00 0. -1.
         24    2    1    2    0    0  0.27131320568E+03 -0.58928098904E+03 -0.24995986993E+04  0.25836397816E+04  0.79611079064E+02 0.  0.
        254    2    1    2    0    0 -0.27131320568E+03  0.58928098904E+03 -0.75887657356E+03  0.13567054966E+04  0.91863660450E+03 0.  0.
         23    2    4    4    0    0 -0.31665589540E+03  0.50117615143E+03 -0.14084755038E+02  0.59991730350E+03  0.90850976116E+02 0.  0.
         23    2    4    4    0    0  0.45342689725E+02  0.88104837606E+02 -0.74479181852E+03  0.75678819315E+03  0.90526760852E+02 0.  0.
          2    1    3    3  502    0  0.21164269740E+03 -0.44369788330E+03 -0.20169632457E+04  0.20760060640E+04  0.00000000000E+00 0. -1.
         -1    1    3    3    0  502  0.59670508280E+02 -0.14558310574E+03 -0.48263545357E+03  0.50763371763E+03  0.00000000000E+00 0.  1.
         13    1    5    5    0    0 -0.99765392376E+02  0.15212921191E+03  0.37496906313E+02  0.18574834754E+03  0.00000000000E+00 0.  1.
        -13    1    5    5    0    0 -0.21689050303E+03  0.34904693952E+03 -0.51581661351E+02  0.41416895596E+03  0.00000000000E+00 0. -1.
          1    1    6    6  503    0  0.50492480401E+02  0.11219041605E+02 -0.20029723196E+03  0.20686792551E+03  0.00000000000E+00 0. -1.
         -1    1    6    6    0  503 -0.51497906754E+01  0.76885796001E+02 -0.54449458655E+03  0.54992026764E+03  0.00000000000E+00 0.  1.
<mgrwt>
<rscale>  0 0.22155495E+04</rscale>
<asrwt>0</asrwt>
<pdfrwt beam="1">  1        2 0.55375543E+00 0.22155495E+04</pdfrwt>
<pdfrwt beam="2">  1       -1 0.52451538E-01 0.22155495E+04</pdfrwt>
<totfact> 0.26391727E+00</totfact>
</mgrwt>
</event>
<event>
12    7  0.1606355E-007  0.1475554E+04  0.7818608E-02  0.8900874E-01
         -1   -1    0    0    0  501 -0.00000000000E+00  0.00000000000E+00  0.15123876640E+03  0.15123876640E+03  0.00000000000E+00 0.  1.
          2   -1    0    0  501    0  0.00000000000E+00 -0.00000000000E+00 -0.35990445622E+04  0.35990445622E+04  0.00000000000E+00 0. -1.
         24    2    1    2    0    0 -0.10360624541E+03  0.12731138642E+02 -0.22209228046E+04  0.22247541559E+04  0.78336544876E+02 0.  0.
        254    2    1    2    0    0  0.10360624541E+03 -0.12731138642E+02 -0.12268829912E+04  0.15255291727E+04  0.90061148485E+03 0.  0.
         23    2    4    4    0    0 -0.24464062296E+03  0.31987986339E+03 -0.48970627082E+03  0.64020463039E+03  0.88755707896E+02 0.  0.
         23    2    4    4    0    0  0.34824686836E+03 -0.33261100203E+03 -0.73717672039E+03  0.88532454231E+03  0.92000370257E+02 0.  0.
          4    1    3    3  502    0 -0.11276483632E+03  0.21359083389E+02 -0.18076000992E+04  0.18112399723E+04  0.00000000000E+00 0. -1.
         -3    1    3    3    0  502  0.91585909158E+01 -0.86279447469E+01 -0.41332270538E+03  0.41351418355E+03  0.00000000000E+00 0.  1.
         13    1    5    5    0    0 -0.16428939226E+03  0.16841715254E+03 -0.23011708956E+03  0.32910365629E+03  0.00000000000E+00 0. -1.
        -13    1    5    5    0    0 -0.80351230695E+02  0.15146271085E+03 -0.25958918127E+03  0.31110097410E+03  0.00000000000E+00 0.  1.
          4    1    6    6  503    0  0.22824962705E+03 -0.16133936379E+03 -0.45708815799E+03  0.53577781471E+03  0.00000000000E+00 0. -1.
         -4    1    6    6    0  503  0.11999724131E+03 -0.17127163824E+03 -0.28008856240E+03  0.34954672760E+03  0.00000000000E+00 0.  1.
<mgrwt>
<rscale>  0 0.14755542E+04</rscale>
<asrwt>0</asrwt>
<pdfrwt beam="1">  1        2 0.55369918E+00 0.14755542E+04</pdfrwt>
<pdfrwt beam="2">  1       -1 0.23267502E-01 0.14755542E+04</pdfrwt>
<totfact> 0.12274547E+01</totfact>
</mgrwt>
</event>
<event>
12    7  0.1606355E-007  0.2029728E+04  0.7818608E-02  0.8592846E-01
          2   -1    0    0  501    0  0.00000000000E+00  0.00000000000E+00  0.17433762766E+04  0.17433762766E+04  0.00000000000E+00 0. -1.
         -1   -1    0    0    0  501 -0.00000000000E+00 -0.00000000000E+00 -0.59077852364E+03  0.59077852364E+03  0.00000000000E+00 0.  1.
         24    2    1    2    0    0  0.78351752554E+03  0.13729183745E+03  0.27517919210E+03  0.84554730794E+03  0.80485407005E+02 0.  0.
        254    2    1    2    0    0 -0.78351752554E+03 -0.13729183745E+03  0.87741856087E+03  0.14886074923E+04  0.90185374298E+03 0.  0.
         23    2    4    4    0    0 -0.85563668057E+03  0.15843426068E+03  0.72437559193E+03  0.11358045879E+04  0.90091728894E+02 0.  0.
         23    2    4    4    0    0  0.72119155031E+02 -0.29572609813E+03  0.15304296894E+03  0.35280290441E+03  0.91611360537E+02 0.  0.
          2    1    3    3  502    0  0.33242387102E+02  0.14970361031E+02  0.28721893559E+02  0.46412446383E+02  0.00000000000E+00 0. -1.
         -1    1    3    3    0  502  0.75027513844E+03  0.12232147642E+03  0.24645729854E+03  0.79913486156E+03  0.00000000000E+00 0.  1.
         13    1    5    5    0    0 -0.75442649963E+03  0.16320344917E+03  0.61701164672E+03  0.98817917472E+03  0.00000000000E+00 0.  1.
        -13    1    5    5    0    0 -0.10121018094E+03 -0.47691884926E+01  0.10736394521E+03  0.14762541318E+03  0.00000000000E+00 0. -1.
          3    1    6    6  503    0 -0.61146585776E+01  0.41731079934E+01  0.65916492054E+00  0.74322525682E+01  0.00000000000E+00 0. -1.
         -3    1    6    6    0  503  0.78233813609E+02 -0.29989920612E+03  0.15238380402E+03  0.34537065184E+03  0.00000000000E+00 0.  1.
<mgrwt>
<rscale>  0 0.20297283E+04</rscale>
<asrwt>0</asrwt>
<pdfrwt beam="1">  1        2 0.26821173E+00 0.20297283E+04</pdfrwt>
<pdfrwt beam="2">  1       -1 0.90889005E-01 0.20297283E+04</pdfrwt>
<totfact> 0.11573035E+01</totfact>
</mgrwt>
</event>
<event>
12    7  0.1606355E-007  0.1364579E+04  0.7818608E-02  0.8979865E-01
         -1   -1    0    0    0  501 -0.00000000000E+00  0.00000000000E+00  0.33444286032E+03  0.33444286032E+03  0.00000000000E+00 0.  1.
          2   -1    0    0  501    0  0.00000000000E+00 -0.00000000000E+00 -0.13919227998E+04  0.13919227998E+04  0.00000000000E+00 0. -1.
         24    2    1    2    0    0 -0.74164046440E+02 -0.36094108155E+03 -0.18152946341E+03  0.41848716098E+03  0.79998672976E+02 0.  0.
        254    2    1    2    0    0  0.74164046440E+02  0.36094108155E+03 -0.87595047603E+03  0.13078784991E+04  0.89859788661E+03 0.  0.
         23    2    4    4    0    0  0.16288400454E+03  0.38804686319E+03 -0.72563121068E+01  0.43038772008E+03  0.89829664160E+02 0.  0.
         23    2    4    4    0    0 -0.88719958100E+02 -0.27105781640E+02 -0.86869416392E+03  0.87749077902E+03  0.82186145258E+02 0.  0.
          2    1    3    3  502    0 -0.64616929887E+01 -0.91491136693E+01 -0.25275954158E+02  0.27646584162E+02  0.00000000000E+00 0. -1.
         -1    1    3    3    0  502 -0.67702353452E+02 -0.35179196788E+03 -0.15625350926E+03  0.39084057681E+03  0.00000000000E+00 0.  1.
         13    1    5    5    0    0  0.16597907757E+03  0.34604052228E+03 -0.25178992387E+02  0.38461289488E+03  0.00000000000E+00 0. -1.
        -13    1    5    5    0    0 -0.30950730264E+01  0.42006340915E+02  0.17922680280E+02  0.45774825205E+02  0.00000000000E+00 0.  1.
          3    1    6    6  503    0 -0.95046854259E+02 -0.23298076015E+02 -0.54525005919E+03  0.55396239213E+03  0.00000000000E+00 0. -1.
         -3    1    6    6    0  503  0.63268961593E+01 -0.38077056252E+01 -0.32344410474E+03  0.32352838689E+03  0.00000000000E+00 0.  1.
<mgrwt>
<rscale>  0 0.13645785E+04</rscale>
<asrwt>0</asrwt>
<pdfrwt beam="1">  1        2 0.21414197E+00 0.13645785E+04</pdfrwt>
<pdfrwt beam="2">  1       -1 0.51452748E-01 0.13645785E+04</pdfrwt>
<totfact> 0.61796014E+01</totfact>
</mgrwt>
</event>
<event>
12    7  0.1606355E-007  0.1566064E+04  0.7818608E-02  0.8841672E-01
         -1   -1    0    0    0  501 -0.00000000000E+00  0.00000000000E+00  0.29509853453E+03  0.29509853453E+03  0.00000000000E+00 0.  1.
          2   -1    0    0  501    0  0.00000000000E+00 -0.00000000000E+00 -0.20777443777E+04  0.20777443777E+04  0.00000000000E+00 0. -1.
         24    2    1    2    0    0  0.42696293864E+02 -0.14453603206E+02  0.18617845836E+03  0.20775884657E+03  0.80432827954E+02 0.  0.
        254    2    1    2    0    0 -0.42696293864E+02  0.14453603206E+02 -0.19688243015E+04  0.21650840657E+04  0.89960435799E+03 0.  0.
         23    2    4    4    0    0  0.41003209194E+03  0.43097571329E+02 -0.73524592206E+03  0.84766334591E+03  0.89234886794E+02 0.  0.
         23    2    4    4    0    0 -0.45272838580E+03 -0.28643968123E+02 -0.12335783795E+04  0.13174207197E+04  0.89990367786E+02 0.  0.
          2    1    3    3  502    0  0.47178293991E+02  0.11378340326E+02  0.52343139347E+02  0.71379705023E+02  0.00000000000E+00 0. -1.
         -1    1    3    3    0  502 -0.44820001268E+01 -0.25831943533E+02  0.13383531902E+03  0.13637914154E+03  0.00000000000E+00 0.  1.
         13    1    5    5    0    0  0.33881080028E+02 -0.20230512203E+02 -0.53771373039E+02  0.66697539433E+02  0.00000000000E+00 0. -1.
        -13    1    5    5    0    0  0.37615101191E+03  0.63328083532E+02 -0.68147454902E+03  0.78096580648E+03  0.00000000000E+00 0.  1.
          2    1    6    6  503    0 -0.11157409862E+03 -0.46272750343E+02 -0.33277009656E+03  0.35401396027E+03  0.00000000000E+00 0.  1.
         -2    1    6    6    0  503 -0.34115428719E+03  0.17628782219E+02 -0.90080828291E+03  0.96340675947E+03  0.00000000000E+00 0. -1.
<mgrwt>
<rscale>  0 0.15660643E+04</rscale>
<asrwt>0</asrwt>
<pdfrwt beam="1">  1        2 0.31965296E+00 0.15660643E+04</pdfrwt>
<pdfrwt beam="2">  1       -1 0.45399777E-01 0.15660643E+04</pdfrwt>
<totfact> 0.31909791E+01</totfact>
</mgrwt>
</event>
<event>
12    7  0.1606355E-007  0.1610184E+04  0.7818608E-02  0.8814316E-01
         -1   -1    0    0    0  501 -0.00000000000E+00  0.00000000000E+00  0.24550726603E+03  0.24550726603E+03  0.00000000000E+00 0.  1.
          2   -1    0    0  501    0  0.00000000000E+00 -0.00000000000E+00 -0.26401375470E+04  0.26401375470E+04  0.00000000000E+00 0. -1.
         24    2    1    2    0    0 -0.47604596649E+03 -0.50593960689E+02 -0.13707618267E+04  0.14538794744E+04  0.74819979624E+02 0.  0.
        254    2    1    2    0    0  0.47604596649E+03  0.50593960689E+02 -0.10238684543E+04  0.14317653387E+04  0.87890037109E+03 0.  0.
         23    2    4    4    0    0  0.25894704418E+03  0.88476130712E+02 -0.11312456457E+04  0.11680619303E+04  0.98845155374E+02 0.  0.
         23    2    4    4    0    0  0.21709892231E+03 -0.37882170023E+02  0.10737719141E+03  0.26370340837E+03  0.97173172622E+02 0.  0.
          2    1    3    3  502    0 -0.33947599875E+03 -0.44346273471E+02 -0.10715723446E+04  0.11249345916E+04  0.00000000000E+00 0. -1.
         -1    1    3    3    0  502 -0.13656996774E+03 -0.62476872182E+01 -0.29918948210E+03  0.32894488274E+03  0.00000000000E+00 0.  1.
         13    1    5    5    0    0  0.94750681193E+01  0.32472476854E+02 -0.98883337809E+02  0.10450910566E+03  0.00000000000E+00 0.  1.
        -13    1    5    5    0    0  0.24947197606E+03  0.56003653858E+02 -0.10323623079E+04  0.10635528246E+04  0.00000000000E+00 0. -1.
          3    1    6    6  503    0  0.21793747489E+03 -0.53625667922E+02  0.95252387674E+02  0.24381442242E+03  0.00000000000E+00 0. -1.
         -3    1    6    6    0  503 -0.83855258108E+00  0.15743497899E+02  0.12124803736E+02  0.19888985952E+02  0.00000000000E+00 0.  1.
<mgrwt>
<rscale>  0 0.16101838E+04</rscale>
<asrwt>0</asrwt>
<pdfrwt beam="1">  1        2 0.40617500E+00 0.16101838E+04</pdfrwt>
<pdfrwt beam="2">  1       -1 0.37770349E-01 0.16101838E+04</pdfrwt>
<totfact> 0.21328622E+01</totfact>
</mgrwt>
</event>
<event>
12    7  0.1606355E-007  0.1207225E+04  0.7818608E-02  0.9106556E-01
         -1   -1    0    0    0  501 -0.00000000000E+00  0.00000000000E+00  0.14654915522E+03  0.14654915522E+03  0.00000000000E+00 0.  1.
          2   -1    0    0  501    0  0.00000000000E+00 -0.00000000000E+00 -0.24861836408E+04  0.24861836408E+04  0.00000000000E+00 0. -1.
         24    2    1    2    0    0 -0.24507680756E+03  0.97386625399E+02 -0.53073705878E+03  0.59802030970E+03  0.79997930236E+02 0.  0.
        254    2    1    2    0    0  0.24507680756E+03 -0.97386625399E+02 -0.18088974268E+04  0.20347124863E+04  0.89353131163E+03 0.  0.
         23    2    4    4    0    0 -0.22019775958E+03  0.22550512939E+03 -0.91858387205E+03  0.97541521615E+03  0.91098283173E+02 0.  0.
         23    2    4    4    0    0  0.46527456714E+03 -0.32289175479E+03 -0.89031355475E+03  0.10592972702E+04  0.93343305486E+02 0.  0.
          4    1    3    3  502    0  0.16962256893E+01  0.14986470768E+02 -0.22916036252E+02  0.27433851446E+02  0.00000000000E+00 0. -1.
         -3    1    3    3    0  502 -0.24677303325E+03  0.82400154631E+02 -0.50782102253E+03  0.57058645825E+03  0.00000000000E+00 0.  1.
         13    1    5    5    0    0  0.37022646906E+01  0.30475073283E+02 -0.10207538383E+03  0.10659184227E+03  0.00000000000E+00 0.  1.
        -13    1    5    5    0    0 -0.22390002427E+03  0.19503005611E+03 -0.81650848823E+03  0.86882337388E+03  0.00000000000E+00 0. -1.
          4    1    6    6  503    0  0.31606452397E+03 -0.17643594958E+03 -0.51164083352E+03  0.62673979461E+03  0.00000000000E+00 0. -1.
         -4    1    6    6    0  503  0.14921004316E+03 -0.14645580521E+03 -0.37867272123E+03  0.43255747556E+03  0.00000000000E+00 0.  1.
<mgrwt>
<rscale>  0 0.12072251E+04</rscale>
<asrwt>0</asrwt>
<pdfrwt beam="1">  1        2 0.38248977E+00 0.12072251E+04</pdfrwt>
<pdfrwt beam="2">  1       -1 0.22546025E-01 0.12072251E+04</pdfrwt>
<totfact> 0.66971769E+01</totfact>
</mgrwt>
</event>
<event>
12    7  0.1606355E-007  0.1145481E+04  0.7818608E-02  0.9161962E-01
          2   -1    0    0  501    0  0.00000000000E+00  0.00000000000E+00  0.11101096708E+04  0.11101096708E+04  0.00000000000E+00 0. -1.
         -1   -1    0    0    0  501 -0.00000000000E+00 -0.00000000000E+00 -0.29549503720E+03  0.29549503720E+03  0.00000000000E+00 0.  1.
         24    2    1    2    0    0 -0.38418132472E+02 -0.17123266841E+03  0.31643264769E+03  0.37046010778E+03  0.79463773503E+02 0.  0.
        254    2    1    2    0    0  0.38418132472E+02  0.17123266841E+03  0.49818198596E+03  0.10351446003E+04  0.89024854545E+03 0.  0.
         23    2    4    4    0    0  0.15832717759E+03 -0.29736579993E+03  0.20850383770E+02  0.34957507907E+03  0.90961988071E+02 0.  0.
         23    2    4    4    0    0 -0.11990904512E+03  0.46859846834E+03  0.47733160219E+03  0.68556952119E+03  0.90539528919E+02 0.  0.
          2    1    3    3  502    0 -0.87792220267E+01 -0.15248268752E+03  0.21977320813E+03  0.26763465348E+03  0.00000000000E+00 0. -1.
         -1    1    3    3    0  502 -0.29638910446E+02 -0.18749980892E+02  0.96659439559E+02  0.10282545430E+03  0.00000000000E+00 0.  1.
         13    1    5    5    0    0  0.57662109543E+01  0.34356342547E+01  0.10098745318E+02  0.12125899080E+02  0.00000000000E+00 0. -1.
        -13    1    5    5    0    0  0.15256096664E+03 -0.30080143418E+03  0.10751638452E+02  0.33744917999E+03  0.00000000000E+00 0.  1.
          1    1    6    6  503    0 -0.54289787820E+02  0.12166289694E+03  0.18017146464E+03  0.22407810742E+03  0.00000000000E+00 0. -1.
         -1    1    6    6    0  503 -0.65619257302E+02  0.34693557141E+03  0.29716013755E+03  0.46149141377E+03  0.00000000000E+00 0.  1.
<mgrwt>
<rscale>  0 0.11454814E+04</rscale>
<asrwt>0</asrwt>
<pdfrwt beam="1">  1        2 0.17078610E+00 0.11454814E+04</pdfrwt>
<pdfrwt beam="2">  1       -1 0.45460776E-01 0.11454814E+04</pdfrwt>
<totfact> 0.11643494E+02</totfact>
</mgrwt>
</event>
<event>
12    7  0.1606355E-007  0.1263357E+04  0.7818608E-02  0.9059139E-01
         -3   -1    0    0    0  501 -0.00000000000E+00  0.00000000000E+00  0.42016681316E+03  0.42016681316E+03  0.00000000000E+00 0.  1.
          4   -1    0    0  501    0  0.00000000000E+00 -0.00000000000E+00 -0.94966494877E+03  0.94966494877E+03  0.00000000000E+00 0. -1.
         24    2    1    2    0    0 -0.48052660201E+02 -0.65882791339E+00 -0.46515284151E+03  0.47311190974E+03  0.71820755869E+02 0.  0.
        254    2    1    2    0    0  0.48052660201E+02  0.65882791339E+00 -0.64345294111E+02  0.89671985219E+03  0.89311627699E+03 0.  0.
         23    2    4    4    0    0 -0.29307625798E+03 -0.29523171501E+03 -0.89889468938E+02  0.43545003267E+03  0.92093190775E+02 0.  0.
         23    2    4    4    0    0  0.34112891818E+03  0.29589054292E+03  0.25544174827E+02  0.46126981952E+03  0.90538330678E+02 0.  0.
          2    1    3    3  502    0 -0.38410921370E+02  0.30556321550E+02 -0.19910183313E+03  0.20506249687E+03  0.00000000000E+00 0. -1.
         -1    1    3    3    0  502 -0.96417388312E+01 -0.31215149463E+02 -0.26605100838E+03  0.26804941287E+03  0.00000000000E+00 0.  1.
         13    1    5    5    0    0 -0.29624832808E+03 -0.29531898291E+03 -0.95444552456E+02  0.42905248647E+03  0.00000000000E+00 0.  1.
        -13    1    5    5    0    0  0.31720701038E+01  0.87267895107E-01  0.55550835183E+01  0.63975461955E+01  0.00000000000E+00 0. -1.
          3    1    6    6  503    0  0.52966166271E+02  0.33010196510E+02  0.34101764194E+02  0.71119745249E+02  0.00000000000E+00 0. -1.
         -3    1    6    6    0  503  0.28816275191E+03  0.26288034641E+03 -0.85575893669E+01  0.39015007427E+03  0.00000000000E+00 0.  1.
<mgrwt>
<rscale>  0 0.12633569E+04</rscale>
<asrwt>0</asrwt>
<pdfrwt beam="1">  1        4 0.14610230E+00 0.12633569E+04</pdfrwt>
<pdfrwt beam="2">  1       -3 0.64641049E-01 0.12633569E+04</pdfrwt>
<totfact> 0.16620132E+00</totfact>
</mgrwt>
</event>
<event>
12    7  0.1606355E-007  0.1511823E+04  0.7818608E-02  0.8876629E-01
         -1   -1    0    0    0  501 -0.00000000000E+00  0.00000000000E+00  0.44097622548E+03  0.44097622548E+03  0.00000000000E+00 0.  1.
          2   -1    0    0  501    0  0.00000000000E+00 -0.00000000000E+00 -0.12957663036E+04  0.12957663036E+04  0.00000000000E+00 0. -1.
         24    2    1    2    0    0 -0.33416454684E+01 -0.18391106333E+03 -0.74753387697E+03  0.77387085271E+03  0.78960456183E+02 0.  0.
        254    2    1    2    0    0  0.33416454684E+01  0.18391106333E+03 -0.10725620110E+03  0.96287167633E+03  0.93903329365E+03 0.  0.
         23    2    4    4    0    0 -0.13870819530E+02  0.47720576544E+03  0.20210318420E+03  0.52640200759E+03  0.91299695104E+02 0.  0.
         23    2    4    4    0    0  0.17212464998E+02 -0.29329470211E+03 -0.30935938530E+03  0.43646966874E+03  0.92111298007E+02 0.  0.
          4    1    3    3  502    0  0.19737110979E+02 -0.17277901305E+03 -0.67062427371E+03  0.69280520884E+03  0.00000000000E+00 0. -1.
         -3    1    3    3    0  502 -0.23078756447E+02 -0.11132050281E+02 -0.76909603258E+02  0.81065643869E+02  0.00000000000E+00 0.  1.
         13    1    5    5    0    0 -0.34694402789E+02  0.34349367203E+03  0.10860932126E+03  0.36192207583E+03  0.00000000000E+00 0.  1.
        -13    1    5    5    0    0  0.20823583259E+02  0.13371209341E+03  0.93493862938E+02  0.16447993176E+03  0.00000000000E+00 0. -1.
          1    1    6    6  503    0  0.35863162020E+02 -0.28177772689E+03 -0.29833737008E+03  0.41193450954E+03  0.00000000000E+00 0. -1.
         -1    1    6    6    0  503 -0.18650697021E+02 -0.11516975212E+02 -0.11022015222E+02  0.24535159200E+02  0.00000000000E+00 0.  1.
<mgrwt>
<rscale>  0 0.15118229E+04</rscale>
<asrwt>0</asrwt>
<pdfrwt beam="1">  1        2 0.19934866E+00 0.15118229E+04</pdfrwt>
<pdfrwt beam="2">  1       -1 0.67842497E-01 0.15118229E+04</pdfrwt>
<totfact> 0.40251290E+01</totfact>
</mgrwt>
</event>
<event>
12    7  0.1606355E-007  0.2417191E+04  0.7818608E-02  0.8433096E-01
         -1   -1    0    0    0  501 -0.00000000000E+00  0.00000000000E+00  0.71076640650E+03  0.71076640650E+03  0.00000000000E+00 0.  1.
          2   -1    0    0  501    0  0.00000000000E+00 -0.00000000000E+00 -0.20551090923E+04  0.20551090923E+04  0.00000000000E+00 0. -1.
         24    2    1    2    0    0  0.41849550101E+03 -0.41051576005E+03 -0.15413978446E+04  0.16509620620E+04  0.78145641222E+02 0.  0.
        254    2    1    2    0    0 -0.41849550101E+03  0.41051576005E+03  0.19705515879E+03  0.11149134368E+04  0.92765271645E+03 0.  0.
         23    2    4    4    0    0 -0.69656572609E+03  0.38810069412E+03  0.17139083319E+03  0.82103601844E+03  0.94336452860E+02 0.  0.
         23    2    4    4    0    0  0.27807022508E+03  0.22415065930E+02  0.25664325600E+02  0.29387741835E+03  0.88768204630E+02 0.  0.
          2    1    3    3  502    0  0.25061842191E+03 -0.23923589866E+03 -0.80199199235E+03  0.87363296893E+03  0.00000000000E+00 0. -1.
         -1    1    3    3    0  502  0.16787707910E+03 -0.17127986139E+03 -0.73940585228E+03  0.77732909311E+03  0.00000000000E+00 0.  1.
         13    1    5    5    0    0 -0.39481446327E+03  0.24112295423E+03  0.14288443906E+03  0.48418457471E+03  0.00000000000E+00 0. -1.
        -13    1    5    5    0    0 -0.30175126283E+03  0.14697773988E+03  0.28506394133E+02  0.33685144373E+03  0.00000000000E+00 0.  1.
          2    1    6    6  503    0  0.19575479912E+03 -0.20875627519E+02 -0.18995046347E+01  0.19687392240E+03  0.00000000000E+00 0. -1.
         -2    1    6    6    0  503  0.82315425959E+02  0.43290693449E+02  0.27563830235E+02  0.97003495954E+02  0.00000000000E+00 0.  1.
<mgrwt>
<rscale>  0 0.24171905E+04</rscale>
<asrwt>0</asrwt>
<pdfrwt beam="1">  1        2 0.31617063E+00 0.24171905E+04</pdfrwt>
<pdfrwt beam="2">  1       -1 0.10934868E+00 0.24171905E+04</pdfrwt>
<totfact> 0.49226423E+00</totfact>
</mgrwt>
</event>
<event>
12    7  0.1606355E-007  0.2776459E+04  0.7818608E-02  0.8310614E-01
          2   -1    0    0  501    0  0.00000000000E+00  0.00000000000E+00  0.22146282553E+04  0.22146282553E+04  0.00000000000E+00 0. -1.
         -1   -1    0    0    0  501 -0.00000000000E+00 -0.00000000000E+00 -0.87020548770E+03  0.87020548770E+03  0.00000000000E+00 0.  1.
         24    2    1    2    0    0  0.56242411840E+03  0.29271875218E+03  0.17941146767E+04  0.19046180858E+04  0.81959884951E+02 0.  0.
        254    2    1    2    0    0 -0.56242411840E+03 -0.29271875218E+03 -0.44969190910E+03  0.11802156572E+04  0.88807715180E+03 0.  0.
         23    2    4    4    0    0 -0.13991699751E+03 -0.48738193592E+03  0.16236294552E+02  0.51534482395E+03  0.90546963823E+02 0.  0.
         23    2    4    4    0    0 -0.42250712089E+03  0.19466318374E+03 -0.46592820366E+03  0.66487083325E+03  0.92510062387E+02 0.  0.
          4    1    3    3  502    0  0.50538927870E+03  0.23457895694E+03  0.15934764499E+04  0.16880796209E+04  0.00000000000E+00 0. -1.
         -3    1    3    3    0  502  0.57034839701E+02  0.58139795243E+02  0.20063822675E+03  0.21653846486E+03  0.00000000000E+00 0.  1.
         13    1    5    5    0    0 -0.20425387019E+02 -0.12374174068E+02  0.88920916962E+01  0.25483051494E+02  0.00000000000E+00 0.  1.
        -13    1    5    5    0    0 -0.11949161049E+03 -0.47500776185E+03  0.73442028562E+01  0.48986177245E+03  0.00000000000E+00 0. -1.
          2    1    6    6  503    0 -0.31573479977E+03  0.10060588407E+03 -0.30993387070E+03  0.45372790514E+03  0.00000000000E+00 0. -1.
         -2    1    6    6    0  503 -0.10677232112E+03  0.94057299668E+02 -0.15599433295E+03  0.21114292811E+03  0.00000000000E+00 0.  1.
<mgrwt>
<rscale>  0 0.27764594E+04</rscale>
<asrwt>0</asrwt>
<pdfrwt beam="1">  1        2 0.34071204E+00 0.27764594E+04</pdfrwt>
<pdfrwt beam="2">  1       -1 0.13387777E+00 0.27764594E+04</pdfrwt>
<totfact> 0.23638972E+00</totfact>
</mgrwt>
</event>
<event>
12    7  0.1606355E-007  0.1852002E+04  0.7818608E-02  0.8679124E-01
          2   -1    0    0  501    0  0.00000000000E+00  0.00000000000E+00  0.14226147198E+04  0.14226147198E+04  0.00000000000E+00 0. -1.
         -1   -1    0    0    0  501 -0.00000000000E+00 -0.00000000000E+00 -0.60274777229E+03  0.60274777229E+03  0.00000000000E+00 0.  1.
         24    2    1    2    0    0  0.20899525443E+02 -0.63369612284E+03 -0.42375800481E+02  0.64017324298E+03  0.77579032581E+02 0.  0.
        254    2    1    2    0    0 -0.20899525443E+02  0.63369612284E+03  0.86224274801E+03  0.13851892491E+04  0.87936291320E+03 0.  0.
         23    2    4    4    0    0  0.66272213143E+02  0.53514189016E+03  0.40987818386E+02  0.54830348234E+03  0.90486787124E+02 0.  0.
         23    2    4    4    0    0 -0.87171738587E+02  0.98554232677E+02  0.82125492963E+03  0.83688576678E+03  0.92770029751E+02 0.  0.
          2    1    3    3  502    0  0.65053644472E+01 -0.29007652244E+02  0.13673773047E+02  0.32722098415E+02  0.00000000000E+00 0. -1.
         -1    1    3    3    0  502  0.14394160996E+02 -0.60468847060E+03 -0.56049573528E+02  0.60745114457E+03  0.00000000000E+00 0.  1.
         13    1    5    5    0    0  0.52491551189E+02  0.48951859483E+03  0.11899473510E+02  0.49246869453E+03  0.00000000000E+00 0.  1.
        -13    1    5    5    0    0  0.13780661954E+02  0.45623295339E+02  0.29088344876E+02  0.55834787804E+02  0.00000000000E+00 0. -1.
          2    1    6    6  503    0  0.44957012131E+01 -0.71515114923E+01  0.78395005851E+01  0.11524461612E+02  0.00000000000E+00 0. -1.
         -2    1    6    6    0  503 -0.91667439800E+02  0.10570574417E+03  0.81341542904E+03  0.82536130517E+03  0.00000000000E+00 0.  1.
<mgrwt>
<rscale>  0 0.18520020E+04</rscale>
<asrwt>0</asrwt>
<pdfrwt beam="1">  1        2 0.21886380E+00 0.18520020E+04</pdfrwt>
<pdfrwt beam="2">  1       -1 0.92730427E-01 0.18520020E+04</pdfrwt>
<totfact> 0.17011646E+01</totfact>
</mgrwt>
</event>
<event>
12    7  0.1606355E-007  0.2999630E+04  0.7818608E-02  0.8243837E-01
          2   -1    0    0  501    0  0.00000000000E+00  0.00000000000E+00  0.32996736861E+04  0.32996736861E+04  0.00000000000E+00 0. -1.
         -1   -1    0    0    0  501 -0.00000000000E+00 -0.00000000000E+00 -0.68171724235E+03  0.68171724235E+03  0.00000000000E+00 0.  1.
         24    2    1    2    0    0 -0.68302498993E+02  0.94024750878E+03  0.24886308241E+04  0.26624380834E+04  0.81009631037E+02 0.  0.
        254    2    1    2    0    0  0.68302498993E+02 -0.94024750878E+03  0.12932561964E+03  0.13189528450E+04  0.91333503289E+03 0.  0.
         23    2    4    4    0    0 -0.23786593707E+03 -0.95344200639E+03  0.44115841494E+02  0.98785392121E+03  0.90979660495E+02 0.  0.
         23    2    4    4    0    0  0.30616843607E+03  0.13194497602E+02  0.85209778143E+02  0.33109892379E+03  0.91937941214E+02 0.  0.
          2    1    3    3  502    0 -0.53309032216E+02  0.91199365114E+03  0.23847161999E+04  0.25537121268E+04  0.00000000000E+00 0. -1.
         -1    1    3    3    0  502 -0.14993466777E+02  0.28253857646E+02  0.10391462421E+03  0.10872595662E+03  0.00000000000E+00 0.  1.
         13    1    5    5    0    0  0.17564234586E+01  0.11336483872E+01 -0.15512331998E+01  0.26031723861E+01  0.00000000000E+00 0.  1.
        -13    1    5    5    0    0 -0.23962236053E+03 -0.95457565477E+03  0.45667074694E+02  0.98525074883E+03  0.00000000000E+00 0. -1.
          1    1    6    6  503    0  0.21653401234E+03 -0.30440916768E+02  0.43057812266E+02  0.22286229630E+03  0.00000000000E+00 0. -1.
         -1    1    6    6    0  503  0.89634423722E+02  0.43635414370E+02  0.42151965878E+02  0.10823662749E+03  0.00000000000E+00 0.  1.
<mgrwt>
<rscale>  0 0.29996296E+04</rscale>
<asrwt>0</asrwt>
<pdfrwt beam="1">  1        2 0.50764210E+00 0.29996296E+04</pdfrwt>
<pdfrwt beam="2">  1       -1 0.10487958E+00 0.29996296E+04</pdfrwt>
<totfact> 0.92446603E-01</totfact>
</mgrwt>
</event>
<event>
12    7  0.1606355E-007  0.2193664E+04  0.7818608E-02  0.8521070E-01
          2   -1    0    0  501    0  0.00000000000E+00  0.00000000000E+00  0.14113104291E+04  0.14113104291E+04  0.00000000000E+00 0. -1.
         -1   -1    0    0    0  501 -0.00000000000E+00 -0.00000000000E+00 -0.85242782992E+03  0.85242782992E+03  0.00000000000E+00 0.  1.
         24    2    1    2    0    0 -0.87435007852E+03  0.14088126601E+03  0.10102994370E+02  0.88939647767E+03  0.81169163394E+02 0.  0.
        254    2    1    2    0    0  0.87435007852E+03 -0.14088126601E+03  0.54877960482E+03  0.13743417813E+04  0.89628158878E+03 0.  0.
         23    2    4    4    0    0  0.39315880064E+02  0.25660268464E+02  0.50654604879E+03  0.51705896531E+03  0.92503439139E+02 0.  0.
         23    2    4    4    0    0  0.83503419845E+03 -0.16654153447E+03  0.42233556024E+02  0.85728281604E+03  0.90177370403E+02 0.  0.
          4    1    3    3  502    0 -0.62519064124E+02  0.48070443422E+01  0.21125565788E+02  0.66166687873E+02  0.00000000000E+00 0. -1.
         -3    1    3    3    0  502 -0.81183101439E+03  0.13607422166E+03 -0.11022571418E+02  0.82322978980E+03  0.00000000000E+00 0.  1.
         13    1    5    5    0    0  0.46586631069E+02 -0.19182762213E+02  0.36343835076E+03  0.36691378737E+03  0.00000000000E+00 0.  1.
        -13    1    5    5    0    0 -0.72707510058E+01  0.44843030677E+02  0.14310769803E+03  0.15014517793E+03  0.00000000000E+00 0. -1.
          3    1    6    6  503    0  0.19380539086E+03 -0.50516716008E+01  0.27963251361E+02  0.19587749319E+03  0.00000000000E+00 0. -1.
         -3    1    6    6    0  503  0.64122880760E+03 -0.16148986287E+03  0.14270304663E+02  0.66140532285E+03  0.00000000000E+00 0.  1.
<mgrwt>
<rscale>  0 0.21936639E+04</rscale>
<asrwt>0</asrwt>
<pdfrwt beam="1">  1        2 0.21712468E+00 0.21936639E+04</pdfrwt>
<pdfrwt beam="2">  1       -1 0.13114274E+00 0.21936639E+04</pdfrwt>
<totfact> 0.73692175E+00</totfact>
</mgrwt>
</event>
<event>
12    7  0.1606355E-007  0.1229110E+04  0.7818608E-02  0.9087751E-01
         -1   -1    0    0    0  501 -0.00000000000E+00  0.00000000000E+00  0.19871144741E+03  0.19871144741E+03  0.00000000000E+00 0.  1.
          2   -1    0    0  501    0  0.00000000000E+00 -0.00000000000E+00 -0.19006345343E+04  0.19006345343E+04  0.00000000000E+00 0. -1.
         24    2    1    2    0    0  0.10956347071E+03  0.25041302560E+03 -0.49112807204E+03  0.56765318143E+03  0.79451329390E+02 0.  0.
        254    2    1    2    0    0 -0.10956347071E+03 -0.25041302560E+03 -0.12107950149E+04  0.15316928003E+04  0.89741151596E+03 0.  0.
         23    2    4    4    0    0  0.29944762723E+03 -0.10420891026E+02 -0.10825794882E+03  0.32825223740E+03  0.79071306126E+02 0.  0.
         23    2    4    4    0    0 -0.40901109793E+03 -0.23999213457E+03 -0.11025370661E+04  0.12034405629E+04  0.88288750967E+02 0.  0.
          4    1    3    3  502    0  0.95686886068E+02  0.25284342268E+03 -0.46167471686E+03  0.53500403806E+03  0.00000000000E+00 0. -1.
         -3    1    3    3    0  502  0.13876584637E+02 -0.24303970842E+01 -0.29453355177E+02  0.32649143363E+02  0.00000000000E+00 0.  1.
         13    1    5    5    0    0  0.17731534615E+03  0.19167377756E+02 -0.94496133755E+02  0.20183567485E+03  0.00000000000E+00 0. -1.
        -13    1    5    5    0    0  0.12213228108E+03 -0.29588268782E+02 -0.13761815062E+02  0.12641656254E+03  0.00000000000E+00 0.  1.
          3    1    6    6  503    0 -0.41032028494E+03 -0.23834989790E+03 -0.11034459611E+04  0.12011521132E+04  0.00000000000E+00 0. -1.
         -3    1    6    6    0  503  0.13091870035E+01 -0.16422366743E+01  0.90889501519E+00  0.22884497052E+01  0.00000000000E+00 0.  1.
<mgrwt>
<rscale>  0 0.12291100E+04</rscale>
<asrwt>0</asrwt>
<pdfrwt beam="1">  1        2 0.29240531E+00 0.12291100E+04</pdfrwt>
<pdfrwt beam="2">  1       -1 0.30570992E-01 0.12291100E+04</pdfrwt>
<totfact> 0.84078815E+01</totfact>
</mgrwt>
</event>
<event>
12    7  0.1606355E-007  0.1431141E+04  0.7818608E-02  0.8931581E-01
         -1   -1    0    0    0  501 -0.00000000000E+00  0.00000000000E+00  0.15628939092E+04  0.15628939092E+04  0.00000000000E+00 0.  1.
          2   -1    0    0  501    0  0.00000000000E+00 -0.00000000000E+00 -0.32762373658E+03  0.32762373658E+03  0.00000000000E+00 0. -1.
         24    2    1    2    0    0 -0.36824307617E+03 -0.21643513466E+03  0.49100976127E+03  0.65562554871E+03  0.79417528300E+02 0.  0.
        254    2    1    2    0    0  0.36824307617E+03  0.21643513466E+03  0.74426041138E+03  0.12348920971E+04  0.88802466231E+03 0.  0.
         23    2    4    4    0    0 -0.19320593521E+03 -0.16898443501E+03  0.34859010137E+03  0.44236614682E+03  0.91041069862E+02 0.  0.
         23    2    4    4    0    0  0.56144901138E+03  0.38541956966E+03  0.39567031001E+03  0.79252595029E+03  0.88142785254E+02 0.  0.
          4    1    3    3  502    0 -0.17505732868E+03 -0.11943701124E+03  0.18721928778E+03  0.28277434413E+03  0.00000000000E+00 0. -1.
         -3    1    3    3    0  502 -0.19318574749E+03 -0.96998123420E+02  0.30379047349E+03  0.37285120458E+03  0.00000000000E+00 0.  1.
         13    1    5    5    0    0 -0.43564740788E+02 -0.72290326072E+02  0.17159750955E+03  0.19123149104E+03  0.00000000000E+00 0. -1.
        -13    1    5    5    0    0 -0.14964119442E+03 -0.96694108937E+02  0.17699259182E+03  0.25113465578E+03  0.00000000000E+00 0.  1.
          2    1    6    6  503    0  0.14026903645E+03  0.11307306919E+03  0.63907524461E+02  0.19116770973E+03  0.00000000000E+00 0. -1.
         -2    1    6    6    0  503  0.42117997493E+03  0.27234650048E+03  0.33176278555E+03  0.60135824056E+03  0.00000000000E+00 0.  1.
<mgrwt>
<rscale>  0 0.14311410E+04</rscale>
<asrwt>0</asrwt>
<pdfrwt beam="1">  1        2 0.50403653E-01 0.14311410E+04</pdfrwt>
<pdfrwt beam="2">  1       -1 0.24044521E+00 0.14311410E+04</pdfrwt>
<totfact> 0.89145272E+00</totfact>
</mgrwt>
</event>
<event>
12    7  0.1606355E-007  0.4913947E+04  0.7818608E-02  0.7841920E-01
          2   -1    0    0  501    0  0.00000000000E+00  0.00000000000E+00  0.24886090708E+04  0.24886090708E+04  0.00000000000E+00 0. -1.
         -1   -1    0    0    0  501 -0.00000000000E+00 -0.00000000000E+00 -0.24257403601E+04  0.24257403601E+04  0.00000000000E+00 0.  1.
         24    2    1    2    0    0 -0.29012560379E+03 -0.97708961159E+03  0.21724147473E+04  0.24009826267E+04  0.80341548713E+02 0.  0.
        254    2    1    2    0    0  0.29012560379E+03  0.97708961159E+03 -0.21095460366E+04  0.25133668041E+04  0.90991825797E+03 0.  0.
         23    2    4    4    0    0  0.39144009440E+03  0.39744257870E+03 -0.37155962508E+03  0.67621891868E+03  0.89607589610E+02 0.  0.
         23    2    4    4    0    0 -0.10131449061E+03  0.57964703289E+03 -0.17379864116E+04  0.18371478854E+04  0.90886068287E+02 0.  0.
          4    1    3    3  502    0 -0.24043174884E+03 -0.85587382739E+03  0.18343865936E+04  0.20384556922E+04  0.00000000000E+00 0. -1.
         -1    1    3    3    0  502 -0.49693854953E+02 -0.12121578420E+03  0.33802815371E+03  0.36252693453E+03  0.00000000000E+00 0.  1.
         13    1    5    5    0    0  0.23438674552E+03  0.23882545889E+03 -0.16938375090E+03  0.37505413124E+03  0.00000000000E+00 0.  1.
        -13    1    5    5    0    0  0.15705334888E+03  0.15861711981E+03 -0.20217587418E+03  0.30116478743E+03  0.00000000000E+00 0. -1.
          1    1    6    6  503    0  0.53523042648E+00  0.13582467031E+03 -0.31375129576E+03  0.34188960664E+03  0.00000000000E+00 0. -1.
         -1    1    6    6    0  503 -0.10184972103E+03  0.44382236258E+03 -0.14242351158E+04  0.14952582788E+04  0.00000000000E+00 0.  1.
<mgrwt>
<rscale>  0 0.49139473E+04</rscale>
<asrwt>0</asrwt>
<pdfrwt beam="1">  1        2 0.38286293E+00 0.49139473E+04</pdfrwt>
<pdfrwt beam="2">  1       -1 0.37319083E+00 0.49139473E+04</pdfrwt>
<totfact> 0.32059071E-02</totfact>
</mgrwt>
</event>
<event>
12    7  0.1606355E-007  0.1262800E+04  0.7818608E-02  0.9059597E-01
          2   -1    0    0  501    0  0.00000000000E+00  0.00000000000E+00  0.48547877851E+03  0.48547877851E+03  0.00000000000E+00 0. -1.
         -1   -1    0    0    0  501 -0.00000000000E+00 -0.00000000000E+00 -0.82118088305E+03  0.82118088305E+03  0.00000000000E+00 0.  1.
         24    2    1    2    0    0 -0.86136699967E+01  0.14213073010E+03  0.18881327381E+03  0.24981200815E+03  0.80499983238E+02 0.  0.
        254    2    1    2    0    0  0.86136699967E+01 -0.14213073010E+03 -0.52451537834E+03  0.10568476534E+04  0.90638581225E+03 0.  0.
         23    2    4    4    0    0  0.18588227297E+03  0.27733070742E+03 -0.47751762110E+03  0.59008311404E+03  0.93329857670E+02 0.  0.
         23    2    4    4    0    0 -0.17726860297E+03 -0.41946143752E+03 -0.46997757248E+02  0.46676453938E+03  0.91040050925E+02 0.  0.
          4    1    3    3  502    0 -0.30942254502E+02  0.13031615414E+03  0.17689004656E+03  0.22187792075E+03  0.00000000000E+00 0. -1.
         -3    1    3    3    0  502  0.22328584506E+02  0.11814575957E+02  0.11923227252E+02  0.27934087405E+02  0.00000000000E+00 0.  1.
         13    1    5    5    0    0 -0.41197931303E+01  0.81238924337E+01  0.92153744450E+00  0.91553020143E+01  0.00000000000E+00 0.  1.
        -13    1    5    5    0    0  0.19000206610E+03  0.26920681499E+03 -0.47843915854E+03  0.58092781202E+03  0.00000000000E+00 0. -1.
          3    1    6    6  503    0 -0.14389879243E+03 -0.38620049689E+03 -0.20359943864E+02  0.41264053797E+03  0.00000000000E+00 0. -1.
         -3    1    6    6    0  503 -0.33369810539E+02 -0.33260940628E+02 -0.26637813384E+02  0.54124001411E+02  0.00000000000E+00 0.  1.
<mgrwt>
<rscale>  0 0.12627999E+04</rscale>
<asrwt>0</asrwt>
<pdfrwt beam="1">  1        2 0.74689043E-01 0.12627999E+04</pdfrwt>
<pdfrwt beam="2">  1       -1 0.12633552E+00 0.12627999E+04</pdfrwt>
<totfact> 0.39042044E+01</totfact>
</mgrwt>
</event>
<event>
12    7  0.1606355E-007  0.1943068E+04  0.7818608E-02  0.8633711E-01
          2   -1    0    0  501    0  0.00000000000E+00  0.00000000000E+00  0.18132913635E+04  0.18132913635E+04  0.00000000000E+00 0. -1.
         -1   -1    0    0    0  501 -0.00000000000E+00 -0.00000000000E+00 -0.52053315861E+03  0.52053315861E+03  0.00000000000E+00 0.  1.
         24    2    1    2    0    0  0.57599256440E+03 -0.28819216180E+03  0.30856637265E+02  0.64972439289E+03  0.79796605720E+02 0.  0.
        254    2    1    2    0    0 -0.57599256440E+03  0.28819216180E+03  0.12619015677E+04  0.16841001293E+04  0.91048092925E+03 0.  0.
         23    2    4    4    0    0 -0.64748378817E+03  0.52780894435E+03  0.86311845991E+03  0.12047236035E+04  0.92563207463E+02 0.  0.
         23    2    4    4    0    0  0.71491223772E+02 -0.23961678255E+03  0.39878310775E+03  0.47937652573E+03  0.90811281431E+02 0.  0.
          2    1    3    3  502    0  0.17892835590E+03 -0.50389439097E+02  0.17393057905E+02  0.18670021581E+03  0.00000000000E+00 0. -1.
         -1    1    3    3    0  502  0.39706420850E+03 -0.23780272270E+03  0.13463579360E+02  0.46302417708E+03  0.00000000000E+00 0.  1.
         13    1    5    5    0    0 -0.65913683801E+02  0.49718767161E+02  0.12921390981E+03  0.15333885355E+03  0.00000000000E+00 0.  1.
        -13    1    5    5    0    0 -0.58157010437E+03  0.47809017719E+03  0.73390455010E+03  0.10513847500E+04  0.00000000000E+00 0. -1.
          4    1    6    6  503    0 -0.17774201666E+02 -0.22812910288E+02  0.68308480375E+02  0.74178161287E+02  0.00000000000E+00 0.  1.
         -4    1    6    6    0  503  0.89265425438E+02 -0.21680387227E+03  0.33047462737E+03  0.40519836444E+03  0.00000000000E+00 0. -1.
<mgrwt>
<rscale>  0 0.19430680E+04</rscale>
<asrwt>0</asrwt>
<pdfrwt beam="1">  1        2 0.27896790E+00 0.19430680E+04</pdfrwt>
<pdfrwt beam="2">  1       -1 0.80082026E-01 0.19430680E+04</pdfrwt>
<totfact> 0.14034263E+01</totfact>
</mgrwt>
</event>
<event>
12    7  0.1606355E-007  0.3542778E+04  0.7818608E-02  0.8103726E-01
          2   -1    0    0  501    0  0.00000000000E+00  0.00000000000E+00  0.16008001750E+04  0.16008001750E+04  0.00000000000E+00 0. -1.
         -1   -1    0    0    0  501 -0.00000000000E+00 -0.00000000000E+00 -0.19601568335E+04  0.19601568335E+04  0.00000000000E+00 0.  1.
         24    2    1    2    0    0 -0.10442051512E+04  0.12842826334E+04 -0.15831876245E+03  0.16647766610E+04  0.81671415910E+02 0.  0.
        254    2    1    2    0    0  0.10442051512E+04 -0.12842826334E+04 -0.20103789611E+03  0.18961803475E+04  0.90296035026E+03 0.  0.
         23    2    4    4    0    0  0.87904198879E+03 -0.13968597384E+04 -0.24876663564E+03  0.16715492085E+04  0.90884380533E+02 0.  0.
         23    2    4    4    0    0  0.16516316245E+03  0.11257710493E+03  0.47728739533E+02  0.22463113902E+03  0.90711858408E+02 0.  0.
          4    1    3    3  502    0 -0.16085823241E+03  0.20734045731E+03 -0.54609601960E+02  0.26804410979E+03  0.00000000000E+00 0. -1.
         -3    1    3    3    0  502 -0.88334691883E+03  0.10769421761E+04 -0.10370916049E+03  0.13967325512E+04  0.00000000000E+00 0.  1.
         13    1    5    5    0    0  0.68478166586E+03 -0.10154575126E+04 -0.19361048592E+03  0.12399858508E+04  0.00000000000E+00 0.  1.
        -13    1    5    5    0    0  0.19426032292E+03 -0.38140222573E+03 -0.55156149729E+02  0.43156335770E+03  0.00000000000E+00 0. -1.
          1    1    6    6  503    0  0.10266131887E+02 -0.92174548412E+01 -0.12467708601E+02  0.18595663350E+02  0.00000000000E+00 0. -1.
         -1    1    6    6    0  503  0.15489703056E+03  0.12179455977E+03  0.60196448134E+02  0.20603547567E+03  0.00000000000E+00 0.  1.
<mgrwt>
<rscale>  0 0.35427782E+04</rscale>
<asrwt>0</asrwt>
<pdfrwt beam="1">  1        2 0.24627695E+00 0.35427782E+04</pdfrwt>
<pdfrwt beam="2">  1       -1 0.30156259E+00 0.35427782E+04</pdfrwt>
<totfact> 0.33499294E-01</totfact>
</mgrwt>
</event>
<event>
12    7  0.1606355E-007  0.1619599E+04  0.7818608E-02  0.8808597E-01
         -1   -1    0    0    0  501 -0.00000000000E+00  0.00000000000E+00  0.14333896103E+04  0.14333896103E+04  0.00000000000E+00 0.  1.
          2   -1    0    0  501    0  0.00000000000E+00 -0.00000000000E+00 -0.45749979442E+03  0.45749979442E+03  0.00000000000E+00 0. -1.
         24    2    1    2    0    0  0.16504329529E+03 -0.28890207411E+03 -0.17996877265E+03  0.38648658584E+03  0.79242817695E+02 0.  0.
        254    2    1    2    0    0 -0.16504329529E+03  0.28890207411E+03  0.11558585885E+04  0.15044028189E+04  0.90361223268E+03 0.  0.
         23    2    4    4    0    0  0.17233805724E+03  0.41191657800E+03  0.23990391692E+03  0.51657961824E+03  0.99623990213E+02 0.  0.
         23    2    4    4    0    0 -0.33738135253E+03 -0.12301450389E+03  0.91595467160E+03  0.98782320064E+03  0.88673389949E+02 0.  0.
          4    1    3    3  502    0  0.70344710815E+02 -0.18904404274E+03 -0.13051392025E+03  0.24024968640E+03  0.00000000000E+00 0. -1.
         -3    1    3    3    0  502  0.94698584480E+02 -0.99858031367E+02 -0.49454852396E+02  0.14623689944E+03  0.00000000000E+00 0.  1.
         13    1    5    5    0    0 -0.20443922716E+01  0.88249813661E+02  0.30039932994E+02  0.93244875062E+02  0.00000000000E+00 0. -1.
        -13    1    5    5    0    0  0.17438244951E+03  0.32366676434E+03  0.20986398393E+03  0.42333474318E+03  0.00000000000E+00 0.  1.
          3    1    6    6  503    0 -0.15288848244E+02 -0.10516038119E+02  0.12576046145E+03  0.12712210509E+03  0.00000000000E+00 0. -1.
         -3    1    6    6    0  503 -0.32209250429E+03 -0.11249846577E+03  0.79019421015E+03  0.86070109554E+03  0.00000000000E+00 0.  1.
<mgrwt>
<rscale>  0 0.16195993E+04</rscale>
<asrwt>0</asrwt>
<pdfrwt beam="1">  1        2 0.70384584E-01 0.16195993E+04</pdfrwt>
<pdfrwt beam="2">  1       -1 0.22052148E+00 0.16195993E+04</pdfrwt>
<totfact> 0.81552118E+00</totfact>
</mgrwt>
</event>
<event>
12    7  0.1606355E-007  0.2173505E+04  0.7818608E-02  0.8529537E-01
          2   -1    0    0  501    0  0.00000000000E+00  0.00000000000E+00  0.24178990846E+04  0.24178990846E+04  0.00000000000E+00 0. -1.
         -1   -1    0    0    0  501 -0.00000000000E+00 -0.00000000000E+00 -0.48845358793E+03  0.48845358793E+03  0.00000000000E+00 0.  1.
         24    2    1    2    0    0  0.42817049917E+03 -0.30295026952E+03 -0.17318239509E+03  0.55833909778E+03  0.81495791205E+02 0.  0.
        254    2    1    2    0    0 -0.42817049917E+03  0.30295026952E+03  0.21026278917E+04  0.23480135747E+04  0.90388873976E+03 0.  0.
         23    2    4    4    0    0  0.42353223667E+02  0.48822766473E+03  0.74521227082E+03  0.89654204752E+03  0.91028930735E+02 0.  0.
         23    2    4    4    0    0 -0.47052372284E+03 -0.18527739521E+03  0.13574156209E+04  0.14514715272E+04  0.92044225648E+02 0.  0.
          2    1    3    3  502    0  0.12847265739E+03 -0.70528752718E+02 -0.83283425725E+02  0.16856944461E+03  0.00000000000E+00 0. -1.
         -1    1    3    3    0  502  0.29969784178E+03 -0.23242151680E+03 -0.89898969361E+02  0.38976965317E+03  0.00000000000E+00 0.  1.
         13    1    5    5    0    0  0.32306498410E+02  0.15389050141E+03  0.31041317817E+03  0.34796887425E+03  0.00000000000E+00 0. -1.
        -13    1    5    5    0    0  0.10046725257E+02  0.33433716332E+03  0.43479909264E+03  0.54857317327E+03  0.00000000000E+00 0.  1.
          1    1    6    6  503    0 -0.23541829450E+02 -0.30356853720E+02  0.69317126803E+02  0.79250365108E+02  0.00000000000E+00 0. -1.
         -1    1    6    6    0  503 -0.44698189339E+03 -0.15492054149E+03  0.12880984941E+04  0.13722211621E+04  0.00000000000E+00 0.  1.
<mgrwt>
<rscale>  0 0.21735054E+04</rscale>
<asrwt>0</asrwt>
<pdfrwt beam="1">  1        2 0.37198447E+00 0.21735054E+04</pdfrwt>
<pdfrwt beam="2">  1       -1 0.75146707E-01 0.21735054E+04</pdfrwt>
<totfact> 0.72073226E+00</totfact>
</mgrwt>
</event>
<event>
12    7  0.1606355E-007  0.2433116E+04  0.7818608E-02  0.8427209E-01
         -1   -1    0    0    0  501 -0.00000000000E+00  0.00000000000E+00  0.84166584282E+03  0.84166584282E+03  0.00000000000E+00 0.  1.
          2   -1    0    0  501    0  0.00000000000E+00 -0.00000000000E+00 -0.17584329468E+04  0.17584329468E+04  0.00000000000E+00 0. -1.
         24    2    1    2    0    0 -0.16747013131E+03 -0.80133793942E+03 -0.10965114951E+04  0.13706134825E+04  0.77814660772E+02 0.  0.
        254    2    1    2    0    0  0.16747013131E+03  0.80133793942E+03  0.17974439114E+03  0.12294853071E+04  0.89952061468E+03 0.  0.
         23    2    4    4    0    0  0.17062759725E+03  0.98696028351E+03  0.20282415274E+03  0.10254030070E+04  0.84316734290E+02 0.  0.
         23    2    4    4    0    0 -0.31574659432E+01 -0.18562234409E+03 -0.23079761603E+02  0.20408230011E+03  0.81555414314E+02 0.  0.
          4    1    3    3  502    0 -0.25940215107E+02 -0.53916950570E+02 -0.10574814819E+03  0.12150145334E+03  0.00000000000E+00 0. -1.
         -3    1    3    3    0  502 -0.14152991620E+03 -0.74742098885E+03 -0.99076334691E+03  0.12491120291E+04  0.00000000000E+00 0.  1.
         13    1    5    5    0    0  0.85581677294E+02  0.71288446551E+03  0.15348520829E+03  0.73422489321E+03  0.00000000000E+00 0.  1.
        -13    1    5    5    0    0  0.85045919957E+02  0.27407581801E+03  0.49338944453E+02  0.29117811380E+03  0.00000000000E+00 0. -1.
          1    1    6    6  503    0 -0.23196488500E+02 -0.13193207422E+02  0.77228608118E+01  0.27780935548E+02  0.00000000000E+00 0. -1.
         -1    1    6    6    0  503  0.20039022557E+02 -0.17242913667E+03 -0.30802622415E+02  0.17630136456E+03  0.00000000000E+00 0.  1.
<mgrwt>
<rscale>  0 0.24331157E+04</rscale>
<asrwt>0</asrwt>
<pdfrwt beam="1">  1        2 0.27052814E+00 0.24331157E+04</pdfrwt>
<pdfrwt beam="2">  1       -1 0.12948705E+00 0.24331157E+04</pdfrwt>
<totfact> 0.47589100E+00</totfact>
</mgrwt>
</event>
<event>
12    7  0.1606355E-007  0.1511981E+04  0.7818608E-02  0.8876524E-01
         -1   -1    0    0    0  501 -0.00000000000E+00  0.00000000000E+00  0.37412099433E+03  0.37412099433E+03  0.00000000000E+00 0.  1.
          2   -1    0    0  501    0  0.00000000000E+00 -0.00000000000E+00 -0.15276393257E+04  0.15276393257E+04  0.00000000000E+00 0. -1.
         24    2    1    2    0    0 -0.33503161152E+03  0.37640521915E+02  0.57988334499E+02  0.35110553606E+03  0.79053531885E+02 0.  0.
        254    2    1    2    0    0  0.33503161152E+03 -0.37640521915E+02 -0.12115066659E+04  0.15506547840E+04  0.90725898620E+03 0.  0.
         23    2    4    4    0    0  0.11805937188E+03 -0.42897974368E+03 -0.34516657778E+03  0.57104800911E+03  0.94837895958E+02 0.  0.
         23    2    4    4    0    0  0.21697223964E+03  0.39133922177E+03 -0.86634008809E+03  0.97960677488E+03  0.94132597347E+02 0.  0.
          4    1    3    3  502    0 -0.31623935080E+03  0.53583222364E+02  0.47189545191E+02  0.32419954024E+03  0.00000000000E+00 0. -1.
         -3    1    3    3    0  502 -0.18792260720E+02 -0.15942700449E+02  0.10798789308E+02  0.26905995821E+02  0.00000000000E+00 0.  1.
         13    1    5    5    0    0  0.48315380934E+01 -0.63359165569E+01 -0.31996831281E+02  0.32974002047E+02  0.00000000000E+00 0. -1.
        -13    1    5    5    0    0  0.11322783379E+03 -0.42264382713E+03 -0.31316974650E+03  0.53807400706E+03  0.00000000000E+00 0.  1.
          3    1    6    6  503    0  0.89367047772E+02  0.10272320050E+03 -0.33515132491E+03  0.36175258912E+03  0.00000000000E+00 0. -1.
         -3    1    6    6    0  503  0.12760519187E+03  0.28861602127E+03 -0.53118876318E+03  0.61785418575E+03  0.00000000000E+00 0.  1.
<mgrwt>
<rscale>  0 0.15119814E+04</rscale>
<asrwt>0</asrwt>
<pdfrwt beam="1">  1        2 0.23502144E+00 0.15119814E+04</pdfrwt>
<pdfrwt beam="2">  1       -1 0.57557076E-01 0.15119814E+04</pdfrwt>
<totfact> 0.41179023E+01</totfact>
</mgrwt>
</event>
<event>
12    7  0.1606355E-007  0.2687457E+04  0.7818608E-02  0.8339086E-01
         -1   -1    0    0    0  501 -0.00000000000E+00  0.00000000000E+00  0.18162013721E+04  0.18162013721E+04  0.00000000000E+00 0.  1.
          2   -1    0    0  501    0  0.00000000000E+00 -0.00000000000E+00 -0.99416647694E+03  0.99416647694E+03  0.00000000000E+00 0. -1.
         24    2    1    2    0    0 -0.23192630427E+03  0.85636972370E+03 -0.47018624072E+03  0.10074866089E+04  0.82433317517E+02 0.  0.
        254    2    1    2    0    0  0.23192630427E+03 -0.85636972370E+03  0.12922211359E+04  0.18028812402E+04  0.89072239664E+03 0.  0.
         23    2    4    4    0    0  0.33362031371E+03 -0.11800761445E+03  0.75750398210E+02  0.37346164343E+03  0.92234296766E+02 0.  0.
         23    2    4    4    0    0 -0.10169400944E+03 -0.73836210925E+03  0.12164707377E+04  0.14294195968E+04  0.88989055478E+02 0.  0.
          4    1    3    3  502    0 -0.20498585325E+03  0.82293429760E+03 -0.44904484551E+03  0.95962562048E+03  0.00000000000E+00 0. -1.
         -3    1    3    3    0  502 -0.26940451024E+02  0.33435426099E+02 -0.21141395207E+02  0.47860988405E+02  0.00000000000E+00 0.  1.
         13    1    5    5    0    0  0.21344390475E+03 -0.55093999043E+02  0.87794861646E+02  0.23727955440E+03  0.00000000000E+00 0. -1.
        -13    1    5    5    0    0  0.12017640896E+03 -0.62913615406E+02 -0.12044463436E+02  0.13618208903E+03  0.00000000000E+00 0.  1.
          2    1    6    6  503    0 -0.49574490607E+00 -0.19171852803E+03  0.36986525518E+03  0.41660118428E+03  0.00000000000E+00 0.  1.
         -2    1    6    6    0  503 -0.10119826453E+03 -0.54664358122E+03  0.84660548253E+03  0.10128184125E+04  0.00000000000E+00 0. -1.
<mgrwt>
<rscale>  0 0.26874572E+04</rscale>
<asrwt>0</asrwt>
<pdfrwt beam="1">  1        2 0.15294869E+00 0.26874572E+04</pdfrwt>
<pdfrwt beam="2">  1       -1 0.27941559E+00 0.26874572E+04</pdfrwt>
<totfact> 0.11418722E+00</totfact>
</mgrwt>
</event>
<event>
12    7  0.1606355E-007  0.1775370E+04  0.7818608E-02  0.8719508E-01
          2   -1    0    0  501    0  0.00000000000E+00  0.00000000000E+00  0.24203579612E+04  0.24203579612E+04  0.00000000000E+00 0. -1.
         -1   -1    0    0    0  501 -0.00000000000E+00 -0.00000000000E+00 -0.32556545847E+03  0.32556545847E+03  0.00000000000E+00 0.  1.
         24    2    1    2    0    0 -0.41049256346E+03  0.75998742486E+02  0.15658673546E+04  0.16234784309E+04  0.97271217541E+02 0.  0.
        254    2    1    2    0    0  0.41049256346E+03 -0.75998742486E+02  0.52892514811E+03  0.11224449888E+04  0.89768646366E+03 0.  0.
         23    2    4    4    0    0  0.23208252435E+02 -0.35055264568E+03  0.52620529245E+03  0.63908180552E+03  0.90043122834E+02 0.  0.
         23    2    4    4    0    0  0.38728431103E+03  0.27455390320E+03  0.27198556644E+01  0.48336318327E+03  0.90904268331E+02 0.  0.
          2    1    3    3  502    0 -0.34776617412E+03  0.98010559188E+02  0.13577024613E+04  0.14049567093E+04  0.00000000000E+00 0. -1.
         -1    1    3    3    0  502 -0.62726389342E+02 -0.22011816702E+02  0.20816489325E+03  0.21852172152E+03  0.00000000000E+00 0.  1.
         13    1    5    5    0    0  0.56861715351E+02 -0.17795206796E+03  0.26883587009E+03  0.32737275118E+03  0.00000000000E+00 0.  1.
        -13    1    5    5    0    0 -0.33653462916E+02 -0.17260057772E+03  0.25736942235E+03  0.31170905434E+03  0.00000000000E+00 0. -1.
          4    1    6    6  503    0  0.27425369640E+03  0.14484960871E+03  0.17755817008E+02  0.31066343230E+03  0.00000000000E+00 0. -1.
         -4    1    6    6    0  503  0.11303061462E+03  0.12970429449E+03 -0.15035961344E+02  0.17269975097E+03  0.00000000000E+00 0.  1.
<mgrwt>
<rscale>  0 0.17753703E+04</rscale>
<asrwt>0</asrwt>
<pdfrwt beam="1">  1        2 0.37236275E+00 0.17753703E+04</pdfrwt>
<pdfrwt beam="2">  1       -1 0.50086995E-01 0.17753703E+04</pdfrwt>
<totfact> 0.16691747E+01</totfact>
</mgrwt>
</event>
<event>
12    7  0.1606355E-007  0.1845127E+04  0.7818608E-02  0.8682663E-01
          2   -1    0    0  501    0  0.00000000000E+00  0.00000000000E+00  0.35695840370E+04  0.35695840370E+04  0.00000000000E+00 0. -1.
         -1   -1    0    0    0  501 -0.00000000000E+00 -0.00000000000E+00 -0.23843766770E+03  0.23843766770E+03  0.00000000000E+00 0.  1.
         24    2    1    2    0    0 -0.12431116549E+03  0.67377881474E+03  0.98023001023E+03  0.11985982208E+04  0.79722423428E+02 0.  0.
        254    2    1    2    0    0  0.12431116549E+03 -0.67377881474E+03  0.23509163590E+04  0.26094234839E+04  0.90158307113E+03 0.  0.
         23    2    4    4    0    0  0.21099346990E+03 -0.86293267269E+03  0.17008031073E+04  0.19207311857E+04  0.85475352737E+02 0.  0.
         23    2    4    4    0    0 -0.86682304412E+02  0.18915385795E+03  0.65011325170E+03  0.68869229820E+03  0.91415740871E+02 0.  0.
          2    1    3    3  502    0  0.82540172931E+01  0.48256081460E+02  0.91151909581E+02  0.10346713884E+03  0.00000000000E+00 0. -1.
         -1    1    3    3    0  502 -0.13256518278E+03  0.62552273328E+03  0.88907810065E+03  0.10951310819E+04  0.00000000000E+00 0.  1.
         13    1    5    5    0    0 -0.41166159672E+01 -0.23164073613E+02  0.69896559715E+02  0.73749914531E+02  0.00000000000E+00 0.  1.
        -13    1    5    5    0    0  0.21511008587E+03 -0.83976859908E+03  0.16309065476E+04  0.18469812712E+04  0.00000000000E+00 0. -1.
          1    1    6    6  503    0 -0.74435285033E+01  0.11762543709E+03  0.28832289595E+03  0.31148232999E+03  0.00000000000E+00 0. -1.
         -1    1    6    6    0  503 -0.79238775908E+02  0.71528420863E+02  0.36179035575E+03  0.37720996820E+03  0.00000000000E+00 0.  1.
<mgrwt>
<rscale>  0 0.18451269E+04</rscale>
<asrwt>0</asrwt>
<pdfrwt beam="1">  1        2 0.54916674E+00 0.18451269E+04</pdfrwt>
<pdfrwt beam="2">  1       -1 0.36682721E-01 0.18451269E+04</pdfrwt>
<totfact> 0.55887265E+00</totfact>
</mgrwt>
</event>
<event>
12    7  0.1606355E-007  0.2275021E+04  0.7818608E-02  0.8487836E-01
          2   -1    0    0  501    0  0.00000000000E+00  0.00000000000E+00  0.26683633012E+04  0.26683633012E+04  0.00000000000E+00 0. -1.
         -1   -1    0    0    0  501 -0.00000000000E+00 -0.00000000000E+00 -0.48491512462E+03  0.48491512462E+03  0.00000000000E+00 0.  1.
         24    2    1    2    0    0 -0.63961987015E+03  0.73334862977E+03  0.89215879827E+03  0.13227601573E+04  0.82663906158E+02 0.  0.
        254    2    1    2    0    0  0.63961987015E+03 -0.73334862977E+03  0.12912893783E+04  0.18305182685E+04  0.85816961126E+03 0.  0.
         23    2    4    4    0    0  0.71164703808E+03 -0.30005693200E+03  0.10913387848E+04  0.13400236276E+04  0.90373171012E+02 0.  0.
         23    2    4    4    0    0 -0.72027167928E+02 -0.43329169776E+03  0.19995059348E+03  0.49049464089E+03  0.87607902822E+02 0.  0.
          4    1    3    3  502    0 -0.62200649337E+03  0.71015531057E+03  0.88190134239E+03  0.12918833619E+04  0.00000000000E+00 0. -1.
         -3    1    3    3    0  502 -0.17613376778E+02  0.23193319195E+02  0.10257455881E+02  0.30876795461E+02  0.00000000000E+00 0.  1.
         13    1    5    5    0    0  0.30116388141E+03 -0.79383644985E+02  0.44760098132E+03  0.54529632773E+03  0.00000000000E+00 0.  1.
        -13    1    5    5    0    0  0.41048315667E+03 -0.22067328702E+03  0.64373780347E+03  0.79472729985E+03  0.00000000000E+00 0. -1.
          2    1    6    6  503    0 -0.54052871231E+02 -0.12040188880E+03  0.36022819062E+02  0.13680632737E+03  0.00000000000E+00 0. -1.
         -2    1    6    6    0  503 -0.17974296697E+02 -0.31288980896E+03  0.16392777442E+03  0.35368831352E+03  0.00000000000E+00 0.  1.
<mgrwt>
<rscale>  0 0.22750206E+04</rscale>
<asrwt>0</asrwt>
<pdfrwt beam="1">  1        2 0.41051742E+00 0.22750206E+04</pdfrwt>
<pdfrwt beam="2">  1       -1 0.74602329E-01 0.22750206E+04</pdfrwt>
<totfact> 0.51831351E+00</totfact>
</mgrwt>
</event>
<event>
12    7  0.1606355E-007  0.2108325E+04  0.7818608E-02  0.8557585E-01
         -1   -1    0    0    0  501 -0.00000000000E+00  0.00000000000E+00  0.59259769756E+03  0.59259769756E+03  0.00000000000E+00 0.  1.
          2   -1    0    0  501    0  0.00000000000E+00 -0.00000000000E+00 -0.18752324691E+04  0.18752324691E+04  0.00000000000E+00 0. -1.
         24    2    1    2    0    0  0.69834646147E+03 -0.47450891610E+03 -0.70982190303E+03  0.11059108825E+04  0.79657103947E+02 0.  0.
        254    2    1    2    0    0 -0.69834646147E+03  0.47450891610E+03 -0.57281286849E+03  0.13619192842E+04  0.90214359315E+03 0.  0.
         23    2    4    4    0    0 -0.22574695332E+03  0.66121744272E+03 -0.23094606394E+03  0.74200619730E+03  0.95220370090E+02 0.  0.
         23    2    4    4    0    0 -0.47259950815E+03 -0.18670852663E+03 -0.34186680455E+03  0.61991308690E+03  0.95963296322E+02 0.  0.
          2    1    3    3  502    0  0.35938914099E+02 -0.18799536729E+02 -0.58457299243E+02  0.71149729181E+02  0.00000000000E+00 0. -1.
         -1    1    3    3    0  502  0.66240754737E+03 -0.45570937937E+03 -0.65136460379E+03  0.10347611533E+04  0.00000000000E+00 0.  1.
         13    1    5    5    0    0 -0.15368047728E+03  0.30288572555E+03 -0.11169111375E+03  0.35753651104E+03  0.00000000000E+00 0.  1.
        -13    1    5    5    0    0 -0.72066476042E+02  0.35833171718E+03 -0.11925495019E+03  0.38446968625E+03  0.00000000000E+00 0. -1.
          1    1    6    6  503    0 -0.17854691168E+03 -0.23193010287E+02 -0.10482424020E+03  0.20833875474E+03  0.00000000000E+00 0. -1.
         -1    1    6    6    0  503 -0.29405259647E+03 -0.16351551634E+03 -0.23704256435E+03  0.41157433215E+03  0.00000000000E+00 0.  1.
<mgrwt>
<rscale>  0 0.21083249E+04</rscale>
<asrwt>0</asrwt>
<pdfrwt beam="1">  1        2 0.28849730E+00 0.21083249E+04</pdfrwt>
<pdfrwt beam="2">  1       -1 0.91168877E-01 0.21083249E+04</pdfrwt>
<totfact> 0.96465937E+00</totfact>
</mgrwt>
</event>
<event>
12    7  0.1606355E-007  0.2811201E+04  0.7818608E-02  0.8299799E-01
          2   -1    0    0  501    0  0.00000000000E+00  0.00000000000E+00  0.23986421827E+04  0.23986421827E+04  0.00000000000E+00 0. -1.
         -1   -1    0    0    0  501 -0.00000000000E+00 -0.00000000000E+00 -0.82367970244E+03  0.82367970244E+03  0.00000000000E+00 0.  1.
         24    2    1    2    0    0 -0.21371278000E+03  0.54844650164E+03 -0.57103108896E+03  0.82408867122E+03  0.81110517064E+02 0.  0.
        254    2    1    2    0    0  0.21371278000E+03 -0.54844650164E+03  0.21459935692E+04  0.23982332139E+04  0.89429717190E+03 0.  0.
         23    2    4    4    0    0  0.42061920015E+03 -0.65783268594E+03  0.13354674888E+04  0.15496012945E+04  0.90146569065E+02 0.  0.
         23    2    4    4    0    0 -0.20690642015E+03  0.10938618429E+03  0.81052608038E+03  0.84863191942E+03  0.91913022307E+02 0.  0.
          2    1    3    3  502    0 -0.14981505035E+03  0.39712269433E+03 -0.45955025923E+03  0.62556967991E+03  0.00000000000E+00 0. -1.
         -1    1    3    3    0  502 -0.63897729654E+02  0.15132380732E+03 -0.11148082972E+03  0.19851899131E+03  0.00000000000E+00 0.  1.
         13    1    5    5    0    0  0.36814417504E+03 -0.51053844016E+03  0.10553440598E+04  0.12287923816E+04  0.00000000000E+00 0. -1.
        -13    1    5    5    0    0  0.52475025111E+02 -0.14729424578E+03  0.28012342904E+03  0.32080891290E+03  0.00000000000E+00 0.  1.
          2    1    6    6  503    0 -0.52664767600E+02  0.75640249543E+02  0.25699868467E+03  0.27302627899E+03  0.00000000000E+00 0.  1.
         -2    1    6    6    0  503 -0.15424165255E+03  0.33745934752E+02  0.55352739571E+03  0.57560564043E+03  0.00000000000E+00 0. -1.
<mgrwt>
<rscale>  0 0.28112011E+04</rscale>
<asrwt>0</asrwt>
<pdfrwt beam="1">  1        2 0.36902187E+00 0.28112011E+04</pdfrwt>
<pdfrwt beam="2">  1       -1 0.12671996E+00 0.28112011E+04</pdfrwt>
<totfact> 0.21286209E+00</totfact>
</mgrwt>
</event>
<event>
12    7  0.1606355E-007  0.1815204E+04  0.7818608E-02  0.8698256E-01
          2   -1    0    0  501    0  0.00000000000E+00  0.00000000000E+00  0.12556829395E+04  0.12556829395E+04  0.00000000000E+00 0. -1.
         -1   -1    0    0    0  501 -0.00000000000E+00 -0.00000000000E+00 -0.65601056570E+03  0.65601056570E+03  0.00000000000E+00 0.  1.
         24    2    1    2    0    0  0.38284181026E+03  0.18495989797E+02  0.82180528737E+03  0.91032971955E+03  0.80164297683E+02 0.  0.
        254    2    1    2    0    0 -0.38284181026E+03 -0.18495989797E+02 -0.22213291360E+03  0.10013637856E+04  0.89804033681E+03 0.  0.
         23    2    4    4    0    0 -0.16625156540E+03 -0.37889851209E+03 -0.35265171675E+03  0.55127222883E+03  0.91291683575E+02 0.  0.
         23    2    4    4    0    0 -0.21659024486E+03  0.36040252229E+03  0.13051880315E+03  0.45009155680E+03  0.93519726713E+02 0.  0.
          2    1    3    3  502    0  0.20076313581E+03  0.24215757714E+02  0.34481651207E+03  0.39973824763E+03  0.00000000000E+00 0. -1.
         -1    1    3    3    0  502  0.18207867445E+03 -0.57197679169E+01  0.47698877530E+03  0.51059147192E+03  0.00000000000E+00 0.  1.
         13    1    5    5    0    0 -0.44992822501E+02 -0.21074861224E+03 -0.19777346578E+03  0.29249559895E+03  0.00000000000E+00 0. -1.
        -13    1    5    5    0    0 -0.12125874290E+03 -0.16814989985E+03 -0.15487825097E+03  0.25877662988E+03  0.00000000000E+00 0.  1.
          1    1    6    6  503    0 -0.20460649109E+03  0.34784562873E+03  0.14361010261E+03  0.42835062647E+03  0.00000000000E+00 0. -1.
         -1    1    6    6    0  503 -0.11983753770E+02  0.12556893555E+02 -0.13091299456E+02  0.21740930330E+02  0.00000000000E+00 0.  1.
<mgrwt>
<rscale>  0 0.18152039E+04</rscale>
<asrwt>0</asrwt>
<pdfrwt beam="1">  1        2 0.19318199E+00 0.18152039E+04</pdfrwt>
<pdfrwt beam="2">  1       -1 0.10092470E+00 0.18152039E+04</pdfrwt>
<totfact> 0.17608906E+01</totfact>
</mgrwt>
</event>
<event>
12    7  0.1606355E-007  0.1612919E+04  0.7818608E-02  0.8812651E-01
         -1   -1    0    0    0  501 -0.00000000000E+00  0.00000000000E+00  0.18591107001E+04  0.18591107001E+04  0.00000000000E+00 0.  1.
          2   -1    0    0  501    0  0.00000000000E+00 -0.00000000000E+00 -0.34983216049E+03  0.34983216049E+03  0.00000000000E+00 0. -1.
         24    2    1    2    0    0  0.23187998140E+03 -0.49267645774E+03  0.39928279577E+03  0.67972093579E+03  0.78072925934E+02 0.  0.
        254    2    1    2    0    0 -0.23187998140E+03  0.49267645774E+03  0.11099957438E+04  0.15292219248E+04  0.89996151368E+03 0.  0.
         23    2    4    4    0    0  0.28340722147E+03  0.42468500489E+03  0.47480778896E+03  0.70340032864E+03  0.93019241623E+02 0.  0.
         23    2    4    4    0    0 -0.51528720287E+03  0.67991452851E+02  0.63518795484E+03  0.82582159611E+03  0.91508641829E+02 0.  0.
          2    1    3    3  502    0  0.19018127369E+03 -0.45399231608E+03  0.36980434476E+03  0.61565671711E+03  0.00000000000E+00 0. -1.
         -1    1    3    3    0  502  0.41698707710E+02 -0.38684141669E+02  0.29478451013E+02  0.64064218683E+02  0.00000000000E+00 0.  1.
         13    1    5    5    0    0  0.26553195718E+03  0.39887307056E+03  0.47078229978E+03  0.67174617266E+03  0.00000000000E+00 0. -1.
        -13    1    5    5    0    0  0.17875264291E+02  0.25811934337E+02  0.40254891809E+01  0.31654155981E+02  0.00000000000E+00 0.  1.
          1    1    6    6  503    0 -0.41403838001E+03  0.19498782371E+02  0.47843414994E+03  0.63301439041E+03  0.00000000000E+00 0. -1.
         -1    1    6    6    0  503 -0.10124882286E+03  0.48492670480E+02  0.15675380490E+03  0.19280720571E+03  0.00000000000E+00 0.  1.
<mgrwt>
<rscale>  0 0.16129187E+04</rscale>
<asrwt>0</asrwt>
<pdfrwt beam="1">  1        2 0.53820333E-01 0.16129187E+04</pdfrwt>
<pdfrwt beam="2">  1       -1 0.28601703E+00 0.16129187E+04</pdfrwt>
<totfact> 0.41295656E+00</totfact>
</mgrwt>
</event>
<event>
12    7  0.1606355E-007  0.1771957E+04  0.7818608E-02  0.8721356E-01
          2   -1    0    0  501    0  0.00000000000E+00  0.00000000000E+00  0.18050881425E+04  0.18050881425E+04  0.00000000000E+00 0. -1.
         -1   -1    0    0    0  501 -0.00000000000E+00 -0.00000000000E+00 -0.43485847693E+03  0.43485847693E+03  0.00000000000E+00 0.  1.
         24    2    1    2    0    0 -0.40322629618E+03  0.49944427881E+03  0.61499324340E+03  0.89238272268E+03  0.78065361999E+02 0.  0.
        254    2    1    2    0    0  0.40322629618E+03 -0.49944427881E+03  0.75523642222E+03  0.13475638968E+04  0.91296789042E+03 0.  0.
         23    2    4    4    0    0  0.51941881979E+02 -0.65427443426E+03  0.25402056776E+03  0.70937971901E+03  0.88995182267E+02 0.  0.
         23    2    4    4    0    0  0.35128441420E+03  0.15483015545E+03  0.50121585446E+03  0.63818417779E+03  0.93212634963E+02 0.  0.
          2    1    3    3  502    0 -0.26224684384E+03  0.35230726280E+03  0.46295237629E+03  0.63813691105E+03  0.00000000000E+00 0. -1.
         -1    1    3    3    0  502 -0.14097945234E+03  0.14713701600E+03  0.15204086711E+03  0.25424581163E+03  0.00000000000E+00 0.  1.
         13    1    5    5    0    0  0.62022041402E+02 -0.64384820897E+03  0.24225839555E+03  0.69070715939E+03  0.00000000000E+00 0. -1.
        -13    1    5    5    0    0 -0.10080159423E+02 -0.10426225292E+02  0.11762172209E+02  0.18672559624E+02  0.00000000000E+00 0.  1.
          3    1    6    6  503    0  0.28769556134E+03  0.83973779444E+02  0.37301687893E+03  0.47849965895E+03  0.00000000000E+00 0. -1.
         -3    1    6    6    0  503  0.63588852864E+02  0.70856376008E+02  0.12819897552E+03  0.15968451883E+03  0.00000000000E+00 0.  1.
<mgrwt>
<rscale>  0 0.17719570E+04</rscale>
<asrwt>0</asrwt>
<pdfrwt beam="1">  1        2 0.27770586E+00 0.17719570E+04</pdfrwt>
<pdfrwt beam="2">  1       -1 0.66901305E-01 0.17719570E+04</pdfrwt>
<totfact> 0.20911001E+01</totfact>
</mgrwt>
</event>
<event>
12    7  0.1606355E-007  0.2730412E+04  0.7818608E-02  0.8325204E-01
          2   -1    0    0  501    0  0.00000000000E+00  0.00000000000E+00  0.28144104627E+04  0.28144104627E+04  0.00000000000E+00 0. -1.
         -1   -1    0    0    0  501 -0.00000000000E+00 -0.00000000000E+00 -0.66223027102E+03  0.66223027102E+03  0.00000000000E+00 0.  1.
         24    2    1    2    0    0 -0.61275429281E+03 -0.43403013534E+02  0.22980747400E+04  0.23800977344E+04  0.79787653424E+02 0.  0.
        254    2    1    2    0    0  0.61275429281E+03  0.43403013534E+02 -0.14589454832E+03  0.10965429993E+04  0.89653203247E+03 0.  0.
         23    2    4    4    0    0 -0.59437897347E+02  0.15051740372E+02  0.27561947421E+03  0.29723223602E+03  0.92851973797E+02 0.  0.
         23    2    4    4    0    0  0.67219219015E+03  0.28351273162E+02 -0.42151402253E+03  0.79931076333E+03  0.92614739578E+02 0.  0.
          4    1    3    3  502    0 -0.45874584018E+03 -0.27850153678E+01  0.17737871421E+04  0.18321507383E+04  0.00000000000E+00 0. -1.
         -3    1    3    3    0  502 -0.15400845262E+03 -0.40617998167E+02  0.52428759789E+03  0.54794699612E+03  0.00000000000E+00 0.  1.
         13    1    5    5    0    0 -0.74647016824E+02  0.30123161444E+02  0.15426873651E+03  0.17400696837E+03  0.00000000000E+00 0. -1.
        -13    1    5    5    0    0  0.15209119478E+02 -0.15071421072E+02  0.12135073769E+03  0.12322526765E+03  0.00000000000E+00 0.  1.
          2    1    6    6  503    0  0.50131924931E+03  0.54425292729E+01 -0.26809135530E+03  0.56852755926E+03  0.00000000000E+00 0. -1.
         -2    1    6    6    0  503  0.17087294085E+03  0.22908743889E+02 -0.15342266723E+03  0.23078320407E+03  0.00000000000E+00 0.  1.
<mgrwt>
<rscale>  0 0.27304123E+04</rscale>
<asrwt>0</asrwt>
<pdfrwt beam="1">  1        2 0.43298622E+00 0.27304123E+04</pdfrwt>
<pdfrwt beam="2">  1       -1 0.10188158E+00 0.27304123E+04</pdfrwt>
<totfact> 0.20579166E+00</totfact>
</mgrwt>
</event>
<event>
12    7  0.1606355E-007  0.1763642E+04  0.7818608E-02  0.8725877E-01
         -1   -1    0    0    0  501 -0.00000000000E+00  0.00000000000E+00  0.97422602231E+03  0.97422602231E+03  0.00000000000E+00 0.  1.
          2   -1    0    0  501    0  0.00000000000E+00 -0.00000000000E+00 -0.79818061682E+03  0.79818061682E+03  0.00000000000E+00 0. -1.
         24    2    1    2    0    0 -0.53008173962E+03 -0.44057182252E+02 -0.31096669663E+03  0.62136146667E+03  0.80387187166E+02 0.  0.
        254    2    1    2    0    0  0.53008173962E+03  0.44057182252E+02  0.48701210213E+03  0.11510451725E+04  0.89710451757E+03 0.  0.
         23    2    4    4    0    0  0.66273465994E+02  0.40010900945E+03  0.58560821647E+02  0.42028301931E+03  0.93429410547E+02 0.  0.
         23    2    4    4    0    0  0.46380827362E+03 -0.35605182720E+03  0.42845128048E+03  0.73076215315E+03  0.92475977426E+02 0.  0.
          2    1    3    3  502    0 -0.37533937628E+03 -0.21053595542E+02 -0.25900233485E+03  0.45651408602E+03  0.00000000000E+00 0. -1.
         -1    1    3    3    0  502 -0.15474236333E+03 -0.23003586710E+02 -0.51964361781E+02  0.16484738065E+03  0.00000000000E+00 0.  1.
         13    1    5    5    0    0  0.11762298503E+02  0.13637714606E+03  0.63582344406E+02  0.15092975900E+03  0.00000000000E+00 0. -1.
        -13    1    5    5    0    0  0.54511167491E+02  0.26373186339E+03 -0.50215227585E+01  0.26935326031E+03  0.00000000000E+00 0.  1.
          4    1    6    6  503    0  0.24138246118E+03 -0.19633710344E+03  0.17164149388E+03  0.35535130951E+03  0.00000000000E+00 0. -1.
         -4    1    6    6    0  503  0.22242581244E+03 -0.15971472376E+03  0.25680978660E+03  0.37541084364E+03  0.00000000000E+00 0.  1.
<mgrwt>
<rscale>  0 0.17636421E+04</rscale>
<asrwt>0</asrwt>
<pdfrwt beam="1">  1        2 0.12279702E+00 0.17636421E+04</pdfrwt>
<pdfrwt beam="2">  1       -1 0.14988093E+00 0.17636421E+04</pdfrwt>
<totfact> 0.13057750E+01</totfact>
</mgrwt>
</event>
<event>
12    7  0.1606355E-007  0.1904462E+04  0.7818608E-02  0.8652639E-01
         -1   -1    0    0    0  501 -0.00000000000E+00  0.00000000000E+00  0.56061036430E+03  0.56061036430E+03  0.00000000000E+00 0.  1.
          2   -1    0    0  501    0  0.00000000000E+00 -0.00000000000E+00 -0.16174219460E+04  0.16174219460E+04  0.00000000000E+00 0. -1.
         24    2    1    2    0    0 -0.62560496509E+03 -0.30380562984E+03 -0.69038293078E+03  0.98316708164E+03  0.79432274565E+02 0.  0.
        254    2    1    2    0    0  0.62560496509E+03  0.30380562984E+03 -0.36642865093E+03  0.11948652287E+04  0.89986305923E+03 0.  0.
         23    2    4    4    0    0  0.64933884628E+03 -0.11058301910E+03 -0.38712620045E+03  0.76940013508E+03  0.90776271024E+02 0.  0.
         23    2    4    4    0    0 -0.23733881191E+02  0.41438864895E+03  0.20697549527E+02  0.42546509358E+03  0.91164180480E+02 0.  0.
          4    1    3    3  502    0 -0.54408173286E+03 -0.23940194348E+03 -0.56225712771E+03  0.81821225866E+03  0.00000000000E+00 0. -1.
         -1    1    3    3    0  502 -0.81523232237E+02 -0.64403686366E+02 -0.12812580307E+03  0.16495482298E+03  0.00000000000E+00 0.  1.
         13    1    5    5    0    0  0.59376659918E+03 -0.83881332033E+02 -0.32585428004E+03  0.68247773882E+03  0.00000000000E+00 0. -1.
        -13    1    5    5    0    0  0.55572247101E+02 -0.26701687070E+02 -0.61271920418E+02  0.86922396262E+02  0.00000000000E+00 0.  1.
          4    1    6    6  503    0 -0.17207890352E+01  0.26326408317E+03  0.54970109031E+02  0.26894730244E+03  0.00000000000E+00 0. -1.
         -4    1    6    6    0  503 -0.22013092156E+02  0.15112456577E+03 -0.34272559503E+02  0.15651779113E+03  0.00000000000E+00 0.  1.
<mgrwt>
<rscale>  0 0.19044616E+04</rscale>
<asrwt>0</asrwt>
<pdfrwt beam="1">  1        2 0.24883415E+00 0.19044616E+04</pdfrwt>
<pdfrwt beam="2">  1       -1 0.86247748E-01 0.19044616E+04</pdfrwt>
<totfact> 0.15424766E+01</totfact>
</mgrwt>
</event>
<event>
12    7  0.1606355E-007  0.1566800E+04  0.7818608E-02  0.8841208E-01
          2   -1    0    0  501    0  0.00000000000E+00  0.00000000000E+00  0.15366906157E+04  0.15366906157E+04  0.00000000000E+00 0. -1.
         -1   -1    0    0    0  501 -0.00000000000E+00 -0.00000000000E+00 -0.39937458044E+03  0.39937458044E+03  0.00000000000E+00 0.  1.
         24    2    1    2    0    0 -0.15375383664E+03 -0.46750663255E+03  0.58170266049E+03  0.76620079396E+03  0.80516940367E+02 0.  0.
        254    2    1    2    0    0  0.15375383664E+03  0.46750663255E+03  0.55561337480E+03  0.11698644022E+04  0.90425317447E+03 0.  0.
         23    2    4    4    0    0 -0.33913007476E+02 -0.18635025396E+02  0.62825768004E+03  0.63634713057E+03  0.93448391157E+02 0.  0.
         23    2    4    4    0    0  0.18766684412E+03  0.48614165795E+03 -0.72644305238E+02  0.53351727164E+03  0.88379455069E+02 0.  0.
          2    1    3    3  502    0 -0.72488056531E+02 -0.32419771054E+03  0.35811020193E+03  0.48846861781E+03  0.00000000000E+00 0. -1.
         -1    1    3    3    0  502 -0.81265780114E+02 -0.14330892201E+03  0.22359245856E+03  0.27773217615E+03  0.00000000000E+00 0.  1.
         13    1    5    5    0    0 -0.57847729518E+02  0.57444951287E+01  0.25563181744E+03  0.26215832072E+03  0.00000000000E+00 0. -1.
        -13    1    5    5    0    0  0.23934722042E+02 -0.24379520525E+02  0.37262586260E+03  0.37418880985E+03  0.00000000000E+00 0.  1.
          1    1    6    6  503    0  0.10570800405E+03  0.19217783584E+03 -0.62955038810E+02  0.22818816714E+03  0.00000000000E+00 0. -1.
         -1    1    6    6    0  503  0.81958840072E+02  0.29396382210E+03 -0.96892664280E+01  0.30532910450E+03  0.00000000000E+00 0.  1.
<mgrwt>
<rscale>  0 0.15667995E+04</rscale>
<asrwt>0</asrwt>
<pdfrwt beam="1">  1        2 0.23641394E+00 0.15667995E+04</pdfrwt>
<pdfrwt beam="2">  1       -1 0.61442244E-01 0.15667995E+04</pdfrwt>
<totfact> 0.35617015E+01</totfact>
</mgrwt>
</event>
<event>
12    7  0.1606355E-007  0.1369580E+04  0.7818608E-02  0.8976137E-01
         -1   -1    0    0    0  501 -0.00000000000E+00  0.00000000000E+00  0.42446200831E+03  0.42446200831E+03  0.00000000000E+00 0.  1.
          2   -1    0    0  501    0  0.00000000000E+00 -0.00000000000E+00 -0.11047804617E+04  0.11047804617E+04  0.00000000000E+00 0. -1.
         24    2    1    2    0    0 -0.12277320737E+01 -0.19414313648E+03  0.17519414160E+03  0.27346546307E+03  0.79983169929E+02 0.  0.
        254    2    1    2    0    0  0.12277320737E+01  0.19414313648E+03 -0.85551259502E+03  0.12557770070E+04  0.89854383656E+03 0.  0.
         23    2    4    4    0    0  0.10003370163E+03 -0.33977248786E+03 -0.28462933284E+03  0.46256393198E+03  0.86599359619E+02 0.  0.
         23    2    4    4    0    0 -0.98805969553E+02  0.53391562434E+03 -0.57088326218E+03  0.79321307499E+03  0.91928068395E+02 0.  0.
          2    1    3    3  502    0  0.16697664886E+02 -0.23213451124E+01  0.94655829672E+01  0.19333854160E+02  0.00000000000E+00 0. -1.
         -1    1    3    3    0  502 -0.17925396960E+02 -0.19182179137E+03  0.16572855864E+03  0.25413160891E+03  0.00000000000E+00 0.  1.
         13    1    5    5    0    0  0.55490659067E+02 -0.88940095617E+02 -0.49683176544E+02  0.11600849919E+03  0.00000000000E+00 0.  1.
        -13    1    5    5    0    0  0.44543042560E+02 -0.25083239225E+03 -0.23494615630E+03  0.34655543280E+03  0.00000000000E+00 0. -1.
          4    1    6    6  503    0 -0.32802065594E+02  0.38026461275E+03 -0.36669144218E+03  0.52928231123E+03  0.00000000000E+00 0. -1.
         -4    1    6    6    0  503 -0.66003903959E+02  0.15365101160E+03 -0.20419182000E+03  0.26393076376E+03  0.00000000000E+00 0.  1.
<mgrwt>
<rscale>  0 0.13695800E+04</rscale>
<asrwt>0</asrwt>
<pdfrwt beam="1">  1        2 0.16996623E+00 0.13695800E+04</pdfrwt>
<pdfrwt beam="2">  1       -1 0.65301847E-01 0.13695800E+04</pdfrwt>
<totfact> 0.57231267E+01</totfact>
</mgrwt>
</event>
<event>
12    7  0.1606355E-007  0.3046929E+04  0.7818608E-02  0.8230456E-01
         -1   -1    0    0    0  501 -0.00000000000E+00  0.00000000000E+00  0.61070358786E+03  0.61070358786E+03  0.00000000000E+00 0.  1.
          2   -1    0    0  501    0  0.00000000000E+00 -0.00000000000E+00 -0.38004422433E+04  0.38004422433E+04  0.00000000000E+00 0. -1.
         24    2    1    2    0    0 -0.33185607061E+03 -0.58301417676E+03  0.29921326349E+03  0.73886161834E+03  0.79711555583E+02 0.  0.
        254    2    1    2    0    0  0.33185607061E+03  0.58301417676E+03 -0.34889519189E+04  0.36722842128E+04  0.92889819960E+03 0.  0.
         23    2    4    4    0    0 -0.29571876117E+03  0.14023449169E+03 -0.70253215873E+03  0.78042568674E+03  0.91637983960E+02 0.  0.
         23    2    4    4    0    0  0.62757483178E+03  0.44277968507E+03 -0.27864197602E+04  0.28918585260E+04  0.93843677677E+02 0.  0.
          4    1    3    3  502    0 -0.13853901381E+03 -0.30441416953E+03  0.12012208883E+03  0.35537355160E+03  0.00000000000E+00 0. -1.
         -3    1    3    3    0  502 -0.19331705681E+03 -0.27860000724E+03  0.17909117467E+03  0.38348806673E+03  0.00000000000E+00 0.  1.
         13    1    5    5    0    0 -0.15389281049E+03  0.25752885603E+02 -0.28688343688E+03  0.32657053540E+03  0.00000000000E+00 0.  1.
        -13    1    5    5    0    0 -0.14182595068E+03  0.11448160609E+03 -0.41564872185E+03  0.45385515134E+03  0.00000000000E+00 0. -1.
          2    1    6    6  503    0  0.15516352078E+02  0.34388210643E+02 -0.12117887718E+03  0.12691582441E+03  0.00000000000E+00 0.  1.
         -2    1    6    6    0  503  0.61205847971E+03  0.40839147443E+03 -0.26652408830E+04  0.27649427016E+04  0.00000000000E+00 0. -1.
<mgrwt>
<rscale>  0 0.30469288E+04</rscale>
<asrwt>0</asrwt>
<pdfrwt beam="1">  1        2 0.58468341E+00 0.30469288E+04</pdfrwt>
<pdfrwt beam="2">  1       -1 0.93954400E-01 0.30469288E+04</pdfrwt>
<totfact> 0.52130495E-01</totfact>
</mgrwt>
</event>
<event>
12    7  0.1606355E-007  0.1251406E+04  0.7818608E-02  0.9069014E-01
          2   -1    0    0  501    0  0.00000000000E+00  0.00000000000E+00  0.60748093277E+03  0.60748093277E+03  0.00000000000E+00 0. -1.
         -1   -1    0    0    0  501 -0.00000000000E+00 -0.00000000000E+00 -0.64447119859E+03  0.64447119859E+03  0.00000000000E+00 0.  1.
         24    2    1    2    0    0 -0.27270807976E+03  0.45735532013E+02  0.56495975563E+02  0.29432802298E+03  0.83520980602E+02 0.  0.
        254    2    1    2    0    0  0.27270807976E+03 -0.45735532013E+02 -0.93486241381E+02  0.95762410839E+03  0.91205417601E+03 0.  0.
         23    2    4    4    0    0  0.27152895890E+03 -0.33395476379E+03  0.24527418095E+03  0.50369145721E+03  0.91059872880E+02 0.  0.
         23    2    4    4    0    0  0.11791208584E+01  0.28821923178E+03 -0.33876042233E+03  0.45393265117E+03  0.90689096210E+02 0.  0.
          4    1    3    3  502    0 -0.96564557562E+02  0.20557969656E+02  0.61512666612E+02  0.11632348021E+03  0.00000000000E+00 0. -1.
         -3    1    3    3    0  502 -0.17614352220E+03  0.25177562357E+02 -0.50166910486E+01  0.17800454277E+03  0.00000000000E+00 0.  1.
         13    1    5    5    0    0  0.27562847814E+03 -0.30756733914E+03  0.22632807443E+03  0.47094917278E+03  0.00000000000E+00 0. -1.
        -13    1    5    5    0    0 -0.40995192378E+01 -0.26387424653E+02  0.18946106515E+02  0.32742284433E+02  0.00000000000E+00 0.  1.
          2    1    6    6  503    0 -0.23597187488E+02  0.14566096863E+03 -0.11332075827E+03  0.18605251758E+03  0.00000000000E+00 0. -1.
         -2    1    6    6    0  503  0.24776308346E+02  0.14255826314E+03 -0.22543966406E+03  0.26788013360E+03  0.00000000000E+00 0.  1.
<mgrwt>
<rscale>  0 0.12514056E+04</rscale>
<asrwt>0</asrwt>
<pdfrwt beam="1">  1        2 0.93458605E-01 0.12514056E+04</pdfrwt>
<pdfrwt beam="2">  1       -1 0.99149415E-01 0.12514056E+04</pdfrwt>
<totfact> 0.53392003E+01</totfact>
</mgrwt>
</event>
<event>
12    7  0.1606355E-007  0.1819078E+04  0.7818608E-02  0.8696219E-01
          2   -1    0    0  501    0  0.00000000000E+00  0.00000000000E+00  0.86957226581E+03  0.86957226581E+03  0.00000000000E+00 0. -1.
         -1   -1    0    0    0  501 -0.00000000000E+00 -0.00000000000E+00 -0.95134318223E+03  0.95134318223E+03  0.00000000000E+00 0.  1.
         24    2    1    2    0    0  0.15813941777E+03 -0.35461330253E+03 -0.59753284559E+03  0.71718279477E+03  0.80913470871E+02 0.  0.
        254    2    1    2    0    0 -0.15813941777E+03  0.35461330253E+03  0.51576192918E+03  0.11037326533E+04  0.89524115887E+03 0.  0.
         23    2    4    4    0    0  0.12789500930E+02 -0.76711081654E+02  0.61009586504E+03  0.62184461880E+03  0.91791088913E+02 0.  0.
         23    2    4    4    0    0 -0.17092891870E+03  0.43132438418E+03 -0.94333935866E+02  0.48188803448E+03  0.89776203282E+02 0.  0.
          4    1    3    3  502    0  0.37752809964E+02 -0.11611183374E+03 -0.25551340755E+03  0.28318604137E+03  0.00000000000E+00 0. -1.
         -3    1    3    3    0  502  0.12038660781E+03 -0.23850146879E+03 -0.34201943805E+03  0.43399675339E+03  0.00000000000E+00 0.  1.
         13    1    5    5    0    0  0.48553553130E+02 -0.40078920943E+02  0.43103900431E+03  0.43561266127E+03  0.00000000000E+00 0.  1.
        -13    1    5    5    0    0 -0.35764052199E+02 -0.36632160711E+02  0.17905686073E+03  0.18623195753E+03  0.00000000000E+00 0. -1.
          4    1    6    6  503    0 -0.11932570487E+03  0.19928630401E+03 -0.21494951946E+02  0.23327170374E+03  0.00000000000E+00 0. -1.
         -4    1    6    6    0  503 -0.51603213834E+02  0.23203808018E+03 -0.72838983919E+02  0.24861633074E+03  0.00000000000E+00 0.  1.
<mgrwt>
<rscale>  0 0.18190785E+04</rscale>
<asrwt>0</asrwt>
<pdfrwt beam="1">  1        2 0.13378035E+00 0.18190785E+04</pdfrwt>
<pdfrwt beam="2">  1       -1 0.14636049E+00 0.18190785E+04</pdfrwt>
<totfact> 0.12333823E+01</totfact>
</mgrwt>
</event>
<event>
12    7  0.1606355E-007  0.2826047E+04  0.7818608E-02  0.8295227E-01
         -1   -1    0    0    0  501 -0.00000000000E+00  0.00000000000E+00  0.13102816450E+04  0.13102816450E+04  0.00000000000E+00 0.  1.
          2   -1    0    0  501    0  0.00000000000E+00 -0.00000000000E+00 -0.15238210862E+04  0.15238210862E+04  0.00000000000E+00 0. -1.
         24    2    1    2    0    0  0.12483287736E+04 -0.13013136022E+03 -0.29408609959E+03  0.12914522295E+04  0.78123805772E+02 0.  0.
        254    2    1    2    0    0 -0.12483287736E+04  0.13013136022E+03  0.80546658387E+02  0.15426505017E+04  0.89332183913E+03 0.  0.
         23    2    4    4    0    0 -0.11759747485E+04 -0.41853738653E+02 -0.19676283362E+03  0.11965892742E+04  0.91879997316E+02 0.  0.
         23    2    4    4    0    0 -0.72354025134E+02  0.17198509887E+03  0.27730949201E+03  0.34606122751E+03  0.89687455301E+02 0.  0.
          4    1    3    3  502    0  0.43910225957E+02  0.97650203930E+01 -0.90636184618E+01  0.45886956169E+02  0.00000000000E+00 0. -1.
         -3    1    3    3    0  502  0.12044185477E+04 -0.13989638061E+03 -0.28502248112E+03  0.12455652733E+04  0.00000000000E+00 0.  1.
         13    1    5    5    0    0 -0.44402354517E+02 -0.16959009525E+02  0.12777691625E+01  0.47547973508E+02  0.00000000000E+00 0. -1.
        -13    1    5    5    0    0 -0.11315723940E+04 -0.24894729128E+02 -0.19804060279E+03  0.11490413007E+04  0.00000000000E+00 0.  1.
          1    1    6    6  503    0 -0.81049851359E+02  0.14675333832E+03  0.18359963441E+03  0.24862511230E+03  0.00000000000E+00 0. -1.
         -1    1    6    6    0  503  0.86958262254E+01  0.25231760553E+02  0.93709857603E+02  0.97436115206E+02  0.00000000000E+00 0.  1.
<mgrwt>
<rscale>  0 0.28260466E+04</rscale>
<asrwt>0</asrwt>
<pdfrwt beam="1">  1        2 0.23443401E+00 0.28260466E+04</pdfrwt>
<pdfrwt beam="2">  1       -1 0.20158179E+00 0.28260466E+04</pdfrwt>
<totfact> 0.17860076E+00</totfact>
</mgrwt>
</event>
<event>
12    7  0.1606355E-007  0.1579534E+04  0.7818608E-02  0.8833221E-01
         -1   -1    0    0    0  501 -0.00000000000E+00  0.00000000000E+00  0.64901409336E+03  0.64901409336E+03  0.00000000000E+00 0.  1.
          2   -1    0    0  501    0  0.00000000000E+00 -0.00000000000E+00 -0.96104515268E+03  0.96104515268E+03  0.00000000000E+00 0. -1.
         24    2    1    2    0    0  0.36178137683E+03 -0.28360385592E+03 -0.37377651913E+03  0.59780318051E+03  0.79641977999E+02 0.  0.
        254    2    1    2    0    0 -0.36178137683E+03  0.28360385592E+03  0.61745459815E+02  0.10122560655E+04  0.89974047852E+03 0.  0.
         23    2    4    4    0    0  0.47300475055E+02 -0.20622036747E+03 -0.21122148394E+03  0.31242271184E+03  0.90715272671E+02 0.  0.
         23    2    4    4    0    0 -0.40908185189E+03  0.48982422339E+03  0.27296694375E+03  0.69983335370E+03  0.89331065171E+02 0.  0.
          2    1    3    3  502    0  0.19064859370E+02 -0.15876365040E+02 -0.71212029177E+00  0.24820051269E+02  0.00000000000E+00 0. -1.
         -1    1    3    3    0  502  0.34271651746E+03 -0.26772749088E+03 -0.37306439884E+03  0.57298312924E+03  0.00000000000E+00 0.  1.
         13    1    5    5    0    0 -0.26931654149E+01 -0.18395264008E+02  0.72960694165E+01  0.19971767744E+02  0.00000000000E+00 0. -1.
        -13    1    5    5    0    0  0.49993640470E+02 -0.18782510346E+03 -0.21851755336E+03  0.29245094409E+03  0.00000000000E+00 0.  1.
          4    1    6    6  503    0 -0.20899035193E+02  0.61723516320E+02  0.14411840506E+02  0.66740267348E+02  0.00000000000E+00 0. -1.
         -4    1    6    6    0  503 -0.38818281669E+03  0.42810070707E+03  0.25855510325E+03  0.63309308635E+03  0.00000000000E+00 0.  1.
<mgrwt>
<rscale>  0 0.15795339E+04</rscale>
<asrwt>0</asrwt>
<pdfrwt beam="1">  1        2 0.14785310E+00 0.15795339E+04</pdfrwt>
<pdfrwt beam="2">  1       -1 0.99848322E-01 0.15795339E+04</pdfrwt>
<totfact> 0.27992958E+01</totfact>
</mgrwt>
</event>
<event>
12    7  0.1606355E-007  0.4286268E+04  0.7818608E-02  0.7949162E-01
         -1   -1    0    0    0  501 -0.00000000000E+00  0.00000000000E+00  0.22613486060E+04  0.22613486060E+04  0.00000000000E+00 0.  1.
          2   -1    0    0  501    0  0.00000000000E+00 -0.00000000000E+00 -0.20310989225E+04  0.20310989225E+04  0.00000000000E+00 0. -1.
         24    2    1    2    0    0  0.49905759319E+03  0.62424908920E+03 -0.17759141310E+04  0.19491019497E+04  0.79887439499E+02 0.  0.
        254    2    1    2    0    0 -0.49905759319E+03 -0.62424908920E+03  0.20061638145E+04  0.23433455788E+04  0.90985155083E+03 0.  0.
         23    2    4    4    0    0  0.36647258584E+02  0.73022932133E+02 -0.26495126946E+02  0.12693621647E+03  0.93463581795E+02 0.  0.
         23    2    4    4    0    0 -0.53570485177E+03 -0.69727202134E+03  0.20326589415E+04  0.22164093624E+04  0.87178720807E+02 0.  0.
          2    1    3    3  502    0  0.41444240746E+03  0.47089131727E+03 -0.13525662125E+04  0.14909515421E+04  0.00000000000E+00 0. -1.
         -3    1    3    3    0  502  0.84615185722E+02  0.15335777193E+03 -0.42334791848E+03  0.45815040756E+03  0.00000000000E+00 0.  1.
         13    1    5    5    0    0  0.57345466140E+02  0.78201768235E+02 -0.56989493511E+01  0.97141634048E+02  0.00000000000E+00 0.  1.
        -13    1    5    5    0    0 -0.20698207556E+02 -0.51788361014E+01 -0.20796177595E+02  0.29794582426E+02  0.00000000000E+00 0. -1.
          3    1    6    6  503    0 -0.52693857088E+02 -0.91929240382E+02  0.31209352453E+03  0.32959064893E+03  0.00000000000E+00 0. -1.
         -3    1    6    6    0  503 -0.48301099468E+03 -0.60534278096E+03  0.17205654169E+04  0.18868187134E+04  0.00000000000E+00 0.  1.
<mgrwt>
<rscale>  0 0.42862677E+04</rscale>
<asrwt>0</asrwt>
<pdfrwt beam="1">  1        2 0.31247676E+00 0.42862677E+04</pdfrwt>
<pdfrwt beam="2">  1       -1 0.34789979E+00 0.42862677E+04</pdfrwt>
<totfact> 0.90340340E-02</totfact>
</mgrwt>
</event>
<event>
12    7  0.1606355E-007  0.2101993E+04  0.7818608E-02  0.8560366E-01
          2   -1    0    0  501    0  0.00000000000E+00  0.00000000000E+00  0.25589117713E+04  0.25589117713E+04  0.00000000000E+00 0. -1.
         -1   -1    0    0    0  501 -0.00000000000E+00 -0.00000000000E+00 -0.43166551194E+03  0.43166551194E+03  0.00000000000E+00 0.  1.
         24    2    1    2    0    0 -0.66031306523E+03  0.52507906138E+03  0.66461661389E+03  0.10771078766E+04  0.82004692890E+02 0.  0.
        254    2    1    2    0    0  0.66031306523E+03 -0.52507906138E+03  0.14626296455E+04  0.19134694066E+04  0.90019904765E+03 0.  0.
         23    2    4    4    0    0 -0.14647458515E+03 -0.25990374078E+03  0.70756717713E+03  0.77347086577E+03  0.92742177475E+02 0.  0.
         23    2    4    4    0    0  0.80678765038E+03 -0.26517532059E+03  0.75506246835E+03  0.11399985408E+04  0.90846455855E+02 0.  0.
          2    1    3    3  502    0 -0.84275032273E+01  0.10665559508E+02  0.26704652800E+02  0.29965237383E+02  0.00000000000E+00 0. -1.
         -1    1    3    3    0  502 -0.65188556200E+03  0.51441350187E+03  0.63791196109E+03  0.10471426393E+04  0.00000000000E+00 0.  1.
         13    1    5    5    0    0 -0.48760250123E+02 -0.10271144630E+03  0.38647914144E+03  0.40285646322E+03  0.00000000000E+00 0. -1.
        -13    1    5    5    0    0 -0.97714335028E+02 -0.15719229449E+03  0.32108803569E+03  0.37061440255E+03  0.00000000000E+00 0.  1.
          4    1    6    6  503    0  0.71680060911E+03 -0.24191270628E+03  0.63195336919E+03  0.98574333957E+03  0.00000000000E+00 0. -1.
         -4    1    6    6    0  503  0.89987041270E+02 -0.23262614313E+02  0.12310909916E+03  0.15425520126E+03  0.00000000000E+00 0.  1.
<mgrwt>
<rscale>  0 0.21019933E+04</rscale>
<asrwt>0</asrwt>
<pdfrwt beam="1">  1        2 0.39367873E+00 0.21019933E+04</pdfrwt>
<pdfrwt beam="2">  1       -1 0.66410080E-01 0.21019933E+04</pdfrwt>
<totfact> 0.77538414E+00</totfact>
</mgrwt>
</event>
<event>
12    7  0.1606355E-007  0.1528680E+04  0.7818608E-02  0.8865602E-01
         -1   -1    0    0    0  501 -0.00000000000E+00  0.00000000000E+00  0.12435197705E+04  0.12435197705E+04  0.00000000000E+00 0.  1.
          2   -1    0    0  501    0  0.00000000000E+00 -0.00000000000E+00 -0.46980802631E+03  0.46980802631E+03  0.00000000000E+00 0. -1.
         24    2    1    2    0    0  0.42073411285E+03 -0.64199368951E+02  0.54462279961E+03  0.69593997704E+03  0.81115381395E+02 0.  0.
        254    2    1    2    0    0 -0.42073411285E+03  0.64199368951E+02  0.22908894456E+03  0.10173878197E+04  0.89524157553E+03 0.  0.
         23    2    4    4    0    0  0.35773135032E+02 -0.45092015210E+02 -0.29101877790E+03  0.31074809269E+03  0.92517247018E+02 0.  0.
         23    2    4    4    0    0 -0.45650724788E+03  0.10929138416E+03  0.52010772246E+03  0.70663972706E+03  0.92109645893E+02 0.  0.
          2    1    3    3  502    0  0.22648361844E+03 -0.57311003231E+02  0.24279482833E+03  0.33694021603E+03  0.00000000000E+00 0. -1.
         -1    1    3    3    0  502  0.19425049441E+03 -0.68883657200E+01  0.30182797128E+03  0.35899976102E+03  0.00000000000E+00 0.  1.
         13    1    5    5    0    0  0.62119457861E+02 -0.52634904648E+02 -0.22428527182E+03  0.23860667087E+03  0.00000000000E+00 0. -1.
        -13    1    5    5    0    0 -0.26346322828E+02  0.75428894381E+01 -0.66733506083E+02  0.72141421817E+02  0.00000000000E+00 0.  1.
          2    1    6    6  503    0 -0.44191002279E+03  0.11575814145E+03  0.47605151404E+03  0.65977985690E+03  0.00000000000E+00 0. -1.
         -2    1    6    6    0  503 -0.14597225095E+02 -0.64667572894E+01  0.44056208424E+02  0.46859870156E+02  0.00000000000E+00 0.  1.
<mgrwt>
<rscale>  0 0.15286799E+04</rscale>
<asrwt>0</asrwt>
<pdfrwt beam="1">  1        2 0.72278158E-01 0.15286799E+04</pdfrwt>
<pdfrwt beam="2">  1       -1 0.19131073E+00 0.15286799E+04</pdfrwt>
<totfact> 0.12620850E+01</totfact>
</mgrwt>
</event>
<event>
12    7  0.1606355E-007  0.2559317E+04  0.7818608E-02  0.8382153E-01
         -1   -1    0    0    0  501 -0.00000000000E+00  0.00000000000E+00  0.10218212631E+04  0.10218212631E+04  0.00000000000E+00 0.  1.
          2   -1    0    0  501    0  0.00000000000E+00 -0.00000000000E+00 -0.16025565403E+04  0.16025565403E+04  0.00000000000E+00 0. -1.
         24    2    1    2    0    0 -0.60251426509E+03  0.92569172530E+03 -0.44000304086E+03  0.11915449415E+04  0.79044681740E+02 0.  0.
        254    2    1    2    0    0  0.60251426509E+03 -0.92569172530E+03 -0.14073223639E+03  0.14328328619E+04  0.90181807361E+03 0.  0.
         23    2    4    4    0    0  0.19627255817E+03 -0.98013621993E+03 -0.13871629430E+03  0.10131685888E+04  0.89880210564E+02 0.  0.
         23    2    4    4    0    0  0.40624170692E+03  0.54444494634E+02 -0.20159420881E+01  0.41966427314E+03  0.90097229105E+02 0.  0.
          2    1    3    3  502    0 -0.20395527991E+03  0.36948582052E+03 -0.14302797797E+03  0.44561702194E+03  0.00000000000E+00 0. -1.
         -1    1    3    3    0  502 -0.39855898519E+03  0.55620590478E+03 -0.29697506289E+03  0.74592791955E+03  0.00000000000E+00 0.  1.
         13    1    5    5    0    0  0.23321500015E+02 -0.27013096458E+03 -0.64043999209E+02  0.27859695659E+03  0.00000000000E+00 0.  1.
        -13    1    5    5    0    0  0.17295105816E+03 -0.71000525535E+03 -0.74672295089E+02  0.73457163218E+03  0.00000000000E+00 0. -1.
          3    1    6    6  503    0  0.11576358796E+03  0.56866062640E+02  0.52776532362E+01  0.12908451108E+03  0.00000000000E+00 0. -1.
         -3    1    6    6    0  503  0.29047811896E+03 -0.24215680068E+01 -0.72935953243E+01  0.29057976206E+03  0.00000000000E+00 0.  1.
<mgrwt>
<rscale>  0 0.25593174E+04</rscale>
<asrwt>0</asrwt>
<pdfrwt beam="1">  1        2 0.24654716E+00 0.25593174E+04</pdfrwt>
<pdfrwt beam="2">  1       -1 0.15720327E+00 0.25593174E+04</pdfrwt>
<totfact> 0.34480627E+00</totfact>
</mgrwt>
</event>
<event>
12    7  0.1606355E-007  0.1967310E+04  0.7818608E-02  0.8622059E-01
         -1   -1    0    0    0  501 -0.00000000000E+00  0.00000000000E+00  0.98833572102E+03  0.98833572102E+03  0.00000000000E+00 0.  1.
          2   -1    0    0  501    0  0.00000000000E+00 -0.00000000000E+00 -0.97899612530E+03  0.97899612530E+03  0.00000000000E+00 0. -1.
         24    2    1    2    0    0 -0.86774429872E+02  0.96855432859E+02 -0.76313098908E+03  0.77828529523E+03  0.80301417925E+02 0.  0.
        254    2    1    2    0    0  0.86774429872E+02 -0.96855432859E+02  0.77247058480E+03  0.11890465511E+04  0.89454464379E+03 0.  0.
         23    2    4    4    0    0 -0.32612565295E+03  0.48086156153E+02  0.58809600033E+02  0.34699943767E+03  0.90993520456E+02 0.  0.
         23    2    4    4    0    0  0.41290008282E+03 -0.14494158901E+03  0.71366098477E+03  0.84204711342E+03  0.90756803733E+02 0.  0.
          4    1    3    3  502    0 -0.14270876163E+02  0.97070004484E+01 -0.33359699376E+03  0.33404316789E+03  0.00000000000E+00 0. -1.
         -3    1    3    3    0  502 -0.72503553708E+02  0.87148432410E+02 -0.42953399532E+03  0.44424212734E+03  0.00000000000E+00 0.  1.
         13    1    5    5    0    0 -0.28196237846E+03  0.70777573557E+02  0.61990883081E+02  0.29724588706E+03  0.00000000000E+00 0. -1.
        -13    1    5    5    0    0 -0.44163274486E+02 -0.22691417404E+02 -0.31812830488E+01  0.49753550617E+02  0.00000000000E+00 0.  1.
          2    1    6    6  503    0  0.13398709040E+02  0.67462797083E+01  0.77932305899E+01  0.16904796269E+02  0.00000000000E+00 0.  1.
         -2    1    6    6    0  503  0.39950137378E+03 -0.15168786872E+03  0.70586775418E+03  0.82514231715E+03  0.00000000000E+00 0. -1.
<mgrwt>
<rscale>  0 0.19673097E+04</rscale>
<asrwt>0</asrwt>
<pdfrwt beam="1">  1        2 0.15061479E+00 0.19673097E+04</pdfrwt>
<pdfrwt beam="2">  1       -1 0.15205165E+00 0.19673097E+04</pdfrwt>
<totfact> 0.92881289E+00</totfact>
</mgrwt>
</event>
<event>
12    7  0.1606355E-007  0.2184012E+04  0.7818608E-02  0.8525112E-01
         -1   -1    0    0    0  501 -0.00000000000E+00  0.00000000000E+00  0.18256297238E+04  0.18256297238E+04  0.00000000000E+00 0.  1.
          2   -1    0    0  501    0  0.00000000000E+00 -0.00000000000E+00 -0.65318681416E+03  0.65318681416E+03  0.00000000000E+00 0. -1.
         24    2    1    2    0    0  0.46122752796E+03  0.68852895922E+03  0.93425504951E+03  0.12514177328E+04  0.80067996881E+02 0.  0.
        254    2    1    2    0    0 -0.46122752796E+03 -0.68852895922E+03  0.23818786011E+03  0.12273988052E+04  0.87348234670E+03 0.  0.
         23    2    4    4    0    0 -0.58378253982E+02 -0.48163061630E+03 -0.25194286722E+03  0.55406596655E+03  0.90209843447E+02 0.  0.
         23    2    4    4    0    0 -0.40284927398E+03 -0.20689834292E+03  0.49013072733E+03  0.67333283862E+03  0.89746976814E+02 0.  0.
          4    1    3    3  502    0  0.13784597991E+02  0.11989640380E+02  0.40767731801E+02  0.44674092877E+02  0.00000000000E+00 0. -1.
         -3    1    3    3    0  502  0.44744292997E+03  0.67653931884E+03  0.89348731771E+03  0.12067436399E+04  0.00000000000E+00 0.  1.
         13    1    5    5    0    0 -0.21771076020E+01 -0.27963574315E+03 -0.17921508438E+03  0.33214294379E+03  0.00000000000E+00 0. -1.
        -13    1    5    5    0    0 -0.56201146380E+02 -0.20199487315E+03 -0.72727782844E+02  0.22192302276E+03  0.00000000000E+00 0.  1.
          1    1    6    6  503    0 -0.40557665575E+01  0.14091316288E+01  0.28111407821E+02  0.28437407477E+02  0.00000000000E+00 0. -1.
         -1    1    6    6    0  503 -0.39879350742E+03 -0.20830747455E+03  0.46201931950E+03  0.64489543114E+03  0.00000000000E+00 0.  1.
<mgrwt>
<rscale>  0 0.21840121E+04</rscale>
<asrwt>0</asrwt>
<pdfrwt beam="1">  1        2 0.10049028E+00 0.21840121E+04</pdfrwt>
<pdfrwt beam="2">  1       -1 0.28086611E+00 0.21840121E+04</pdfrwt>
<totfact> 0.20516220E+00</totfact>
</mgrwt>
</event>
<event>
12    7  0.1606355E-007  0.2319816E+04  0.7818608E-02  0.8470149E-01
          2   -1    0    0  501    0  0.00000000000E+00  0.00000000000E+00  0.26532501629E+04  0.26532501629E+04  0.00000000000E+00 0. -1.
         -1   -1    0    0    0  501 -0.00000000000E+00 -0.00000000000E+00 -0.50707101686E+03  0.50707101686E+03  0.00000000000E+00 0.  1.
         24    2    1    2    0    0  0.72730610566E+03 -0.15854086500E+03  0.17651823939E+04  0.19181616212E+04  0.96776774359E+02 0.  0.
        254    2    1    2    0    0 -0.72730610566E+03  0.15854086500E+03  0.38099675209E+03  0.12421595585E+04  0.91852733576E+03 0.  0.
         23    2    4    4    0    0 -0.78370878453E+02 -0.22141944262E+03 -0.17106277754E+03  0.30464539709E+03  0.91530213317E+02 0.  0.
         23    2    4    4    0    0 -0.64893522720E+03  0.37996030762E+03  0.55205952963E+03  0.93751416144E+03  0.93146734600E+02 0.  0.
          4    1    3    3  502    0  0.63256218111E+03 -0.12942098724E+03  0.16022101246E+04  0.17274148280E+04  0.00000000000E+00 0. -1.
         -3    1    3    3    0  502  0.94743924551E+02 -0.29119877765E+02  0.16297226934E+03  0.19074679315E+03  0.00000000000E+00 0.  1.
         13    1    5    5    0    0 -0.12964811554E+02 -0.35836925574E+02  0.76053028212E+01  0.38861448818E+02  0.00000000000E+00 0.  1.
        -13    1    5    5    0    0 -0.65406066900E+02 -0.18558251705E+03 -0.17866808036E+03  0.26578394827E+03  0.00000000000E+00 0. -1.
          2    1    6    6  503    0 -0.63582225777E+03  0.37678132504E+03  0.52279627177E+03  0.90529003759E+03  0.00000000000E+00 0. -1.
         -2    1    6    6    0  503 -0.13112969431E+02  0.31789825873E+01  0.29263257855E+02  0.32224123849E+02  0.00000000000E+00 0.  1.
<mgrwt>
<rscale>  0 0.23198157E+04</rscale>
<asrwt>0</asrwt>
<pdfrwt beam="1">  1        2 0.40819233E+00 0.23198157E+04</pdfrwt>
<pdfrwt beam="2">  1       -1 0.78010927E-01 0.23198157E+04</pdfrwt>
<totfact> 0.47978561E+00</totfact>
</mgrwt>
</event>
<event>
12    7  0.1606355E-007  0.1346767E+04  0.7818608E-02  0.8993279E-01
         -3   -1    0    0    0  501 -0.00000000000E+00  0.00000000000E+00  0.47700617098E+03  0.47700617098E+03  0.00000000000E+00 0.  1.
          4   -1    0    0  501    0  0.00000000000E+00 -0.00000000000E+00 -0.95060649759E+03  0.95060649759E+03  0.00000000000E+00 0. -1.
         24    2    1    2    0    0 -0.74171690772E+02 -0.22951052975E+03 -0.46490723362E+03  0.53002125965E+03  0.81285157548E+02 0.  0.
        254    2    1    2    0    0  0.74171690772E+02  0.22951052975E+03 -0.86930929895E+01  0.89759140892E+03  0.86453354159E+03 0.  0.
         23    2    4    4    0    0  0.20370942338E+03 -0.86922213072E+02 -0.33780164104E+03  0.41440437447E+03  0.92563689390E+02 0.  0.
         23    2    4    4    0    0 -0.12953773261E+03  0.31643274282E+03  0.32910854805E+03  0.48318703445E+03  0.90816127240E+02 0.  0.
          2    1    3    3  502    0 -0.68589857031E+01 -0.12192386875E+03 -0.28296077563E+03  0.30818707955E+03  0.00000000000E+00 0. -1.
         -1    1    3    3    0  502 -0.67312705069E+02 -0.10758666100E+03 -0.18194645798E+03  0.22183418010E+03  0.00000000000E+00 0.  1.
         13    1    5    5    0    0  0.13885771264E+02 -0.25066645519E+02 -0.99394420254E+02  0.10344274812E+03  0.00000000000E+00 0. -1.
        -13    1    5    5    0    0  0.18982365212E+03 -0.61855567553E+02 -0.23840722078E+03  0.31096162635E+03  0.00000000000E+00 0.  1.
          3    1    6    6  503    0 -0.38639476786E+02  0.19056680679E+03  0.21890648730E+03  0.29279475268E+03  0.00000000000E+00 0. -1.
         -3    1    6    6    0  503 -0.90898255826E+02  0.12586593603E+03  0.11020206075E+03  0.19039228177E+03  0.00000000000E+00 0.  1.
<mgrwt>
<rscale>  0 0.13467667E+04</rscale>
<asrwt>0</asrwt>
<pdfrwt beam="1">  1        4 0.14624715E+00 0.13467667E+04</pdfrwt>
<pdfrwt beam="2">  1       -3 0.73385565E-01 0.13467667E+04</pdfrwt>
<totfact> 0.12522088E+00</totfact>
</mgrwt>
</event>
<event>
12    7  0.1606355E-007  0.1743075E+04  0.7818608E-02  0.8737172E-01
          2   -1    0    0  501    0  0.00000000000E+00  0.00000000000E+00  0.10681387877E+04  0.10681387877E+04  0.00000000000E+00 0. -1.
         -1   -1    0    0    0  501 -0.00000000000E+00 -0.00000000000E+00 -0.71112225745E+03  0.71112225745E+03  0.00000000000E+00 0.  1.
         24    2    1    2    0    0  0.18246664883E+03 -0.16345809485E+03  0.74293402632E+03  0.78632092719E+03  0.79605316252E+02 0.  0.
        254    2    1    2    0    0 -0.18246664883E+03  0.16345809485E+03 -0.38591749604E+03  0.99294011799E+03  0.88146760432E+03 0.  0.
         23    2    4    4    0    0 -0.46809666385E+03 -0.10628724098E+03 -0.10260915122E+03  0.49997433846E+03  0.95048602849E+02 0.  0.
         23    2    4    4    0    0  0.28563001502E+03  0.26974533584E+03 -0.28330834481E+03  0.49296577953E+03  0.91676550196E+02 0.  0.
          4    1    3    3  502    0  0.16116007999E+03 -0.10441480696E+03  0.50598041947E+03  0.54119424256E+03  0.00000000000E+00 0. -1.
         -3    1    3    3    0  502  0.21306568838E+02 -0.59043287890E+02  0.23695360685E+03  0.24512668463E+03  0.00000000000E+00 0.  1.
         13    1    5    5    0    0 -0.41747872668E+03 -0.63736036936E+02 -0.98909043444E+02  0.43374389738E+03  0.00000000000E+00 0.  1.
        -13    1    5    5    0    0 -0.50617937168E+02 -0.42551204046E+02 -0.37001077801E+01  0.66230441086E+02  0.00000000000E+00 0. -1.
          4    1    6    6  503    0  0.15845227931E+02  0.20072916177E+02 -0.53919673903E+02  0.59676833410E+02  0.00000000000E+00 0. -1.
         -4    1    6    6    0  503  0.26978478709E+03  0.24967241966E+03 -0.22938867091E+03  0.43328894612E+03  0.00000000000E+00 0.  1.
<mgrwt>
<rscale>  0 0.17430746E+04</rscale>
<asrwt>0</asrwt>
<pdfrwt beam="1">  1        2 0.16432904E+00 0.17430746E+04</pdfrwt>
<pdfrwt beam="2">  1       -1 0.10940342E+00 0.17430746E+04</pdfrwt>
<totfact> 0.19071878E+01</totfact>
</mgrwt>
</event>
<event>
12    7  0.1606355E-007  0.2745426E+04  0.7818608E-02  0.8320415E-01
         -1   -1    0    0    0  501 -0.00000000000E+00  0.00000000000E+00  0.11212427207E+04  0.11212427207E+04  0.00000000000E+00 0.  1.
          2   -1    0    0  501    0  0.00000000000E+00 -0.00000000000E+00 -0.16805820683E+04  0.16805820683E+04  0.00000000000E+00 0. -1.
         24    2    1    2    0    0 -0.75500274892E+03  0.15421256992E+02 -0.12411950951E+04  0.14550002794E+04  0.78699319347E+02 0.  0.
        254    2    1    2    0    0  0.75500274892E+03 -0.15421256992E+02  0.68185574760E+03  0.13468245096E+04  0.88246361574E+03 0.  0.
         23    2    4    4    0    0  0.39182602147E+03 -0.40995039500E+03  0.53239320154E+03  0.78320696706E+03  0.91562409039E+02 0.  0.
         23    2    4    4    0    0  0.36317672745E+03  0.39452913801E+03  0.14946254607E+03  0.56361754255E+03  0.88176558659E+02 0.  0.
          4    1    3    3  502    0 -0.93695188168E+02  0.26345390526E+01 -0.20912174492E+03  0.22916726049E+03  0.00000000000E+00 0. -1.
         -1    1    3    3    0  502 -0.66130756075E+03  0.12786717939E+02 -0.10320733502E+04  0.12258330189E+04  0.00000000000E+00 0.  1.
         13    1    5    5    0    0  0.17015064915E+03 -0.11992359886E+03  0.21822601459E+03  0.30158830617E+03  0.00000000000E+00 0. -1.
        -13    1    5    5    0    0  0.22167537232E+03 -0.29002679614E+03  0.31416718694E+03  0.48161866089E+03  0.00000000000E+00 0.  1.
          4    1    6    6  503    0  0.32404772603E+02  0.78358943791E+01  0.18686501889E+02  0.38218527981E+02  0.00000000000E+00 0. -1.
         -4    1    6    6    0  503  0.33077195485E+03  0.38669324363E+03  0.13077604418E+03  0.52539901457E+03  0.00000000000E+00 0.  1.
<mgrwt>
<rscale>  0 0.27454256E+04</rscale>
<asrwt>0</asrwt>
<pdfrwt beam="1">  1        2 0.25855109E+00 0.27454256E+04</pdfrwt>
<pdfrwt beam="2">  1       -1 0.17249888E+00 0.27454256E+04</pdfrwt>
<totfact> 0.23599940E+00</totfact>
</mgrwt>
</event>
<event>
12    7  0.1606355E-007  0.2715647E+04  0.7818608E-02  0.8329946E-01
         -1   -1    0    0    0  501 -0.00000000000E+00  0.00000000000E+00  0.10770827204E+04  0.10770827204E+04  0.00000000000E+00 0.  1.
          2   -1    0    0  501    0  0.00000000000E+00 -0.00000000000E+00 -0.17117385365E+04  0.17117385365E+04  0.00000000000E+00 0. -1.
         24    2    1    2    0    0  0.78503029364E+03 -0.54405007106E+03  0.47596221348E+03  0.10701266662E+04  0.79799820032E+02 0.  0.
        254    2    1    2    0    0 -0.78503029364E+03  0.54405007106E+03 -0.11106180295E+04  0.17186945907E+04  0.89898589907E+03 0.  0.
         23    2    4    4    0    0  0.18958521873E+03  0.62956454075E+02 -0.22143965009E+03  0.31149338476E+03  0.89925190281E+02 0.  0.
         23    2    4    4    0    0 -0.97461551237E+03  0.48109361699E+03 -0.88917837946E+03  0.14072012059E+04  0.90832693463E+02 0.  0.
          4    1    3    3  502    0  0.18041873053E+02 -0.25076861116E+01  0.18519302699E+01  0.18309214036E+02  0.00000000000E+00 0. -1.
         -3    1    3    3    0  502  0.76698842059E+03 -0.54154238495E+03  0.47411028321E+03  0.10518174522E+04  0.00000000000E+00 0.  1.
         13    1    5    5    0    0  0.49168499987E+02 -0.14129124673E+02 -0.21994478123E+02  0.55686000242E+02  0.00000000000E+00 0.  1.
        -13    1    5    5    0    0  0.14041671874E+03  0.77085578748E+02 -0.19944517196E+03  0.25580738452E+03  0.00000000000E+00 0. -1.
          1    1    6    6  503    0 -0.28542113412E+03  0.11951723270E+03 -0.20723031304E+03  0.37241642735E+03  0.00000000000E+00 0. -1.
         -1    1    6    6    0  503 -0.68919437825E+03  0.36157638429E+03 -0.68194806642E+03  0.10347847786E+04  0.00000000000E+00 0.  1.
<mgrwt>
<rscale>  0 0.27156465E+04</rscale>
<asrwt>0</asrwt>
<pdfrwt beam="1">  1        2 0.26334439E+00 0.27156465E+04</pdfrwt>
<pdfrwt beam="2">  1       -1 0.16570503E+00 0.27156465E+04</pdfrwt>
<totfact> 0.25511048E+00</totfact>
</mgrwt>
</event>
<event>
12    7  0.1606355E-007  0.3666083E+04  0.7818608E-02  0.8075520E-01
         -1   -1    0    0    0  501 -0.00000000000E+00  0.00000000000E+00  0.20323612364E+04  0.20323612364E+04  0.00000000000E+00 0.  1.
          2   -1    0    0  501    0  0.00000000000E+00 -0.00000000000E+00 -0.16532693691E+04  0.16532693691E+04  0.00000000000E+00 0. -1.
         24    2    1    2    0    0  0.13596379211E+04 -0.10556864714E+04  0.17264193029E+03  0.17319423887E+04  0.82036573715E+02 0.  0.
        254    2    1    2    0    0 -0.13596379211E+04  0.10556864714E+04  0.20644993699E+03  0.19536882168E+04  0.90065913076E+03 0.  0.
         23    2    4    4    0    0 -0.13746649716E+04  0.11533460939E+04  0.24775972226E+03  0.18137725414E+04  0.92059521397E+02 0.  0.
         23    2    4    4    0    0  0.15027050548E+02 -0.97659622557E+02 -0.41309785267E+02  0.13991567540E+03  0.90037124214E+02 0.  0.
          2    1    3    3  502    0  0.79986707883E+03 -0.61484803928E+03  0.14145834617E+03  0.10187423221E+04  0.00000000000E+00 0. -1.
         -1    1    3    3    0  502  0.55977084224E+03 -0.44083843209E+03  0.31183584121E+02  0.71320006657E+03  0.00000000000E+00 0.  1.
         13    1    5    5    0    0 -0.29690902275E+03  0.28664980985E+03  0.83203704298E+02  0.42100586420E+03  0.00000000000E+00 0.  1.
        -13    1    5    5    0    0 -0.10777559489E+04  0.86669628408E+03  0.16455601796E+03  0.13927666772E+04  0.00000000000E+00 0. -1.
          3    1    6    6  503    0  0.15867589384E+02 -0.10569285572E+03 -0.57834951154E+02  0.12152218611E+03  0.00000000000E+00 0. -1.
         -3    1    6    6    0  503 -0.84053883614E+00  0.80332331594E+01  0.16525165886E+02  0.18393489286E+02  0.00000000000E+00 0.  1.
<mgrwt>
<rscale>  0 0.36660827E+04</rscale>
<asrwt>0</asrwt>
<pdfrwt beam="1">  1        2 0.25434913E+00 0.36660827E+04</pdfrwt>
<pdfrwt beam="2">  1       -1 0.31267096E+00 0.36660827E+04</pdfrwt>
<totfact> 0.26247302E-01</totfact>
</mgrwt>
</event>
<event>
12    7  0.1606355E-007  0.1099183E+04  0.7818608E-02  0.9205989E-01
         -1   -1    0    0    0  501 -0.00000000000E+00  0.00000000000E+00  0.21031805631E+03  0.21031805631E+03  0.00000000000E+00 0.  1.
          2   -1    0    0  501    0  0.00000000000E+00 -0.00000000000E+00 -0.14361613400E+04  0.14361613400E+04  0.00000000000E+00 0. -1.
         24    2    1    2    0    0 -0.15648491344E+03 -0.86773940999E+02 -0.27669819027E+03  0.33858974135E+03  0.77870915484E+02 0.  0.
        254    2    1    2    0    0  0.15648491344E+03  0.86773940999E+02 -0.94914509341E+03  0.13078896549E+04  0.88186262887E+03 0.  0.
         23    2    4    4    0    0  0.10160290124E+03  0.57764363925E+02 -0.11054486653E+04  0.11153242336E+04  0.90947915203E+02 0.  0.
         23    2    4    4    0    0  0.54882012195E+02  0.29009577074E+02  0.15630357186E+03  0.19256542132E+03  0.93792558809E+02 0.  0.
          4    1    3    3  502    0 -0.14525778350E+03 -0.69366294675E+02 -0.27388404157E+03  0.31768533918E+03  0.00000000000E+00 0. -1.
         -1    1    3    3    0  502 -0.11227129932E+02 -0.17407646324E+02 -0.28141487022E+01  0.20904402167E+02  0.00000000000E+00 0.  1.
         13    1    5    5    0    0  0.92560164395E+02  0.67171818215E+02 -0.10853652257E+04  0.10913739553E+04  0.00000000000E+00 0. -1.
        -13    1    5    5    0    0  0.90427368458E+01 -0.94074542901E+01 -0.20083439585E+02  0.23950278317E+02  0.00000000000E+00 0.  1.
          1    1    6    6  503    0  0.51541227014E+02 -0.17224260779E+02  0.40336839639E+02  0.67677425140E+02  0.00000000000E+00 0. -1.
         -1    1    6    6    0  503  0.33407851811E+01  0.46233837853E+02  0.11596673222E+03  0.12488799618E+03  0.00000000000E+00 0.  1.
<mgrwt>
<rscale>  0 0.10991827E+04</rscale>
<asrwt>0</asrwt>
<pdfrwt beam="1">  1        2 0.22094790E+00 0.10991827E+04</pdfrwt>
<pdfrwt beam="2">  1       -1 0.32356624E-01 0.10991827E+04</pdfrwt>
<totfact> 0.13925492E+02</totfact>
</mgrwt>
</event>
<event>
12    7  0.1606355E-007  0.1361876E+04  0.7818608E-02  0.8981887E-01
          2   -1    0    0  501    0  0.00000000000E+00  0.00000000000E+00  0.15806422180E+04  0.15806422180E+04  0.00000000000E+00 0. -1.
         -1   -1    0    0    0  501 -0.00000000000E+00 -0.00000000000E+00 -0.29334691261E+03  0.29334691261E+03  0.00000000000E+00 0.  1.
         24    2    1    2    0    0  0.14959124792E+02  0.18926080898E+03 -0.85333476418E+02  0.22362052944E+03  0.81736832321E+02 0.  0.
        254    2    1    2    0    0 -0.14959124792E+02 -0.18926080898E+03  0.13726287818E+04  0.16503686012E+04  0.89641693307E+03 0.  0.
         23    2    4    4    0    0  0.29871592634E+03 -0.29249956124E+03  0.11843377377E+04  0.12594726753E+04  0.93959272902E+02 0.  0.
         23    2    4    4    0    0 -0.31367505114E+03  0.10323875226E+03  0.18829104413E+03  0.39089592588E+03  0.91081446492E+02 0.  0.
          2    1    3    3  502    0  0.28308457315E+02  0.11731501914E+03 -0.89622891973E+02  0.15032114036E+03  0.00000000000E+00 0. -1.
         -1    1    3    3    0  502 -0.13349332523E+02  0.71945789833E+02  0.42894155550E+01  0.73299389079E+02  0.00000000000E+00 0.  1.
         13    1    5    5    0    0  0.50667579762E+02 -0.18519898118E+02  0.22573452368E+03  0.23209107145E+03  0.00000000000E+00 0. -1.
        -13    1    5    5    0    0  0.24804834658E+03 -0.27397966312E+03  0.95860321403E+03  0.10273816039E+04  0.00000000000E+00 0.  1.
          3    1    6    6  503    0 -0.11080732130E+03  0.11370283092E+02  0.23462114990E+02  0.11383328437E+03  0.00000000000E+00 0. -1.
         -3    1    6    6    0  503 -0.20286772984E+03  0.91868469172E+02  0.16482892914E+03  0.27706264151E+03  0.00000000000E+00 0.  1.
<mgrwt>
<rscale>  0 0.13618759E+04</rscale>
<asrwt>0</asrwt>
<pdfrwt beam="1">  1        2 0.24317572E+00 0.13618759E+04</pdfrwt>
<pdfrwt beam="2">  1       -1 0.45130295E-01 0.13618759E+04</pdfrwt>
<totfact> 0.61921988E+01</totfact>
</mgrwt>
</event>
<event>
12    7  0.1606355E-007  0.1764534E+04  0.7818608E-02  0.8725391E-01
          2   -1    0    0  501    0  0.00000000000E+00  0.00000000000E+00  0.66907660480E+03  0.66907660480E+03  0.00000000000E+00 0. -1.
         -1   -1    0    0    0  501 -0.00000000000E+00 -0.00000000000E+00 -0.11633864374E+04  0.11633864374E+04  0.00000000000E+00 0.  1.
         24    2    1    2    0    0  0.36000579474E+03  0.39866564192E+02 -0.75604892702E+03  0.84235768082E+03  0.82237261610E+02 0.  0.
        254    2    1    2    0    0 -0.36000579474E+03 -0.39866564192E+02  0.26173909446E+03  0.99010536133E+03  0.88352009472E+03 0.  0.
         23    2    4    4    0    0 -0.51731875926E+03 -0.15289059667E+03 -0.11194705727E+03  0.55934757063E+03  0.96660891286E+02 0.  0.
         23    2    4    4    0    0  0.15731296452E+03  0.11302403248E+03  0.37368615173E+03  0.43075779070E+03  0.91592213255E+02 0.  0.
          2    1    3    3  502    0  0.66103883692E+02  0.77350790024E+01 -0.77246976656E+02  0.10196396564E+03  0.00000000000E+00 0. -1.
         -1    1    3    3    0  502  0.29390191105E+03  0.32131485189E+02 -0.67880195036E+03  0.74039371518E+03  0.00000000000E+00 0.  1.
         13    1    5    5    0    0 -0.45036184824E+03 -0.99392530481E+02 -0.81189110773E+02  0.46829087240E+03  0.00000000000E+00 0. -1.
        -13    1    5    5    0    0 -0.66956911020E+02 -0.53498066193E+02 -0.30757946494E+02  0.91056698229E+02  0.00000000000E+00 0.  1.
          1    1    6    6  503    0  0.15963359094E+03  0.11324227538E+03  0.37810704603E+03  0.42576006688E+03  0.00000000000E+00 0. -1.
         -1    1    6    6    0  503 -0.23206264196E+01 -0.21824289636E+00 -0.44208943033E+01  0.49977238201E+01  0.00000000000E+00 0.  1.
<mgrwt>
<rscale>  0 0.17645335E+04</rscale>
<asrwt>0</asrwt>
<pdfrwt beam="1">  1        2 0.10293486E+00 0.17645335E+04</pdfrwt>
<pdfrwt beam="2">  1       -1 0.17898253E+00 0.17645335E+04</pdfrwt>
<totfact> 0.99239841E+00</totfact>
</mgrwt>
</event>
<event>
12    7  0.1606355E-007  0.3476150E+04  0.7818608E-02  0.8119465E-01
          2   -1    0    0  501    0  0.00000000000E+00  0.00000000000E+00  0.20621966316E+04  0.20621966316E+04  0.00000000000E+00 0. -1.
         -1   -1    0    0    0  501 -0.00000000000E+00 -0.00000000000E+00 -0.14648965820E+04  0.14648965820E+04  0.00000000000E+00 0.  1.
         24    2    1    2    0    0  0.43836028049E+03 -0.36251622060E+03  0.18150680116E+04  0.19036737808E+04  0.76969028630E+02 0.  0.
        254    2    1    2    0    0 -0.43836028049E+03  0.36251622060E+03 -0.12177679619E+04  0.16234194328E+04  0.91046916479E+03 0.  0.
         23    2    4    4    0    0 -0.37580200807E+03  0.18703321725E+03 -0.13231350577E+04  0.13910835970E+04  0.90656600242E+02 0.  0.
         23    2    4    4    0    0 -0.62558272422E+02  0.17548300335E+03  0.10536709578E+03  0.23233583585E+03  0.90387465009E+02 0.  0.
          2    1    3    3  502    0  0.37026577245E+03 -0.28527097167E+03  0.15626864068E+04  0.16310932149E+04  0.00000000000E+00 0. -1.
         -3    1    3    3    0  502  0.68094508046E+02 -0.77245248933E+02  0.25238160476E+03  0.27258056594E+03  0.00000000000E+00 0.  1.
         13    1    5    5    0    0 -0.80174037636E+02  0.44615572506E+02 -0.18370474129E+03  0.20534326771E+03  0.00000000000E+00 0.  1.
        -13    1    5    5    0    0 -0.29562797044E+03  0.14241764474E+03 -0.11394303164E+04  0.11857403293E+04  0.00000000000E+00 0. -1.
          1    1    6    6  503    0 -0.85463445169E+02  0.14563073389E+03  0.92734122714E+02  0.19264456553E+03  0.00000000000E+00 0. -1.
         -1    1    6    6    0  503  0.22905172747E+02  0.29852269465E+02  0.12632973070E+02  0.39691270317E+02  0.00000000000E+00 0.  1.
<mgrwt>
<rscale>  0 0.34761501E+04</rscale>
<asrwt>0</asrwt>
<pdfrwt beam="1">  1        2 0.31726102E+00 0.34761501E+04</pdfrwt>
<pdfrwt beam="2">  1       -1 0.22536871E+00 0.34761501E+04</pdfrwt>
<totfact> 0.58528843E-01</totfact>
</mgrwt>
</event>
<event>
12    7  0.1606355E-007  0.1756960E+04  0.7818608E-02  0.8729528E-01
         -1   -1    0    0    0  501 -0.00000000000E+00  0.00000000000E+00  0.10143414220E+04  0.10143414220E+04  0.00000000000E+00 0.  1.
          2   -1    0    0  501    0  0.00000000000E+00 -0.00000000000E+00 -0.76081607900E+03  0.76081607900E+03  0.00000000000E+00 0. -1.
         24    2    1    2    0    0  0.23921839632E+03  0.90444485662E+02 -0.50407051356E+03  0.57096119887E+03  0.80647144110E+02 0.  0.
        254    2    1    2    0    0 -0.23921839632E+03 -0.90444485662E+02  0.75759585653E+03  0.12041963021E+04  0.90040635606E+03 0.  0.
         23    2    4    4    0    0  0.92340131404E+02  0.29949346035E+03  0.56033057999E+03  0.64811066195E+03  0.88623013986E+02 0.  0.
         23    2    4    4    0    0 -0.33155852772E+03 -0.38993794601E+03  0.19726527654E+03  0.55608564014E+03  0.91296170785E+02 0.  0.
          2    1    3    3  502    0  0.44634339300E+02  0.37410289005E+02 -0.18069013797E+03  0.18984383036E+03  0.00000000000E+00 0. -1.
         -1    1    3    3    0  502  0.19458405702E+03  0.53034196657E+02 -0.32338037559E+03  0.38111736851E+03  0.00000000000E+00 0.  1.
         13    1    5    5    0    0  0.87429334183E+02  0.26934817481E+03  0.43456688576E+03  0.51869133977E+03  0.00000000000E+00 0. -1.
        -13    1    5    5    0    0  0.49107972205E+01  0.30145285539E+02  0.12576369422E+03  0.12941932218E+03  0.00000000000E+00 0.  1.
          1    1    6    6  503    0 -0.69459360839E+02 -0.12823172355E+03  0.86196915915E+02  0.16940450421E+03  0.00000000000E+00 0. -1.
         -1    1    6    6    0  503 -0.26209916689E+03 -0.26170622246E+03  0.11106836063E+03  0.38668113594E+03  0.00000000000E+00 0.  1.
<mgrwt>
<rscale>  0 0.17569602E+04</rscale>
<asrwt>0</asrwt>
<pdfrwt beam="1">  1        2 0.11704863E+00 0.17569602E+04</pdfrwt>
<pdfrwt beam="2">  1       -1 0.15605253E+00 0.17569602E+04</pdfrwt>
<totfact> 0.12469208E+01</totfact>
</mgrwt>
</event>
<event>
12    7  0.1606355E-007  0.2046527E+04  0.7818608E-02  0.8585171E-01
          2   -1    0    0  501    0  0.00000000000E+00  0.00000000000E+00  0.16454299328E+04  0.16454299328E+04  0.00000000000E+00 0. -1.
         -3   -1    0    0    0  501 -0.00000000000E+00 -0.00000000000E+00 -0.63634940076E+03  0.63634940076E+03  0.00000000000E+00 0.  1.
         24    2    1    2    0    0 -0.13564110388E+03  0.75678442744E+03  0.74098728858E+03  0.10707759668E+04  0.79861321011E+02 0.  0.
        254    2    1    2    0    0  0.13564110388E+03 -0.75678442744E+03  0.26809324350E+03  0.12110033668E+04  0.89640057366E+03 0.  0.
         23    2    4    4    0    0 -0.32052350019E+03 -0.71989479317E+02  0.15842388730E+03  0.37576403350E+03  0.90458175408E+02 0.  0.
         23    2    4    4    0    0  0.45616460408E+03 -0.68479494813E+03  0.10966935619E+03  0.83523933328E+03  0.92558679635E+02 0.  0.
          2    1    3    3  502    0 -0.22421748924E+02  0.27197629285E+03  0.30185122985E+03  0.40692505903E+03  0.00000000000E+00 0. -1.
         -1    1    3    3    0  502 -0.11321935496E+03  0.48480813459E+03  0.43913605872E+03  0.66385090779E+03  0.00000000000E+00 0.  1.
         13    1    5    5    0    0 -0.13762999242E+03  0.71552242924E+01  0.38150318963E+02  0.14299880728E+03  0.00000000000E+00 0.  1.
        -13    1    5    5    0    0 -0.18289350777E+03 -0.79144703609E+02  0.12027356834E+03  0.23276522622E+03  0.00000000000E+00 0. -1.
          3    1    6    6  503    0  0.18126813088E+03 -0.31905514441E+03  0.10596626338E+02  0.36710571902E+03  0.00000000000E+00 0. -1.
         -3    1    6    6    0  503  0.27489647320E+03 -0.36573980372E+03  0.99072729856E+02  0.46813361426E+03  0.00000000000E+00 0.  1.
<mgrwt>
<rscale>  0 0.20465272E+04</rscale>
<asrwt>0</asrwt>
<pdfrwt beam="1">  1        2 0.25314307E+00 0.20465272E+04</pdfrwt>
<pdfrwt beam="2">  1       -3 0.97899908E-01 0.20465272E+04</pdfrwt>
<totfact> 0.56935101E+00</totfact>
</mgrwt>
</event>
<event>
12    7  0.1606355E-007  0.2694184E+04  0.7818608E-02  0.8336895E-01
          2   -1    0    0  501    0  0.00000000000E+00  0.00000000000E+00  0.29741237160E+04  0.29741237160E+04  0.00000000000E+00 0. -1.
         -1   -1    0    0    0  501 -0.00000000000E+00 -0.00000000000E+00 -0.61014839943E+03  0.61014839943E+03  0.00000000000E+00 0.  1.
         24    2    1    2    0    0  0.20688895187E+03  0.86660982545E+02 -0.50360167895E+03  0.55824667955E+03  0.87815373895E+02 0.  0.
        254    2    1    2    0    0 -0.20688895187E+03 -0.86660982545E+02  0.28675769955E+04  0.30260254359E+04  0.93995688678E+03 0.  0.
         23    2    4    4    0    0 -0.44354697304E+02  0.18338609697E+03  0.25848062891E+04  0.25932788925E+04  0.90961874999E+02 0.  0.
         23    2    4    4    0    0 -0.16253425457E+03 -0.27004707951E+03  0.28277070646E+03  0.43274654335E+03  0.89260793667E+02 0.  0.
          2    1    3    3  502    0  0.30229649179E+02  0.22443939820E+02 -0.28221512885E+02  0.47053330527E+02  0.00000000000E+00 0. -1.
         -1    1    3    3    0  502  0.17665930270E+03  0.64217042724E+02 -0.47538016606E+03  0.51119334903E+03  0.00000000000E+00 0.  1.
         13    1    5    5    0    0 -0.68045151898E+02  0.14566709224E+03  0.22087872892E+04  0.22146309700E+04  0.00000000000E+00 0.  1.
        -13    1    5    5    0    0  0.23690454594E+02  0.37719004724E+02  0.37601899985E+03  0.37864792249E+03  0.00000000000E+00 0. -1.
          1    1    6    6  503    0 -0.16021180096E+03 -0.23047695015E+03  0.27378168701E+03  0.39210184628E+03  0.00000000000E+00 0. -1.
         -1    1    6    6    0  503 -0.23224536104E+01 -0.39570129367E+02  0.89890194469E+01  0.40644697065E+02  0.00000000000E+00 0.  1.
<mgrwt>
<rscale>  0 0.26941840E+04</rscale>
<asrwt>0</asrwt>
<pdfrwt beam="1">  1        2 0.45755749E+00 0.26941840E+04</pdfrwt>
<pdfrwt beam="2">  1       -1 0.93868986E-01 0.26941840E+04</pdfrwt>
<totfact> 0.19829317E+00</totfact>
</mgrwt>
</event>
<event>
12    7  0.1606355E-007  0.1359209E+04  0.7818608E-02  0.8983887E-01
         -1   -1    0    0    0  501 -0.00000000000E+00  0.00000000000E+00  0.24372254702E+03  0.24372254702E+03  0.00000000000E+00 0.  1.
          2   -1    0    0  501    0  0.00000000000E+00 -0.00000000000E+00 -0.18950316633E+04  0.18950316633E+04  0.00000000000E+00 0. -1.
         24    2    1    2    0    0 -0.32390859608E+03  0.15124715206E+03 -0.71328577674E+03  0.80180853863E+03  0.79547807664E+02 0.  0.
        254    2    1    2    0    0  0.32390859608E+03 -0.15124715206E+03 -0.93802333955E+03  0.13369456717E+04  0.88303083971E+03 0.  0.
         23    2    4    4    0    0 -0.27676630188E+03  0.19466796061E+01 -0.46879085550E+03  0.55407176816E+03  0.10308871251E+03 0.  0.
         23    2    4    4    0    0  0.60067489796E+03 -0.15319383167E+03 -0.46923248405E+03  0.78287390354E+03  0.91835405173E+02 0.  0.
          2    1    3    3  502    0 -0.23699044786E+03  0.10040102499E+03 -0.42983182970E+03  0.50099924154E+03  0.00000000000E+00 0. -1.
         -1    1    3    3    0  502 -0.86918148223E+02  0.50846127071E+02 -0.28345394703E+03  0.30080929709E+03  0.00000000000E+00 0.  1.
         13    1    5    5    0    0 -0.23215119029E+03 -0.24029027248E+02 -0.43085019056E+03  0.49000352653E+03  0.00000000000E+00 0.  1.
        -13    1    5    5    0    0 -0.44615111596E+02  0.25975706855E+02 -0.37940664940E+02  0.64068241629E+02  0.00000000000E+00 0. -1.
          4    1    6    6  503    0  0.26394442970E+03 -0.78790696539E+02 -0.26418976035E+03  0.38166852805E+03  0.00000000000E+00 0. -1.
         -4    1    6    6    0  503  0.33673046827E+03 -0.74403135132E+02 -0.20504272370E+03  0.40120537549E+03  0.00000000000E+00 0.  1.
<mgrwt>
<rscale>  0 0.13592085E+04</rscale>
<asrwt>0</asrwt>
<pdfrwt beam="1">  1        2 0.29154333E+00 0.13592085E+04</pdfrwt>
<pdfrwt beam="2">  1       -1 0.37495777E-01 0.13592085E+04</pdfrwt>
<totfact> 0.58253495E+01</totfact>
</mgrwt>
</event>
<event>
12    7  0.1606355E-007  0.1743483E+04  0.7818608E-02  0.8736945E-01
          2   -1    0    0  501    0  0.00000000000E+00  0.00000000000E+00  0.67071026617E+03  0.67071026617E+03  0.00000000000E+00 0. -1.
         -1   -1    0    0    0  501 -0.00000000000E+00 -0.00000000000E+00 -0.11330282023E+04  0.11330282023E+04  0.00000000000E+00 0.  1.
         24    2    1    2    0    0 -0.10884473685E+03 -0.50102496323E+03  0.22060243543E+03  0.56414080661E+03  0.81952575550E+02 0.  0.
        254    2    1    2    0    0  0.10884473685E+03  0.50102496323E+03 -0.68292037160E+03  0.12395976619E+04  0.89852598122E+03 0.  0.
         23    2    4    4    0    0  0.41744867729E+03 -0.64667888953E+01 -0.22440954316E+03  0.48335090420E+03  0.94674368228E+02 0.  0.
         23    2    4    4    0    0 -0.30860394044E+03  0.50749175213E+03 -0.45851082844E+03  0.75624675770E+03  0.94301156992E+02 0.  0.
          4    1    3    3  502    0 -0.11265888834E+03 -0.49243360238E+03  0.22588337051E+03  0.55335899283E+03  0.00000000000E+00 0. -1.
         -3    1    3    3    0  502  0.38141514873E+01 -0.85913608499E+01 -0.52809350851E+01  0.10781813771E+02  0.00000000000E+00 0.  1.
         13    1    5    5    0    0  0.21899282517E+03 -0.22888360420E+02 -0.68976260525E+02  0.23073677434E+03  0.00000000000E+00 0. -1.
        -13    1    5    5    0    0  0.19845585212E+03  0.16421571525E+02 -0.15543328264E+03  0.25261412986E+03  0.00000000000E+00 0.  1.
          2    1    6    6  503    0 -0.22943445844E+03  0.33837443925E+03 -0.36194973052E+03  0.54602659210E+03  0.00000000000E+00 0. -1.
         -2    1    6    6    0  503 -0.79169481993E+02  0.16911731288E+03 -0.96561097918E+02  0.21022016560E+03  0.00000000000E+00 0.  1.
<mgrwt>
<rscale>  0 0.17434835E+04</rscale>
<asrwt>0</asrwt>
<pdfrwt beam="1">  1        2 0.10318620E+00 0.17434835E+04</pdfrwt>
<pdfrwt beam="2">  1       -1 0.17431203E+00 0.17434835E+04</pdfrwt>
<totfact> 0.10714313E+01</totfact>
</mgrwt>
</event>
<event>
12    7  0.1606355E-007  0.3082700E+04  0.7818608E-02  0.8220502E-01
         -3   -1    0    0    0  501 -0.00000000000E+00  0.00000000000E+00  0.97763605120E+03  0.97763605120E+03  0.00000000000E+00 0.  1.
          2   -1    0    0  501    0  0.00000000000E+00 -0.00000000000E+00 -0.24301059649E+04  0.24301059649E+04  0.00000000000E+00 0. -1.
         24    2    1    2    0    0  0.13428172668E+04  0.37566224327E+03 -0.44556814737E+03  0.14658977801E+04  0.77749563243E+02 0.  0.
        254    2    1    2    0    0 -0.13428172668E+04 -0.37566224327E+03 -0.10069017663E+04  0.19418442360E+04  0.90145856083E+03 0.  0.
         23    2    4    4    0    0 -0.10139375956E+04 -0.50266752420E+03 -0.34586751994E+03  0.11869440334E+04  0.92020158383E+02 0.  0.
         23    2    4    4    0    0 -0.32887967124E+03  0.12700528093E+03 -0.66103424639E+03  0.75490020259E+03  0.92821664715E+02 0.  0.
          2    1    3    3  502    0  0.37479709659E+03  0.82754991971E+02 -0.93970411158E+02  0.39516033516E+03  0.00000000000E+00 0. -1.
         -1    1    3    3    0  502  0.96802017022E+03  0.29290725130E+03 -0.35159773621E+03  0.10707374449E+04  0.00000000000E+00 0.  1.
         13    1    5    5    0    0 -0.62752285917E+03 -0.35274203137E+03 -0.19442062291E+03  0.74566162439E+03  0.00000000000E+00 0. -1.
        -13    1    5    5    0    0 -0.38641473641E+03 -0.14992549283E+03 -0.15144689703E+03  0.44128240905E+03  0.00000000000E+00 0.  1.
          3    1    6    6  503    0 -0.30470092205E+03  0.11903406086E+03 -0.64890935522E+03  0.72670152803E+03  0.00000000000E+00 0. -1.
         -3    1    6    6    0  503 -0.24178749184E+02  0.79712200630E+01 -0.12124891168E+02  0.28198674565E+02  0.00000000000E+00 0.  1.
<mgrwt>
<rscale>  0 0.30826996E+04</rscale>
<asrwt>0</asrwt>
<pdfrwt beam="1">  1        2 0.37386245E+00 0.30826996E+04</pdfrwt>
<pdfrwt beam="2">  1       -3 0.15040555E+00 0.30826996E+04</pdfrwt>
<totfact> 0.66130512E-01</totfact>
</mgrwt>
</event>
<event>
12    7  0.1606355E-007  0.3356460E+04  0.7818608E-02  0.8148676E-01
          2   -1    0    0  501    0  0.00000000000E+00  0.00000000000E+00  0.35784072468E+04  0.35784072468E+04  0.00000000000E+00 0. -1.
         -1   -1    0    0    0  501 -0.00000000000E+00 -0.00000000000E+00 -0.78706983823E+03  0.78706983823E+03  0.00000000000E+00 0.  1.
         24    2    1    2    0    0  0.12057538484E+04  0.85229856144E+03  0.66095900351E+03  0.16198306175E+04  0.82031970902E+02 0.  0.
        254    2    1    2    0    0 -0.12057538484E+04 -0.85229856144E+03  0.21303784051E+04  0.27456464676E+04  0.90543204907E+03 0.  0.
         23    2    4    4    0    0 -0.13486518939E+03 -0.56572847083E+03  0.99491302651E+03  0.11561143372E+04  0.92255669001E+02 0.  0.
         23    2    4    4    0    0 -0.10708886590E+04 -0.28657009061E+03  0.11354653786E+04  0.15895321304E+04  0.91683317449E+02 0.  0.
          4    1    3    3  502    0  0.21487566530E+03  0.12143159711E+03  0.13009377061E+03  0.27900102771E+03  0.00000000000E+00 0. -1.
         -3    1    3    3    0  502  0.99087818308E+03  0.73086696434E+03  0.53086523290E+03  0.13408295898E+04  0.00000000000E+00 0.  1.
         13    1    5    5    0    0 -0.77560831405E+02 -0.16551470337E+03  0.35240840171E+03  0.39699178983E+03  0.00000000000E+00 0. -1.
        -13    1    5    5    0    0 -0.57304357988E+02 -0.40021376746E+03  0.64250462480E+03  0.75912254742E+03  0.00000000000E+00 0.  1.
          2    1    6    6  503    0 -0.96155892603E+03 -0.28521552938E+03  0.10194029806E+04  0.14300789850E+04  0.00000000000E+00 0.  1.
         -2    1    6    6    0  503 -0.10932973296E+03 -0.13545612259E+01  0.11606239800E+03  0.15945314539E+03  0.00000000000E+00 0. -1.
<mgrwt>
<rscale>  0 0.33564603E+04</rscale>
<asrwt>0</asrwt>
<pdfrwt beam="1">  1        2 0.55052418E+00 0.33564603E+04</pdfrwt>
<pdfrwt beam="2">  1       -1 0.12108767E+00 0.33564603E+04</pdfrwt>
<totfact> 0.40824253E-01</totfact>
</mgrwt>
</event>
<event>
12    7  0.1606355E-007  0.2626989E+04  0.7818608E-02  0.8359091E-01
          2   -1    0    0  501    0  0.00000000000E+00  0.00000000000E+00  0.15098019467E+04  0.15098019467E+04  0.00000000000E+00 0. -1.
         -1   -1    0    0    0  501 -0.00000000000E+00 -0.00000000000E+00 -0.11427115671E+04  0.11427115671E+04  0.00000000000E+00 0.  1.
         24    2    1    2    0    0  0.60508845316E+03  0.35407143372E+03  0.10914433790E+04  0.12998073384E+04  0.82169647314E+02 0.  0.
        254    2    1    2    0    0 -0.60508845316E+03 -0.35407143372E+03 -0.72435299946E+03  0.13527061754E+04  0.90201336625E+03 0.  0.
         23    2    4    4    0    0 -0.67588910122E+03  0.40596700654E+02 -0.63292890805E+03  0.93128326831E+03  0.90638589640E+02 0.  0.
         23    2    4    4    0    0  0.70800648063E+02 -0.39466813437E+03 -0.91424091404E+02  0.42142290712E+03  0.91995837389E+02 0.  0.
          2    1    3    3  502    0  0.25299371644E+03  0.16859223147E+03  0.54098665317E+03  0.62056081086E+03  0.00000000000E+00 0. -1.
         -1    1    3    3    0  502  0.35209473671E+03  0.18547920225E+03  0.55045672586E+03  0.67924652751E+03  0.00000000000E+00 0.  1.
         13    1    5    5    0    0 -0.80883192345E+00  0.56725814026E+01 -0.12455191622E+02  0.13710003180E+02  0.00000000000E+00 0. -1.
        -13    1    5    5    0    0 -0.67508026930E+03  0.34924119251E+02 -0.62047371643E+03  0.91757326513E+03  0.00000000000E+00 0.  1.
          3    1    6    6  503    0 -0.16605020294E+02 -0.14435588323E+03 -0.18773505485E+02  0.14651550167E+03  0.00000000000E+00 0. -1.
         -3    1    6    6    0  503  0.87405668357E+02 -0.25031225115E+03 -0.72650585919E+02  0.27490740545E+03  0.00000000000E+00 0.  1.
<mgrwt>
<rscale>  0 0.26269893E+04</rscale>
<asrwt>0</asrwt>
<pdfrwt beam="1">  1        2 0.23227722E+00 0.26269893E+04</pdfrwt>
<pdfrwt beam="2">  1       -1 0.17580178E+00 0.26269893E+04</pdfrwt>
<totfact> 0.28115578E+00</totfact>
</mgrwt>
</event>
<event>
12    7  0.1606355E-007  0.3245007E+04  0.7818608E-02  0.8177031E-01
          2   -1    0    0  501    0  0.00000000000E+00  0.00000000000E+00  0.14072486095E+04  0.14072486095E+04  0.00000000000E+00 0. -1.
         -1   -1    0    0    0  501 -0.00000000000E+00 -0.00000000000E+00 -0.18706835857E+04  0.18706835857E+04  0.00000000000E+00 0.  1.
         24    2    1    2    0    0  0.12676508480E+04  0.15920652272E+03  0.56957366468E+03  0.14011138477E+04  0.80127805782E+02 0.  0.
        254    2    1    2    0    0 -0.12676508480E+04 -0.15920652272E+03 -0.10330086409E+04  0.18768183476E+04  0.90722371459E+03 0.  0.
         23    2    4    4    0    0 -0.36029356272E+03 -0.31257345136E+03 -0.77867456891E+03  0.91773212923E+03  0.91567259006E+02 0.  0.
         23    2    4    4    0    0 -0.90735728529E+03  0.15336692864E+03 -0.25433407200E+03  0.95908621835E+03  0.91333981053E+02 0.  0.
          2    1    3    3  502    0  0.82698225358E+03  0.98092980191E+02  0.41223223750E+03  0.92922403011E+03  0.00000000000E+00 0. -1.
         -1    1    3    3    0  502  0.44066859443E+03  0.61113542525E+02  0.15734142718E+03  0.47188981755E+03  0.00000000000E+00 0.  1.
         13    1    5    5    0    0 -0.13962737770E+03 -0.69199948396E+02 -0.21945031367E+03  0.26915214588E+03  0.00000000000E+00 0. -1.
        -13    1    5    5    0    0 -0.22066618503E+03 -0.24337350296E+03 -0.55922425524E+03  0.64857998335E+03  0.00000000000E+00 0.  1.
          1    1    6    6  503    0 -0.62962927907E+03  0.11120861858E+03 -0.13283954616E+03  0.65302888981E+03  0.00000000000E+00 0. -1.
         -1    1    6    6    0  503 -0.27772800622E+03  0.42158310062E+02 -0.12149452584E+03  0.30605732854E+03  0.00000000000E+00 0.  1.
<mgrwt>
<rscale>  0 0.32450065E+04</rscale>
<asrwt>0</asrwt>
<pdfrwt beam="1">  1        2 0.21649979E+00 0.32450065E+04</pdfrwt>
<pdfrwt beam="2">  1       -1 0.28779748E+00 0.32450065E+04</pdfrwt>
<totfact> 0.54247435E-01</totfact>
</mgrwt>
</event>
<event>
12    7  0.1606355E-007  0.1411689E+04  0.7818608E-02  0.8945401E-01
          2   -1    0    0  501    0  0.00000000000E+00  0.00000000000E+00  0.16358864241E+04  0.16358864241E+04  0.00000000000E+00 0. -1.
         -1   -1    0    0    0  501 -0.00000000000E+00 -0.00000000000E+00 -0.30455443033E+03  0.30455443033E+03  0.00000000000E+00 0.  1.
         24    2    1    2    0    0  0.28076586314E+03  0.28593722116E+03  0.23619219765E+03  0.47204537829E+03  0.80315132988E+02 0.  0.
        254    2    1    2    0    0 -0.28076586314E+03 -0.28593722116E+03  0.10951397961E+04  0.14683954761E+04  0.89233656034E+03 0.  0.
         23    2    4    4    0    0  0.28764015714E+03 -0.22641825065E+03  0.28545917995E+03  0.47284987373E+03  0.89988751759E+02 0.  0.
         23    2    4    4    0    0 -0.56840602028E+03 -0.59518970506E+02  0.80968061616E+03  0.99554560239E+03  0.94342114175E+02 0.  0.
          4    1    3    3  502    0  0.11876569791E+02  0.28338177944E+02  0.42122926858E+02  0.52138720796E+02  0.00000000000E+00 0. -1.
         -3    1    3    3    0  502  0.26888929335E+03  0.25759904321E+03  0.19406927079E+03  0.41990665749E+03  0.00000000000E+00 0.  1.
         13    1    5    5    0    0  0.13225684480E+03 -0.58765553519E+02  0.79281058007E+02  0.16501742162E+03  0.00000000000E+00 0. -1.
        -13    1    5    5    0    0  0.15538331234E+03 -0.16765269713E+03  0.20617812194E+03  0.30783245212E+03  0.00000000000E+00 0.  1.
          2    1    6    6  503    0 -0.76793877061E+02 -0.36831743277E+02  0.92374562353E+02  0.12564607689E+03  0.00000000000E+00 0. -1.
         -2    1    6    6    0  503 -0.49161214322E+03 -0.22687227228E+02  0.71730605381E+03  0.86989952550E+03  0.00000000000E+00 0.  1.
<mgrwt>
<rscale>  0 0.14116890E+04</rscale>
<asrwt>0</asrwt>
<pdfrwt beam="1">  1        2 0.25167483E+00 0.14116890E+04</pdfrwt>
<pdfrwt beam="2">  1       -1 0.46854529E-01 0.14116890E+04</pdfrwt>
<totfact> 0.53557007E+01</totfact>
</mgrwt>
</event>
<event>
12    7  0.1606355E-007  0.1885505E+04  0.7818608E-02  0.8662105E-01
          2   -1    0    0  501    0  0.00000000000E+00  0.00000000000E+00  0.88147372357E+03  0.88147372357E+03  0.00000000000E+00 0. -1.
         -1   -1    0    0    0  501 -0.00000000000E+00 -0.00000000000E+00 -0.10082912217E+04  0.10082912217E+04  0.00000000000E+00 0.  1.
         24    2    1    2    0    0  0.63189188902E+03  0.14323285658E+03 -0.37600216331E+03  0.75328950956E+03  0.79148264541E+02 0.  0.
        254    2    1    2    0    0 -0.63189188902E+03 -0.14323285658E+03  0.24918466513E+03  0.11364754357E+04  0.89982243143E+03 0.  0.
         23    2    4    4    0    0 -0.25229604617E+03 -0.24026009132E+03  0.53320875591E+03  0.64350306220E+03  0.91686461809E+02 0.  0.
         23    2    4    4    0    0 -0.37959584285E+03  0.97027234741E+02 -0.28402409078E+03  0.49297237355E+03  0.94046737045E+02 0.  0.
          2    1    3    3  502    0  0.17755431073E+03  0.54565111393E+02 -0.70604909869E+02  0.19871572142E+03  0.00000000000E+00 0. -1.
         -1    1    3    3    0  502  0.45433757829E+03  0.88667745191E+02 -0.30539725344E+03  0.55457378814E+03  0.00000000000E+00 0.  1.
         13    1    5    5    0    0 -0.63520606016E+01 -0.20076656700E+02  0.67535049010E+01  0.22114037320E+02  0.00000000000E+00 0. -1.
        -13    1    5    5    0    0 -0.24594398557E+03 -0.22018343463E+03  0.52645525101E+03  0.62138902488E+03  0.00000000000E+00 0.  1.
          4    1    6    6  503    0 -0.30961412329E+03  0.99537993333E+02 -0.19317174590E+03  0.37826451178E+03  0.00000000000E+00 0. -1.
         -4    1    6    6    0  503 -0.69981719558E+02 -0.25107585919E+01 -0.90852344886E+02  0.11470786177E+03  0.00000000000E+00 0.  1.
<mgrwt>
<rscale>  0 0.18855049E+04</rscale>
<asrwt>0</asrwt>
<pdfrwt beam="1">  1        2 0.13561134E+00 0.18855049E+04</pdfrwt>
<pdfrwt beam="2">  1       -1 0.15512173E+00 0.18855049E+04</pdfrwt>
<totfact> 0.10285808E+01</totfact>
</mgrwt>
</event>
<event>
12    7  0.1606355E-007  0.1609002E+04  0.7818608E-02  0.8815037E-01
          2   -1    0    0  501    0  0.00000000000E+00  0.00000000000E+00  0.37365992153E+04  0.37365992153E+04  0.00000000000E+00 0. -1.
         -3   -1    0    0    0  501 -0.00000000000E+00 -0.00000000000E+00 -0.17321137060E+03  0.17321137060E+03  0.00000000000E+00 0.  1.
         24    2    1    2    0    0  0.88903838217E+02  0.40412362191E+03  0.34760600611E+03  0.54637233927E+03  0.80454977510E+02 0.  0.
        254    2    1    2    0    0 -0.88903838217E+02 -0.40412362191E+03  0.32157818386E+04  0.33634382467E+04  0.89456369877E+03 0.  0.
         23    2    4    4    0    0  0.33504581142E+03 -0.94399004919E+02  0.20523442592E+04  0.20837024435E+04  0.92369080040E+02 0.  0.
         23    2    4    4    0    0 -0.42394964964E+03 -0.30972461699E+03  0.11634375794E+04  0.12797358031E+04  0.92054770744E+02 0.  0.
          2    1    3    3  502    0  0.85509807505E+01 -0.67892626865E+00  0.45640512902E+01  0.97165208204E+01  0.00000000000E+00 0. -1.
         -1    1    3    3    0  502  0.80352857467E+02  0.40480254818E+03  0.34304195482E+03  0.53665581845E+03  0.00000000000E+00 0.  1.
         13    1    5    5    0    0  0.20266166475E+03 -0.69527387229E+02  0.99459778838E+03  0.10174136664E+04  0.00000000000E+00 0.  1.
        -13    1    5    5    0    0  0.13238414667E+03 -0.24871617690E+02  0.10577464708E+04  0.10662887771E+04  0.00000000000E+00 0. -1.
          1    1    6    6  503    0 -0.12574786767E+03 -0.70848845299E+02  0.23544056586E+03  0.27615999919E+03  0.00000000000E+00 0. -1.
         -1    1    6    6    0  503 -0.29820178197E+03 -0.23887577169E+03  0.92799701358E+03  0.10035758040E+04  0.00000000000E+00 0.  1.
<mgrwt>
<rscale>  0 0.16090015E+04</rscale>
<asrwt>0</asrwt>
<pdfrwt beam="1">  1        2 0.57486136E+00 0.16090015E+04</pdfrwt>
<pdfrwt beam="2">  1       -3 0.26647906E-01 0.16090015E+04</pdfrwt>
<totfact> 0.47188999E+00</totfact>
</mgrwt>
</event>
<event>
12    7  0.1606355E-007  0.1333327E+04  0.7818608E-02  0.9003546E-01
          2   -1    0    0  501    0  0.00000000000E+00  0.00000000000E+00  0.41523433421E+04  0.41523433421E+04  0.00000000000E+00 0. -1.
         -1   -1    0    0    0  501 -0.00000000000E+00 -0.00000000000E+00 -0.10703360149E+03  0.10703360149E+03  0.00000000000E+00 0.  1.
         24    2    1    2    0    0  0.27328844319E+03  0.23112710781E+03  0.88227840959E+03  0.95531430018E+03  0.78127504464E+02 0.  0.
        254    2    1    2    0    0 -0.27328844319E+03 -0.23112710781E+03  0.31630313311E+04  0.33040626435E+04  0.88541314507E+03 0.  0.
         23    2    4    4    0    0 -0.50389956278E+03 -0.28859202470E+03  0.13377094646E+04  0.14611745373E+04  0.91456496345E+02 0.  0.
         23    2    4    4    0    0  0.23061111959E+03  0.57464916895E+02  0.18253218665E+04  0.18428881062E+04  0.89179316131E+02 0.  0.
          4    1    3    3  502    0  0.79702698352E+02  0.37777144417E+02  0.28530878971E+03  0.29863144217E+03  0.00000000000E+00 0. -1.
         -3    1    3    3    0  502  0.19358574484E+03  0.19334996339E+03  0.59696961988E+03  0.65668285801E+03  0.00000000000E+00 0.  1.
         13    1    5    5    0    0 -0.31980230350E+02 -0.35611760745E+02  0.67770446702E+02  0.82968464387E+02  0.00000000000E+00 0.  1.
        -13    1    5    5    0    0 -0.47191933243E+03 -0.25298026395E+03  0.12699390179E+04  0.13782060729E+04  0.00000000000E+00 0. -1.
          3    1    6    6  503    0  0.23576724201E+03  0.51527113508E+02  0.16677979950E+04  0.16851680593E+04  0.00000000000E+00 0. -1.
         -3    1    6    6    0  503 -0.51561224248E+01  0.59378033866E+01  0.15752387143E+03  0.15772004685E+03  0.00000000000E+00 0.  1.
<mgrwt>
<rscale>  0 0.13333271E+04</rscale>
<asrwt>0</asrwt>
<pdfrwt beam="1">  1        2 0.63882193E+00 0.13333271E+04</pdfrwt>
<pdfrwt beam="2">  1       -1 0.16466711E-01 0.13333271E+04</pdfrwt>
<totfact> 0.83326314E+00</totfact>
</mgrwt>
</event>
<event>
12    7  0.1606355E-007  0.1532166E+04  0.7818608E-02  0.8863341E-01
         -1   -1    0    0    0  501 -0.00000000000E+00  0.00000000000E+00  0.75561657549E+03  0.75561657549E+03  0.00000000000E+00 0.  1.
          2   -1    0    0  501    0  0.00000000000E+00 -0.00000000000E+00 -0.77669389848E+03  0.77669389848E+03  0.00000000000E+00 0. -1.
         24    2    1    2    0    0 -0.49700898419E+00 -0.12659032765E+03  0.47547944351E+03  0.49848292067E+03  0.79869662137E+02 0.  0.
        254    2    1    2    0    0  0.49700898419E+00  0.12659032765E+03 -0.49655676650E+03  0.10338275533E+04  0.89788943057E+03 0.  0.
         23    2    4    4    0    0  0.56691269025E+02  0.24942419240E+03  0.18800549294E+03  0.33027414972E+03  0.91151636642E+02 0.  0.
         23    2    4    4    0    0 -0.56194260041E+02 -0.12283386475E+03 -0.68456225944E+03  0.70355340357E+03  0.90088575490E+02 0.  0.
          4    1    3    3  502    0  0.31946449114E+02 -0.37082995666E+02  0.10314644430E+03  0.11417054414E+03  0.00000000000E+00 0. -1.
         -3    1    3    3    0  502 -0.32443458098E+02 -0.89507331983E+02  0.37233299921E+03  0.38431237653E+03  0.00000000000E+00 0.  1.
         13    1    5    5    0    0  0.54528620406E+02  0.18644556147E+03  0.18329724245E+03  0.26708275295E+03  0.00000000000E+00 0.  1.
        -13    1    5    5    0    0  0.21626486185E+01  0.62978630935E+02  0.47082504875E+01  0.63191396773E+02  0.00000000000E+00 0. -1.
          3    1    6    6  503    0  0.21394632753E+02 -0.54954387671E+02 -0.22884902144E+03  0.23632517777E+03  0.00000000000E+00 0. -1.
         -3    1    6    6    0  503 -0.77588892794E+02 -0.67879477081E+02 -0.45571323800E+03  0.46722822580E+03  0.00000000000E+00 0.  1.
<mgrwt>
<rscale>  0 0.15321655E+04</rscale>
<asrwt>0</asrwt>
<pdfrwt beam="1">  1        2 0.11949137E+00 0.15321655E+04</pdfrwt>
<pdfrwt beam="2">  1       -1 0.11624870E+00 0.15321655E+04</pdfrwt>
<totfact> 0.26374303E+01</totfact>
</mgrwt>
</event>
<event>
12    7  0.1606355E-007  0.2079216E+04  0.7818608E-02  0.8570455E-01
          2   -1    0    0  501    0  0.00000000000E+00  0.00000000000E+00  0.28323110430E+04  0.28323110430E+04  0.00000000000E+00 0. -1.
         -1   -1    0    0    0  501 -0.00000000000E+00 -0.00000000000E+00 -0.38159102613E+03  0.38159102613E+03  0.00000000000E+00 0.  1.
         24    2    1    2    0    0  0.78851029708E+03 -0.27541006364E+02  0.13654150925E+04  0.15790812275E+04  0.81438027743E+02 0.  0.
        254    2    1    2    0    0 -0.78851029708E+03  0.27541006364E+02  0.10853049243E+04  0.16348208416E+04  0.93394079571E+03 0.  0.
         23    2    4    4    0    0  0.10986047456E+03 -0.22621779491E+03  0.14083643949E+03  0.30347744282E+03  0.94972843528E+02 0.  0.
         23    2    4    4    0    0 -0.89837077164E+03  0.25375880127E+03  0.94446848481E+03  0.13313433988E+04  0.94820642366E+02 0.  0.
          2    1    3    3  502    0  0.72576568533E+03 -0.20002027118E+02  0.12071939824E+04  0.14087062228E+04  0.00000000000E+00 0. -1.
         -3    1    3    3    0  502  0.62744611755E+02 -0.75389792465E+01  0.15822111012E+03  0.17037500462E+03  0.00000000000E+00 0.  1.
         13    1    5    5    0    0  0.91884273620E+02 -0.22842764133E+03  0.11455534716E+03  0.27156000189E+03  0.00000000000E+00 0.  1.
        -13    1    5    5    0    0  0.17976200936E+02  0.22098464264E+01  0.26281092324E+02  0.31917440923E+02  0.00000000000E+00 0. -1.
          2    1    6    6  503    0 -0.11930470589E+02  0.89172399909E+01  0.28813643088E+01  0.15170878610E+02  0.00000000000E+00 0. -1.
         -2    1    6    6    0  503 -0.88644030105E+03  0.24484156128E+03  0.94158712051E+03  0.13161725202E+04  0.00000000000E+00 0.  1.
<mgrwt>
<rscale>  0 0.20792157E+04</rscale>
<asrwt>0</asrwt>
<pdfrwt beam="1">  1        2 0.43574015E+00 0.20792157E+04</pdfrwt>
<pdfrwt beam="2">  1       -1 0.58706313E-01 0.20792157E+04</pdfrwt>
<totfact> 0.68370008E+00</totfact>
</mgrwt>
</event>
<event>
12    7  0.1606355E-007  0.2090239E+04  0.7818608E-02  0.8565555E-01
         -3   -1    0    0    0  501 -0.00000000000E+00  0.00000000000E+00  0.36112942657E+03  0.36112942657E+03  0.00000000000E+00 0.  1.
          2   -1    0    0  501    0  0.00000000000E+00 -0.00000000000E+00 -0.30246088292E+04  0.30246088292E+04  0.00000000000E+00 0. -1.
         24    2    1    2    0    0 -0.13966718610E+03 -0.29010446348E+03 -0.23414286133E+04  0.23648308550E+04  0.80433194943E+02 0.  0.
        254    2    1    2    0    0  0.13966718610E+03  0.29010446348E+03 -0.32205078931E+03  0.10209074008E+04  0.91371094305E+03 0.  0.
         23    2    4    4    0    0  0.45661822506E+03  0.20850386744E+03  0.54319952712E+02  0.51349191887E+03  0.93537304256E+02 0.  0.
         23    2    4    4    0    0 -0.31695103896E+03  0.81600596041E+02 -0.37637074202E+03  0.50741548190E+03  0.93267987320E+02 0.  0.
          4    1    3    3  502    0 -0.26180626851E+02 -0.12178959344E+03 -0.10819154470E+04  0.10890634347E+04  0.00000000000E+00 0. -1.
         -3    1    3    3    0  502 -0.11348655925E+03 -0.16831487003E+03 -0.12595131663E+04  0.12757674203E+04  0.00000000000E+00 0.  1.
         13    1    5    5    0    0  0.22331070099E+03  0.15203528704E+03  0.39081535512E+02  0.27296476714E+03  0.00000000000E+00 0. -1.
        -13    1    5    5    0    0  0.23330752407E+03  0.56468580395E+02  0.15238417200E+02  0.24052715172E+03  0.00000000000E+00 0.  1.
          2    1    6    6  503    0 -0.42516670492E+00  0.39032942565E+01 -0.35818732771E+02  0.36033291414E+02  0.00000000000E+00 0. -1.
         -2    1    6    6    0  503 -0.31652587225E+03  0.77697301785E+02 -0.34055200925E+03  0.47138219049E+03  0.00000000000E+00 0.  1.
<mgrwt>
<rscale>  0 0.20902395E+04</rscale>
<asrwt>0</asrwt>
<pdfrwt beam="1">  1        2 0.46532444E+00 0.20902395E+04</pdfrwt>
<pdfrwt beam="2">  1       -3 0.55558372E-01 0.20902395E+04</pdfrwt>
<totfact> 0.31935267E+00</totfact>
</mgrwt>
</event>
<event>
12    7  0.1606355E-007  0.1627745E+04  0.7818608E-02  0.8803682E-01
          2   -1    0    0  501    0  0.00000000000E+00  0.00000000000E+00  0.20534852221E+04  0.20534852221E+04  0.00000000000E+00 0. -1.
         -1   -1    0    0    0  501 -0.00000000000E+00 -0.00000000000E+00 -0.32256783913E+03  0.32256783913E+03  0.00000000000E+00 0.  1.
         24    2    1    2    0    0  0.52147260745E+03 -0.19195888225E+03  0.42898104135E+03  0.70652909439E+03  0.79854458758E+02 0.  0.
        254    2    1    2    0    0 -0.52147260745E+03  0.19195888225E+03  0.13019363416E+04  0.16695239668E+04  0.88514978700E+03 0.  0.
         23    2    4    4    0    0  0.46513125933E+02 -0.77111001748E+02 -0.77249099883E+02  0.15120966865E+03  0.93740935483E+02 0.  0.
         23    2    4    4    0    0 -0.56798573338E+03  0.26906988400E+03  0.13791854415E+04  0.15183142982E+04  0.90107881123E+02 0.  0.
          4    1    3    3  502    0  0.30563291810E+03 -0.94279793133E+02  0.20112220627E+03  0.37782310924E+03  0.00000000000E+00 0. -1.
         -3    1    3    3    0  502  0.21583968935E+03 -0.97679089116E+02  0.22785883508E+03  0.32870598515E+03  0.00000000000E+00 0.  1.
         13    1    5    5    0    0  0.33361779436E+02 -0.26158784426E+02 -0.87837222624E+02  0.97532907309E+02  0.00000000000E+00 0. -1.
        -13    1    5    5    0    0  0.13151346496E+02 -0.50952217322E+02  0.10588122740E+02  0.53676761339E+02  0.00000000000E+00 0.  1.
          1    1    6    6  503    0 -0.19351826146E+03  0.48156109822E+02  0.46800902230E+03  0.50872465380E+03  0.00000000000E+00 0. -1.
         -1    1    6    6    0  503 -0.37446747192E+03  0.22091377418E+03  0.91117641920E+03  0.10095896444E+04  0.00000000000E+00 0.  1.
<mgrwt>
<rscale>  0 0.16277448E+04</rscale>
<asrwt>0</asrwt>
<pdfrwt beam="1">  1        2 0.31592080E+00 0.16277448E+04</pdfrwt>
<pdfrwt beam="2">  1       -1 0.49625823E-01 0.16277448E+04</pdfrwt>
<totfact> 0.27691358E+01</totfact>
</mgrwt>
</event>
<event>
12    7  0.1606355E-007  0.1818263E+04  0.7818608E-02  0.8696647E-01
          2   -1    0    0  501    0  0.00000000000E+00  0.00000000000E+00  0.19755841509E+04  0.19755841509E+04  0.00000000000E+00 0. -1.
         -1   -1    0    0    0  501 -0.00000000000E+00 -0.00000000000E+00 -0.41836728568E+03  0.41836728568E+03  0.00000000000E+00 0.  1.
         24    2    1    2    0    0  0.50458098133E+02  0.59984477011E+03  0.99389841910E+03  0.11647267131E+04  0.79965497259E+02 0.  0.
        254    2    1    2    0    0 -0.50458098133E+02 -0.59984477011E+03  0.56331844608E+03  0.12292247235E+04  0.91175982648E+03 0.  0.
         23    2    4    4    0    0 -0.34808474459E+03 -0.55038669850E+03  0.62489797082E+03  0.90719415580E+03  0.91734699499E+02 0.  0.
         23    2    4    4    0    0  0.29762664646E+03 -0.49458071616E+02 -0.61579524735E+02  0.32203056766E+03  0.94254586686E+02 0.  0.
          2    1    3    3  502    0  0.57660287373E+02  0.49944846054E+03  0.87288718648E+03  0.10073259223E+04  0.00000000000E+00 0. -1.
         -1    1    3    3    0  502 -0.72021892400E+01  0.10039630958E+03  0.12101123262E+03  0.15740079074E+03  0.00000000000E+00 0.  1.
         13    1    5    5    0    0 -0.18289693994E+03 -0.20947618823E+03  0.24336308097E+03  0.36953640315E+03  0.00000000000E+00 0. -1.
        -13    1    5    5    0    0 -0.16518780465E+03 -0.34091051027E+03  0.38153488985E+03  0.53765775266E+03  0.00000000000E+00 0.  1.
          4    1    6    6  503    0  0.28809633141E+03 -0.40529706125E+02 -0.35794277167E+02  0.29312690686E+03  0.00000000000E+00 0. -1.
         -4    1    6    6    0  503  0.95303150497E+01 -0.89283654915E+01 -0.25785247569E+02  0.28903660797E+02  0.00000000000E+00 0.  1.
<mgrwt>
<rscale>  0 0.18182627E+04</rscale>
<asrwt>0</asrwt>
<pdfrwt beam="1">  1        2 0.30393602E+00 0.18182627E+04</pdfrwt>
<pdfrwt beam="2">  1       -1 0.64364199E-01 0.18182627E+04</pdfrwt>
<totfact> 0.18114657E+01</totfact>
</mgrwt>
</event>
<event>
12    7  0.1606355E-007  0.2221513E+04  0.7818608E-02  0.8509527E-01
         -1   -1    0    0    0  501 -0.00000000000E+00  0.00000000000E+00  0.13938307231E+04  0.13938307231E+04  0.00000000000E+00 0.  1.
          2   -1    0    0  501    0  0.00000000000E+00 -0.00000000000E+00 -0.88517242274E+03  0.88517242274E+03  0.00000000000E+00 0. -1.
         24    2    1    2    0    0  0.58385955955E+03 -0.10493107614E+03  0.94364126739E+03  0.11173952729E+04  0.78808872113E+02 0.  0.
        254    2    1    2    0    0 -0.58385955955E+03  0.10493107614E+03 -0.43498296700E+03  0.11616078730E+04  0.89901065230E+03 0.  0.
         23    2    4    4    0    0 -0.13282400151E+03 -0.11119851369E+03  0.24444215942E+03  0.31312866482E+03  0.91050901157E+02 0.  0.
         23    2    4    4    0    0 -0.45103555804E+03  0.21612958983E+03 -0.67942512643E+03  0.84847920816E+03  0.90296124136E+02 0.  0.
          2    1    3    3  502    0  0.24271715081E+03 -0.46949688572E+02  0.32227393664E+03  0.40617284349E+03  0.00000000000E+00 0. -1.
         -1    1    3    3    0  502  0.34114240875E+03 -0.57981387571E+02  0.62136733074E+03  0.71122242939E+03  0.00000000000E+00 0.  1.
         13    1    5    5    0    0  0.12102308679E+02 -0.18597839510E+02  0.41949135720E+02  0.47456037524E+02  0.00000000000E+00 0.  1.
        -13    1    5    5    0    0 -0.14492631019E+03 -0.92600674180E+02  0.20249302370E+03  0.26567262729E+03  0.00000000000E+00 0. -1.
          1    1    6    6  503    0 -0.30910420510E+03  0.18299462520E+03 -0.52509460262E+03  0.63620498596E+03  0.00000000000E+00 0. -1.
         -1    1    6    6    0  503 -0.14193135295E+03  0.33134964630E+02 -0.15433052381E+03  0.21227422220E+03  0.00000000000E+00 0.  1.
<mgrwt>
<rscale>  0 0.22215135E+04</rscale>
<asrwt>0</asrwt>
<pdfrwt beam="1">  1        2 0.13618037E+00 0.22215135E+04</pdfrwt>
<pdfrwt beam="2">  1       -1 0.21443550E+00 0.22215135E+04</pdfrwt>
<totfact> 0.37468315E+00</totfact>
</mgrwt>
</event>
<event>
12    7  0.1606355E-007  0.1588288E+04  0.7818608E-02  0.8827776E-01
         -1   -1    0    0    0  501 -0.00000000000E+00  0.00000000000E+00  0.53438906935E+03  0.53438906935E+03  0.00000000000E+00 0.  1.
          2   -1    0    0  501    0  0.00000000000E+00 -0.00000000000E+00 -0.11801595248E+04  0.11801595248E+04  0.00000000000E+00 0. -1.
         24    2    1    2    0    0 -0.47860452235E+03  0.14690341718E+03 -0.21177894398E+02  0.50732418622E+03  0.79286971968E+02 0.  0.
        254    2    1    2    0    0  0.47860452235E+03 -0.14690341718E+03 -0.62459256108E+03  0.12072244080E+04  0.90367693398E+03 0.  0.
         23    2    4    4    0    0 -0.14183596552E+03 -0.33116932234E+03 -0.29870121751E+03  0.47682311959E+03  0.91363607965E+02 0.  0.
         23    2    4    4    0    0  0.62044048787E+03  0.18426590517E+03 -0.32589134356E+03  0.73040128836E+03  0.91545351778E+02 0.  0.
          4    1    3    3  502    0 -0.12627662141E+03  0.75436821463E+02  0.15740752102E+01  0.14710192677E+03  0.00000000000E+00 0. -1.
         -3    1    3    3    0  502 -0.35232790093E+03  0.71466595713E+02 -0.22751969608E+02  0.36022225944E+03  0.00000000000E+00 0.  1.
         13    1    5    5    0    0 -0.12549765103E+03 -0.27941790288E+03 -0.29009497264E+03  0.42187571394E+03  0.00000000000E+00 0. -1.
        -13    1    5    5    0    0 -0.16338314497E+02 -0.51751419467E+02 -0.86062448704E+01  0.54947405655E+02  0.00000000000E+00 0.  1.
          4    1    6    6  503    0  0.57787128401E+03  0.18893783494E+03 -0.32037954643E+03  0.68722323893E+03  0.00000000000E+00 0. -1.
         -4    1    6    6    0  503  0.42569203855E+02 -0.46719297728E+01 -0.55117971387E+01  0.43178049428E+02  0.00000000000E+00 0.  1.
<mgrwt>
<rscale>  0 0.15882876E+04</rscale>
<asrwt>0</asrwt>
<pdfrwt beam="1">  1        2 0.18156300E+00 0.15882876E+04</pdfrwt>
<pdfrwt beam="2">  1       -1 0.82213704E-01 0.15882876E+04</pdfrwt>
<totfact> 0.31353209E+01</totfact>
</mgrwt>
</event>
<event>
12    7  0.1606355E-007  0.1359135E+04  0.7818608E-02  0.8983942E-01
          2   -1    0    0  501    0  0.00000000000E+00  0.00000000000E+00  0.23315856730E+04  0.23315856730E+04  0.00000000000E+00 0. -1.
         -1   -1    0    0    0  501 -0.00000000000E+00 -0.00000000000E+00 -0.19806765087E+03  0.19806765087E+03  0.00000000000E+00 0.  1.
         24    2    1    2    0    0  0.21055734554E+02  0.13078110689E+03  0.13244616256E+04  0.13334543088E+04  0.79716711479E+02 0.  0.
        254    2    1    2    0    0 -0.21055734554E+02 -0.13078110689E+03  0.80905639650E+03  0.11961990150E+04  0.87107565056E+03 0.  0.
         23    2    4    4    0    0  0.84302728716E+01 -0.60257368989E+02  0.98106849765E+03  0.98731455098E+03  0.92696307822E+02 0.  0.
         23    2    4    4    0    0 -0.29486007425E+02 -0.70523737905E+02 -0.17201210114E+03  0.20888446407E+03  0.90562321894E+02 0.  0.
          2    1    3    3  502    0  0.39821814177E+02  0.84616844164E+02  0.10752496200E+04  0.10793088217E+04  0.00000000000E+00 0. -1.
         -3    1    3    3    0  502 -0.18766079623E+02  0.46164262730E+02  0.24921200553E+03  0.25414548707E+03  0.00000000000E+00 0.  1.
         13    1    5    5    0    0  0.24718568508E+02  0.18186823109E+02  0.28831209869E+03  0.28994074294E+03  0.00000000000E+00 0. -1.
        -13    1    5    5    0    0 -0.16288295637E+02 -0.78444192098E+02  0.69275639895E+03  0.69737380804E+03  0.00000000000E+00 0.  1.
          4    1    6    6  503    0 -0.15327251129E+02 -0.18180165777E+01  0.67536835334E+01  0.16847612671E+02  0.00000000000E+00 0. -1.
         -4    1    6    6    0  503 -0.14158756297E+02 -0.68705721327E+02 -0.17876578468E+03  0.19203685140E+03  0.00000000000E+00 0.  1.
<mgrwt>
<rscale>  0 0.13591346E+04</rscale>
<asrwt>0</asrwt>
<pdfrwt beam="1">  1        2 0.35870547E+00 0.13591346E+04</pdfrwt>
<pdfrwt beam="2">  1       -1 0.30471948E-01 0.13591346E+04</pdfrwt>
<totfact> 0.48140430E+01</totfact>
</mgrwt>
</event>
<event>
12    7  0.1606355E-007  0.1353129E+04  0.7818608E-02  0.8988463E-01
         -1   -1    0    0    0  501 -0.00000000000E+00  0.00000000000E+00  0.25780377597E+03  0.25780377597E+03  0.00000000000E+00 0.  1.
          2   -1    0    0  501    0  0.00000000000E+00 -0.00000000000E+00 -0.17755347453E+04  0.17755347453E+04  0.00000000000E+00 0. -1.
         24    2    1    2    0    0  0.58501265002E+02 -0.87381141095E+02 -0.97053338979E+03  0.97963793598E+03  0.81838640560E+02 0.  0.
        254    2    1    2    0    0 -0.58501265002E+02  0.87381141095E+02 -0.54719757955E+03  0.10537005853E+04  0.89431642643E+03 0.  0.
         23    2    4    4    0    0  0.10859311474E+03  0.45750669323E+03 -0.23590450259E+03  0.53407562579E+03  0.92092349345E+02 0.  0.
         23    2    4    4    0    0 -0.16709437974E+03 -0.37012555213E+03 -0.31129307696E+03  0.51962495952E+03  0.90516643261E+02 0.  0.
          2    1    3    3  502    0  0.17380443527E+02 -0.82138268131E+01 -0.52011258488E+03  0.52046772015E+03  0.00000000000E+00 0. -1.
         -1    1    3    3    0  502  0.41120821474E+02 -0.79167314282E+02 -0.45042080491E+03  0.45917021583E+03  0.00000000000E+00 0.  1.
         13    1    5    5    0    0  0.97904884537E+02  0.30010868063E+03 -0.11753590761E+03  0.33684607195E+03  0.00000000000E+00 0. -1.
        -13    1    5    5    0    0  0.10688230199E+02  0.15739801260E+03 -0.11836859498E+03  0.19722955385E+03  0.00000000000E+00 0.  1.
          1    1    6    6  503    0 -0.16999069177E+03 -0.32926835248E+03 -0.30096575723E+03  0.47738335775E+03  0.00000000000E+00 0. -1.
         -1    1    6    6    0  503  0.28963120309E+01 -0.40857199652E+02 -0.10327319730E+02  0.42241601764E+02  0.00000000000E+00 0.  1.
<mgrwt>
<rscale>  0 0.13531291E+04</rscale>
<asrwt>0</asrwt>
<pdfrwt beam="1">  1        2 0.27315920E+00 0.13531291E+04</pdfrwt>
<pdfrwt beam="2">  1       -1 0.39662118E-01 0.13531291E+04</pdfrwt>
<totfact> 0.61277841E+01</totfact>
</mgrwt>
</event>
<event>
12    7  0.1606355E-007  0.3102497E+04  0.7818608E-02  0.8215053E-01
         -1   -1    0    0    0  501 -0.00000000000E+00  0.00000000000E+00  0.12471352659E+04  0.12471352659E+04  0.00000000000E+00 0.  1.
          2   -1    0    0  501    0  0.00000000000E+00 -0.00000000000E+00 -0.19295198493E+04  0.19295198493E+04  0.00000000000E+00 0. -1.
         24    2    1    2    0    0 -0.49247826519E+02 -0.12804007621E+04  0.31562335240E+03  0.13224123908E+04  0.85469121329E+02 0.  0.
        254    2    1    2    0    0  0.49247826519E+02  0.12804007621E+04 -0.99800793583E+03  0.18542427243E+04  0.89461990853E+03 0.  0.
         23    2    4    4    0    0  0.43039458484E+03  0.47201179106E+03 -0.27648343506E+03  0.70216176021E+03  0.92484691029E+02 0.  0.
         23    2    4    4    0    0 -0.38114675832E+03  0.80838897106E+03 -0.72152450077E+03  0.11520809641E+04  0.89035738836E+02 0.  0.
          4    1    3    3  502    0 -0.64591706946E+02 -0.94771403136E+03  0.20804647697E+03  0.97242856315E+03  0.00000000000E+00 0. -1.
         -3    1    3    3    0  502  0.15343880427E+02 -0.33268673076E+03  0.10757687543E+03  0.34998382765E+03  0.00000000000E+00 0.  1.
         13    1    5    5    0    0  0.15429200454E+03  0.12453291435E+03 -0.11891076568E+03  0.23120172927E+03  0.00000000000E+00 0.  1.
        -13    1    5    5    0    0  0.27610258030E+03  0.34747887670E+03 -0.15757266938E+03  0.47096003093E+03  0.00000000000E+00 0. -1.
          2    1    6    6  503    0 -0.73961164031E+02  0.22498719395E+03 -0.15757055927E+03  0.28446084507E+03  0.00000000000E+00 0.  1.
         -2    1    6    6    0  503 -0.30718559429E+03  0.58340177711E+03 -0.56395394150E+03  0.86762011907E+03  0.00000000000E+00 0. -1.
<mgrwt>
<rscale>  0 0.31024972E+04</rscale>
<asrwt>0</asrwt>
<pdfrwt beam="1">  1        2 0.29684921E+00 0.31024972E+04</pdfrwt>
<pdfrwt beam="2">  1       -1 0.19186696E+00 0.31024972E+04</pdfrwt>
<totfact> 0.12106875E+00</totfact>
</mgrwt>
</event>
<event>
12    7  0.1606355E-007  0.1960944E+04  0.7818608E-02  0.8625102E-01
          2   -1    0    0  501    0  0.00000000000E+00  0.00000000000E+00  0.11594525563E+04  0.11594525563E+04  0.00000000000E+00 0. -1.
         -1   -1    0    0    0  501 -0.00000000000E+00 -0.00000000000E+00 -0.82911992200E+03  0.82911992200E+03  0.00000000000E+00 0.  1.
         24    2    1    2    0    0  0.16064773113E+02 -0.64944406617E+03  0.55089624764E+03  0.85561508821E+03  0.80961913846E+02 0.  0.
        254    2    1    2    0    0 -0.16064773113E+02  0.64944406617E+03 -0.22056361330E+03  0.11329573901E+04  0.90161436786E+03 0.  0.
         23    2    4    4    0    0  0.39623539729E+03  0.21954923270E+03 -0.25904219898E+03  0.52979160058E+03  0.91498216062E+02 0.  0.
         23    2    4    4    0    0 -0.41230017041E+03  0.42989483347E+03  0.38478585678E+02  0.60316578956E+03  0.86760415968E+02 0.  0.
          2    1    3    3  502    0 -0.56954516323E+01 -0.60409202383E+03  0.51464331603E+03  0.79361032891E+03  0.00000000000E+00 0. -1.
         -3    1    3    3    0  502  0.21760224745E+02 -0.45352042342E+02  0.36252931616E+02  0.62004759303E+02  0.00000000000E+00 0.  1.
         13    1    5    5    0    0  0.13056317003E+03  0.44486276873E+02 -0.11899164217E+03  0.18216690452E+03  0.00000000000E+00 0. -1.
        -13    1    5    5    0    0  0.26567222727E+03  0.17506295583E+03 -0.14005055681E+03  0.34762469605E+03  0.00000000000E+00 0.  1.
          2    1    6    6  503    0 -0.20762286176E+03  0.26567002628E+03  0.48003261576E+02  0.34057617167E+03  0.00000000000E+00 0. -1.
         -2    1    6    6    0  503 -0.20467730865E+03  0.16422480719E+03 -0.95246758980E+01  0.26258961789E+03  0.00000000000E+00 0.  1.
<mgrwt>
<rscale>  0 0.19609439E+04</rscale>
<asrwt>0</asrwt>
<pdfrwt beam="1">  1        2 0.17837732E+00 0.19609439E+04</pdfrwt>
<pdfrwt beam="2">  1       -1 0.12755691E+00 0.19609439E+04</pdfrwt>
<totfact> 0.11328757E+01</totfact>
</mgrwt>
</event>
<event>
12    7  0.1606355E-007  0.3006065E+04  0.7818608E-02  0.8242001E-01
          2   -1    0    0  501    0  0.00000000000E+00  0.00000000000E+00  0.20074276870E+04  0.20074276870E+04  0.00000000000E+00 0. -1.
         -1   -1    0    0    0  501 -0.00000000000E+00 -0.00000000000E+00 -0.11253739197E+04  0.11253739197E+04  0.00000000000E+00 0.  1.
         24    2    1    2    0    0 -0.70333062333E+02  0.10876510347E+04  0.12571765262E+04  0.16657522683E+04  0.79412141665E+02 0.  0.
        254    2    1    2    0    0  0.70333062333E+02 -0.10876510347E+04 -0.37512275884E+03  0.14670493384E+04  0.90751593053E+03 0.  0.
         23    2    4    4    0    0  0.19466806592E+03 -0.41465902117E+03 -0.58199872533E+03  0.74623418801E+03  0.91132800560E+02 0.  0.
         23    2    4    4    0    0 -0.12433500358E+03 -0.67299201357E+03  0.20687596650E+03  0.72081515042E+03  0.91648088470E+02 0.  0.
          2    1    3    3  502    0 -0.35084027980E+02  0.52216009661E+03  0.54333332521E+03  0.75438263354E+03  0.00000000000E+00 0. -1.
         -1    1    3    3    0  502 -0.35249034354E+02  0.56549093813E+03  0.71384320095E+03  0.91136963471E+03  0.00000000000E+00 0.  1.
         13    1    5    5    0    0  0.14817141999E+01 -0.83324048893E+02 -0.96108976575E+02  0.12720860026E+03  0.00000000000E+00 0.  1.
        -13    1    5    5    0    0  0.19318635172E+03 -0.33133497227E+03 -0.48588974876E+03  0.61902558775E+03  0.00000000000E+00 0. -1.
          1    1    6    6  503    0 -0.52494464842E+02 -0.27277067094E+03  0.37360513410E+02  0.28027721229E+03  0.00000000000E+00 0. -1.
         -1    1    6    6    0  503 -0.71840538743E+02 -0.40022134263E+03  0.16951545309E+03  0.44053793814E+03  0.00000000000E+00 0.  1.
<mgrwt>
<rscale>  0 0.30060650E+04</rscale>
<asrwt>0</asrwt>
<pdfrwt beam="1">  1        2 0.30883503E+00 0.30060650E+04</pdfrwt>
<pdfrwt beam="2">  1       -1 0.17313445E+00 0.30060650E+04</pdfrwt>
<totfact> 0.15032198E+00</totfact>
</mgrwt>
</event>
<event>
12    7  0.1606355E-007  0.1859841E+04  0.7818608E-02  0.8675108E-01
         -1   -1    0    0    0  501 -0.00000000000E+00  0.00000000000E+00  0.46996091467E+03  0.46996091467E+03  0.00000000000E+00 0.  1.
          2   -1    0    0  501    0  0.00000000000E+00 -0.00000000000E+00 -0.18400518770E+04  0.18400518770E+04  0.00000000000E+00 0. -1.
         24    2    1    2    0    0 -0.42361552185E+03 -0.29198218947E+03  0.84070662556E+02  0.52767181509E+03  0.81645323311E+02 0.  0.
        254    2    1    2    0    0  0.42361552185E+03  0.29198218947E+03 -0.14541616249E+04  0.17823409766E+04  0.89300034501E+03 0.  0.
         23    2    4    4    0    0  0.41541073776E+03  0.55625367796E+03 -0.12495369540E+04  0.14325574123E+04  0.94307502445E+02 0.  0.
         23    2    4    4    0    0  0.82047840857E+01 -0.26427148849E+03 -0.20462467093E+03  0.34978356426E+03  0.10281316918E+03 0.  0.
          2    1    3    3  502    0 -0.27759196938E+03 -0.15251066131E+03  0.27235447966E+02  0.31789711056E+03  0.00000000000E+00 0. -1.
         -1    1    3    3    0  502 -0.14602355247E+03 -0.13947152816E+03  0.56835214589E+02  0.20977470453E+03  0.00000000000E+00 0.  1.
         13    1    5    5    0    0  0.41737958737E+03  0.54373405202E+03 -0.12057131537E+04  0.13869378675E+04  0.00000000000E+00 0.  1.
        -13    1    5    5    0    0 -0.19688496028E+01  0.12519625941E+02 -0.43823800219E+02  0.45619544803E+02  0.00000000000E+00 0. -1.
          3    1    6    6  503    0 -0.19509236449E+02 -0.47102950970E+02 -0.88065797070E+02  0.10175894511E+03  0.00000000000E+00 0. -1.
         -3    1    6    6    0  503  0.27714020534E+02 -0.21716853753E+03 -0.11655887386E+03  0.24802461914E+03  0.00000000000E+00 0.  1.
<mgrwt>
<rscale>  0 0.18598414E+04</rscale>
<asrwt>0</asrwt>
<pdfrwt beam="1">  1        2 0.28308491E+00 0.18598414E+04</pdfrwt>
<pdfrwt beam="2">  1       -1 0.72301679E-01 0.18598414E+04</pdfrwt>
<totfact> 0.16928455E+01</totfact>
</mgrwt>
</event>
<event>
12    7  0.1606355E-007  0.2232256E+04  0.7818608E-02  0.8505121E-01
          2   -1    0    0  501    0  0.00000000000E+00  0.00000000000E+00  0.13750531327E+04  0.13750531327E+04  0.00000000000E+00 0. -1.
         -1   -1    0    0    0  501 -0.00000000000E+00 -0.00000000000E+00 -0.90595909074E+03  0.90595909074E+03  0.00000000000E+00 0.  1.
         24    2    1    2    0    0 -0.22687442458E+03  0.69581199694E+03 -0.39498501158E+03  0.83594438442E+03  0.84637549886E+02 0.  0.
        254    2    1    2    0    0  0.22687442458E+03 -0.69581199694E+03  0.86407905356E+03  0.14450678391E+04  0.89775392455E+03 0.  0.
         23    2    4    4    0    0 -0.77791263239E+02 -0.58856696331E+03  0.92677562304E+03  0.11041044312E+04  0.87584180180E+02 0.  0.
         23    2    4    4    0    0  0.30466568782E+03 -0.10724503363E+03 -0.62696569480E+02  0.34096340784E+03  0.89456733061E+02 0.  0.
          4    1    3    3  502    0 -0.28183923778E+02  0.56461921392E+02 -0.60932646290E+02  0.87721545305E+02  0.00000000000E+00 0. -1.
         -3    1    3    3    0  502 -0.19869050081E+03  0.63935007555E+03 -0.33405236529E+03  0.74822283911E+03  0.00000000000E+00 0.  1.
         13    1    5    5    0    0 -0.15589604013E+02 -0.37096714035E+03  0.52601139569E+03  0.64385374377E+03  0.00000000000E+00 0.  1.
        -13    1    5    5    0    0 -0.62201659226E+02 -0.21759982295E+03  0.40076422735E+03  0.46025068744E+03  0.00000000000E+00 0. -1.
          1    1    6    6  503    0  0.82229778777E+02 -0.60100841840E+02  0.97655627098E+01  0.10231917671E+03  0.00000000000E+00 0. -1.
         -1    1    6    6    0  503  0.22243590904E+03 -0.47144191791E+02 -0.72462132190E+02  0.23864423113E+03  0.00000000000E+00 0.  1.
<mgrwt>
<rscale>  0 0.22322562E+04</rscale>
<asrwt>0</asrwt>
<pdfrwt beam="1">  1        2 0.21154664E+00 0.22322562E+04</pdfrwt>
<pdfrwt beam="2">  1       -1 0.13937832E+00 0.22322562E+04</pdfrwt>
<totfact> 0.65889006E+00</totfact>
</mgrwt>
</event>
<event>
12    7  0.1606355E-007  0.1738215E+04  0.7818608E-02  0.8739864E-01
         -1   -1    0    0    0  501 -0.00000000000E+00  0.00000000000E+00  0.65798726412E+03  0.65798726412E+03  0.00000000000E+00 0.  1.
          2   -1    0    0  501    0  0.00000000000E+00 -0.00000000000E+00 -0.11479668646E+04  0.11479668646E+04  0.00000000000E+00 0. -1.
         24    2    1    2    0    0  0.48889552797E+03 -0.32405474679E+03 -0.43002175199E+03  0.73175267037E+03  0.80702832802E+02 0.  0.
        254    2    1    2    0    0 -0.48889552797E+03  0.32405474679E+03 -0.59957848531E+02  0.10742014584E+04  0.89793291144E+03 0.  0.
         23    2    4    4    0    0 -0.42920918864E+02  0.14406523474E+03  0.37677898771E+03  0.41824418723E+03  0.10182729222E+03 0.  0.
         23    2    4    4    0    0 -0.44597460911E+03  0.17998951204E+03 -0.43673683624E+03  0.65595727116E+03  0.90836672401E+02 0.  0.
          2    1    3    3  502    0  0.60251012251E+02 -0.41662079401E+02 -0.90008032378E+02  0.11604895187E+03  0.00000000000E+00 0. -1.
         -1    1    3    3    0  502  0.42864451572E+03 -0.28239266739E+03 -0.34001371961E+03  0.61570371850E+03  0.00000000000E+00 0.  1.
         13    1    5    5    0    0 -0.39276676461E+02  0.10556764256E+03  0.35791168697E+03  0.37521721727E+03  0.00000000000E+00 0.  1.
        -13    1    5    5    0    0 -0.36442424032E+01  0.38497592189E+02  0.18867300737E+02  0.43026969963E+02  0.00000000000E+00 0. -1.
          1    1    6    6  503    0 -0.18105047756E+03  0.26370695846E+02 -0.17306165877E+03  0.25184325832E+03  0.00000000000E+00 0. -1.
         -1    1    6    6    0  503 -0.26492413154E+03  0.15361881620E+03 -0.26367517747E+03  0.40411401284E+03  0.00000000000E+00 0.  1.
<mgrwt>
<rscale>  0 0.17382147E+04</rscale>
<asrwt>0</asrwt>
<pdfrwt beam="1">  1        2 0.17661029E+00 0.17382147E+04</pdfrwt>
<pdfrwt beam="2">  1       -1 0.10122881E+00 0.17382147E+04</pdfrwt>
<totfact> 0.20416887E+01</totfact>
</mgrwt>
</event>
<event>
12    7  0.1606355E-007  0.1521911E+04  0.7818608E-02  0.8870012E-01
          2   -1    0    0  501    0  0.00000000000E+00  0.00000000000E+00  0.21988254801E+04  0.21988254801E+04  0.00000000000E+00 0. -1.
         -1   -1    0    0    0  501 -0.00000000000E+00 -0.00000000000E+00 -0.26334662394E+03  0.26334662394E+03  0.00000000000E+00 0.  1.
         24    2    1    2    0    0 -0.31671457727E+02  0.32596674780E+03  0.32071808959E+02  0.33873547993E+03  0.80347511041E+02 0.  0.
        254    2    1    2    0    0  0.31671457727E+02 -0.32596674780E+03  0.19034070472E+04  0.21234366241E+04  0.88247793590E+03 0.  0.
         23    2    4    4    0    0  0.40130642887E+03 -0.10715444883E+03  0.13580824109E+04  0.14230725415E+04  0.90657034310E+02 0.  0.
         23    2    4    4    0    0 -0.36963497114E+03 -0.21881229897E+03  0.54532463631E+03  0.70036408260E+03  0.92855022265E+02 0.  0.
          2    1    3    3  502    0  0.18566927070E+02  0.10763525242E+03 -0.13668971117E+02  0.11007687821E+03  0.00000000000E+00 0. -1.
         -1    1    3    3    0  502 -0.50238384797E+02  0.21833149538E+03  0.45740780076E+02  0.22865860172E+03  0.00000000000E+00 0.  1.
         13    1    5    5    0    0  0.37220819469E+03 -0.10868163483E+03  0.11657481469E+04  0.12285436011E+04  0.00000000000E+00 0.  1.
        -13    1    5    5    0    0  0.29098234175E+02  0.15271859955E+01  0.19233426398E+03  0.19452894034E+03  0.00000000000E+00 0. -1.
          2    1    6    6  503    0 -0.30145686260E+03 -0.13226398896E+03  0.40223966581E+03  0.51977567425E+03  0.00000000000E+00 0.  1.
         -2    1    6    6    0  503 -0.68178108537E+02 -0.86548310009E+02  0.14308497050E+03  0.18058840835E+03  0.00000000000E+00 0. -1.
<mgrwt>
<rscale>  0 0.15219110E+04</rscale>
<asrwt>0</asrwt>
<pdfrwt beam="1">  1        2 0.33828083E+00 0.15219110E+04</pdfrwt>
<pdfrwt beam="2">  1       -1 0.40514867E-01 0.15219110E+04</pdfrwt>
<totfact> 0.33838531E+01</totfact>
</mgrwt>
</event>
<event>
12    7  0.1606355E-007  0.1837234E+04  0.7818608E-02  0.8686746E-01
         -1   -1    0    0    0  501 -0.00000000000E+00  0.00000000000E+00  0.30845173661E+03  0.30845173661E+03  0.00000000000E+00 0.  1.
          2   -1    0    0  501    0  0.00000000000E+00 -0.00000000000E+00 -0.27357831228E+04  0.27357831228E+04  0.00000000000E+00 0. -1.
         24    2    1    2    0    0 -0.33531973228E+03 -0.54204329096E+03 -0.46355167648E+03  0.79231798172E+03  0.81470088102E+02 0.  0.
        254    2    1    2    0    0  0.33531973228E+03  0.54204329096E+03 -0.19637797098E+04  0.22519168777E+04  0.89913771116E+03 0.  0.
         23    2    4    4    0    0  0.13412011612E+03  0.69452298056E+02  0.40942311498E+02  0.18044040430E+03  0.89836737377E+02 0.  0.
         23    2    4    4    0    0  0.20119961616E+03  0.47259099290E+03 -0.20047220213E+04  0.20714764734E+04  0.90999260080E+02 0.  0.
          2    1    3    3  502    0 -0.11175532539E+03 -0.14197125813E+03 -0.94512831315E+02  0.20390626810E+03  0.00000000000E+00 0. -1.
         -1    1    3    3    0  502 -0.22356440689E+03 -0.40007203283E+03 -0.36903884517E+03  0.58841171362E+03  0.00000000000E+00 0.  1.
         13    1    5    5    0    0  0.71317229796E+02  0.30910971359E+01  0.52127217096E+02  0.88390887028E+02  0.00000000000E+00 0.  1.
        -13    1    5    5    0    0  0.62802886320E+02  0.66361200920E+02 -0.11184905598E+02  0.92049517277E+02  0.00000000000E+00 0. -1.
          1    1    6    6  503    0  0.96160402638E+02  0.28687897451E+03 -0.13224889006E+04  0.13566588596E+04  0.00000000000E+00 0. -1.
         -1    1    6    6    0  503  0.10503921352E+03  0.18571201839E+03 -0.68223312063E+03  0.71481761383E+03  0.00000000000E+00 0.  1.
<mgrwt>
<rscale>  0 0.18372339E+04</rscale>
<asrwt>0</asrwt>
<pdfrwt beam="1">  1        2 0.42088971E+00 0.18372339E+04</pdfrwt>
<pdfrwt beam="2">  1       -1 0.47454113E-01 0.18372339E+04</pdfrwt>
<totfact> 0.12031033E+01</totfact>
</mgrwt>
</event>
<event>
12    7  0.1606355E-007  0.2245977E+04  0.7818608E-02  0.8499531E-01
          2   -1    0    0  501    0  0.00000000000E+00  0.00000000000E+00  0.34936773759E+04  0.34936773759E+04  0.00000000000E+00 0. -1.
         -1   -1    0    0    0  501 -0.00000000000E+00 -0.00000000000E+00 -0.36096740757E+03  0.36096740757E+03  0.00000000000E+00 0.  1.
         24    2    1    2    0    0  0.83039853562E+03 -0.31967823970E+03  0.74283736181E+03  0.11619924609E+04  0.81628598410E+02 0.  0.
        254    2    1    2    0    0 -0.83039853562E+03  0.31967823970E+03  0.23898726065E+04  0.26926523226E+04  0.86436656007E+03 0.  0.
         23    2    4    4    0    0 -0.92563806601E+03  0.88151027292E+02  0.21035482413E+04  0.23016297744E+04  0.89487329188E+02 0.  0.
         23    2    4    4    0    0  0.95239530384E+02  0.23152721241E+03  0.28632436518E+03  0.39102254818E+03  0.90783108844E+02 0.  0.
          2    1    3    3  502    0  0.46282766319E+03 -0.18073466926E+03  0.46705525994E+03  0.68192014365E+03  0.00000000000E+00 0. -1.
         -1    1    3    3    0  502  0.36757087244E+03 -0.13894357044E+03  0.27578210187E+03  0.48007231720E+03  0.00000000000E+00 0.  1.
         13    1    5    5    0    0 -0.56470495215E+02 -0.84490434920E+01  0.93111895392E+02  0.10922512636E+03  0.00000000000E+00 0. -1.
        -13    1    5    5    0    0 -0.86916757079E+03  0.96600070784E+02  0.20104363459E+04  0.21924046480E+04  0.00000000000E+00 0.  1.
          2    1    6    6  503    0  0.14849131718E+02  0.85287946093E+02  0.44860939920E+02  0.97504022441E+02  0.00000000000E+00 0. -1.
         -2    1    6    6    0  503  0.80390398666E+02  0.14623926631E+03  0.24146342526E+03  0.29351852573E+03  0.00000000000E+00 0.  1.
<mgrwt>
<rscale>  0 0.22459774E+04</rscale>
<asrwt>0</asrwt>
<pdfrwt beam="1">  1        2 0.53748880E+00 0.22459774E+04</pdfrwt>
<pdfrwt beam="2">  1       -1 0.55533450E-01 0.22459774E+04</pdfrwt>
<totfact> 0.27987113E+00</totfact>
</mgrwt>
</event>
<event>
12    7  0.1606355E-007  0.2083915E+04  0.7818608E-02  0.8568362E-01
          2   -1    0    0  501    0  0.00000000000E+00  0.00000000000E+00  0.12547676755E+04  0.12547676755E+04  0.00000000000E+00 0. -1.
         -1   -1    0    0    0  501 -0.00000000000E+00 -0.00000000000E+00 -0.86523986485E+03  0.86523986485E+03  0.00000000000E+00 0.  1.
         24    2    1    2    0    0  0.27086633646E+03  0.73000705826E+02 -0.68358702003E+03  0.74317275115E+03  0.79478606060E+02 0.  0.
        254    2    1    2    0    0 -0.27086633646E+03 -0.73000705826E+02  0.10731148307E+04  0.13768347892E+04  0.81572110529E+03 0.  0.
         23    2    4    4    0    0 -0.56105263585E+02 -0.13936095505E+02  0.11247964090E+04  0.11302703837E+04  0.94879729217E+02 0.  0.
         23    2    4    4    0    0 -0.21476107288E+03 -0.59064610321E+02 -0.51681578385E+02  0.24656440552E+03  0.92260901300E+02 0.  0.
          2    1    3    3  502    0  0.78553801574E+02  0.57428439629E+02 -0.26359924317E+03  0.28098627444E+03  0.00000000000E+00 0. -1.
         -1    1    3    3    0  502  0.19231253489E+03  0.15572266197E+02 -0.41998777686E+03  0.46218647672E+03  0.00000000000E+00 0.  1.
         13    1    5    5    0    0 -0.13950398035E+02 -0.43753788020E+02  0.26694812492E+03  0.27086954234E+03  0.00000000000E+00 0.  1.
        -13    1    5    5    0    0 -0.42154865550E+02  0.29817692515E+02  0.85784828412E+03  0.85940084131E+03  0.00000000000E+00 0. -1.
          1    1    6    6  503    0 -0.14530950954E+03 -0.82896106557E+02 -0.42163098711E+02  0.17252346199E+03  0.00000000000E+00 0. -1.
         -1    1    6    6    0  503 -0.69451563337E+02  0.23831496237E+02 -0.95184796738E+01  0.74040943525E+02  0.00000000000E+00 0.  1.
<mgrwt>
<rscale>  0 0.20839146E+04</rscale>
<asrwt>0</asrwt>
<pdfrwt beam="1">  1        2 0.19304118E+00 0.20839146E+04</pdfrwt>
<pdfrwt beam="2">  1       -1 0.13311383E+00 0.20839146E+04</pdfrwt>
<totfact> 0.88281421E+00</totfact>
</mgrwt>
</event>
<event>
12    7  0.1606355E-007  0.4180330E+04  0.7818608E-02  0.7969125E-01
         -1   -1    0    0    0  501 -0.00000000000E+00  0.00000000000E+00  0.17018733392E+04  0.17018733392E+04  0.00000000000E+00 0.  1.
          2   -1    0    0  501    0  0.00000000000E+00 -0.00000000000E+00 -0.25670471303E+04  0.25670471303E+04  0.00000000000E+00 0. -1.
         24    2    1    2    0    0  0.89759188311E+03 -0.13779315128E+03  0.13990102647E+04  0.16698531758E+04  0.80757456431E+02 0.  0.
        254    2    1    2    0    0 -0.89759188311E+03  0.13779315128E+03 -0.22641840558E+04  0.25990672938E+04  0.89663995991E+03 0.  0.
         23    2    4    4    0    0 -0.70197689995E+03 -0.76362613942E+02 -0.67612984853E+03  0.98191101137E+03  0.91623388441E+02 0.  0.
         23    2    4    4    0    0 -0.19561498315E+03  0.21415576523E+03 -0.15880542073E+04  0.16171562824E+04  0.95657529531E+02 0.  0.
          4    1    3    3  502    0  0.39646545147E+02 -0.65883183708E+00  0.36472550383E+02  0.53875129076E+02  0.00000000000E+00 0. -1.
         -3    1    3    3    0  502  0.85794533796E+03 -0.13713431945E+03  0.13625377143E+04  0.16159780467E+04  0.00000000000E+00 0.  1.
         13    1    5    5    0    0 -0.29292081635E+03  0.36402721874E-01 -0.23556421039E+03  0.37588974872E+03  0.00000000000E+00 0.  1.
        -13    1    5    5    0    0 -0.40905608360E+03 -0.76399016663E+02 -0.44056563813E+03  0.60602126265E+03  0.00000000000E+00 0. -1.
          3    1    6    6  503    0 -0.48686052722E+02  0.40028885811E+01 -0.27273715891E+03  0.27707744891E+03  0.00000000000E+00 0. -1.
         -3    1    6    6    0  503 -0.14692893043E+03  0.21015287665E+03 -0.13153170484E+04  0.13400788335E+04  0.00000000000E+00 0.  1.
<mgrwt>
<rscale>  0 0.41803297E+04</rscale>
<asrwt>0</asrwt>
<pdfrwt beam="1">  1        2 0.39493033E+00 0.41803297E+04</pdfrwt>
<pdfrwt beam="2">  1       -1 0.26182667E+00 0.41803297E+04</pdfrwt>
<totfact> 0.16415382E-01</totfact>
</mgrwt>
</event>
<event>
12    7  0.1606355E-007  0.1399081E+04  0.7818608E-02  0.8954484E-01
          2   -1    0    0  501    0  0.00000000000E+00  0.00000000000E+00  0.14271860837E+04  0.14271860837E+04  0.00000000000E+00 0. -1.
         -1   -1    0    0    0  501 -0.00000000000E+00 -0.00000000000E+00 -0.34288226097E+03  0.34288226097E+03  0.00000000000E+00 0.  1.
         24    2    1    2    0    0  0.98682691922E+02  0.34610212996E+03  0.85606006093E+02  0.37857927714E+03  0.80429613641E+02 0.  0.
        254    2    1    2    0    0 -0.98682691922E+02 -0.34610212996E+03  0.99869781667E+03  0.13914890676E+04  0.89962188617E+03 0.  0.
         23    2    4    4    0    0  0.57047162275E+02 -0.45589351525E+03  0.10709475973E+04  0.11686207627E+04  0.87478311408E+02 0.  0.
         23    2    4    4    0    0 -0.15572985420E+03  0.10979138529E+03 -0.72249780609E+02  0.22286830485E+03  0.90245857164E+02 0.  0.
          4    1    3    3  502    0  0.41772089096E+02  0.59880628602E+02  0.39884416147E+02  0.83194733971E+02  0.00000000000E+00 0. -1.
         -3    1    3    3    0  502  0.56910602826E+02  0.28622150136E+03  0.45721589945E+02  0.29538454317E+03  0.00000000000E+00 0.  1.
         13    1    5    5    0    0  0.15703646288E+02 -0.38644691281E+03  0.89547457880E+03  0.97542941426E+03  0.00000000000E+00 0.  1.
        -13    1    5    5    0    0  0.41343515987E+02 -0.69446602436E+02  0.17547301848E+03  0.19319134846E+03  0.00000000000E+00 0. -1.
          3    1    6    6  503    0 -0.71751433482E+02  0.59108270552E+02  0.11783640948E+02  0.93706510170E+02  0.00000000000E+00 0. -1.
         -3    1    6    6    0  503 -0.83978420716E+02  0.50683114738E+02 -0.84033421558E+02  0.12916179468E+03  0.00000000000E+00 0.  1.
<mgrwt>
<rscale>  0 0.13990808E+04</rscale>
<asrwt>0</asrwt>
<pdfrwt beam="1">  1        2 0.21956709E+00 0.13990808E+04</pdfrwt>
<pdfrwt beam="2">  1       -1 0.52751118E-01 0.13990808E+04</pdfrwt>
<totfact> 0.56092084E+01</totfact>
</mgrwt>
</event>
<event>
12    7  0.1606355E-007  0.1364501E+04  0.7818608E-02  0.8979923E-01
          2   -1    0    0  501    0  0.00000000000E+00  0.00000000000E+00  0.60009663583E+03  0.60009663583E+03  0.00000000000E+00 0. -1.
         -1   -1    0    0    0  501 -0.00000000000E+00 -0.00000000000E+00 -0.77565159031E+03  0.77565159031E+03  0.00000000000E+00 0.  1.
         24    2    1    2    0    0 -0.26127005224E+03  0.22886041425E+03  0.96471996241E+02  0.36864460291E+03  0.77154829982E+02 0.  0.
        254    2    1    2    0    0  0.26127005224E+03 -0.22886041425E+03 -0.27202695072E+03  0.10071036232E+04  0.90532862353E+03 0.  0.
         23    2    4    4    0    0  0.31372558949E+03  0.27773343742E+03 -0.13113698360E+02  0.42863703890E+03  0.89432288757E+02 0.  0.
         23    2    4    4    0    0 -0.52455537253E+02 -0.50659385167E+03 -0.25891325236E+03  0.57846658433E+03  0.90546137376E+02 0.  0.
          2    1    3    3  502    0 -0.21018253948E+03  0.20535169295E+03  0.55443231822E+02  0.29903172015E+03  0.00000000000E+00 0. -1.
         -1    1    3    3    0  502 -0.51087512756E+02  0.23508721304E+02  0.41028764420E+02  0.69612882764E+02  0.00000000000E+00 0.  1.
         13    1    5    5    0    0  0.26520379040E+03  0.19094512456E+03 -0.28457521959E+02  0.32802884263E+03  0.00000000000E+00 0.  1.
        -13    1    5    5    0    0  0.48521799086E+02  0.86788312857E+02  0.15343823599E+02  0.10060819628E+03  0.00000000000E+00 0. -1.
          2    1    6    6  503    0  0.14707757336E+02 -0.22433913984E+03 -0.85969383423E+02  0.24069711813E+03  0.00000000000E+00 0. -1.
         -2    1    6    6    0  503 -0.67163294589E+02 -0.28225471183E+03 -0.17294386893E+03  0.33776946619E+03  0.00000000000E+00 0.  1.
<mgrwt>
<rscale>  0 0.13645012E+04</rscale>
<asrwt>0</asrwt>
<pdfrwt beam="1">  1        2 0.92322560E-01 0.13645012E+04</pdfrwt>
<pdfrwt beam="2">  1       -1 0.11933101E+00 0.13645012E+04</pdfrwt>
<totfact> 0.34717241E+01</totfact>
</mgrwt>
</event>
<event>
12    7  0.1606355E-007  0.2907506E+04  0.7818608E-02  0.8270648E-01
         -1   -1    0    0    0  501 -0.00000000000E+00  0.00000000000E+00  0.81581783600E+03  0.81581783600E+03  0.00000000000E+00 0.  1.
          2   -1    0    0  501    0  0.00000000000E+00 -0.00000000000E+00 -0.25905274334E+04  0.25905274334E+04  0.00000000000E+00 0. -1.
         24    2    1    2    0    0 -0.59118096885E+02  0.53059607273E+03  0.60457825738E+03  0.81051312084E+03  0.79934398005E+02 0.  0.
        254    2    1    2    0    0  0.59118096885E+02 -0.53059607273E+03 -0.23792878548E+04  0.25958321486E+04  0.89011611933E+03 0.  0.
         23    2    4    4    0    0  0.29125098104E+02 -0.63605376479E+03 -0.88258415689E+03  0.10922146173E+04  0.92548977869E+02 0.  0.
         23    2    4    4    0    0  0.29992998781E+02  0.10545769206E+03 -0.14967036979E+04  0.15036175313E+04  0.93396017858E+02 0.  0.
          2    1    3    3  502    0 -0.34464506805E+02  0.65005048424E+02  0.80659666384E+02  0.10917618940E+03  0.00000000000E+00 0. -1.
         -1    1    3    3    0  502 -0.24653590080E+02  0.46559102431E+03  0.52391859099E+03  0.70133693144E+03  0.00000000000E+00 0.  1.
         13    1    5    5    0    0 -0.21788803079E+02 -0.11619676143E+03 -0.12542767235E+03  0.17236165553E+03  0.00000000000E+00 0. -1.
        -13    1    5    5    0    0  0.50913901183E+02 -0.51985700336E+03 -0.75715648454E+03  0.91985296181E+03  0.00000000000E+00 0.  1.
          3    1    6    6  503    0  0.49145353344E+02  0.25196831663E+02 -0.82843755368E+03  0.83027641568E+03  0.00000000000E+00 0. -1.
         -3    1    6    6    0  503 -0.19152354563E+02  0.80260860393E+02 -0.66826614424E+03  0.67334111558E+03  0.00000000000E+00 0.  1.
<mgrwt>
<rscale>  0 0.29075065E+04</rscale>
<asrwt>0</asrwt>
<pdfrwt beam="1">  1        2 0.39854268E+00 0.29075065E+04</pdfrwt>
<pdfrwt beam="2">  1       -1 0.12551044E+00 0.29075065E+04</pdfrwt>
<totfact> 0.16735876E+00</totfact>
</mgrwt>
</event>
<event>
12    7  0.1606355E-007  0.1226852E+04  0.7818608E-02  0.9089672E-01
         -1   -1    0    0    0  501 -0.00000000000E+00  0.00000000000E+00  0.27841938195E+03  0.27841938195E+03  0.00000000000E+00 0.  1.
          2   -1    0    0  501    0  0.00000000000E+00 -0.00000000000E+00 -0.13515276576E+04  0.13515276576E+04  0.00000000000E+00 0. -1.
         24    2    1    2    0    0  0.68287287264E+01  0.13394446357E+03 -0.56075715754E+03  0.58196085322E+03  0.79006924306E+02 0.  0.
        254    2    1    2    0    0 -0.68287287264E+01 -0.13394446357E+03 -0.51235111816E+03  0.10479861864E+04  0.90431389888E+03 0.  0.
         23    2    4    4    0    0 -0.22348791910E+03 -0.45439865578E+03 -0.25361147581E+03  0.57374360803E+03  0.91858362385E+02 0.  0.
         23    2    4    4    0    0  0.21665919038E+03  0.32045419221E+03 -0.25873964235E+03  0.47424257835E+03  0.91256377934E+02 0.  0.
          4    1    3    3  502    0  0.38068148841E+02  0.89663936812E+02 -0.41960929445E+03  0.43076764678E+03  0.00000000000E+00 0. -1.
         -3    1    3    3    0  502 -0.31239420114E+02  0.44280526754E+02 -0.14114786309E+03  0.15119320644E+03  0.00000000000E+00 0.  1.
         13    1    5    5    0    0 -0.23153022783E+03 -0.42287532767E+03 -0.23822847905E+03  0.53775700589E+03  0.00000000000E+00 0. -1.
        -13    1    5    5    0    0  0.80423087288E+01 -0.31523328105E+02 -0.15382996759E+02  0.35986602143E+02  0.00000000000E+00 0.  1.
          2    1    6    6  503    0  0.20025366069E+03  0.23007879878E+03 -0.20935681042E+03  0.36995683037E+03  0.00000000000E+00 0. -1.
         -2    1    6    6    0  503  0.16405529690E+02  0.90375393431E+02 -0.49382831932E+02  0.10428574798E+03  0.00000000000E+00 0.  1.
<mgrwt>
<rscale>  0 0.12268521E+04</rscale>
<asrwt>0</asrwt>
<pdfrwt beam="1">  1        2 0.20792733E+00 0.12268521E+04</pdfrwt>
<pdfrwt beam="2">  1       -1 0.42833751E-01 0.12268521E+04</pdfrwt>
<totfact> 0.92955433E+01</totfact>
</mgrwt>
</event>
<event>
12    7  0.1606355E-007  0.1092592E+04  0.7818608E-02  0.9212442E-01
         -1   -1    0    0    0  501 -0.00000000000E+00  0.00000000000E+00  0.23745425372E+03  0.23745425372E+03  0.00000000000E+00 0.  1.
          2   -1    0    0  501    0  0.00000000000E+00 -0.00000000000E+00 -0.12568288834E+04  0.12568288834E+04  0.00000000000E+00 0. -1.
         24    2    1    2    0    0 -0.17052192327E+03 -0.10017396745E+03 -0.26269070919E+03  0.33818306921E+03  0.79049538505E+02 0.  0.
        254    2    1    2    0    0  0.17052192327E+03  0.10017396745E+03 -0.75668392054E+03  0.11561000679E+04  0.85140135156E+03 0.  0.
         23    2    4    4    0    0 -0.19077974165E+03  0.33365645636E+03 -0.53025125501E+03  0.66133513842E+03  0.92055587477E+02 0.  0.
         23    2    4    4    0    0  0.36130166492E+03 -0.23348248891E+03 -0.22643266553E+03  0.49476492953E+03  0.92019659702E+02 0.  0.
          4    1    3    3  502    0  0.83407752035E+01 -0.26350875290E+01 -0.16070419224E+02  0.18296737177E+02  0.00000000000E+00 0. -1.
         -3    1    3    3    0  502 -0.17886269847E+03 -0.97538879921E+02 -0.24662028997E+03  0.31988633204E+03  0.00000000000E+00 0.  1.
         13    1    5    5    0    0 -0.19693354506E+02  0.41475904730E+02 -0.22713491860E+02  0.51224814274E+02  0.00000000000E+00 0. -1.
        -13    1    5    5    0    0 -0.17108638714E+03  0.29218055163E+03 -0.50753776315E+03  0.61011032415E+03  0.00000000000E+00 0.  1.
          1    1    6    6  503    0  0.15846871384E+02  0.27476446434E+01 -0.26403990337E+02  0.30916720225E+02  0.00000000000E+00 0. -1.
         -1    1    6    6    0  503  0.34545479353E+03 -0.23623013355E+03 -0.20002867519E+03  0.46384820930E+03  0.00000000000E+00 0.  1.
<mgrwt>
<rscale>  0 0.10925921E+04</rscale>
<asrwt>0</asrwt>
<pdfrwt beam="1">  1        2 0.19335829E+00 0.10925921E+04</pdfrwt>
<pdfrwt beam="2">  1       -1 0.36531423E-01 0.10925921E+04</pdfrwt>
<totfact> 0.14238698E+02</totfact>
</mgrwt>
</event>
<event>
12    7  0.1606355E-007  0.1920132E+04  0.7818608E-02  0.8644900E-01
         -1   -1    0    0    0  501 -0.00000000000E+00  0.00000000000E+00  0.84317526933E+03  0.84317526933E+03  0.00000000000E+00 0.  1.
          2   -1    0    0  501    0  0.00000000000E+00 -0.00000000000E+00 -0.10931612355E+04  0.10931612355E+04  0.00000000000E+00 0. -1.
         24    2    1    2    0    0  0.59157046289E+03 -0.29359306206E+03 -0.45374443722E+03  0.80521923276E+03  0.79633534654E+02 0.  0.
        254    2    1    2    0    0 -0.59157046289E+03  0.29359306206E+03  0.20375847101E+03  0.11311172721E+04  0.89540843758E+03 0.  0.
         23    2    4    4    0    0  0.14147861974E+03 -0.46668575145E+02  0.26320582233E+03  0.31543926700E+03  0.89612892521E+02 0.  0.
         23    2    4    4    0    0 -0.73304908262E+03  0.34026163721E+03 -0.59447351320E+02  0.81567800511E+03  0.93046661125E+02 0.  0.
          2    1    3    3  502    0  0.82992817743E+02 -0.15322331538E+02 -0.73499643407E+02  0.11191416006E+03  0.00000000000E+00 0. -1.
         -1    1    3    3    0  502  0.50857764515E+03 -0.27827073052E+03 -0.38024479381E+03  0.69330507270E+03  0.00000000000E+00 0.  1.
         13    1    5    5    0    0 -0.43924975734E+01 -0.24127517163E+02  0.55016082939E+02  0.60234545746E+02  0.00000000000E+00 0.  1.
        -13    1    5    5    0    0  0.14587111731E+03 -0.22541057982E+02  0.20818973939E+03  0.25520472125E+03  0.00000000000E+00 0. -1.
          1    1    6    6  503    0 -0.52957081220E+03  0.26802424471E+03 -0.74301442389E+01  0.59358019503E+03  0.00000000000E+00 0. -1.
         -1    1    6    6    0  503 -0.20347827042E+03  0.72237392497E+02 -0.52017207081E+02  0.22209781008E+03  0.00000000000E+00 0.  1.
<mgrwt>
<rscale>  0 0.19201318E+04</rscale>
<asrwt>0</asrwt>
<pdfrwt beam="1">  1        2 0.16817865E+00 0.19201318E+04</pdfrwt>
<pdfrwt beam="2">  1       -1 0.12971927E+00 0.19201318E+04</pdfrwt>
<totfact> 0.11964555E+01</totfact>
</mgrwt>
</event>
<event>
12    7  0.1606355E-007  0.1572677E+04  0.7818608E-02  0.8837512E-01
          2   -1    0    0  501    0  0.00000000000E+00  0.00000000000E+00  0.13835896786E+04  0.13835896786E+04  0.00000000000E+00 0. -1.
         -1   -1    0    0    0  501 -0.00000000000E+00 -0.00000000000E+00 -0.44690142930E+03  0.44690142930E+03  0.00000000000E+00 0.  1.
         24    2    1    2    0    0 -0.28337793466E+03 -0.42770027046E+03  0.51520713140E+03  0.73153641231E+03  0.80477071745E+02 0.  0.
        254    2    1    2    0    0  0.28337793466E+03  0.42770027046E+03  0.42148111792E+03  0.10989546956E+04  0.87568516891E+03 0.  0.
         23    2    4    4    0    0 -0.64490583372E+02  0.24659292092E+03 -0.21502187313E+03  0.34569231238E+03  0.91113472784E+02 0.  0.
         23    2    4    4    0    0  0.34786851803E+03  0.18110734954E+03  0.63650299105E+03  0.75326238323E+03  0.91955328749E+02 0.  0.
          4    1    3    3  502    0 -0.21747777123E+03 -0.28136243275E+03  0.31605598416E+03  0.47576547233E+03  0.00000000000E+00 0. -1.
         -3    1    3    3    0  502 -0.65900163429E+02 -0.14633783771E+03  0.19915114724E+03  0.25577093997E+03  0.00000000000E+00 0.  1.
         13    1    5    5    0    0  0.12702722654E+02  0.12852695125E+01 -0.51882201199E+01  0.13781462497E+02  0.00000000000E+00 0. -1.
        -13    1    5    5    0    0 -0.77193306026E+02  0.24530765140E+03 -0.20983365301E+03  0.33191084988E+03  0.00000000000E+00 0.  1.
          4    1    6    6  503    0  0.12125861657E+03  0.40564021830E+02  0.28229712945E+03  0.30990443891E+03  0.00000000000E+00 0. -1.
         -4    1    6    6    0  503  0.22660990146E+03  0.14054332771E+03  0.35420586160E+03  0.44335794433E+03  0.00000000000E+00 0.  1.
<mgrwt>
<rscale>  0 0.15726770E+04</rscale>
<asrwt>0</asrwt>
<pdfrwt beam="1">  1        2 0.21285995E+00 0.15726770E+04</pdfrwt>
<pdfrwt beam="2">  1       -1 0.68754067E-01 0.15726770E+04</pdfrwt>
<totfact> 0.34671363E+01</totfact>
</mgrwt>
</event>
<event>
12    7  0.1606355E-007  0.1226428E+04  0.7818608E-02  0.9090033E-01
          2   -1    0    0  501    0  0.00000000000E+00  0.00000000000E+00  0.11540143060E+04  0.11540143060E+04  0.00000000000E+00 0. -1.
         -1   -1    0    0    0  501 -0.00000000000E+00 -0.00000000000E+00 -0.32584666497E+03  0.32584666497E+03  0.00000000000E+00 0.  1.
         24    2    1    2    0    0 -0.27231643554E+03  0.72127154976E+02  0.23063760830E+03  0.37254729801E+03  0.78988703875E+02 0.  0.
        254    2    1    2    0    0  0.27231643554E+03 -0.72127154976E+02  0.59753003273E+03  0.11073136730E+04  0.88867477897E+03 0.  0.
         23    2    4    4    0    0  0.17323811041E+03 -0.41626887591E+03  0.73060812432E+02  0.46578175368E+03  0.91233435755E+02 0.  0.
         23    2    4    4    0    0  0.99078325128E+02  0.34414172093E+03  0.52446922030E+03  0.64153191929E+03  0.90803093711E+02 0.  0.
          4    1    3    3  502    0 -0.23573612885E+03  0.85670163420E+02  0.21558021925E+03  0.33073513614E+03  0.00000000000E+00 0. -1.
         -3    1    3    3    0  502 -0.36580306687E+02 -0.13543008444E+02  0.15057389058E+02  0.41812161871E+02  0.00000000000E+00 0.  1.
         13    1    5    5    0    0  0.73033996664E+02 -0.27059176576E+03  0.70260259043E+02  0.28894700615E+03  0.00000000000E+00 0.  1.
        -13    1    5    5    0    0  0.10020411374E+03 -0.14567711015E+03  0.28005533899E+01  0.17683474753E+03  0.00000000000E+00 0. -1.
          3    1    6    6  503    0 -0.98639035685E+01  0.68544671594E+01  0.36453552404E+02  0.38381529366E+02  0.00000000000E+00 0. -1.
         -3    1    6    6    0  503  0.10894222870E+03  0.33728725377E+03  0.48801566790E+03  0.60315038992E+03  0.00000000000E+00 0.  1.
<mgrwt>
<rscale>  0 0.12264285E+04</rscale>
<asrwt>0</asrwt>
<pdfrwt beam="1">  1        2 0.17754066E+00 0.12264285E+04</pdfrwt>
<pdfrwt beam="2">  1       -1 0.50130257E-01 0.12264285E+04</pdfrwt>
<totfact> 0.90535991E+01</totfact>
</mgrwt>
</event>
<event>
12    7  0.1606355E-007  0.2010503E+04  0.7818608E-02  0.8601726E-01
          2   -1    0    0  501    0  0.00000000000E+00  0.00000000000E+00  0.23971826471E+04  0.23971826471E+04  0.00000000000E+00 0. -1.
         -1   -1    0    0    0  501 -0.00000000000E+00 -0.00000000000E+00 -0.42154905480E+03  0.42154905480E+03  0.00000000000E+00 0.  1.
         24    2    1    2    0    0  0.66907553048E+02 -0.55369025786E+03 -0.64607881429E+01  0.56454951557E+03  0.87320624400E+02 0.  0.
        254    2    1    2    0    0 -0.66907553048E+02  0.55369025786E+03  0.19820943804E+04  0.22541821863E+04  0.91738196729E+03 0.  0.
         23    2    4    4    0    0 -0.44276619677E+03  0.51034878186E+03  0.11831704821E+04  0.13654448322E+04  0.89718537314E+02 0.  0.
         23    2    4    4    0    0  0.37585864373E+03  0.43341475993E+02  0.79892389829E+03  0.88873735408E+03  0.91795891368E+02 0.  0.
          4    1    3    3  502    0 -0.11785323540E+02 -0.12146121795E+02  0.32419500733E+01  0.17231725563E+02  0.00000000000E+00 0. -1.
         -3    1    3    3    0  502  0.78692876588E+02 -0.54154413606E+03 -0.97027382162E+01  0.54731779001E+03  0.00000000000E+00 0.  1.
         13    1    5    5    0    0 -0.40224665942E+03  0.43321855672E+03  0.98192355611E+03  0.11461477056E+04  0.00000000000E+00 0.  1.
        -13    1    5    5    0    0 -0.40519537355E+02  0.77130225145E+02  0.20124692604E+03  0.21929712670E+03  0.00000000000E+00 0. -1.
          3    1    6    6  503    0  0.30597909695E+03  0.61935059017E+02  0.58756279250E+03  0.66534892683E+03  0.00000000000E+00 0. -1.
         -3    1    6    6    0  503  0.69879546777E+02 -0.18593583024E+02  0.21136110579E+03  0.22338842725E+03  0.00000000000E+00 0.  1.
<mgrwt>
<rscale>  0 0.20105025E+04</rscale>
<asrwt>0</asrwt>
<pdfrwt beam="1">  1        2 0.36879732E+00 0.20105025E+04</pdfrwt>
<pdfrwt beam="2">  1       -1 0.64853702E-01 0.20105025E+04</pdfrwt>
<totfact> 0.10167607E+01</totfact>
</mgrwt>
</event>
<event>
12    7  0.1606355E-007  0.2097991E+04  0.7818608E-02  0.8562129E-01
          2   -1    0    0  501    0  0.00000000000E+00  0.00000000000E+00  0.90499419224E+03  0.90499419224E+03  0.00000000000E+00 0. -1.
         -1   -1    0    0    0  501 -0.00000000000E+00 -0.00000000000E+00 -0.12159104014E+04  0.12159104014E+04  0.00000000000E+00 0.  1.
         24    2    1    2    0    0  0.75931878149E+03  0.36659029494E+03 -0.12743511111E+03  0.85651757500E+03  0.80182245422E+02 0.  0.
        254    2    1    2    0    0 -0.75931878149E+03 -0.36659029494E+03 -0.18348109808E+03  0.12643870187E+04  0.92415137472E+03 0.  0.
         23    2    4    4    0    0 -0.84920752906E+03 -0.17283037434E+03  0.12265632361E+03  0.88052676511E+03  0.96223929675E+02 0.  0.
         23    2    4    4    0    0  0.89888747576E+02 -0.19375992060E+03 -0.30613742169E+03  0.38386025357E+03  0.89474463078E+02 0.  0.
          2    1    3    3  502    0  0.34282038307E+03  0.16706910533E+03 -0.17357860896E+02  0.38175803376E+03  0.00000000000E+00 0. -1.
         -1    1    3    3    0  502  0.41649839841E+03  0.19952118961E+03 -0.11007725022E+03  0.47475954124E+03  0.00000000000E+00 0.  1.
         13    1    5    5    0    0 -0.58475771323E+02  0.11926457642E+02  0.13569227480E+02  0.61202779007E+02  0.00000000000E+00 0. -1.
        -13    1    5    5    0    0 -0.79073175774E+03 -0.18475683198E+03  0.10908709613E+03  0.81932398610E+03  0.00000000000E+00 0.  1.
          3    1    6    6  503    0  0.16281399349E+02 -0.65007895764E+02 -0.36964036453E+02  0.76533982435E+02  0.00000000000E+00 0. -1.
         -3    1    6    6    0  503  0.73607348227E+02 -0.12875202483E+03 -0.26917338524E+03  0.30732627114E+03  0.00000000000E+00 0.  1.
<mgrwt>
<rscale>  0 0.20979913E+04</rscale>
<asrwt>0</asrwt>
<pdfrwt beam="1">  1        2 0.13922988E+00 0.20979913E+04</pdfrwt>
<pdfrwt beam="2">  1       -1 0.18706314E+00 0.20979913E+04</pdfrwt>
<totfact> 0.56693801E+00</totfact>
</mgrwt>
</event>
<event>
12    7  0.1606355E-007  0.1621561E+04  0.7818608E-02  0.8807411E-01
          2   -1    0    0  501    0  0.00000000000E+00  0.00000000000E+00  0.75010353921E+03  0.75010353921E+03  0.00000000000E+00 0. -1.
         -1   -1    0    0    0  501 -0.00000000000E+00 -0.00000000000E+00 -0.87636555883E+03  0.87636555883E+03  0.00000000000E+00 0.  1.
         24    2    1    2    0    0  0.17223596679E+03 -0.40982991287E+03  0.29853575312E+03  0.54115039109E+03  0.78066408633E+02 0.  0.
        254    2    1    2    0    0 -0.17223596679E+03  0.40982991287E+03 -0.42479777273E+03  0.10853187069E+04  0.89433649271E+03 0.  0.
         23    2    4    4    0    0 -0.32512731000E+03  0.53482031784E+02 -0.56618991762E+03  0.66123798584E+03  0.89980862749E+02 0.  0.
         23    2    4    4    0    0  0.15289134321E+03  0.35634788108E+03  0.14139214489E+03  0.42408072111E+03  0.97432767582E+02 0.  0.
          4    1    3    3  502    0  0.12456557851E+03 -0.36493806996E+03  0.26156483645E+03  0.46595336883E+03  0.00000000000E+00 0. -1.
         -3    1    3    3    0  502  0.47670388281E+02 -0.44891842902E+02  0.36970916667E+02  0.75197022263E+02  0.00000000000E+00 0.  1.
         13    1    5    5    0    0 -0.24871990964E+03  0.48761614965E+02 -0.49769446256E+03  0.55851505496E+03  0.00000000000E+00 0. -1.
        -13    1    5    5    0    0 -0.76407400360E+02  0.47204168191E+01 -0.68495455060E+02  0.10272293088E+03  0.00000000000E+00 0.  1.
          2    1    6    6  503    0  0.15029104886E+03  0.35394789254E+03  0.15155272480E+03  0.41332159197E+03  0.00000000000E+00 0. -1.
         -2    1    6    6    0  503  0.26002943583E+01  0.23999885458E+01 -0.10160579906E+02  0.10759129138E+02  0.00000000000E+00 0.  1.
<mgrwt>
<rscale>  0 0.16215609E+04</rscale>
<asrwt>0</asrwt>
<pdfrwt beam="1">  1        2 0.11540055E+00 0.16215609E+04</pdfrwt>
<pdfrwt beam="2">  1       -1 0.13482547E+00 0.16215609E+04</pdfrwt>
<totfact> 0.18945787E+01</totfact>
</mgrwt>
</event>
<event>
12    7  0.1606355E-007  0.2046671E+04  0.7818608E-02  0.8585106E-01
         -1   -1    0    0    0  501 -0.00000000000E+00  0.00000000000E+00  0.29763744784E+03  0.29763744784E+03  0.00000000000E+00 0.  1.
          2   -1    0    0  501    0  0.00000000000E+00 -0.00000000000E+00 -0.35184272115E+04  0.35184272115E+04  0.00000000000E+00 0. -1.
         24    2    1    2    0    0 -0.31177502877E+03  0.44003301243E+03 -0.15111737506E+03  0.56567854971E+03  0.79517545022E+02 0.  0.
        254    2    1    2    0    0  0.31177502877E+03 -0.44003301243E+03 -0.30696723886E+04  0.32503861096E+04  0.92265300506E+03 0.  0.
         23    2    4    4    0    0  0.54026146875E+03 -0.30001532008E+03 -0.11377370750E+04  0.12978196551E+04  0.89434661060E+02 0.  0.
         23    2    4    4    0    0 -0.22848643999E+03 -0.14001769234E+03 -0.19319353136E+04  0.19525664545E+04  0.91272645035E+02 0.  0.
          4    1    3    3  502    0 -0.58285330180E+02  0.11400064965E+03 -0.65882668832E+02  0.14399254803E+03  0.00000000000E+00 0. -1.
         -3    1    3    3    0  502 -0.25348969859E+03  0.32603236278E+03 -0.85234706223E+02  0.42168600168E+03  0.00000000000E+00 0.  1.
         13    1    5    5    0    0  0.43514282462E+03 -0.27986384189E+03 -0.94025002627E+03  0.10731929741E+04  0.00000000000E+00 0. -1.
        -13    1    5    5    0    0  0.10511864414E+03 -0.20151478193E+02 -0.19748704869E+03  0.22462668100E+03  0.00000000000E+00 0.  1.
          3    1    6    6  503    0 -0.66051556936E+02 -0.59385818092E+02 -0.38907351724E+03  0.39908355689E+03  0.00000000000E+00 0.  1.
         -3    1    6    6    0  503 -0.16243488305E+03 -0.80631874251E+02 -0.15428617964E+04  0.15534828976E+04  0.00000000000E+00 0. -1.
<mgrwt>
<rscale>  0 0.20466711E+04</rscale>
<asrwt>0</asrwt>
<pdfrwt beam="1">  1        2 0.54129650E+00 0.20466711E+04</pdfrwt>
<pdfrwt beam="2">  1       -1 0.45790376E-01 0.20466711E+04</pdfrwt>
<totfact> 0.39610569E+00</totfact>
</mgrwt>
</event>
<event>
12    7  0.1606355E-007  0.1415075E+04  0.7818608E-02  0.8942979E-01
         -1   -1    0    0    0  501 -0.00000000000E+00  0.00000000000E+00  0.13685553625E+03  0.13685553625E+03  0.00000000000E+00 0.  1.
          2   -1    0    0  501    0  0.00000000000E+00 -0.00000000000E+00 -0.36579377109E+04  0.36579377109E+04  0.00000000000E+00 0. -1.
         24    2    1    2    0    0  0.16545231833E+03  0.37897829210E+03 -0.91015289768E+03  0.10032563986E+04  0.84534541089E+02 0.  0.
        254    2    1    2    0    0 -0.16545231833E+03 -0.37897829210E+03 -0.26109292770E+04  0.27915368486E+04  0.89706592403E+03 0.  0.
         23    2    4    4    0    0 -0.51139986149E+03 -0.29759553334E+03 -0.18902580404E+04  0.19828077395E+04  0.91422933052E+02 0.  0.
         23    2    4    4    0    0  0.34594754316E+03 -0.81382758753E+02 -0.72067123656E+03  0.80872910907E+03  0.91503467725E+02 0.  0.
          4    1    3    3  502    0  0.61888402659E+02  0.21557317077E+03 -0.41647648874E+03  0.47302709438E+03  0.00000000000E+00 0. -1.
         -3    1    3    3    0  502  0.10356391567E+03  0.16340512132E+03 -0.49367640894E+03  0.53022930421E+03  0.00000000000E+00 0.  1.
         13    1    5    5    0    0 -0.22502541673E+03 -0.16369179689E+03 -0.76728543281E+03  0.81618525958E+03  0.00000000000E+00 0. -1.
        -13    1    5    5    0    0 -0.28637444476E+03 -0.13390373645E+03 -0.11229726076E+04  0.11666224799E+04  0.00000000000E+00 0.  1.
          3    1    6    6  503    0  0.23095780035E+03 -0.91045818042E+02 -0.43893281395E+03  0.50427458957E+03  0.00000000000E+00 0.  1.
         -3    1    6    6    0  503  0.11498974282E+03  0.96630592893E+01 -0.28173842261E+03  0.30445451950E+03  0.00000000000E+00 0. -1.
<mgrwt>
<rscale>  0 0.14150746E+04</rscale>
<asrwt>0</asrwt>
<pdfrwt beam="1">  1        2 0.56275962E+00 0.14150746E+04</pdfrwt>
<pdfrwt beam="2">  1       -1 0.21054699E-01 0.14150746E+04</pdfrwt>
<totfact> 0.13280068E+01</totfact>
</mgrwt>
</event>
<event>
12    7  0.1606355E-007  0.2088212E+04  0.7818608E-02  0.8566454E-01
          2   -1    0    0  501    0  0.00000000000E+00  0.00000000000E+00  0.98208353269E+03  0.98208353269E+03  0.00000000000E+00 0. -1.
         -1   -1    0    0    0  501 -0.00000000000E+00 -0.00000000000E+00 -0.11100457183E+04  0.11100457183E+04  0.00000000000E+00 0.  1.
         24    2    1    2    0    0  0.16196659918E+03  0.41850470973E+02 -0.88014800626E+03  0.89947864657E+03  0.80104191800E+02 0.  0.
        254    2    1    2    0    0 -0.16196659918E+03 -0.41850470973E+02  0.75218582067E+03  0.11926506044E+04  0.91030067242E+03 0.  0.
         23    2    4    4    0    0 -0.38055663333E+03 -0.14555803329E+03  0.82437167619E+03  0.92421842241E+03  0.92631202052E+02 0.  0.
         23    2    4    4    0    0  0.21859003415E+03  0.10370756232E+03 -0.72185855525E+02  0.26843218199E+03  0.91149202290E+02 0.  0.
          2    1    3    3  502    0  0.10273111858E+03  0.45875927148E+02 -0.71883471618E+03  0.72758616850E+03  0.00000000000E+00 0. -1.
         -1    1    3    3    0  502  0.59235480595E+02 -0.40254561743E+01 -0.16131329009E+03  0.17189247807E+03  0.00000000000E+00 0.  1.
         13    1    5    5    0    0 -0.22204598411E+03 -0.13042877094E+03  0.47645796634E+03  0.54159789239E+03  0.00000000000E+00 0.  1.
        -13    1    5    5    0    0 -0.15851064922E+03 -0.15129262353E+02  0.34791370985E+03  0.38262053002E+03  0.00000000000E+00 0. -1.
          4    1    6    6  503    0  0.10038635849E+03  0.20167130146E+02 -0.69335755394E+02  0.12365913264E+03  0.00000000000E+00 0. -1.
         -4    1    6    6    0  503  0.11820367566E+03  0.83540432175E+02 -0.28501001307E+01  0.14477304935E+03  0.00000000000E+00 0.  1.
<mgrwt>
<rscale>  0 0.20882123E+04</rscale>
<asrwt>0</asrwt>
<pdfrwt beam="1">  1        2 0.15108978E+00 0.20882123E+04</pdfrwt>
<pdfrwt beam="2">  1       -1 0.17077626E+00 0.20882123E+04</pdfrwt>
<totfact> 0.66101691E+00</totfact>
</mgrwt>
</event>
<event>
12    7  0.1606355E-007  0.1416974E+04  0.7818608E-02  0.8941623E-01
          2   -1    0    0  501    0  0.00000000000E+00  0.00000000000E+00  0.32959618715E+04  0.32959618715E+04  0.00000000000E+00 0. -1.
         -1   -1    0    0    0  501 -0.00000000000E+00 -0.00000000000E+00 -0.15229364917E+03  0.15229364917E+03  0.00000000000E+00 0.  1.
         24    2    1    2    0    0 -0.18342321235E+03  0.14471131054E+03  0.17763276242E+04  0.17934904989E+04  0.81749022981E+02 0.  0.
        254    2    1    2    0    0  0.18342321235E+03 -0.14471131054E+03  0.13673405981E+04  0.16547650218E+04  0.90224249952E+03 0.  0.
         23    2    4    4    0    0 -0.23630906981E+03 -0.35042313059E+03  0.83672405525E+03  0.94177504798E+03  0.90524855369E+02 0.  0.
         23    2    4    4    0    0  0.41973228216E+03  0.20571182005E+03  0.53061654288E+03  0.71298997384E+03  0.91149578324E+02 0.  0.
          4    1    3    3  502    0 -0.14093141291E+03  0.14522061855E+03  0.15558448784E+04  0.15689499600E+04  0.00000000000E+00 0. -1.
         -1    1    3    3    0  502 -0.42491799434E+02 -0.50930801247E+00  0.22048274581E+03  0.22454053891E+03  0.00000000000E+00 0.  1.
         13    1    5    5    0    0 -0.73588218303E+01 -0.11827431899E+02  0.84824775111E+02  0.85960938086E+02  0.00000000000E+00 0. -1.
        -13    1    5    5    0    0 -0.22895024798E+03 -0.33859569869E+03  0.75189928014E+03  0.85581410989E+03  0.00000000000E+00 0.  1.
          4    1    6    6  503    0  0.33345569240E+03  0.12188460441E+03  0.37667645487E+03  0.51762313244E+03  0.00000000000E+00 0. -1.
         -4    1    6    6    0  503  0.86276589758E+02  0.83827215641E+02  0.15394008801E+03  0.19536684140E+03  0.00000000000E+00 0.  1.
<mgrwt>
<rscale>  0 0.14169743E+04</rscale>
<asrwt>0</asrwt>
<pdfrwt beam="1">  1        2 0.50707100E+00 0.14169743E+04</pdfrwt>
<pdfrwt beam="2">  1       -1 0.23429795E-01 0.14169743E+04</pdfrwt>
<totfact> 0.19677522E+01</totfact>
</mgrwt>
</event>
<event>
12    7  0.1606355E-007  0.1657306E+04  0.7818608E-02  0.8786096E-01
          2   -1    0    0  501    0  0.00000000000E+00  0.00000000000E+00  0.40035302852E+04  0.40035302852E+04  0.00000000000E+00 0. -1.
         -1   -1    0    0    0  501 -0.00000000000E+00 -0.00000000000E+00 -0.17151497286E+03  0.17151497286E+03  0.00000000000E+00 0.  1.
         24    2    1    2    0    0  0.52851952977E+03 -0.21631950939E+03  0.16531873616E+04  0.17509645874E+04  0.81984817336E+02 0.  0.
        254    2    1    2    0    0 -0.52851952977E+03  0.21631950939E+03  0.21788279507E+04  0.24240806706E+04  0.89596251902E+03 0.  0.
         23    2    4    4    0    0 -0.20668331012E+03  0.33075215775E+03  0.19776153961E+04  0.20177414689E+04  0.90570414138E+02 0.  0.
         23    2    4    4    0    0 -0.32183621965E+03 -0.11443264835E+03  0.20121255463E+03  0.40633920175E+03  0.89172145039E+02 0.  0.
          4    1    3    3  502    0  0.30038693548E+03 -0.11113450386E+03  0.80565002086E+03  0.86698047559E+03  0.00000000000E+00 0. -1.
         -3    1    3    3    0  502  0.22813259429E+03 -0.10518500553E+03  0.84753734071E+03  0.88398411177E+03  0.00000000000E+00 0.  1.
         13    1    5    5    0    0 -0.13356404150E+03  0.23489996947E+03  0.15534362514E+04  0.15767629929E+04  0.00000000000E+00 0. -1.
        -13    1    5    5    0    0 -0.73119268621E+02  0.95852188276E+02  0.42417914474E+03  0.44097847598E+03  0.00000000000E+00 0.  1.
          1    1    6    6  503    0 -0.21393141402E+03 -0.31970781733E+02  0.13767602835E+03  0.25640489382E+03  0.00000000000E+00 0. -1.
         -1    1    6    6    0  503 -0.10790480563E+03 -0.82461866621E+02  0.63536526272E+02  0.14993430793E+03  0.00000000000E+00 0.  1.
<mgrwt>
<rscale>  0 0.16573055E+04</rscale>
<asrwt>0</asrwt>
<pdfrwt beam="1">  1        2 0.61592766E+00 0.16573055E+04</pdfrwt>
<pdfrwt beam="2">  1       -1 0.26386922E-01 0.16573055E+04</pdfrwt>
<totfact> 0.48033610E+00</totfact>
</mgrwt>
</event>
<event>
12    7  0.1606355E-007  0.2492981E+04  0.7818608E-02  0.8405490E-01
          2   -1    0    0  501    0  0.00000000000E+00  0.00000000000E+00  0.38204825468E+04  0.38204825468E+04  0.00000000000E+00 0. -1.
         -1   -1    0    0    0  501 -0.00000000000E+00 -0.00000000000E+00 -0.40668648485E+03  0.40668648485E+03  0.00000000000E+00 0.  1.
         24    2    1    2    0    0 -0.57532478091E+02 -0.90811381811E+03  0.24768433865E+04  0.26402699463E+04  0.91057868566E+02 0.  0.
        254    2    1    2    0    0  0.57532478091E+02  0.90811381811E+03  0.93695267543E+03  0.15868990853E+04  0.90132552295E+03 0.  0.
         23    2    4    4    0    0  0.36406604068E+03  0.39718989359E+03  0.80067698465E+03  0.96920083165E+03  0.89234101046E+02 0.  0.
         23    2    4    4    0    0 -0.30653356259E+03  0.51092392452E+03  0.13627569078E+03  0.61769825367E+03  0.89297183899E+02 0.  0.
          4    1    3    3  502    0 -0.95214439105E+01 -0.72762766634E+03  0.19628349070E+04  0.20933832785E+04  0.00000000000E+00 0. -1.
         -3    1    3    3    0  502 -0.48011034181E+02 -0.18048615177E+03  0.51400847951E+03  0.54688666778E+03  0.00000000000E+00 0.  1.
         13    1    5    5    0    0  0.13437317828E+03  0.17318664524E+03  0.39762515104E+03  0.45404352860E+03  0.00000000000E+00 0.  1.
        -13    1    5    5    0    0  0.22969286240E+03  0.22400324835E+03  0.40305183361E+03  0.51515730305E+03  0.00000000000E+00 0. -1.
          4    1    6    6  503    0 -0.34385731822E+02  0.86143110460E+02  0.51658780405E+02  0.10616799718E+03  0.00000000000E+00 0. -1.
         -4    1    6    6    0  503 -0.27214783076E+03  0.42478081406E+03  0.84616910379E+02  0.51153025649E+03  0.00000000000E+00 0.  1.
<mgrwt>
<rscale>  0 0.24929810E+04</rscale>
<asrwt>0</asrwt>
<pdfrwt beam="1">  1        2 0.58776652E+00 0.24929810E+04</pdfrwt>
<pdfrwt beam="2">  1       -1 0.62567154E-01 0.24929810E+04</pdfrwt>
<totfact> 0.12490657E+00</totfact>
</mgrwt>
</event>
<event>
12    7  0.1606355E-007  0.1949823E+04  0.7818608E-02  0.8630446E-01
          2   -1    0    0  501    0  0.00000000000E+00  0.00000000000E+00  0.18945113888E+04  0.18945113888E+04  0.00000000000E+00 0. -1.
         -1   -1    0    0    0  501 -0.00000000000E+00 -0.00000000000E+00 -0.50168727089E+03  0.50168727089E+03  0.00000000000E+00 0.  1.
         24    2    1    2    0    0 -0.11070568522E+03 -0.76054526690E+03  0.21773486085E+03  0.80281197203E+03  0.80085835583E+02 0.  0.
        254    2    1    2    0    0  0.11070568522E+03  0.76054526690E+03  0.11750892570E+04  0.15933866876E+04  0.75323404236E+03 0.  0.
         23    2    4    4    0    0  0.55997815009E+02  0.14416821545E+03  0.88665525916E+03  0.90490943724E+03  0.93719322343E+02 0.  0.
         23    2    4    4    0    0  0.54707870207E+02  0.61637705145E+03  0.28843399788E+03  0.68847725039E+03  0.88843303367E+02 0.  0.
          2    1    3    3  502    0 -0.12098953117E+03 -0.70578778710E+03  0.19160516204E+03  0.74127417680E+03  0.00000000000E+00 0. -1.
         -1    1    3    3    0  502  0.10283845955E+02 -0.54757479806E+02  0.26129698808E+02  0.61537795233E+02  0.00000000000E+00 0.  1.
         13    1    5    5    0    0  0.30103584600E+01  0.12021095853E+03  0.66308432328E+03  0.67389951520E+03  0.00000000000E+00 0. -1.
        -13    1    5    5    0    0  0.52987456549E+02  0.23957256919E+02  0.22357093588E+03  0.23100992204E+03  0.00000000000E+00 0.  1.
          3    1    6    6  503    0  0.59517899785E+02  0.56790354970E+03  0.28851899874E+03  0.63976560926E+03  0.00000000000E+00 0. -1.
         -3    1    6    6    0  503 -0.48100295776E+01  0.48473501753E+02 -0.85000858549E-01  0.48711641133E+02  0.00000000000E+00 0.  1.
<mgrwt>
<rscale>  0 0.19498228E+04</rscale>
<asrwt>0</asrwt>
<pdfrwt beam="1">  1        2 0.29146329E+00 0.19498228E+04</pdfrwt>
<pdfrwt beam="2">  1       -1 0.77182658E-01 0.19498228E+04</pdfrwt>
<totfact> 0.13671717E+01</totfact>
</mgrwt>
</event>
<event>
12    7  0.1606355E-007  0.1867242E+04  0.7818608E-02  0.8671336E-01
          2   -1    0    0  501    0  0.00000000000E+00  0.00000000000E+00  0.25752518645E+04  0.25752518645E+04  0.00000000000E+00 0. -1.
         -1   -1    0    0    0  501 -0.00000000000E+00 -0.00000000000E+00 -0.33847118922E+03  0.33847118922E+03  0.00000000000E+00 0.  1.
         24    2    1    2    0    0  0.77250401221E+01  0.65972752077E+03  0.12711494490E+04  0.14346612677E+04  0.84450893723E+02 0.  0.
        254    2    1    2    0    0 -0.77250401221E+01 -0.65972752077E+03  0.96563122631E+03  0.14790617860E+04  0.90547226560E+03 0.  0.
         23    2    4    4    0    0  0.15148917410E+03 -0.29136193565E+03 -0.85566052931E+02  0.34996259104E+03  0.85507416622E+02 0.  0.
         23    2    4    4    0    0 -0.15921421422E+03 -0.36836558512E+03  0.10511972792E+04  0.11290991950E+04  0.93845095513E+02 0.  0.
          4    1    3    3  502    0 -0.18097521047E+02  0.41075348289E+03  0.86166608713E+03  0.95473262733E+03  0.00000000000E+00 0. -1.
         -3    1    3    3    0  502  0.25822561169E+02  0.24897403788E+03  0.40948336183E+03  0.47992864034E+03  0.00000000000E+00 0.  1.
         13    1    5    5    0    0 -0.50193717909E+01 -0.90195143738E+01 -0.17083139767E+02  0.19959443805E+02  0.00000000000E+00 0. -1.
        -13    1    5    5    0    0  0.15650854589E+03 -0.28234242128E+03 -0.68482913164E+02  0.33000314724E+03  0.00000000000E+00 0.  1.
          1    1    6    6  503    0 -0.12240651657E+03 -0.18975840641E+03  0.50290310865E+03  0.55127411040E+03  0.00000000000E+00 0. -1.
         -1    1    6    6    0  503 -0.36807697650E+02 -0.17860717871E+03  0.54829417059E+03  0.57782508460E+03  0.00000000000E+00 0.  1.
<mgrwt>
<rscale>  0 0.18672424E+04</rscale>
<asrwt>0</asrwt>
<pdfrwt beam="1">  1        2 0.39619258E+00 0.18672424E+04</pdfrwt>
<pdfrwt beam="2">  1       -1 0.52072492E-01 0.18672424E+04</pdfrwt>
<totfact> 0.12507586E+01</totfact>
</mgrwt>
</event>
<event>
12    7  0.1606355E-007  0.1743634E+04  0.7818608E-02  0.8736862E-01
          2   -1    0    0  501    0  0.00000000000E+00  0.00000000000E+00  0.21661446099E+04  0.21661446099E+04  0.00000000000E+00 0. -1.
         -1   -1    0    0    0  501 -0.00000000000E+00 -0.00000000000E+00 -0.35088362542E+03  0.35088362542E+03  0.00000000000E+00 0.  1.
         24    2    1    2    0    0 -0.31980819407E+01 -0.23034061396E+02  0.15834655990E+04  0.15856785595E+04  0.80451198366E+02 0.  0.
        254    2    1    2    0    0  0.31980819407E+01  0.23034061396E+02  0.23179538555E+03  0.93134967583E+03  0.90174404472E+03 0.  0.
         23    2    4    4    0    0 -0.33709213458E+03  0.28324674633E+03  0.20091299391E+03  0.49210602904E+03  0.89120627204E+02 0.  0.
         23    2    4    4    0    0  0.34029021652E+03 -0.26021268494E+03  0.30882391646E+02  0.43924364679E+03  0.92049911823E+02 0.  0.
          4    1    3    3  502    0 -0.16847293945E+02  0.78610528090E+01  0.13104168649E+04  0.13105487352E+04  0.00000000000E+00 0. -1.
         -3    1    3    3    0  502  0.13649212004E+02 -0.30895114205E+02  0.27304873404E+03  0.27512982433E+03  0.00000000000E+00 0.  1.
         13    1    5    5    0    0 -0.25329066320E+02  0.34216617709E+01 -0.37967854798E+01  0.25839600421E+02  0.00000000000E+00 0. -1.
        -13    1    5    5    0    0 -0.31176306826E+03  0.27982508456E+03  0.20470977939E+03  0.46626642862E+03  0.00000000000E+00 0.  1.
          1    1    6    6  503    0  0.14277464088E+03 -0.16704940075E+03  0.13285986437E+02  0.22015135204E+03  0.00000000000E+00 0. -1.
         -1    1    6    6    0  503  0.19751557564E+03 -0.93163284188E+02  0.17596405209E+02  0.21909229475E+03  0.00000000000E+00 0.  1.
<mgrwt>
<rscale>  0 0.17436338E+04</rscale>
<asrwt>0</asrwt>
<pdfrwt beam="1">  1        2 0.33325301E+00 0.17436338E+04</pdfrwt>
<pdfrwt beam="2">  1       -1 0.53982098E-01 0.17436338E+04</pdfrwt>
<totfact> 0.20191723E+01</totfact>
</mgrwt>
</event>
<event>
12    7  0.1606355E-007  0.1897017E+04  0.7818608E-02  0.8656343E-01
         -1   -1    0    0    0  501 -0.00000000000E+00  0.00000000000E+00  0.66985469237E+03  0.66985469237E+03  0.00000000000E+00 0.  1.
          2   -1    0    0  501    0  0.00000000000E+00 -0.00000000000E+00 -0.13430796912E+04  0.13430796912E+04  0.00000000000E+00 0. -1.
         24    2    1    2    0    0  0.27260453726E+03 -0.51510922407E+03  0.20456536447E+03  0.62299928789E+03  0.81427132548E+02 0.  0.
        254    2    1    2    0    0 -0.27260453726E+03  0.51510922407E+03 -0.87779036331E+03  0.13899350957E+04  0.90650587526E+03 0.  0.
         23    2    4    4    0    0  0.13433181705E+03 -0.12971253774E+03  0.19838984482E+02  0.20873328658E+03  0.91135174894E+02 0.  0.
         23    2    4    4    0    0 -0.40693635432E+03  0.64482176181E+03 -0.89762934779E+03  0.11812018091E+04  0.90038696558E+02 0.  0.
          2    1    3    3  502    0  0.45230980403E+02 -0.75474091837E+02  0.62939956903E+02  0.10818326258E+03  0.00000000000E+00 0. -1.
         -1    1    3    3    0  502  0.22737355686E+03 -0.43963513223E+03  0.14162540756E+03  0.51481602531E+03  0.00000000000E+00 0.  1.
         13    1    5    5    0    0  0.10855083571E+03 -0.13491574832E+03  0.37337864860E+02  0.17714304736E+03  0.00000000000E+00 0. -1.
        -13    1    5    5    0    0  0.25780981347E+02  0.52032105782E+01 -0.17498880378E+02  0.31590239221E+02  0.00000000000E+00 0.  1.
          1    1    6    6  503    0 -0.25640825518E+03  0.41545909048E+03 -0.63907127978E+03  0.80421610891E+03  0.00000000000E+00 0. -1.
         -1    1    6    6    0  503 -0.15052809914E+03  0.22936267132E+03 -0.25855806801E+03  0.37698570021E+03  0.00000000000E+00 0.  1.
<mgrwt>
<rscale>  0 0.18970169E+04</rscale>
<asrwt>0</asrwt>
<pdfrwt beam="1">  1        2 0.20662764E+00 0.18970169E+04</pdfrwt>
<pdfrwt beam="2">  1       -1 0.10305457E+00 0.18970169E+04</pdfrwt>
<totfact> 0.14817441E+01</totfact>
</mgrwt>
</event>
<event>
12    7  0.1606355E-007  0.3019552E+04  0.7818608E-02  0.8238170E-01
         -1   -1    0    0    0  501 -0.00000000000E+00  0.00000000000E+00  0.20968276960E+04  0.20968276960E+04  0.00000000000E+00 0.  1.
          2   -1    0    0  501    0  0.00000000000E+00 -0.00000000000E+00 -0.10870816428E+04  0.10870816428E+04  0.00000000000E+00 0. -1.
         24    2    1    2    0    0  0.40204196814E+03 -0.40981856799E+02  0.18437507119E+04  0.18903372698E+04  0.10315546218E+03 0.  0.
        254    2    1    2    0    0 -0.40204196814E+03  0.40981856799E+02 -0.83400465871E+03  0.12935720690E+04  0.90246754518E+03 0.  0.
         23    2    4    4    0    0  0.25208483959E+03  0.86466908064E+02 -0.44269611642E+03  0.52467383109E+03  0.90991675413E+02 0.  0.
         23    2    4    4    0    0 -0.65412680773E+03 -0.45485051266E+02 -0.39130854229E+03  0.76889823786E+03  0.90174023088E+02 0.  0.
          2    1    3    3  502    0  0.11801559986E+03  0.19384121755E+02  0.70945953192E+03  0.71946942493E+03  0.00000000000E+00 0. -1.
         -1    1    3    3    0  502  0.28402636828E+03 -0.60365978554E+02  0.11342911800E+04  0.11708678449E+04  0.00000000000E+00 0.  1.
         13    1    5    5    0    0 -0.57079073944E-01 -0.11104038181E+02 -0.20913058677E+02  0.23678237797E+02  0.00000000000E+00 0. -1.
        -13    1    5    5    0    0  0.25214191866E+03  0.97570946245E+02 -0.42178305774E+03  0.50099559329E+03  0.00000000000E+00 0.  1.
          4    1    6    6  503    0 -0.38777991426E+03  0.67854211380E+01 -0.26351306918E+03  0.46889064981E+03  0.00000000000E+00 0. -1.
         -4    1    6    6    0  503 -0.26634689347E+03 -0.52270472404E+02 -0.12779547311E+03  0.30000758806E+03  0.00000000000E+00 0.  1.
<mgrwt>
<rscale>  0 0.30195516E+04</rscale>
<asrwt>0</asrwt>
<pdfrwt beam="1">  1        2 0.16724333E+00 0.30195516E+04</pdfrwt>
<pdfrwt beam="2">  1       -1 0.32258888E+00 0.30195516E+04</pdfrwt>
<totfact> 0.50863836E-01</totfact>
</mgrwt>
</event>
<event>
12    7  0.1606355E-007  0.1192557E+04  0.7818608E-02  0.9119396E-01
          2   -1    0    0  501    0  0.00000000000E+00  0.00000000000E+00  0.10874373506E+04  0.10874373506E+04  0.00000000000E+00 0. -1.
         -1   -1    0    0    0  501 -0.00000000000E+00 -0.00000000000E+00 -0.32695981239E+03  0.32695981239E+03  0.00000000000E+00 0.  1.
         24    2    1    2    0    0 -0.15518970310E+03  0.68277043175E+02  0.42069299733E+03  0.46049505499E+03  0.79545578729E+02 0.  0.
        254    2    1    2    0    0  0.15518970310E+03 -0.68277043175E+02  0.33978454091E+03  0.95390210803E+03  0.87506005445E+03 0.  0.
         23    2    4    4    0    0  0.29849378976E+03  0.31989722725E+03  0.26929567077E+03  0.52179264341E+03  0.91184570504E+02 0.  0.
         23    2    4    4    0    0 -0.14330408666E+03 -0.38817427042E+03  0.70488870136E+02  0.43210946462E+03  0.10263811734E+03 0.  0.
          4    1    3    3  502    0 -0.68954092529E+02  0.17971113383E+02  0.27355678097E+03  0.28268523167E+03  0.00000000000E+00 0. -1.
         -3    1    3    3    0  502 -0.86235610572E+02  0.50305929792E+02  0.14713621636E+03  0.17780982332E+03  0.00000000000E+00 0.  1.
         13    1    5    5    0    0  0.35607956330E+02  0.58054246069E+02  0.93217124618E+01  0.68739481841E+02  0.00000000000E+00 0. -1.
        -13    1    5    5    0    0  0.26288583343E+03  0.26184298118E+03  0.25997395831E+03  0.45305316157E+03  0.00000000000E+00 0.  1.
          2    1    6    6  503    0 -0.96294282127E+02 -0.13368712530E+03  0.35295275234E+01  0.16479470199E+03  0.00000000000E+00 0.  1.
         -2    1    6    6    0  503 -0.47009804531E+02 -0.25448714512E+03  0.66959342613E+02  0.26731476263E+03  0.00000000000E+00 0. -1.
<mgrwt>
<rscale>  0 0.11925574E+04</rscale>
<asrwt>0</asrwt>
<pdfrwt beam="1">  1        2 0.16729805E+00 0.11925574E+04</pdfrwt>
<pdfrwt beam="2">  1       -1 0.50301510E-01 0.11925574E+04</pdfrwt>
<totfact> 0.99052313E+01</totfact>
</mgrwt>
</event>
<event>
12    7  0.1606355E-007  0.1413568E+04  0.7818608E-02  0.8944055E-01
         -1   -1    0    0    0  501 -0.00000000000E+00  0.00000000000E+00  0.24642394724E+03  0.24642394724E+03  0.00000000000E+00 0.  1.
          2   -1    0    0  501    0  0.00000000000E+00 -0.00000000000E+00 -0.20271722518E+04  0.20271722518E+04  0.00000000000E+00 0. -1.
         24    2    1    2    0    0  0.75584130921E+02 -0.25747041469E+03 -0.10482374776E+04  0.10850059517E+04  0.80200564296E+02 0.  0.
        254    2    1    2    0    0 -0.75584130921E+02  0.25747041469E+03 -0.73251082692E+03  0.11885902473E+04  0.89675564626E+03 0.  0.
         23    2    4    4    0    0  0.10454787506E+03  0.41127514594E+03 -0.23411128872E+02  0.43585584172E+03  0.96668143464E+02 0.  0.
         23    2    4    4    0    0 -0.18013200598E+03 -0.15380473125E+03 -0.70909969805E+03  0.75273440557E+03  0.87654256140E+02 0.  0.
          2    1    3    3  502    0  0.61376891188E+02 -0.19857960888E+03 -0.91989606067E+03  0.94308522747E+03  0.00000000000E+00 0. -1.
         -1    1    3    3    0  502  0.14207239733E+02 -0.58890805810E+02 -0.12834141695E+03  0.14192072426E+03  0.00000000000E+00 0.  1.
         13    1    5    5    0    0  0.11749126376E+03  0.38084422060E+03 -0.36645581165E+02  0.40023670002E+03  0.00000000000E+00 0. -1.
        -13    1    5    5    0    0 -0.12943388700E+02  0.30430925342E+02  0.13234452293E+02  0.35619141704E+02  0.00000000000E+00 0.  1.
          1    1    6    6  503    0 -0.16678815662E+03 -0.11507054702E+03 -0.64978469191E+03  0.68064650578E+03  0.00000000000E+00 0. -1.
         -1    1    6    6    0  503 -0.13343849365E+02 -0.38734184227E+02 -0.59315006134E+02  0.72087899791E+02  0.00000000000E+00 0.  1.
<mgrwt>
<rscale>  0 0.14135682E+04</rscale>
<asrwt>0</asrwt>
<pdfrwt beam="1">  1        2 0.31187267E+00 0.14135682E+04</pdfrwt>
<pdfrwt beam="2">  1       -1 0.37911375E-01 0.14135682E+04</pdfrwt>
<totfact> 0.48038206E+01</totfact>
</mgrwt>
</event>
<event>
12    7  0.1606355E-007  0.1205531E+04  0.7818608E-02  0.9108029E-01
          2   -1    0    0  501    0  0.00000000000E+00  0.00000000000E+00  0.30204272048E+03  0.30204272048E+03  0.00000000000E+00 0. -1.
         -1   -1    0    0    0  501 -0.00000000000E+00 -0.00000000000E+00 -0.12028973630E+04  0.12028973630E+04  0.00000000000E+00 0.  1.
         24    2    1    2    0    0 -0.14944560241E+03 -0.18381269709E+03 -0.35823863599E+03  0.43663047083E+03  0.78677519378E+02 0.  0.
        254    2    1    2    0    0  0.14944560241E+03  0.18381269709E+03 -0.54261600653E+03  0.10683096126E+04  0.88923124226E+03 0.  0.
         23    2    4    4    0    0 -0.22138854250E+03  0.21927952249E+03  0.82306024334E+02  0.33479722398E+03  0.90655964027E+02 0.  0.
         23    2    4    4    0    0  0.37083414491E+03 -0.35466825396E+02 -0.62492203086E+03  0.73351238865E+03  0.93472032823E+02 0.  0.
          2    1    3    3  502    0 -0.40818992214E+02 -0.58265472903E+02 -0.51429032711E+02  0.87783830308E+02  0.00000000000E+00 0. -1.
         -1    1    3    3    0  502 -0.10862661019E+03 -0.12554722419E+03 -0.30680960327E+03  0.34884664052E+03  0.00000000000E+00 0.  1.
         13    1    5    5    0    0 -0.94338863208E+02  0.41764963276E+02  0.48121130689E+02  0.11384101408E+03  0.00000000000E+00 0. -1.
        -13    1    5    5    0    0 -0.12704967929E+03  0.17751455921E+03  0.34184893645E+02  0.22095620990E+03  0.00000000000E+00 0.  1.
          2    1    6    6  503    0  0.17049008676E+03  0.68254809907E+01 -0.36258076924E+03  0.40072218693E+03  0.00000000000E+00 0. -1.
         -2    1    6    6    0  503  0.20034405815E+03 -0.42292306387E+02 -0.26234126162E+03  0.33279020172E+03  0.00000000000E+00 0.  1.
<mgrwt>
<rscale>  0 0.12055312E+04</rscale>
<asrwt>0</asrwt>
<pdfrwt beam="1">  1        2 0.46468112E-01 0.12055312E+04</pdfrwt>
<pdfrwt beam="2">  1       -1 0.18506113E+00 0.12055312E+04</pdfrwt>
<totfact> 0.23581622E+01</totfact>
</mgrwt>
</event>
<event>
12    7  0.1606355E-007  0.2027089E+04  0.7818608E-02  0.8594059E-01
          2   -1    0    0  501    0  0.00000000000E+00  0.00000000000E+00  0.12901164794E+04  0.12901164794E+04  0.00000000000E+00 0. -1.
         -1   -1    0    0    0  501 -0.00000000000E+00 -0.00000000000E+00 -0.79626327123E+03  0.79626327123E+03  0.00000000000E+00 0.  1.
         24    2    1    2    0    0  0.34025662200E+03 -0.58500668286E+03 -0.26431553612E+03  0.73099911296E+03  0.80558132487E+02 0.  0.
        254    2    1    2    0    0 -0.34025662200E+03  0.58500668286E+03  0.75816874433E+03  0.13553806377E+04  0.89678840337E+03 0.  0.
         23    2    4    4    0    0 -0.49437081343E+03  0.70823892163E+03  0.44812879523E+03  0.97677659026E+03  0.85253849691E+02 0.  0.
         23    2    4    4    0    0  0.15411419143E+03 -0.12323223877E+03  0.31003994910E+03  0.37860404745E+03  0.90988384076E+02 0.  0.
          2    1    3    3  502    0  0.15754703335E+03 -0.27938418977E+03 -0.82455438798E+02  0.33117290438E+03  0.00000000000E+00 0. -1.
         -1    1    3    3    0  502  0.18270958865E+03 -0.30562249309E+03 -0.18186009732E+03  0.39982620858E+03  0.00000000000E+00 0.  1.
         13    1    5    5    0    0 -0.12439127110E+03  0.13087281576E+03  0.11812579767E+03  0.21576511837E+03  0.00000000000E+00 0.  1.
        -13    1    5    5    0    0 -0.36997954233E+03  0.57736610587E+03  0.33000299756E+03  0.76101147189E+03  0.00000000000E+00 0. -1.
          2    1    6    6  503    0  0.86648049463E+02 -0.48841334095E+02  0.22861284344E+03  0.24931344243E+03  0.00000000000E+00 0. -1.
         -2    1    6    6    0  503  0.67466141969E+02 -0.74390904676E+02  0.81427105664E+02  0.12929060502E+03  0.00000000000E+00 0.  1.
<mgrwt>
<rscale>  0 0.20270889E+04</rscale>
<asrwt>0</asrwt>
<pdfrwt beam="1">  1        2 0.19847946E+00 0.20270889E+04</pdfrwt>
<pdfrwt beam="2">  1       -1 0.12250204E+00 0.20270889E+04</pdfrwt>
<totfact> 0.10417026E+01</totfact>
</mgrwt>
</event>
<event>
12    7  0.1606355E-007  0.1593341E+04  0.7818608E-02  0.8824649E-01
          2   -1    0    0  501    0  0.00000000000E+00  0.00000000000E+00  0.90910169686E+03  0.90910169686E+03  0.00000000000E+00 0. -1.
         -1   -1    0    0    0  501 -0.00000000000E+00 -0.00000000000E+00 -0.69814427502E+03  0.69814427502E+03  0.00000000000E+00 0.  1.
         24    2    1    2    0    0  0.31966532814E+03 -0.20248885869E+03 -0.32314241853E+03  0.50399951688E+03  0.80042678929E+02 0.  0.
        254    2    1    2    0    0 -0.31966532814E+03  0.20248885869E+03  0.53409984038E+03  0.11032464550E+04  0.88808920783E+03 0.  0.
         23    2    4    4    0    0 -0.54014756281E+03  0.16688370394E+03  0.65352392451E+02  0.57598392616E+03  0.88752395740E+02 0.  0.
         23    2    4    4    0    0  0.22048223466E+03  0.35605154747E+02  0.46874744793E+03  0.52726252883E+03  0.91659486842E+02 0.  0.
          4    1    3    3  502    0  0.23223900434E+03 -0.14877665921E+03 -0.18576612691E+03  0.33253346203E+03  0.00000000000E+00 0. -1.
         -3    1    3    3    0  502  0.87426323809E+02 -0.53712199484E+02 -0.13737629162E+03  0.17146605485E+03  0.00000000000E+00 0.  1.
         13    1    5    5    0    0 -0.19495829349E+03  0.27550275377E+02  0.51305086202E+02  0.20346981531E+03  0.00000000000E+00 0. -1.
        -13    1    5    5    0    0 -0.34518926932E+03  0.13933342857E+03  0.14047306249E+02  0.37251411085E+03  0.00000000000E+00 0.  1.
          1    1    6    6  503    0  0.39805866812E+02  0.45094753179E+02  0.10517172154E+03  0.12115747938E+03  0.00000000000E+00 0. -1.
         -1    1    6    6    0  503  0.18067636785E+03 -0.94895984323E+01  0.36357572638E+03  0.40610504946E+03  0.00000000000E+00 0.  1.
<mgrwt>
<rscale>  0 0.15933413E+04</rscale>
<asrwt>0</asrwt>
<pdfrwt beam="1">  1        2 0.13986180E+00 0.15933413E+04</pdfrwt>
<pdfrwt beam="2">  1       -1 0.10740681E+00 0.15933413E+04</pdfrwt>
<totfact> 0.25562647E+01</totfact>
</mgrwt>
</event>
<event>
12    7  0.1611053E-007  0.2184140E+04  0.7818608E-02  0.8525058E-01
         -1   -1    0    0    0  501 -0.00000000000E+00  0.00000000000E+00  0.51330731203E+03  0.51330731203E+03  0.00000000000E+00 0.  1.
          2   -1    0    0  501    0  0.00000000000E+00 -0.00000000000E+00 -0.23233983554E+04  0.23233983554E+04  0.00000000000E+00 0. -1.
         24    2    1    2    0    0 -0.86346049960E+03 -0.21600346410E+03 -0.81334560264E+03  0.12083200272E+04  0.79276024140E+02 0.  0.
        254    2    1    2    0    0  0.86346049960E+03  0.21600346410E+03 -0.99674544072E+03  0.16283856402E+04  0.93054650001E+03 0.  0.
         23    2    4    4    0    0  0.39303029076E+02  0.42281946293E+02 -0.73290849481E+03  0.74075619935E+03  0.90732541218E+02 0.  0.
         23    2    4    4    0    0  0.82415747052E+03  0.17372151781E+03 -0.26383694591E+03  0.88762944083E+03  0.94134946923E+02 0.  0.
          2    1    3    3  502    0 -0.76302105781E+03 -0.17638091598E+03 -0.68364010408E+03  0.10395552675E+04  0.00000000000E+00 0. -1.
         -1    1    3    3    0  502 -0.10043944179E+03 -0.39622548121E+02 -0.12970549856E+03  0.16876475978E+03  0.00000000000E+00 0.  1.
         13    1    5    5    0    0  0.68680264085E+02  0.35640517498E+02 -0.51786832958E+03  0.52361706613E+03  0.00000000000E+00 0.  1.
        -13    1    5    5    0    0 -0.29377235009E+02  0.66414287951E+01 -0.21504016523E+03  0.21713913322E+03  0.00000000000E+00 0. -1.
          3    1    6    6  503    0  0.78939606924E+03  0.18507270219E+03 -0.25572688809E+03  0.85017310033E+03  0.00000000000E+00 0. -1.
         -3    1    6    6    0  503  0.34761401280E+02 -0.11351184382E+02 -0.81100578254E+01  0.37456340501E+02  0.00000000000E+00 0.  1.
<mgrwt>
<rscale>  0 0.21841404E+04</rscale>
<asrwt>0</asrwt>
<pdfrwt beam="1">  1        2 0.35744590E+00 0.21841404E+04</pdfrwt>
<pdfrwt beam="2">  1       -1 0.78970356E-01 0.21841404E+04</pdfrwt>
<totfact> 0.73434024E+00</totfact>
</mgrwt>
</event>
<event>
12    7  0.1606355E-007  0.1309449E+04  0.7818608E-02  0.9022106E-01
         -1   -1    0    0    0  501 -0.00000000000E+00  0.00000000000E+00  0.28947657427E+03  0.28947657427E+03  0.00000000000E+00 0.  1.
          2   -1    0    0  501    0  0.00000000000E+00 -0.00000000000E+00 -0.14808244219E+04  0.14808244219E+04  0.00000000000E+00 0. -1.
         24    2    1    2    0    0 -0.91790654298E+02  0.60996863515E+02  0.11358431811E+03  0.17690175269E+03  0.79036012107E+02 0.  0.
        254    2    1    2    0    0  0.91790654298E+02 -0.60996863515E+02 -0.13049321657E+04  0.15933992434E+04  0.90770427469E+03 0.  0.
         23    2    4    4    0    0 -0.21500493897E+03 -0.38063197559E+03 -0.50368935177E+03  0.67339714831E+03  0.93021135457E+02 0.  0.
         23    2    4    4    0    0  0.30679559327E+03  0.31963511207E+03 -0.80124281395E+03  0.92000209514E+03  0.90131388694E+02 0.  0.
          4    1    3    3  502    0 -0.88191830361E+02  0.23514176811E+02  0.52930540728E+02  0.10550998813E+03  0.00000000000E+00 0. -1.
         -3    1    3    3    0  502 -0.35988239369E+01  0.37482686704E+02  0.60653777387E+02  0.71391764564E+02  0.00000000000E+00 0.  1.
         13    1    5    5    0    0 -0.20555209988E+03 -0.29105607063E+03 -0.41510758600E+03  0.54706453913E+03  0.00000000000E+00 0. -1.
        -13    1    5    5    0    0 -0.94528390934E+01 -0.89575904956E+02 -0.88581765769E+02  0.12633260918E+03  0.00000000000E+00 0.  1.
          3    1    6    6  503    0  0.26031264709E+03  0.21556591933E+03 -0.58834722363E+03  0.67851587702E+03  0.00000000000E+00 0. -1.
         -3    1    6    6    0  503  0.46482946181E+02  0.10406919274E+03 -0.21289559032E+03  0.24148621812E+03  0.00000000000E+00 0.  1.
<mgrwt>
<rscale>  0 0.13094487E+04</rscale>
<asrwt>0</asrwt>
<pdfrwt beam="1">  1        2 0.22781914E+00 0.13094487E+04</pdfrwt>
<pdfrwt beam="2">  1       -1 0.44534857E-01 0.13094487E+04</pdfrwt>
<totfact> 0.72520355E+01</totfact>
</mgrwt>
</event>
<event>
12    7  0.1606355E-007  0.1464319E+04  0.7818608E-02  0.8908533E-01
         -1   -1    0    0    0  501 -0.00000000000E+00  0.00000000000E+00  0.54325755304E+03  0.54325755304E+03  0.00000000000E+00 0.  1.
          2   -1    0    0  501    0  0.00000000000E+00 -0.00000000000E+00 -0.98674623784E+03  0.98674623784E+03  0.00000000000E+00 0. -1.
         24    2    1    2    0    0  0.19508902588E+03  0.27288957482E+03  0.18111395243E+03  0.38899360248E+03  0.77364791353E+02 0.  0.
        254    2    1    2    0    0 -0.19508902588E+03 -0.27288957482E+03 -0.62460263723E+03  0.11410101884E+04  0.89400634648E+03 0.  0.
         23    2    4    4    0    0  0.29066371268E+03 -0.53475013789E+02 -0.49767137507E+03  0.58599858327E+03  0.91501754410E+02 0.  0.
         23    2    4    4    0    0 -0.48575273856E+03 -0.21941456103E+03 -0.12693126216E+03  0.55501160514E+03  0.88475216430E+02 0.  0.
          2    1    3    3  502    0  0.41656443952E+01 -0.49548952478E+01  0.38249737876E+00  0.64845882204E+01  0.00000000000E+00 0. -1.
         -1    1    3    3    0  502  0.19092338149E+03  0.27784447006E+03  0.18073145505E+03  0.38250901426E+03  0.00000000000E+00 0.  1.
         13    1    5    5    0    0  0.18472297758E+03 -0.11408790473E+02 -0.37714377714E+03  0.42010732865E+03  0.00000000000E+00 0. -1.
        -13    1    5    5    0    0  0.10594073510E+03 -0.42066223316E+02 -0.12052759793E+03  0.16589125462E+03  0.00000000000E+00 0.  1.
          3    1    6    6  503    0 -0.52996699525E+02 -0.51271751989E+02 -0.15049797020E+00  0.73739171152E+02  0.00000000000E+00 0. -1.
         -3    1    6    6    0  503 -0.43275603903E+03 -0.16814280904E+03 -0.12678076419E+03  0.48127243399E+03  0.00000000000E+00 0.  1.
<mgrwt>
<rscale>  0 0.14643187E+04</rscale>
<asrwt>0</asrwt>
<pdfrwt beam="1">  1        2 0.15180711E+00 0.14643187E+04</pdfrwt>
<pdfrwt beam="2">  1       -1 0.83578086E-01 0.14643187E+04</pdfrwt>
<totfact> 0.40332815E+01</totfact>
</mgrwt>
</event>
<event>
12    7  0.1606355E-007  0.2485990E+04  0.7818608E-02  0.8407994E-01
         -1   -1    0    0    0  501 -0.00000000000E+00  0.00000000000E+00  0.66397529554E+03  0.66397529554E+03  0.00000000000E+00 0.  1.
          2   -1    0    0  501    0  0.00000000000E+00 -0.00000000000E+00 -0.23269496085E+04  0.23269496085E+04  0.00000000000E+00 0. -1.
         24    2    1    2    0    0 -0.25301472457E+03  0.98422487295E+03 -0.11596437308E+04  0.15437467190E+04  0.75268177104E+02 0.  0.
        254    2    1    2    0    0  0.25301472457E+03 -0.98422487295E+03 -0.50333058216E+03  0.14471781851E+04  0.89903724788E+03 0.  0.
         23    2    4    4    0    0  0.12047031844E+03  0.11963699481E+03  0.52379349095E+02  0.20002133794E+03  0.91863111572E+02 0.  0.
         23    2    4    4    0    0  0.13254440613E+03 -0.11038618678E+04 -0.55570993125E+03  0.12471568471E+04  0.10250673636E+03 0.  0.
          4    1    3    3  502    0 -0.47465600301E+02  0.17114336782E+03 -0.24777784668E+03  0.30485553441E+03  0.00000000000E+00 0. -1.
         -3    1    3    3    0  502 -0.20554912427E+03  0.81308150514E+03 -0.91186588415E+03  0.12388911846E+04  0.00000000000E+00 0.  1.
         13    1    5    5    0    0 -0.10706562661E+02  0.35290943619E+01  0.18394589748E+02  0.21574195767E+02  0.00000000000E+00 0. -1.
        -13    1    5    5    0    0  0.13117688111E+03  0.11610790045E+03  0.33984759348E+02  0.17844714218E+03  0.00000000000E+00 0.  1.
          2    1    6    6  503    0  0.13616862612E+02 -0.31224936464E+03 -0.11265186510E+03  0.33222812551E+03  0.00000000000E+00 0. -1.
         -2    1    6    6    0  503  0.11892754351E+03 -0.79161250312E+03 -0.44305806615E+03  0.91492872164E+03  0.00000000000E+00 0.  1.
<mgrwt>
<rscale>  0 0.24859904E+04</rscale>
<asrwt>0</asrwt>
<pdfrwt beam="1">  1        2 0.35799226E+00 0.24859904E+04</pdfrwt>
<pdfrwt beam="2">  1       -1 0.10215004E+00 0.24859904E+04</pdfrwt>
<totfact> 0.40334757E+00</totfact>
</mgrwt>
</event>
<event>
12    7  0.1606355E-007  0.1539465E+04  0.7818608E-02  0.8858625E-01
         -1   -1    0    0    0  501 -0.00000000000E+00  0.00000000000E+00  0.66751242929E+03  0.66751242929E+03  0.00000000000E+00 0.  1.
          2   -1    0    0  501    0  0.00000000000E+00 -0.00000000000E+00 -0.88760608285E+03  0.88760608285E+03  0.00000000000E+00 0. -1.
         24    2    1    2    0    0  0.17851226938E+03 -0.42811680143E+03  0.11950245494E+03  0.48555679104E+03  0.79586020132E+02 0.  0.
        254    2    1    2    0    0 -0.17851226938E+03  0.42811680143E+03 -0.33959610850E+03  0.10695617211E+04  0.90193466080E+03 0.  0.
         23    2    4    4    0    0  0.10571284644E+03  0.50986841422E+03 -0.49342645898E+03  0.72338744145E+03  0.93159617387E+02 0.  0.
         23    2    4    4    0    0 -0.28422511583E+03 -0.81751612785E+02  0.15383035048E+03  0.34617427965E+03  0.93303871838E+02 0.  0.
          4    1    3    3  502    0  0.12949468303E+03 -0.26218360202E+03  0.39996281808E+02  0.29514202795E+03  0.00000000000E+00 0. -1.
         -3    1    3    3    0  502  0.49017586356E+02 -0.16593319941E+03  0.79506173128E+02  0.19041476310E+03  0.00000000000E+00 0.  1.
         13    1    5    5    0    0  0.11356714110E+03  0.42191199953E+03 -0.37584936817E+03  0.57634189370E+03  0.00000000000E+00 0. -1.
        -13    1    5    5    0    0 -0.78542946602E+01  0.87956414691E+02 -0.11757709082E+03  0.14704554775E+03  0.00000000000E+00 0.  1.
          2    1    6    6  503    0 -0.13410671509E+03 -0.51572259596E+02  0.24525274266E+02  0.14575938416E+03  0.00000000000E+00 0. -1.
         -2    1    6    6    0  503 -0.15011840073E+03 -0.30179353189E+02  0.12930507622E+03  0.20041489549E+03  0.00000000000E+00 0.  1.
<mgrwt>
<rscale>  0 0.15394650E+04</rscale>
<asrwt>0</asrwt>
<pdfrwt beam="1">  1        2 0.13655478E+00 0.15394650E+04</pdfrwt>
<pdfrwt beam="2">  1       -1 0.10269422E+00 0.15394650E+04</pdfrwt>
<totfact> 0.29476105E+01</totfact>
</mgrwt>
</event>
<event>
12    7  0.1606355E-007  0.1760546E+04  0.7818608E-02  0.8727566E-01
         -1   -1    0    0    0  501 -0.00000000000E+00  0.00000000000E+00  0.76451465812E+03  0.76451465812E+03  0.00000000000E+00 0.  1.
          2   -1    0    0  501    0  0.00000000000E+00 -0.00000000000E+00 -0.10135592355E+04  0.10135592355E+04  0.00000000000E+00 0. -1.
         24    2    1    2    0    0  0.24328089196E+03  0.35725482465E+03 -0.57783488215E+03  0.72598852240E+03  0.79684261349E+02 0.  0.
        254    2    1    2    0    0 -0.24328089196E+03 -0.35725482465E+03  0.32879030478E+03  0.10520853712E+04  0.90109042924E+03 0.  0.
         23    2    4    4    0    0  0.46832060805E+02 -0.57357757848E+03  0.49823631564E+02  0.58496500532E+03  0.92288583942E+02 0.  0.
         23    2    4    4    0    0 -0.29011295276E+03  0.21632275384E+03  0.27896667321E+03  0.46712036589E+03  0.97046237840E+02 0.  0.
          4    1    3    3  502    0  0.21137742861E+03  0.24905267426E+03 -0.43364828021E+03  0.54291664444E+03  0.00000000000E+00 0. -1.
         -3    1    3    3    0  502  0.31903463350E+02  0.10820215038E+03 -0.14418660194E+03  0.18307187796E+03  0.00000000000E+00 0.  1.
         13    1    5    5    0    0  0.98612872542E+01 -0.46579168683E+02 -0.20828050106E+02  0.51967986422E+02  0.00000000000E+00 0. -1.
        -13    1    5    5    0    0  0.36970773551E+02 -0.52699840980E+03  0.70651681670E+02  0.53299701890E+03  0.00000000000E+00 0.  1.
          1    1    6    6  503    0 -0.14966223565E+03  0.76872979495E+02  0.79374410376E+02  0.18603369797E+03  0.00000000000E+00 0. -1.
         -1    1    6    6    0  503 -0.14045071711E+03  0.13944977434E+03  0.19959226284E+03  0.28108666793E+03  0.00000000000E+00 0.  1.
<mgrwt>
<rscale>  0 0.17605464E+04</rscale>
<asrwt>0</asrwt>
<pdfrwt beam="1">  1        2 0.15593219E+00 0.17605464E+04</pdfrwt>
<pdfrwt beam="2">  1       -1 0.11761764E+00 0.17605464E+04</pdfrwt>
<totfact> 0.17344283E+01</totfact>
</mgrwt>
</event>
<event>
12    7  0.1606355E-007  0.1525229E+04  0.7818608E-02  0.8867847E-01
          2   -1    0    0  501    0  0.00000000000E+00  0.00000000000E+00  0.29003612845E+04  0.29003612845E+04  0.00000000000E+00 0. -1.
         -1   -1    0    0    0  501 -0.00000000000E+00 -0.00000000000E+00 -0.20052026407E+03  0.20052026407E+03  0.00000000000E+00 0.  1.
         24    2    1    2    0    0 -0.31947197983E+03  0.27911728989E+03  0.37404348649E+03  0.57123472254E+03  0.80198323152E+02 0.  0.
        254    2    1    2    0    0  0.31947197983E+03 -0.27911728989E+03  0.23257975339E+04  0.25296468260E+04  0.89989448721E+03 0.  0.
         23    2    4    4    0    0  0.18186041896E+03 -0.24081038417E+03  0.23370147815E+04  0.23582077460E+04  0.91884881113E+02 0.  0.
         23    2    4    4    0    0  0.13761156087E+03 -0.38306905715E+02 -0.11217247584E+02  0.17143907997E+03  0.94133791944E+02 0.  0.
          4    1    3    3  502    0 -0.10849170043E+02  0.38916151902E+02  0.29425761934E+02  0.49980464533E+02  0.00000000000E+00 0. -1.
         -3    1    3    3    0  502 -0.30862280979E+03  0.24020113799E+03  0.34461772456E+03  0.52125425801E+03  0.00000000000E+00 0.  1.
         13    1    5    5    0    0  0.12352408381E+03 -0.90150581636E+02  0.12286397950E+04  0.12381199750E+04  0.00000000000E+00 0.  1.
        -13    1    5    5    0    0  0.58336335148E+02 -0.15065980254E+03  0.11083749865E+04  0.11200877711E+04  0.00000000000E+00 0. -1.
          2    1    6    6  503    0  0.11488716267E+03 -0.22884298938E+01  0.22534158219E+02  0.11709861376E+03  0.00000000000E+00 0. -1.
         -2    1    6    6    0  503  0.22724398204E+02 -0.36018475821E+02 -0.33751405804E+02  0.54340466210E+02  0.00000000000E+00 0.  1.
<mgrwt>
<rscale>  0 0.15252294E+04</rscale>
<asrwt>0</asrwt>
<pdfrwt beam="1">  1        2 0.44620940E+00 0.15252294E+04</pdfrwt>
<pdfrwt beam="2">  1       -1 0.30849274E-01 0.15252294E+04</pdfrwt>
<totfact> 0.21548551E+01</totfact>
</mgrwt>
</event>
<event>
12    7  0.1606355E-007  0.2079572E+04  0.7818608E-02  0.8570296E-01
          2   -1    0    0  501    0  0.00000000000E+00  0.00000000000E+00  0.11368430680E+04  0.11368430680E+04  0.00000000000E+00 0. -1.
         -1   -1    0    0    0  501 -0.00000000000E+00 -0.00000000000E+00 -0.95101500018E+03  0.95101500018E+03  0.00000000000E+00 0.  1.
         24    2    1    2    0    0  0.79859520921E+03  0.26126078665E+03  0.32742530745E+02  0.84458962466E+03  0.79044632707E+02 0.  0.
        254    2    1    2    0    0 -0.79859520921E+03 -0.26126078665E+03  0.15308553703E+03  0.12432684435E+04  0.90347647124E+03 0.  0.
         23    2    4    4    0    0 -0.35231274892E+03 -0.38422088281E+03  0.44340194816E+03  0.68946610083E+03  0.83715331437E+02 0.  0.
         23    2    4    4    0    0 -0.44628246028E+03  0.12296009616E+03 -0.29031641113E+03  0.55380234265E+03  0.90145418909E+02 0.  0.
          2    1    3    3  502    0  0.20683467384E+02  0.91328532272E+01  0.14062029534E+02  0.26626218389E+02  0.00000000000E+00 0. -1.
         -1    1    3    3    0  502  0.77791174182E+03  0.25212793342E+03  0.18680501211E+02  0.81796340627E+03  0.00000000000E+00 0.  1.
         13    1    5    5    0    0 -0.27639469566E+03 -0.31174472798E+03  0.39414697772E+03  0.57352475383E+03  0.00000000000E+00 0. -1.
        -13    1    5    5    0    0 -0.75918053263E+02 -0.72476154831E+02  0.49254970441E+02  0.11594134700E+03  0.00000000000E+00 0.  1.
          2    1    6    6  503    0 -0.42596729489E+03  0.11174075082E+03 -0.24766144705E+03  0.50524283672E+03  0.00000000000E+00 0. -1.
         -2    1    6    6    0  503 -0.20315165396E+02  0.11219345333E+02 -0.42654964085E+02  0.48559505926E+02  0.00000000000E+00 0.  1.
<mgrwt>
<rscale>  0 0.20795719E+04</rscale>
<asrwt>0</asrwt>
<pdfrwt beam="1">  1        2 0.17489893E+00 0.20795719E+04</pdfrwt>
<pdfrwt beam="2">  1       -1 0.14631000E+00 0.20795719E+04</pdfrwt>
<totfact> 0.81204416E+00</totfact>
</mgrwt>
</event>
<event>
12    7  0.1606355E-007  0.2309863E+04  0.7818608E-02  0.8474043E-01
          4   -1    0    0  501    0  0.00000000000E+00  0.00000000000E+00  0.13134663198E+04  0.13134663198E+04  0.00000000000E+00 0. -1.
         -3   -1    0    0    0  501 -0.00000000000E+00 -0.00000000000E+00 -0.10155314297E+04  0.10155314297E+04  0.00000000000E+00 0.  1.
         24    2    1    2    0    0 -0.22014941852E+03  0.55884346053E+03  0.93968758191E+03  0.11180800525E+04  0.79488819429E+02 0.  0.
        254    2    1    2    0    0  0.22014941852E+03 -0.55884346053E+03 -0.64175269183E+03  0.12109176970E+04  0.83288857093E+03 0.  0.
         23    2    4    4    0    0  0.45048828346E+03 -0.14248435092E+03 -0.52579776000E+03  0.71256528009E+03  0.89691193369E+02 0.  0.
         23    2    4    4    0    0 -0.23033886495E+03 -0.41635910961E+03 -0.11595493183E+03  0.49835241691E+03  0.92188309272E+02 0.  0.
          2    1    3    3  502    0 -0.22488861244E+03  0.55716362959E+03  0.93255124120E+03  0.11093502673E+04  0.00000000000E+00 0. -1.
         -1    1    3    3    0  502  0.47391939210E+01  0.16798309370E+01  0.71363407141E+01  0.87297852085E+01  0.00000000000E+00 0.  1.
         13    1    5    5    0    0  0.40451654710E+03 -0.12747231134E+03 -0.42324675628E+03  0.59918331397E+03  0.00000000000E+00 0. -1.
        -13    1    5    5    0    0  0.45971736361E+02 -0.15012039580E+02 -0.10255100372E+03  0.11338196612E+03  0.00000000000E+00 0.  1.
          2    1    6    6  503    0 -0.19811796522E+03 -0.35327576697E+03 -0.13146714178E+03  0.42583812070E+03  0.00000000000E+00 0. -1.
         -2    1    6    6    0  503 -0.32220899730E+02 -0.63083342636E+02  0.15512209953E+02  0.72514296212E+02  0.00000000000E+00 0.  1.
<mgrwt>
<rscale>  0 0.23098626E+04</rscale>
<asrwt>0</asrwt>
<pdfrwt beam="1">  1        4 0.20207174E+00 0.23098626E+04</pdfrwt>
<pdfrwt beam="2">  1       -3 0.15623560E+00 0.23098626E+04</pdfrwt>
<totfact> 0.76342101E-02</totfact>
</mgrwt>
</event>
<event>
12    7  0.1606355E-007  0.1787985E+04  0.7818608E-02  0.8712715E-01
         -1   -1    0    0    0  501 -0.00000000000E+00  0.00000000000E+00  0.49541350698E+03  0.49541350698E+03  0.00000000000E+00 0.  1.
          2   -1    0    0  501    0  0.00000000000E+00 -0.00000000000E+00 -0.16132436158E+04  0.16132436158E+04  0.00000000000E+00 0. -1.
         24    2    1    2    0    0  0.56972303685E+03  0.33020531059E+03 -0.56065134485E+03  0.86873184187E+03  0.82129146638E+02 0.  0.
        254    2    1    2    0    0 -0.56972303685E+03 -0.33020531059E+03 -0.55717876393E+03  0.12399252809E+04  0.89070008495E+03 0.  0.
         23    2    4    4    0    0 -0.22040261465E+03 -0.58233094878E+03 -0.48325952447E+03  0.79371597872E+03  0.93587608350E+02 0.  0.
         23    2    4    4    0    0 -0.34932042220E+03  0.25212563819E+03 -0.73919239469E+02  0.44620930216E+03  0.89702801358E+02 0.  0.
          4    1    3    3  502    0  0.52374135775E+03  0.32374260660E+03 -0.50557218566E+03  0.79669160913E+03  0.00000000000E+00 0. -1.
         -3    1    3    3    0  502  0.45981679107E+02  0.64627039975E+01 -0.55079159184E+02  0.72040232738E+02  0.00000000000E+00 0.  1.
         13    1    5    5    0    0 -0.20383657082E+03 -0.45127190104E+03 -0.35236351465E+03  0.60774642964E+03  0.00000000000E+00 0.  1.
        -13    1    5    5    0    0 -0.16566043826E+02 -0.13105904774E+03 -0.13089600981E+03  0.18596954908E+03  0.00000000000E+00 0. -1.
          3    1    6    6  503    0 -0.19845315488E+03  0.88204910944E+02 -0.31933397960E+02  0.21950740968E+03  0.00000000000E+00 0. -1.
         -3    1    6    6    0  503 -0.15086726732E+03  0.16392072724E+03 -0.41985841509E+02  0.22670189248E+03  0.00000000000E+00 0.  1.
<mgrwt>
<rscale>  0 0.17879851E+04</rscale>
<asrwt>0</asrwt>
<pdfrwt beam="1">  1        2 0.24819133E+00 0.17879851E+04</pdfrwt>
<pdfrwt beam="2">  1       -1 0.76217461E-01 0.17879851E+04</pdfrwt>
<totfact> 0.20399548E+01</totfact>
</mgrwt>
</event>
<event>
12    7  0.1606355E-007  0.1374685E+04  0.7818608E-02  0.8972350E-01
         -1   -1    0    0    0  501 -0.00000000000E+00  0.00000000000E+00  0.41629238335E+03  0.41629238335E+03  0.00000000000E+00 0.  1.
          2   -1    0    0  501    0  0.00000000000E+00 -0.00000000000E+00 -0.11348744074E+04  0.11348744074E+04  0.00000000000E+00 0. -1.
         24    2    1    2    0    0  0.47468415853E+02 -0.15078806646E+03 -0.60147958508E+03  0.62775607357E+03  0.85496813662E+02 0.  0.
        254    2    1    2    0    0 -0.47468415853E+02  0.15078806646E+03 -0.11710243895E+03  0.92341071717E+03  0.90221066270E+03 0.  0.
         23    2    4    4    0    0 -0.51725370506E+02 -0.23847936236E+03  0.26348691417E+03  0.37073313131E+03  0.92031410322E+02 0.  0.
         23    2    4    4    0    0  0.42569546539E+01  0.38926742882E+03 -0.38058935312E+03  0.55267758586E+03  0.95168300388E+02 0.  0.
          2    1    3    3  502    0  0.15456277719E+02 -0.10712250760E+03 -0.51081545502E+03  0.52215568295E+03  0.00000000000E+00 0. -1.
         -1    1    3    3    0  502  0.32012138134E+02 -0.43665558863E+02 -0.90664130062E+02  0.10560039062E+03  0.00000000000E+00 0.  1.
         13    1    5    5    0    0 -0.77715353060E+02 -0.17905828300E+03  0.20955893389E+03  0.28638521538E+03  0.00000000000E+00 0.  1.
        -13    1    5    5    0    0  0.25989982553E+02 -0.59421079359E+02  0.53927980280E+02  0.84347915934E+02  0.00000000000E+00 0. -1.
          4    1    6    6  503    0 -0.34006469734E+02  0.63155173098E+02 -0.80974048033E+02  0.10817491543E+03  0.00000000000E+00 0. -1.
         -4    1    6    6    0  503  0.38263424388E+02  0.32611225572E+03 -0.29961530509E+03  0.44450267043E+03  0.00000000000E+00 0.  1.
<mgrwt>
<rscale>  0 0.13746848E+04</rscale>
<asrwt>0</asrwt>
<pdfrwt beam="1">  1        2 0.17459606E+00 0.13746848E+04</pdfrwt>
<pdfrwt beam="2">  1       -1 0.64044983E-01 0.13746848E+04</pdfrwt>
<totfact> 0.57014638E+01</totfact>
</mgrwt>
</event>
<event>
12    7  0.1606355E-007  0.1926463E+04  0.7818608E-02  0.8641795E-01
         -1   -1    0    0    0  501 -0.00000000000E+00  0.00000000000E+00  0.28005694882E+03  0.28005694882E+03  0.00000000000E+00 0.  1.
          2   -1    0    0  501    0  0.00000000000E+00 -0.00000000000E+00 -0.33129503138E+04  0.33129503138E+04  0.00000000000E+00 0. -1.
         24    2    1    2    0    0 -0.59645771603E+03 -0.20371957418E+03 -0.43077518437E+03  0.76840276569E+03  0.87247228793E+02 0.  0.
        254    2    1    2    0    0  0.59645771603E+03  0.20371957418E+03 -0.26021181806E+04  0.28246044969E+04  0.90006003482E+03 0.  0.
         23    2    4    4    0    0  0.82500767143E+03  0.12185766104E+03 -0.19766018978E+04  0.21472964406E+04  0.91869439224E+02 0.  0.
         23    2    4    4    0    0 -0.22854995540E+03  0.81861913139E+02 -0.62551628274E+03  0.67730805628E+03  0.92407403385E+02 0.  0.
          4    1    3    3  502    0 -0.39152386616E+02 -0.28607682573E+02 -0.12952922551E+02  0.50190507892E+02  0.00000000000E+00 0. -1.
         -3    1    3    3    0  502 -0.55730532942E+03 -0.17511189161E+03 -0.41782226182E+03  0.71821225780E+03  0.00000000000E+00 0.  1.
         13    1    5    5    0    0  0.26107278770E+03 -0.27404685275E+01 -0.64566930801E+03  0.69645916316E+03  0.00000000000E+00 0.  1.
        -13    1    5    5    0    0  0.56393488374E+03  0.12459812957E+03 -0.13309325898E+04  0.14508372774E+04  0.00000000000E+00 0. -1.
          4    1    6    6  503    0 -0.49994298835E+02 -0.19753351670E+02 -0.11247035294E+03  0.12465634805E+03  0.00000000000E+00 0. -1.
         -4    1    6    6    0  503 -0.17855565656E+03  0.10161526481E+03 -0.51304592979E+03  0.55265170823E+03  0.00000000000E+00 0.  1.
<mgrwt>
<rscale>  0 0.19264628E+04</rscale>
<asrwt>0</asrwt>
<pdfrwt beam="1">  1        2 0.50968467E+00 0.19264628E+04</pdfrwt>
<pdfrwt beam="2">  1       -1 0.43085684E-01 0.19264628E+04</pdfrwt>
<totfact> 0.61992867E+00</totfact>
</mgrwt>
</event>
<event>
12    7  0.1606355E-007  0.2951483E+04  0.7818608E-02  0.8257722E-01
          2   -1    0    0  501    0  0.00000000000E+00  0.00000000000E+00  0.16742687740E+04  0.16742687740E+04  0.00000000000E+00 0. -1.
         -1   -1    0    0    0  501 -0.00000000000E+00 -0.00000000000E+00 -0.13007549074E+04  0.13007549074E+04  0.00000000000E+00 0.  1.
         24    2    1    2    0    0  0.86148340648E+03  0.83361643546E+03 -0.42419372490E+03  0.12742414160E+04  0.81736460725E+02 0.  0.
        254    2    1    2    0    0 -0.86148340648E+03 -0.83361643546E+03  0.79770759151E+03  0.17007822653E+04  0.90512589799E+03 0.  0.
         23    2    4    4    0    0 -0.82789255691E+03 -0.22448032998E+03  0.60776477640E+03  0.10552078153E+04  0.91038484953E+02 0.  0.
         23    2    4    4    0    0 -0.33590849565E+02 -0.60913610548E+03  0.18994281511E+03  0.64557444995E+03  0.92265688377E+02 0.  0.
          4    1    3    3  502    0  0.13718708902E+03  0.10498947215E+03 -0.39548026632E+02  0.17722057744E+03  0.00000000000E+00 0. -1.
         -3    1    3    3    0  502  0.72429631746E+03  0.72862696331E+03 -0.38464569827E+03  0.10970208386E+04  0.00000000000E+00 0.  1.
         13    1    5    5    0    0 -0.40321553429E+03 -0.70597091457E+02  0.25734010759E+03  0.48351902485E+03  0.00000000000E+00 0.  1.
        -13    1    5    5    0    0 -0.42467702262E+03 -0.15388323853E+03  0.35042466881E+03  0.57168879047E+03  0.00000000000E+00 0. -1.
          1    1    6    6  503    0 -0.18689265112E+02 -0.32195540254E+02 -0.22140200731E+01  0.37292671231E+02  0.00000000000E+00 0. -1.
         -1    1    6    6    0  503 -0.14901584453E+02 -0.57694056522E+03  0.19215683518E+03  0.60828177872E+03  0.00000000000E+00 0.  1.
<mgrwt>
<rscale>  0 0.29514832E+04</rscale>
<asrwt>0</asrwt>
<pdfrwt beam="1">  1        2 0.25757981E+00 0.29514832E+04</pdfrwt>
<pdfrwt beam="2">  1       -1 0.20011614E+00 0.29514832E+04</pdfrwt>
<totfact> 0.14896712E+00</totfact>
</mgrwt>
</event>
<event>
12    7  0.1606355E-007  0.2319304E+04  0.7818608E-02  0.8470349E-01
         -3   -1    0    0    0  501 -0.00000000000E+00  0.00000000000E+00  0.16016436262E+04  0.16016436262E+04  0.00000000000E+00 0.  1.
          2   -1    0    0  501    0  0.00000000000E+00 -0.00000000000E+00 -0.83963289211E+03  0.83963289211E+03  0.00000000000E+00 0. -1.
         24    2    1    2    0    0  0.28177153239E+03  0.10426804977E+03 -0.65963576003E+03  0.72924050384E+03  0.80033454598E+02 0.  0.
        254    2    1    2    0    0 -0.28177153239E+03 -0.10426804977E+03  0.14216464941E+04  0.17120360144E+04  0.90538474578E+03 0.  0.
         23    2    4    4    0    0  0.31358419358E+03 -0.83158210817E+02  0.37879422279E+03  0.50724997714E+03  0.92558854824E+02 0.  0.
         23    2    4    4    0    0 -0.59535572597E+03 -0.21109838949E+02  0.10428522713E+04  0.12047860373E+04  0.95260013301E+02 0.  0.
          2    1    3    3  502    0  0.24994349793E+03  0.99034661145E+02 -0.63184514816E+03  0.68666433395E+03  0.00000000000E+00 0. -1.
         -1    1    3    3    0  502  0.31828034461E+02  0.52333886217E+01 -0.27790611876E+02  0.42576169890E+02  0.00000000000E+00 0.  1.
         13    1    5    5    0    0  0.79399528453E+02  0.19564989041E+01  0.14623576444E+03  0.16641217445E+03  0.00000000000E+00 0. -1.
        -13    1    5    5    0    0  0.23418466513E+03 -0.85114709721E+02  0.23255845835E+03  0.34083780269E+03  0.00000000000E+00 0.  1.
          4    1    6    6  503    0 -0.34490465838E+03 -0.42307383836E+02  0.53171506659E+03  0.63519292356E+03  0.00000000000E+00 0. -1.
         -4    1    6    6    0  503 -0.25045106759E+03  0.21197544887E+02  0.51113720470E+03  0.56959311372E+03  0.00000000000E+00 0.  1.
<mgrwt>
<rscale>  0 0.23193039E+04</rscale>
<asrwt>0</asrwt>
<pdfrwt beam="1">  1        2 0.12917429E+00 0.23193039E+04</pdfrwt>
<pdfrwt beam="2">  1       -3 0.24640671E+00 0.23193039E+04</pdfrwt>
<totfact> 0.14052889E+00</totfact>
</mgrwt>
</event>
<event>
12    7  0.1606355E-007  0.1866322E+04  0.7818608E-02  0.8671804E-01
         -1   -1    0    0    0  501 -0.00000000000E+00  0.00000000000E+00  0.83322489370E+03  0.83322489370E+03  0.00000000000E+00 0.  1.
          2   -1    0    0  501    0  0.00000000000E+00 -0.00000000000E+00 -0.10450828055E+04  0.10450828055E+04  0.00000000000E+00 0. -1.
         24    2    1    2    0    0  0.21451853368E+03 -0.33521283607E+03  0.51533198787E+03  0.65713553871E+03  0.88736755351E+02 0.  0.
        254    2    1    2    0    0 -0.21451853368E+03  0.33521283607E+03 -0.72718989967E+03  0.12211721605E+04  0.89669975390E+03 0.  0.
         23    2    4    4    0    0  0.31132440620E+02  0.57890469596E+03 -0.60462659874E+03  0.84324254535E+03  0.96875128436E+02 0.  0.
         23    2    4    4    0    0 -0.24565097430E+03 -0.24369185989E+03 -0.12256330093E+03  0.37792961516E+03  0.89882743191E+02 0.  0.
          4    1    3    3  502    0  0.39922630568E+02 -0.50438857269E+02  0.38582247612E+02  0.75009896580E+02  0.00000000000E+00 0. -1.
         -3    1    3    3    0  502  0.17459590311E+03 -0.28477397880E+03  0.47674974026E+03  0.58212564213E+03  0.00000000000E+00 0.  1.
         13    1    5    5    0    0 -0.13888153333E+02  0.24436302425E+03 -0.19838753981E+03  0.31506155649E+03  0.00000000000E+00 0. -1.
        -13    1    5    5    0    0  0.45020593953E+02  0.33454167172E+03 -0.40623905893E+03  0.52818098886E+03  0.00000000000E+00 0.  1.
          4    1    6    6  503    0 -0.94823321632E+02 -0.78879387640E+02 -0.49007304058E+00  0.12334366742E+03  0.00000000000E+00 0. -1.
         -4    1    6    6    0  503 -0.15082765267E+03 -0.16481247225E+03 -0.12207322789E+03  0.25458594774E+03  0.00000000000E+00 0.  1.
<mgrwt>
<rscale>  0 0.18663215E+04</rscale>
<asrwt>0</asrwt>
<pdfrwt beam="1">  1        2 0.16078197E+00 0.18663215E+04</pdfrwt>
<pdfrwt beam="2">  1       -1 0.12818844E+00 0.18663215E+04</pdfrwt>
<totfact> 0.13270781E+01</totfact>
</mgrwt>
</event>
<event>
12    7  0.1606355E-007  0.2504096E+04  0.7818608E-02  0.8401528E-01
          2   -1    0    0  501    0  0.00000000000E+00  0.00000000000E+00  0.13579587073E+04  0.13579587073E+04  0.00000000000E+00 0. -1.
         -1   -1    0    0    0  501 -0.00000000000E+00 -0.00000000000E+00 -0.11543971718E+04  0.11543971718E+04  0.00000000000E+00 0.  1.
         24    2    1    2    0    0 -0.63137696481E+03  0.33199875699E+03 -0.73245934241E+03  0.10255464907E+04  0.79930407639E+02 0.  0.
        254    2    1    2    0    0  0.63137696481E+03 -0.33199875699E+03  0.93602087792E+03  0.14868093884E+04  0.90862920233E+03 0.  0.
         23    2    4    4    0    0  0.49138756352E+02 -0.50926654912E+03  0.29297381549E+03  0.59661441028E+03  0.91367732596E+02 0.  0.
         23    2    4    4    0    0  0.58223820845E+03  0.17726779213E+03  0.64304706243E+03  0.89019497816E+03  0.92262522906E+02 0.  0.
          4    1    3    3  502    0 -0.93711239362E+02  0.83037305021E+02 -0.13407920340E+03  0.18345087406E+03  0.00000000000E+00 0. -1.
         -3    1    3    3    0  502 -0.53766572544E+03  0.24896145197E+03 -0.59838013901E+03  0.84209561669E+03  0.00000000000E+00 0.  1.
         13    1    5    5    0    0 -0.10597087465E+02 -0.33851199293E+03  0.18420104347E+03  0.38552910660E+03  0.00000000000E+00 0. -1.
        -13    1    5    5    0    0  0.59735843817E+02 -0.17075455620E+03  0.10877277202E+03  0.21108530368E+03  0.00000000000E+00 0.  1.
          3    1    6    6  503    0  0.49244146899E+03  0.13271824424E+03  0.49010059497E+03  0.70732688760E+03  0.00000000000E+00 0. -1.
         -3    1    6    6    0  503  0.89796739459E+02  0.44549547889E+02  0.15294646746E+03  0.18286809056E+03  0.00000000000E+00 0.  1.
<mgrwt>
<rscale>  0 0.25040956E+04</rscale>
<asrwt>0</asrwt>
<pdfrwt beam="1">  1        2 0.20891672E+00 0.25040956E+04</pdfrwt>
<pdfrwt beam="2">  1       -1 0.17759957E+00 0.25040956E+04</pdfrwt>
<totfact> 0.33658663E+00</totfact>
</mgrwt>
</event>
<event>
12    7  0.1606355E-007  0.3355624E+04  0.7818608E-02  0.8148884E-01
         -1   -1    0    0    0  501 -0.00000000000E+00  0.00000000000E+00  0.14768524042E+04  0.14768524042E+04  0.00000000000E+00 0.  1.
          2   -1    0    0  501    0  0.00000000000E+00 -0.00000000000E+00 -0.19061165450E+04  0.19061165450E+04  0.00000000000E+00 0. -1.
         24    2    1    2    0    0  0.98117373206E+03 -0.11514398043E+04 -0.44620436600E+03  0.15792227251E+04  0.79564840727E+02 0.  0.
        254    2    1    2    0    0 -0.98117373206E+03  0.11514398043E+04  0.16940225260E+02  0.18037462241E+04  0.98219038606E+03 0.  0.
         23    2    4    4    0    0 -0.96167888427E+03  0.97728313675E+03  0.34979304103E+03  0.14179553768E+04  0.91288954468E+02 0.  0.
         23    2    4    4    0    0 -0.19494847790E+02  0.17415666751E+03 -0.33285281577E+03  0.38579084732E+03  0.85632861591E+02 0.  0.
          2    1    3    3  502    0  0.36941425880E+03 -0.45563650184E+03 -0.21064651750E+03  0.62325233393E+03  0.00000000000E+00 0. -1.
         -1    1    3    3    0  502  0.61175947327E+03 -0.69580330242E+03 -0.23555784850E+03  0.95597039116E+03  0.00000000000E+00 0.  1.
         13    1    5    5    0    0 -0.16495257837E+03  0.21950730150E+03  0.72244016905E+02  0.28392253609E+03  0.00000000000E+00 0. -1.
        -13    1    5    5    0    0 -0.79672630591E+03  0.75777583524E+03  0.27754902412E+03  0.11340328407E+04  0.00000000000E+00 0.  1.
          3    1    6    6  503    0  0.26677612713E+02  0.17965130102E+02 -0.56469233116E+02  0.64986269383E+02  0.00000000000E+00 0. -1.
         -3    1    6    6    0  503 -0.46172460503E+02  0.15619153741E+03 -0.27638358265E+03  0.32080457794E+03  0.00000000000E+00 0.  1.
<mgrwt>
<rscale>  0 0.33556238E+04</rscale>
<asrwt>0</asrwt>
<pdfrwt beam="1">  1        2 0.29324870E+00 0.33556238E+04</pdfrwt>
<pdfrwt beam="2">  1       -1 0.22720806E+00 0.33556238E+04</pdfrwt>
<totfact> 0.70206352E-01</totfact>
</mgrwt>
</event>
<event>
12    7  0.1606355E-007  0.2865519E+04  0.7818608E-02  0.8283211E-01
         -1   -1    0    0    0  501 -0.00000000000E+00  0.00000000000E+00  0.12559748706E+04  0.12559748706E+04  0.00000000000E+00 0.  1.
          2   -1    0    0  501    0  0.00000000000E+00 -0.00000000000E+00 -0.16344274381E+04  0.16344274381E+04  0.00000000000E+00 0. -1.
         24    2    1    2    0    0 -0.25078555585E+03 -0.11837306241E+04  0.28631969207E+03  0.12458344593E+04  0.77543203624E+02 0.  0.
        254    2    1    2    0    0  0.25078555585E+03  0.11837306241E+04 -0.66477225953E+03  0.16445678494E+04  0.89362725380E+03 0.  0.
         23    2    4    4    0    0  0.39115239602E+03  0.12563968673E+04 -0.55477498479E+03  0.14309859559E+04  0.91718249108E+02 0.  0.
         23    2    4    4    0    0 -0.14036684017E+03 -0.72666243185E+02 -0.10999727474E+03  0.21358189347E+03  0.92382855824E+02 0.  0.
          4    1    3    3  502    0 -0.89950256509E+02 -0.29571562256E+03  0.94436513196E+02  0.32319813288E+03  0.00000000000E+00 0. -1.
         -3    1    3    3    0  502 -0.16083529934E+03 -0.88801500157E+03  0.19188317888E+03  0.92263632644E+03  0.00000000000E+00 0.  1.
         13    1    5    5    0    0  0.37745286901E+03  0.12452592927E+04 -0.54434475326E+03  0.14104795584E+04  0.00000000000E+00 0.  1.
        -13    1    5    5    0    0  0.13699527013E+02  0.11137574637E+02 -0.10430231529E+02  0.20506397512E+02  0.00000000000E+00 0. -1.
          2    1    6    6  503    0 -0.59996933634E+02 -0.55673254114E+02 -0.10239042883E+03  0.13108372586E+03  0.00000000000E+00 0.  1.
         -2    1    6    6    0  503 -0.80369906539E+02 -0.16992989070E+02 -0.76068459084E+01  0.82498167612E+02  0.00000000000E+00 0. -1.
<mgrwt>
<rscale>  0 0.28655190E+04</rscale>
<asrwt>0</asrwt>
<pdfrwt beam="1">  1        2 0.25145037E+00 0.28655190E+04</pdfrwt>
<pdfrwt beam="2">  1       -1 0.19322690E+00 0.28655190E+04</pdfrwt>
<totfact> 0.17632055E+00</totfact>
</mgrwt>
</event>
<event>
12    7  0.1606355E-007  0.1654651E+04  0.7818608E-02  0.8787660E-01
          4   -1    0    0  501    0  0.00000000000E+00  0.00000000000E+00  0.38155842266E+03  0.38155842266E+03  0.00000000000E+00 0. -1.
         -3   -1    0    0    0  501 -0.00000000000E+00 -0.00000000000E+00 -0.17938731277E+04  0.17938731277E+04  0.00000000000E+00 0.  1.
         24    2    1    2    0    0  0.55518539968E+03  0.11124434131E+03 -0.68904760201E+03  0.89543154045E+03  0.80030708636E+02 0.  0.
        254    2    1    2    0    0 -0.55518539968E+03 -0.11124434131E+03 -0.72326710306E+03  0.12800000099E+04  0.89144746988E+03 0.  0.
         23    2    4    4    0    0  0.15863751309E+03  0.45296631901E+02 -0.46176436576E+03  0.49872211695E+03  0.90993269144E+02 0.  0.
         23    2    4    4    0    0 -0.71382291277E+03 -0.15654097321E+03 -0.26150273730E+03  0.78127789297E+03  0.89236973009E+02 0.  0.
          2    1    3    3  502    0  0.97795823362E+02 -0.10979893769E+02 -0.11872524120E+03  0.15420850830E+03  0.00000000000E+00 0. -1.
         -1    1    3    3    0  502  0.45738957631E+03  0.12222423508E+03 -0.57032236081E+03  0.74122303216E+03  0.00000000000E+00 0.  1.
         13    1    5    5    0    0  0.15097914846E+03  0.56060194888E+02 -0.45721533224E+03  0.48475076974E+03  0.00000000000E+00 0. -1.
        -13    1    5    5    0    0  0.76583646304E+01 -0.10763562988E+02 -0.45490335116E+01  0.13971347211E+02  0.00000000000E+00 0.  1.
          1    1    6    6  503    0 -0.42089134209E+03 -0.13330680301E+03 -0.13839600172E+03  0.46268096878E+03  0.00000000000E+00 0. -1.
         -1    1    6    6    0  503 -0.29293157067E+03 -0.23234170200E+02 -0.12310673558E+03  0.31859692420E+03  0.00000000000E+00 0.  1.
<mgrwt>
<rscale>  0 0.16546509E+04</rscale>
<asrwt>0</asrwt>
<pdfrwt beam="1">  1        4 0.58701296E-01 0.16546509E+04</pdfrwt>
<pdfrwt beam="2">  1       -3 0.27598048E+00 0.16546509E+04</pdfrwt>
<totfact> 0.31271815E-01</totfact>
</mgrwt>
</event>
<event>
12    7  0.1606355E-007  0.1649097E+04  0.7818608E-02  0.8790941E-01
          2   -1    0    0  501    0  0.00000000000E+00  0.00000000000E+00  0.11397032570E+04  0.11397032570E+04  0.00000000000E+00 0. -1.
         -1   -1    0    0    0  501 -0.00000000000E+00 -0.00000000000E+00 -0.59654120903E+03  0.59654120903E+03  0.00000000000E+00 0.  1.
         24    2    1    2    0    0  0.37352329311E+02 -0.10628445963E+03  0.78099267846E+03  0.79316068456E+03  0.80391074565E+02 0.  0.
        254    2    1    2    0    0 -0.37352329311E+02  0.10628445963E+03 -0.23783063047E+03  0.94308378149E+03  0.90562245293E+03 0.  0.
         23    2    4    4    0    0  0.93586086578E+02 -0.37777627810E+03 -0.14121960059E+03  0.42406518461E+03  0.91733490669E+02 0.  0.
         23    2    4    4    0    0 -0.13093841589E+03  0.48406073773E+03 -0.96611029877E+02  0.51901859688E+03  0.92665777093E+02 0.  0.
          4    1    3    3  502    0  0.58030372591E+02 -0.59260019946E+02  0.57009463299E+03  0.57609648903E+03  0.00000000000E+00 0. -1.
         -3    1    3    3    0  502 -0.20678043280E+02 -0.47024439681E+02  0.21089804547E+03  0.21706419554E+03  0.00000000000E+00 0.  1.
         13    1    5    5    0    0  0.11002567579E+03 -0.28309072010E+03 -0.10976620237E+03  0.32294678249E+03  0.00000000000E+00 0. -1.
        -13    1    5    5    0    0 -0.16439589209E+02 -0.94685558000E+02 -0.31453398223E+02  0.10111840212E+03  0.00000000000E+00 0.  1.
          4    1    6    6  503    0 -0.13917446231E+03  0.46343102116E+03 -0.10523698186E+03  0.49518952400E+03  0.00000000000E+00 0. -1.
         -4    1    6    6    0  503  0.82360464236E+01  0.20629716569E+02  0.86259519802E+01  0.23829072873E+02  0.00000000000E+00 0.  1.
<mgrwt>
<rscale>  0 0.16490967E+04</rscale>
<asrwt>0</asrwt>
<pdfrwt beam="1">  1        2 0.17533896E+00 0.16490967E+04</pdfrwt>
<pdfrwt beam="2">  1       -1 0.91775571E-01 0.16490967E+04</pdfrwt>
<totfact> 0.25962383E+01</totfact>
</mgrwt>
</event>
<event>
12    7  0.1606355E-007  0.1910814E+04  0.7818608E-02  0.8649492E-01
          2   -1    0    0  501    0  0.00000000000E+00  0.00000000000E+00  0.88189422994E+03  0.88189422994E+03  0.00000000000E+00 0. -1.
         -1   -1    0    0    0  501 -0.00000000000E+00 -0.00000000000E+00 -0.10350481344E+04  0.10350481344E+04  0.00000000000E+00 0.  1.
         24    2    1    2    0    0  0.28268609799E+03 -0.57199406999E+03 -0.43738959786E+03  0.77841960653E+03  0.86826133262E+02 0.  0.
        254    2    1    2    0    0 -0.28268609799E+03  0.57199406999E+03  0.28423569341E+03  0.11385227578E+04  0.89908592164E+03 0.  0.
         23    2    4    4    0    0  0.15807615363E+03 -0.12848470653E+03  0.20250474502E+03  0.30180087662E+03  0.92624009931E+02 0.  0.
         23    2    4    4    0    0 -0.44076225162E+03  0.70047877652E+03  0.81730948390E+02  0.83672188117E+03  0.92096035222E+02 0.  0.
          2    1    3    3  502    0  0.14327348948E+03 -0.20000351599E+03 -0.15060829782E+03  0.28846413740E+03  0.00000000000E+00 0. -1.
         -1    1    3    3    0  502  0.13941260852E+03 -0.37199055400E+03 -0.28678130004E+03  0.48995546913E+03  0.00000000000E+00 0.  1.
         13    1    5    5    0    0  0.15989861968E+03 -0.12696449728E+03  0.16044219566E+03  0.25967142757E+03  0.00000000000E+00 0.  1.
        -13    1    5    5    0    0 -0.18224660575E+01 -0.15202092454E+01  0.42062549362E+02  0.42129449053E+02  0.00000000000E+00 0. -1.
          2    1    6    6  503    0 -0.13956121919E+03  0.26626029501E+03  0.67334759646E+02  0.30806792831E+03  0.00000000000E+00 0. -1.
         -2    1    6    6    0  503 -0.30120103243E+03  0.43421848151E+03  0.14396188744E+02  0.52865395286E+03  0.00000000000E+00 0.  1.
<mgrwt>
<rscale>  0 0.19108145E+04</rscale>
<asrwt>0</asrwt>
<pdfrwt beam="1">  1        2 0.13567604E+00 0.19108145E+04</pdfrwt>
<pdfrwt beam="2">  1       -1 0.15923817E+00 0.19108145E+04</pdfrwt>
<totfact> 0.95400909E+00</totfact>
</mgrwt>
</event>
<event>
12    7  0.1606355E-007  0.1875087E+04  0.7818608E-02  0.8667357E-01
         -1   -1    0    0    0  501 -0.00000000000E+00  0.00000000000E+00  0.13412008540E+04  0.13412008540E+04  0.00000000000E+00 0.  1.
          2   -1    0    0  501    0  0.00000000000E+00 -0.00000000000E+00 -0.65537376247E+03  0.65537376247E+03  0.00000000000E+00 0. -1.
         24    2    1    2    0    0  0.59169007136E+03 -0.51319279646E+02 -0.17356813060E+03  0.62395543317E+03  0.80397000032E+02 0.  0.
        254    2    1    2    0    0 -0.59169007136E+03  0.51319279646E+02  0.85939522213E+03  0.13726191833E+04  0.89038894061E+03 0.  0.
         23    2    4    4    0    0 -0.23027998088E+02 -0.33580873042E+03  0.44172847477E+03  0.56279748993E+03  0.91209523219E+02 0.  0.
         23    2    4    4    0    0 -0.56866207327E+03  0.38712801007E+03  0.41766674736E+03  0.80982169338E+03  0.90116665857E+02 0.  0.
          4    1    3    3  502    0  0.29566535402E+03  0.77385720889E+01 -0.10940804301E+03  0.31535378060E+03  0.00000000000E+00 0. -1.
         -3    1    3    3    0  502  0.29602471734E+03 -0.59057851735E+02 -0.64160087589E+02  0.30860165257E+03  0.00000000000E+00 0.  1.
         13    1    5    5    0    0  0.46037171877E+01 -0.30941231775E+03  0.37822942229E+03  0.48868668129E+03  0.00000000000E+00 0. -1.
        -13    1    5    5    0    0 -0.27631715275E+02 -0.26396412672E+02  0.63499052485E+02  0.74110808642E+02  0.00000000000E+00 0.  1.
          3    1    6    6  503    0 -0.46994657405E+03  0.31177275428E+03  0.30022316912E+03  0.63889434498E+03  0.00000000000E+00 0. -1.
         -3    1    6    6    0  503 -0.98715499220E+02  0.75355255781E+02  0.11744357824E+03  0.17092734840E+03  0.00000000000E+00 0.  1.
<mgrwt>
<rscale>  0 0.18750870E+04</rscale>
<asrwt>0</asrwt>
<pdfrwt beam="1">  1        2 0.10082673E+00 0.18750870E+04</pdfrwt>
<pdfrwt beam="2">  1       -1 0.20633859E+00 0.18750870E+04</pdfrwt>
<totfact> 0.64924600E+00</totfact>
</mgrwt>
</event>
<event>
12    7  0.1606355E-007  0.1463942E+04  0.7818608E-02  0.8908792E-01
         -1   -1    0    0    0  501 -0.00000000000E+00  0.00000000000E+00  0.28368134279E+03  0.28368134279E+03  0.00000000000E+00 0.  1.
          2   -1    0    0  501    0  0.00000000000E+00 -0.00000000000E+00 -0.18886729674E+04  0.18886729674E+04  0.00000000000E+00 0. -1.
         24    2    1    2    0    0 -0.12928045511E+03  0.47588712515E+01 -0.11483995980E+04  0.11583244165E+04  0.78471232231E+02 0.  0.
        254    2    1    2    0    0  0.12928045511E+03 -0.47588712515E+01 -0.45659202662E+03  0.10140298937E+04  0.89612737018E+03 0.  0.
         23    2    4    4    0    0  0.42103365105E+03  0.25650007993E+03 -0.29318715349E+03  0.58031470712E+03  0.88004693051E+02 0.  0.
         23    2    4    4    0    0 -0.29175319594E+03 -0.26125895118E+03 -0.16340487313E+03  0.43371518657E+03  0.89618879630E+02 0.  0.
          4    1    3    3  502    0 -0.10920112188E+03  0.28942304865E+02 -0.10151944922E+04  0.10214609141E+04  0.00000000000E+00 0. -1.
         -3    1    3    3    0  502 -0.20079333238E+02 -0.24183433614E+02 -0.13320510579E+03  0.13686350241E+03  0.00000000000E+00 0.  1.
         13    1    5    5    0    0  0.27588331637E+02 -0.54683947333E+01 -0.16296832153E+02  0.32505478334E+02  0.00000000000E+00 0.  1.
        -13    1    5    5    0    0  0.39344531942E+03  0.26196847466E+03 -0.27689032134E+03  0.54780922878E+03  0.00000000000E+00 0. -1.
          2    1    6    6  503    0 -0.28256462397E+03 -0.26856857813E+03 -0.15637199552E+03  0.42002862862E+03  0.00000000000E+00 0. -1.
         -2    1    6    6    0  503 -0.91885719701E+01  0.73096269506E+01 -0.70328776136E+01  0.13686557951E+02  0.00000000000E+00 0.  1.
<mgrwt>
<rscale>  0 0.14639416E+04</rscale>
<asrwt>0</asrwt>
<pdfrwt beam="1">  1        2 0.29056508E+00 0.14639416E+04</pdfrwt>
<pdfrwt beam="2">  1       -1 0.43643282E-01 0.14639416E+04</pdfrwt>
<totfact> 0.44094656E+01</totfact>
</mgrwt>
</event>
<event>
12    7  0.1606355E-007  0.1533280E+04  0.7818608E-02  0.8862619E-01
         -1   -1    0    0    0  501 -0.00000000000E+00  0.00000000000E+00  0.26184435694E+03  0.26184435694E+03  0.00000000000E+00 0.  1.
          2   -1    0    0  501    0  0.00000000000E+00 -0.00000000000E+00 -0.22446046091E+04  0.22446046091E+04  0.00000000000E+00 0. -1.
         24    2    1    2    0    0 -0.23835032279E+03  0.20762288668E+03 -0.21686802867E+02  0.32659096262E+03  0.79203535262E+02 0.  0.
        254    2    1    2    0    0  0.23835032279E+03 -0.20762288668E+03 -0.19610734493E+04  0.21798580034E+04  0.89780493546E+03 0.  0.
         23    2    4    4    0    0  0.14316875568E+03  0.34047204000E+03 -0.65200395837E+03  0.75469930633E+03  0.89684885141E+02 0.  0.
         23    2    4    4    0    0  0.95181567114E+02 -0.54809492668E+03 -0.13090694909E+04  0.14251586971E+04  0.89144828643E+02 0.  0.
          2    1    3    3  502    0 -0.70508624761E+02  0.19792465162E+02  0.42935711845E+01  0.73359679637E+02  0.00000000000E+00 0. -1.
         -1    1    3    3    0  502 -0.16784169803E+03  0.18783042152E+03 -0.25980374051E+02  0.25323128298E+03  0.00000000000E+00 0.  1.
         13    1    5    5    0    0  0.47470748081E+02  0.20792433045E+03 -0.41769471342E+03  0.46899346769E+03  0.00000000000E+00 0.  1.
        -13    1    5    5    0    0  0.95698007595E+02  0.13254770955E+03 -0.23430924495E+03  0.28570583864E+03  0.00000000000E+00 0. -1.
          4    1    6    6  503    0 -0.79817565611E+01 -0.57234139190E+01 -0.12199386777E+02  0.15661766900E+02  0.00000000000E+00 0. -1.
         -4    1    6    6    0  503  0.10316332368E+03 -0.54237151276E+03 -0.12968701041E+04  0.14094969302E+04  0.00000000000E+00 0.  1.
<mgrwt>
<rscale>  0 0.15332802E+04</rscale>
<asrwt>0</asrwt>
<pdfrwt beam="1">  1        2 0.34532378E+00 0.15332802E+04</pdfrwt>
<pdfrwt beam="2">  1       -1 0.40283747E-01 0.15332802E+04</pdfrwt>
<totfact> 0.32199187E+01</totfact>
</mgrwt>
</event>
<event>
12    7  0.1606355E-007  0.1456939E+04  0.7818608E-02  0.8913604E-01
         -1   -1    0    0    0  501 -0.00000000000E+00  0.00000000000E+00  0.30300711686E+03  0.30300711686E+03  0.00000000000E+00 0.  1.
          2   -1    0    0  501    0  0.00000000000E+00 -0.00000000000E+00 -0.17513366347E+04  0.17513366347E+04  0.00000000000E+00 0. -1.
         24    2    1    2    0    0 -0.38237769169E+02 -0.42425229389E+03 -0.60790269396E+03  0.74653368253E+03  0.79465199726E+02 0.  0.
        254    2    1    2    0    0  0.38237769169E+02  0.42425229389E+03 -0.84042682389E+03  0.13078100690E+04  0.90697177160E+03 0.  0.
         23    2    4    4    0    0 -0.25142299703E+03 -0.15843636529E+03 -0.43713500905E+03  0.53651129924E+03  0.91879011714E+02 0.  0.
         23    2    4    4    0    0  0.28966076620E+03  0.58268865918E+03 -0.40329181484E+03  0.77129876979E+03  0.93957816850E+02 0.  0.
          2    1    3    3  502    0 -0.43924026889E+02 -0.37274805544E+03 -0.56942077719E+03  0.68199006918E+03  0.00000000000E+00 0. -1.
         -1    1    3    3    0  502  0.56862577206E+01 -0.51504238459E+02 -0.38481916773E+02  0.64543613353E+02  0.00000000000E+00 0.  1.
         13    1    5    5    0    0 -0.19511778833E+02  0.11849194808E+02 -0.40843536863E+02  0.46790035631E+02  0.00000000000E+00 0.  1.
        -13    1    5    5    0    0 -0.23191121820E+03 -0.17028556009E+03 -0.39629147219E+03  0.48972126361E+03  0.00000000000E+00 0. -1.
          2    1    6    6  503    0  0.20252974949E+03  0.43518169575E+03 -0.24899865300E+03  0.54074183946E+03  0.00000000000E+00 0. -1.
         -2    1    6    6    0  503  0.87131016712E+02  0.14750696343E+03 -0.15429316184E+03  0.23055693033E+03  0.00000000000E+00 0.  1.
<mgrwt>
<rscale>  0 0.14569385E+04</rscale>
<asrwt>0</asrwt>
<pdfrwt beam="1">  1        2 0.26943640E+00 0.14569385E+04</pdfrwt>
<pdfrwt beam="2">  1       -1 0.46616480E-01 0.14569385E+04</pdfrwt>
<totfact> 0.46478309E+01</totfact>
</mgrwt>
</event>
<event>
12    7  0.1606355E-007  0.2173407E+04  0.7818608E-02  0.8529579E-01
         -1   -1    0    0    0  501 -0.00000000000E+00  0.00000000000E+00  0.50723760172E+03  0.50723760172E+03  0.00000000000E+00 0.  1.
          2   -1    0    0  501    0  0.00000000000E+00 -0.00000000000E+00 -0.23281485025E+04  0.23281485025E+04  0.00000000000E+00 0. -1.
         24    2    1    2    0    0  0.67391859417E+03  0.40410636726E+03 -0.18738042240E+03  0.81173427062E+03  0.79579367747E+02 0.  0.
        254    2    1    2    0    0 -0.67391859417E+03 -0.40410636726E+03 -0.16335304784E+04  0.20236518336E+04  0.89959807260E+03 0.  0.
         23    2    4    4    0    0 -0.64737132022E+03 -0.45921236008E+03 -0.63762664249E+03  0.10217240418E+04  0.85945707256E+02 0.  0.
         23    2    4    4    0    0 -0.26547273956E+02  0.55105992817E+02 -0.99590383591E+03  0.10019277918E+04  0.91068223555E+02 0.  0.
          2    1    3    3  502    0  0.61312414048E+03  0.38783522872E+03 -0.15906764119E+03  0.74272463992E+03  0.00000000000E+00 0. -1.
         -1    1    3    3    0  502  0.60794453692E+02  0.16271138539E+02 -0.28312781212E+02  0.69009630698E+02  0.00000000000E+00 0.  1.
         13    1    5    5    0    0 -0.44607857055E+03 -0.33203143455E+03 -0.49287361056E+03  0.74307157166E+03  0.00000000000E+00 0. -1.
        -13    1    5    5    0    0 -0.20129274967E+03 -0.12718092553E+03 -0.14475303193E+03  0.27865247019E+03  0.00000000000E+00 0.  1.
          1    1    6    6  503    0 -0.89842891279E+01  0.77086173630E+02 -0.59535010549E+03  0.60038716152E+03  0.00000000000E+00 0. -1.
         -1    1    6    6    0  503 -0.17562984828E+02 -0.21980180813E+02 -0.40055373042E+03  0.40154063025E+03  0.00000000000E+00 0.  1.
<mgrwt>
<rscale>  0 0.21734070E+04</rscale>
<asrwt>0</asrwt>
<pdfrwt beam="1">  1        2 0.35817669E+00 0.21734070E+04</pdfrwt>
<pdfrwt beam="2">  1       -1 0.78036556E-01 0.21734070E+04</pdfrwt>
<totfact> 0.74911756E+00</totfact>
</mgrwt>
</event>
<event>
12    7  0.1606355E-007  0.1015431E+04  0.7818608E-02  0.9291781E-01
          4   -1    0    0  501    0  0.00000000000E+00  0.00000000000E+00  0.39229866003E+03  0.39229866003E+03  0.00000000000E+00 0. -1.
         -3   -1    0    0    0  501 -0.00000000000E+00 -0.00000000000E+00 -0.65708845432E+03  0.65708845432E+03  0.00000000000E+00 0.  1.
         24    2    1    2    0    0  0.14769423059E+02  0.58016387153E+02 -0.10135857244E+03  0.14191169851E+03  0.79254860619E+02 0.  0.
        254    2    1    2    0    0 -0.14769423059E+02 -0.58016387153E+02 -0.16343122185E+03  0.90747541584E+03  0.89062777244E+03 0.  0.
         23    2    4    4    0    0  0.13722623282E+03  0.35902711526E+03  0.65007077020E+02  0.39993708859E+03  0.89399364107E+02 0.  0.
         23    2    4    4    0    0 -0.15199565588E+03 -0.41704350241E+03 -0.22843829887E+03  0.50753832725E+03  0.91559461158E+02 0.  0.
          2    1    3    3  502    0  0.86536538270E+01  0.73537271008E+02 -0.53839776355E+02  0.91549644837E+02  0.00000000000E+00 0. -1.
         -1    1    3    3    0  502  0.61157692325E+01 -0.15520883855E+02 -0.47518796086E+02  0.50362053676E+02  0.00000000000E+00 0.  1.
         13    1    5    5    0    0  0.12178543571E+03  0.20739476747E+03  0.57767958117E+02  0.24734877988E+03  0.00000000000E+00 0.  1.
        -13    1    5    5    0    0  0.15440797109E+02  0.15163234779E+03  0.72391189029E+01  0.15258830871E+03  0.00000000000E+00 0. -1.
          3    1    6    6  503    0  0.53273517844E+01 -0.58276756143E+02 -0.50410367637E+02  0.77238372256E+02  0.00000000000E+00 0. -1.
         -3    1    6    6    0  503 -0.15732300766E+03 -0.35876674627E+03 -0.17802793123E+03  0.43029995499E+03  0.00000000000E+00 0.  1.
<mgrwt>
<rscale>  0 0.10154308E+04</rscale>
<asrwt>0</asrwt>
<pdfrwt beam="1">  1        4 0.60353641E-01 0.10154308E+04</pdfrwt>
<pdfrwt beam="2">  1       -3 0.10109053E+00 0.10154308E+04</pdfrwt>
<totfact> 0.50213542E+00</totfact>
</mgrwt>
</event>
<event>
12    7  0.1606355E-007  0.1020544E+04  0.7818608E-02  0.9286295E-01
         -1   -1    0    0    0  501 -0.00000000000E+00  0.00000000000E+00  0.27663125948E+03  0.27663125948E+03  0.00000000000E+00 0.  1.
          2   -1    0    0  501    0  0.00000000000E+00 -0.00000000000E+00 -0.94124438620E+03  0.94124438620E+03  0.00000000000E+00 0. -1.
         24    2    1    2    0    0 -0.65373037776E+02 -0.57908472307E+02 -0.35537324432E+02  0.12204138199E+03  0.77486594045E+02 0.  0.
        254    2    1    2    0    0  0.65373037776E+02  0.57908472307E+02 -0.62907580229E+03  0.10958342637E+04  0.89302258831E+03 0.  0.
         23    2    4    4    0    0  0.40990321311E+03 -0.68891366473E+01 -0.60194951712E+03  0.73394101567E+03  0.90874028202E+02 0.  0.
         23    2    4    4    0    0 -0.34453017533E+03  0.64797608955E+02 -0.27126285168E+02  0.36189324802E+03  0.85621935153E+02 0.  0.
          2    1    3    3  502    0 -0.14803591655E+02 -0.34651252996E+02 -0.51797871071E+02  0.64053689258E+02  0.00000000000E+00 0. -1.
         -1    1    3    3    0  502 -0.50569446121E+02 -0.23257219311E+02  0.16260546639E+02  0.57987692729E+02  0.00000000000E+00 0.  1.
         13    1    5    5    0    0  0.38705728743E+01 -0.63748666390E+01  0.45778252707E+00  0.74719357520E+01  0.00000000000E+00 0. -1.
        -13    1    5    5    0    0  0.40603264023E+03 -0.51427000832E+00 -0.60240729965E+03  0.72646907992E+03  0.00000000000E+00 0.  1.
          2    1    6    6  503    0 -0.61333548069E+02 -0.19185937122E+02  0.65283796791E+01  0.64595077547E+02  0.00000000000E+00 0. -1.
         -2    1    6    6    0  503 -0.28319662726E+03  0.83983546076E+02 -0.33654664847E+02  0.29729817048E+03  0.00000000000E+00 0.  1.
<mgrwt>
<rscale>  0 0.10205442E+04</rscale>
<asrwt>0</asrwt>
<pdfrwt beam="1">  1        2 0.14480683E+00 0.10205442E+04</pdfrwt>
<pdfrwt beam="2">  1       -1 0.42558655E-01 0.10205442E+04</pdfrwt>
<totfact> 0.16990545E+02</totfact>
</mgrwt>
</event>
<event>
12    7  0.1606355E-007  0.2073701E+04  0.7818608E-02  0.8572917E-01
          2   -1    0    0  501    0  0.00000000000E+00  0.00000000000E+00  0.13633344338E+04  0.13633344338E+04  0.00000000000E+00 0. -1.
         -1   -1    0    0    0  501 -0.00000000000E+00 -0.00000000000E+00 -0.78855142525E+03  0.78855142525E+03  0.00000000000E+00 0.  1.
         24    2    1    2    0    0 -0.42612392611E+01  0.50134302820E+03  0.93394182150E+03  0.10628101338E+04  0.77169064326E+02 0.  0.
        254    2    1    2    0    0  0.42612392611E+01 -0.50134302820E+03 -0.35915881290E+03  0.10890757253E+04  0.89762346919E+03 0.  0.
         23    2    4    4    0    0 -0.96067066258E+02 -0.69685177317E+03 -0.66880999015E+02  0.71250441465E+03  0.91423180175E+02 0.  0.
         23    2    4    4    0    0  0.10032830552E+03  0.19550874497E+03 -0.29227781388E+03  0.37657131064E+03  0.89945501625E+02 0.  0.
          4    1    3    3  502    0  0.81888975820E+01  0.31412956215E+03  0.50738322370E+03  0.59680999954E+03  0.00000000000E+00 0. -1.
         -3    1    3    3    0  502 -0.12450136843E+02  0.18721346605E+03  0.42655859780E+03  0.46600013427E+03  0.00000000000E+00 0.  1.
         13    1    5    5    0    0 -0.37602448600E+02 -0.22608564243E+03 -0.64580769461E+02  0.23811622716E+03  0.00000000000E+00 0.  1.
        -13    1    5    5    0    0 -0.58464617659E+02 -0.47076613074E+03 -0.23002295547E+01  0.47438818749E+03  0.00000000000E+00 0. -1.
          3    1    6    6  503    0  0.56381094893E+02  0.13570864285E+03 -0.25305879739E+03  0.29263359093E+03  0.00000000000E+00 0. -1.
         -3    1    6    6    0  503  0.43947210627E+02  0.59800102121E+02 -0.39219016494E+02  0.83937719711E+02  0.00000000000E+00 0.  1.
<mgrwt>
<rscale>  0 0.20737013E+04</rscale>
<asrwt>0</asrwt>
<pdfrwt beam="1">  1        2 0.20974376E+00 0.20737013E+04</pdfrwt>
<pdfrwt beam="2">  1       -1 0.12131560E+00 0.20737013E+04</pdfrwt>
<totfact> 0.96365045E+00</totfact>
</mgrwt>
</event>
<event>
12    7  0.1606355E-007  0.1342289E+04  0.7818608E-02  0.8996686E-01
         -1   -1    0    0    0  501 -0.00000000000E+00  0.00000000000E+00  0.61705076561E+03  0.61705076561E+03  0.00000000000E+00 0.  1.
          2   -1    0    0  501    0  0.00000000000E+00 -0.00000000000E+00 -0.72998002049E+03  0.72998002049E+03  0.00000000000E+00 0. -1.
         24    2    1    2    0    0 -0.22117769107E+03 -0.49453989755E+02  0.24949854659E+03  0.34618990039E+03  0.78947161161E+02 0.  0.
        254    2    1    2    0    0  0.22117769107E+03  0.49453989755E+02 -0.36242780147E+03  0.10008408857E+04  0.90496591046E+03 0.  0.
         23    2    4    4    0    0 -0.30435317278E+03 -0.12239470761E+03 -0.14415516391E+02  0.34096458637E+03  0.91857083624E+02 0.  0.
         23    2    4    4    0    0  0.52553086385E+03  0.17184869736E+03 -0.34801228508E+03  0.65987629934E+03  0.92787478796E+02 0.  0.
          4    1    3    3  502    0 -0.15231279978E+01 -0.98051798756E+01 -0.17928995791E+01  0.10083449816E+02  0.00000000000E+00 0. -1.
         -3    1    3    3    0  502 -0.21965456307E+03 -0.39648809880E+02  0.25129144617E+03  0.33610645058E+03  0.00000000000E+00 0.  1.
         13    1    5    5    0    0 -0.30680212757E+03 -0.12870831907E+03 -0.18206178283E+02  0.33320390425E+03  0.00000000000E+00 0.  1.
        -13    1    5    5    0    0  0.24489547916E+01  0.63136114659E+01  0.37906618914E+01  0.77606821148E+01  0.00000000000E+00 0. -1.
          1    1    6    6  503    0  0.31319740939E+02  0.15752377964E+02 -0.52918826159E+02  0.63478072955E+02  0.00000000000E+00 0. -1.
         -1    1    6    6    0  503  0.49421112291E+03  0.15609631940E+03 -0.29509345892E+03  0.59639822639E+03  0.00000000000E+00 0.  1.
<mgrwt>
<rscale>  0 0.13422887E+04</rscale>
<asrwt>0</asrwt>
<pdfrwt beam="1">  1        2 0.11230462E+00 0.13422887E+04</pdfrwt>
<pdfrwt beam="2">  1       -1 0.94930887E-01 0.13422887E+04</pdfrwt>
<totfact> 0.46510982E+01</totfact>
</mgrwt>
</event>
<event>
12    7  0.1606355E-007  0.1571400E+04  0.7818608E-02  0.8838313E-01
          2   -1    0    0  501    0  0.00000000000E+00  0.00000000000E+00  0.50857209070E+03  0.50857209070E+03  0.00000000000E+00 0. -1.
         -1   -1    0    0    0  501 -0.00000000000E+00 -0.00000000000E+00 -0.12138390805E+04  0.12138390805E+04  0.00000000000E+00 0.  1.
         24    2    1    2    0    0 -0.78469833686E+02 -0.70397138246E+02  0.33010437463E+03  0.35554267248E+03  0.79551379202E+02 0.  0.
        254    2    1    2    0    0  0.78469833686E+02  0.70397138246E+02 -0.10353713644E+04  0.13668684987E+04  0.88612773267E+03 0.  0.
         23    2    4    4    0    0 -0.11392694162E+03 -0.14340036569E+03  0.76139022478E+02  0.21576844801E+03  0.84946215374E+02 0.  0.
         23    2    4    4    0    0  0.19239677530E+03  0.21379750393E+03 -0.11115103869E+04  0.11511000507E+04  0.82765298848E+02 0.  0.
          2    1    3    3  502    0 -0.82611787656E+02 -0.36620058585E+02  0.28537164729E+03  0.29933712304E+03  0.00000000000E+00 0. -1.
         -3    1    3    3    0  502  0.41419539691E+01 -0.33777079661E+02  0.44732727340E+02  0.56205549445E+02  0.00000000000E+00 0.  1.
         13    1    5    5    0    0 -0.84824656713E+02 -0.40601612688E+02  0.24920284272E+02  0.97286864003E+02  0.00000000000E+00 0. -1.
        -13    1    5    5    0    0 -0.29102284903E+02 -0.10279875300E+03  0.51218738206E+02  0.11848158400E+03  0.00000000000E+00 0.  1.
          4    1    6    6  503    0  0.19235195457E+03  0.20944457206E+03 -0.10038289619E+04  0.10433306705E+04  0.00000000000E+00 0. -1.
         -4    1    6    6    0  503  0.44820735248E-01  0.43529318686E+01 -0.10768142498E+03  0.10776938021E+03  0.00000000000E+00 0.  1.
<mgrwt>
<rscale>  0 0.15714002E+04</rscale>
<asrwt>0</asrwt>
<pdfrwt beam="1">  1        2 0.78241860E-01 0.15714002E+04</pdfrwt>
<pdfrwt beam="2">  1       -1 0.18674447E+00 0.15714002E+04</pdfrwt>
<totfact> 0.12352758E+01</totfact>
</mgrwt>
</event>
<event>
12    7  0.1606355E-007  0.1938602E+04  0.7818608E-02  0.8635877E-01
         -1   -1    0    0    0  501 -0.00000000000E+00  0.00000000000E+00  0.14817229983E+04  0.14817229983E+04  0.00000000000E+00 0.  1.
          2   -1    0    0  501    0  0.00000000000E+00 -0.00000000000E+00 -0.63408899124E+03  0.63408899124E+03  0.00000000000E+00 0. -1.
         24    2    1    2    0    0  0.27025758505E+03 -0.64903243300E+03  0.21975637094E+02  0.70798652593E+03  0.80496775782E+02 0.  0.
        254    2    1    2    0    0 -0.27025758505E+03  0.64903243300E+03  0.82565837000E+03  0.14078254637E+04  0.89776307052E+03 0.  0.
         23    2    4    4    0    0 -0.47609664370E+03  0.75070326709E+03  0.63827753006E+03  0.10980235611E+04  0.89633286587E+02 0.  0.
         23    2    4    4    0    0  0.20583905865E+03 -0.10167083409E+03  0.18738083994E+03  0.30980190252E+03  0.90326978571E+02 0.  0.
          2    1    3    3  502    0  0.37719837049E+02 -0.57778426082E+02 -0.18256825936E+02  0.71375376152E+02  0.00000000000E+00 0. -1.
         -1    1    3    3    0  502  0.23253774800E+03 -0.59125400692E+03  0.40232463031E+02  0.63661114978E+03  0.00000000000E+00 0.  1.
         13    1    5    5    0    0 -0.19585778093E+03  0.38979186191E+03  0.29789163199E+03  0.52823989850E+03  0.00000000000E+00 0.  1.
        -13    1    5    5    0    0 -0.28023886277E+03  0.36091140518E+03  0.34038589808E+03  0.56978366263E+03  0.00000000000E+00 0. -1.
          2    1    6    6  503    0  0.40505235067E+02  0.13140490333E+02  0.16176928655E+02  0.45552602283E+02  0.00000000000E+00 0. -1.
         -2    1    6    6    0  503  0.16533382358E+03 -0.11481132442E+03  0.17120391129E+03  0.26424930023E+03  0.00000000000E+00 0.  1.
<mgrwt>
<rscale>  0 0.19386018E+04</rscale>
<asrwt>0</asrwt>
<pdfrwt beam="1">  1        2 0.97552153E-01 0.19386018E+04</pdfrwt>
<pdfrwt beam="2">  1       -1 0.22795738E+00 0.19386018E+04</pdfrwt>
<totfact> 0.48130152E+00</totfact>
</mgrwt>
</event>
<event>
12    7  0.1606355E-007  0.1721555E+04  0.7818608E-02  0.8749166E-01
         -1   -1    0    0    0  501 -0.00000000000E+00  0.00000000000E+00  0.26704731191E+03  0.26704731191E+03  0.00000000000E+00 0.  1.
          2   -1    0    0  501    0  0.00000000000E+00 -0.00000000000E+00 -0.27745558179E+04  0.27745558179E+04  0.00000000000E+00 0. -1.
         24    2    1    2    0    0  0.31181971493E+03  0.30962838205E+03 -0.16315365454E+04  0.16915608604E+04  0.79783305959E+02 0.  0.
        254    2    1    2    0    0 -0.31181971493E+03 -0.30962838205E+03 -0.87597196053E+03  0.13500422693E+04  0.92853970500E+03 0.  0.
         23    2    4    4    0    0 -0.40934018549E+03 -0.58582789340E+03 -0.63547810566E+03  0.96067828835E+03  0.91195629321E+02 0.  0.
         23    2    4    4    0    0  0.97520470556E+02  0.27619951135E+03 -0.24049385488E+03  0.38936398099E+03  0.89278234797E+02 0.  0.
          4    1    3    3  502    0  0.30197204781E+03  0.26800248259E+03 -0.14647480105E+04  0.15193746024E+04  0.00000000000E+00 0. -1.
         -3    1    3    3    0  502  0.98476671217E+01  0.41625899461E+02 -0.16678853497E+03  0.17218625803E+03  0.00000000000E+00 0.  1.
         13    1    5    5    0    0 -0.24485658550E+03 -0.28894084377E+03 -0.37350511116E+03  0.53192821576E+03  0.00000000000E+00 0. -1.
        -13    1    5    5    0    0 -0.16448359999E+03 -0.29688704963E+03 -0.26197299450E+03  0.42875007260E+03  0.00000000000E+00 0.  1.
          4    1    6    6  503    0  0.73964802332E+02  0.27034441866E+03 -0.23134505185E+03  0.36342458599E+03  0.00000000000E+00 0.  1.
         -4    1    6    6    0  503  0.23555668224E+02  0.58550926846E+01 -0.91488030234E+01  0.25939394993E+02  0.00000000000E+00 0. -1.
<mgrwt>
<rscale>  0 0.17215547E+04</rscale>
<asrwt>0</asrwt>
<pdfrwt beam="1">  1        2 0.42685474E+00 0.17215547E+04</pdfrwt>
<pdfrwt beam="2">  1       -1 0.41084202E-01 0.17215547E+04</pdfrwt>
<totfact> 0.15071934E+01</totfact>
</mgrwt>
</event>
<event>
12    7  0.1606355E-007  0.1549961E+04  0.7818608E-02  0.8851893E-01
         -1   -1    0    0    0  501 -0.00000000000E+00  0.00000000000E+00  0.18953992410E+04  0.18953992410E+04  0.00000000000E+00 0.  1.
          2   -1    0    0  501    0  0.00000000000E+00 -0.00000000000E+00 -0.31686985270E+03  0.31686985270E+03  0.00000000000E+00 0. -1.
         24    2    1    2    0    0  0.10244927441E+03 -0.14689858878E+03  0.12155266956E+04  0.12304189415E+04  0.65958885952E+02 0.  0.
        254    2    1    2    0    0 -0.10244927441E+03  0.14689858878E+03  0.36300269272E+03  0.98185015223E+03  0.89452988620E+03 0.  0.
         23    2    4    4    0    0  0.10732444465E+03  0.43962420340E+03  0.27479460379E+01  0.46206964768E+03  0.93342549070E+02 0.  0.
         23    2    4    4    0    0 -0.20977371906E+03 -0.29272561462E+03  0.36025474668E+03  0.51978050455E+03  0.10341659315E+03 0.  0.
          4    1    3    3  502    0  0.32027251420E+02 -0.13140760580E+02  0.35808016761E+03  0.35974967806E+03  0.00000000000E+00 0. -1.
         -3    1    3    3    0  502  0.70422022991E+02 -0.13375782820E+03  0.85744652799E+03  0.87066926344E+03  0.00000000000E+00 0.  1.
         13    1    5    5    0    0  0.12339018721E+03  0.35272915650E+03  0.13462501419E+01  0.37369079268E+03  0.00000000000E+00 0. -1.
        -13    1    5    5    0    0 -0.16065742562E+02  0.86895046896E+02  0.14016958959E+01  0.88378854997E+02  0.00000000000E+00 0.  1.
          2    1    6    6  503    0 -0.22003740000E+03 -0.28063630467E+03  0.33125028115E+03  0.48672368101E+03  0.00000000000E+00 0. -1.
         -2    1    6    6    0  503  0.10263680939E+02 -0.12089309954E+02  0.29004465532E+02  0.33056823537E+02  0.00000000000E+00 0.  1.
<mgrwt>
<rscale>  0 0.15499611E+04</rscale>
<asrwt>0</asrwt>
<pdfrwt beam="1">  1        2 0.48749209E-01 0.15499611E+04</pdfrwt>
<pdfrwt beam="2">  1       -1 0.29159988E+00 0.15499611E+04</pdfrwt>
<totfact> 0.42686859E+00</totfact>
</mgrwt>
</event>
<event>
12    7  0.1606355E-007  0.2539378E+04  0.7818608E-02  0.8389090E-01
          2   -1    0    0  501    0  0.00000000000E+00  0.00000000000E+00  0.10407237854E+04  0.10407237854E+04  0.00000000000E+00 0. -1.
         -1   -1    0    0    0  501 -0.00000000000E+00 -0.00000000000E+00 -0.15490282629E+04  0.15490282629E+04  0.00000000000E+00 0.  1.
         24    2    1    2    0    0  0.54198796868E+03  0.33647940073E+03  0.70366063890E+03  0.95301470747E+03  0.78290437588E+02 0.  0.
        254    2    1    2    0    0 -0.54198796868E+03 -0.33647940073E+03 -0.12119651164E+04  0.16367373408E+04  0.89614749570E+03 0.  0.
         23    2    4    4    0    0 -0.34785700076E+03 -0.48496179777E+02 -0.12235027831E+04  0.12762276915E+04  0.91878658905E+02 0.  0.
         23    2    4    4    0    0 -0.19413096792E+03 -0.28798322096E+03  0.11537666702E+02  0.36050964925E+03  0.95983963194E+02 0.  0.
          2    1    3    3  502    0  0.27649908087E+03  0.20951014553E+03  0.34781971115E+03  0.49124820027E+03  0.00000000000E+00 0. -1.
         -1    1    3    3    0  502  0.26548888781E+03  0.12696925520E+03  0.35584092774E+03  0.46176650720E+03  0.00000000000E+00 0.  1.
         13    1    5    5    0    0 -0.27031915948E+02  0.17222357212E+02 -0.67341273074E+02  0.74580031690E+02  0.00000000000E+00 0.  1.
        -13    1    5    5    0    0 -0.32082508481E+03 -0.65718536989E+02 -0.11561615100E+04  0.12016476599E+04  0.00000000000E+00 0. -1.
          3    1    6    6  503    0 -0.15018086337E+03 -0.27050051593E+03  0.27439071212E+02  0.31060863392E+03  0.00000000000E+00 0. -1.
         -3    1    6    6    0  503 -0.43950104548E+02 -0.17482705030E+02 -0.15901404511E+02  0.49901015324E+02  0.00000000000E+00 0.  1.
<mgrwt>
<rscale>  0 0.25393783E+04</rscale>
<asrwt>0</asrwt>
<pdfrwt beam="1">  1        2 0.16011135E+00 0.25393783E+04</pdfrwt>
<pdfrwt beam="2">  1       -1 0.23831204E+00 0.25393783E+04</pdfrwt>
<totfact> 0.19998179E+00</totfact>
</mgrwt>
</event>
<event>
12    7  0.1841157E-007  0.2007170E+04  0.7818608E-02  0.8603276E-01
          4   -1    0    0  501    0  0.00000000000E+00  0.00000000000E+00  0.13493266592E+04  0.13493266592E+04  0.00000000000E+00 0. -1.
         -3   -1    0    0    0  501 -0.00000000000E+00 -0.00000000000E+00 -0.74643346226E+03  0.74643346226E+03  0.00000000000E+00 0.  1.
         24    2    1    2    0    0 -0.52461444083E+03  0.71034310567E+02  0.86822311018E+03  0.10198842114E+04  0.78014426902E+02 0.  0.
        254    2    1    2    0    0  0.52461444083E+03 -0.71034310567E+02 -0.26532991320E+03  0.10758759101E+04  0.89824430211E+03 0.  0.
         23    2    4    4    0    0 -0.17906292736E+03  0.17877467847E+03 -0.16866478911E+03  0.31741442903E+03  0.90995555156E+02 0.  0.
         23    2    4    4    0    0  0.70367736819E+03 -0.24980898903E+03 -0.96665124092E+02  0.75846148106E+03  0.91396403255E+02 0.  0.
          2    1    3    3  502    0 -0.45605707982E+03  0.44491037554E+02  0.70444969997E+03  0.84036711756E+03  0.00000000000E+00 0. -1.
         -1    1    3    3    0  502 -0.68557361009E+02  0.26543273013E+02  0.16377341021E+03  0.17951709385E+03  0.00000000000E+00 0.  1.
         13    1    5    5    0    0 -0.28165657908E+02  0.15028219895E+02 -0.63680303860E+02  0.71234351112E+02  0.00000000000E+00 0.  1.
        -13    1    5    5    0    0 -0.15089726945E+03  0.16374645857E+03 -0.10498448525E+03  0.24618007792E+03  0.00000000000E+00 0. -1.
          2    1    6    6  503    0  0.60344929113E+03 -0.24369970329E+03 -0.97377816772E+02  0.65804485527E+03  0.00000000000E+00 0. -1.
         -2    1    6    6    0  503  0.10022807706E+03 -0.61092857401E+01  0.71269267967E+00  0.10041662579E+03  0.00000000000E+00 0.  1.
<mgrwt>
<rscale>  0 0.20071697E+04</rscale>
<asrwt>0</asrwt>
<pdfrwt beam="1">  1        4 0.20758872E+00 0.20071697E+04</pdfrwt>
<pdfrwt beam="2">  1       -3 0.11483592E+00 0.20071697E+04</pdfrwt>
<totfact> 0.15638508E-01</totfact>
</mgrwt>
</event>
<event>
12    7  0.1606355E-007  0.1342520E+04  0.7818608E-02  0.8996510E-01
         -1   -1    0    0    0  501 -0.00000000000E+00  0.00000000000E+00  0.27391292872E+03  0.27391292872E+03  0.00000000000E+00 0.  1.
          2   -1    0    0  501    0  0.00000000000E+00 -0.00000000000E+00 -0.16450108486E+04  0.16450108486E+04  0.00000000000E+00 0. -1.
         24    2    1    2    0    0  0.21392427930E+03  0.21344223697E+02  0.41514607561E+02  0.23274119025E+03  0.78903902538E+02 0.  0.
        254    2    1    2    0    0 -0.21392427930E+03 -0.21344223697E+02 -0.14126125275E+04  0.16861825871E+04  0.89527559508E+03 0.  0.
         23    2    4    4    0    0 -0.31952663537E+03 -0.12389375037E+03 -0.10939513892E+03  0.37151491917E+03  0.92785271756E+02 0.  0.
         23    2    4    4    0    0  0.10560235607E+03  0.10254952667E+03 -0.13032173886E+04  0.13146676679E+04  0.91144129024E+02 0.  0.
          4    1    3    3  502    0  0.10237820103E+03 -0.25361039550E+02  0.19039995036E+01  0.10548982694E+03  0.00000000000E+00 0. -1.
         -3    1    3    3    0  502  0.11154607827E+03  0.46705263248E+02  0.39610608058E+02  0.12725136331E+03  0.00000000000E+00 0.  1.
         13    1    5    5    0    0 -0.23575769786E+03 -0.13281225913E+03 -0.88800614316E+02  0.28479174388E+03  0.00000000000E+00 0. -1.
        -13    1    5    5    0    0 -0.83768937509E+02  0.89185087578E+01 -0.20594524600E+02  0.86723175296E+02  0.00000000000E+00 0.  1.
          3    1    6    6  503    0  0.25890319929E+02  0.88300917234E+02 -0.66670145038E+03  0.67302168211E+03  0.00000000000E+00 0. -1.
         -3    1    6    6    0  503  0.79712036140E+02  0.14248609439E+02 -0.63651593818E+03  0.64164598584E+03  0.00000000000E+00 0.  1.
<mgrwt>
<rscale>  0 0.13425196E+04</rscale>
<asrwt>0</asrwt>
<pdfrwt beam="1">  1        2 0.25307860E+00 0.13425196E+04</pdfrwt>
<pdfrwt beam="2">  1       -1 0.42140449E-01 0.13425196E+04</pdfrwt>
<totfact> 0.64831823E+01</totfact>
</mgrwt>
</event>
<event>
12    7  0.1606355E-007  0.1461360E+04  0.7818608E-02  0.8910562E-01
          2   -1    0    0  501    0  0.00000000000E+00  0.00000000000E+00  0.41293641119E+03  0.41293641119E+03  0.00000000000E+00 0. -1.
         -1   -1    0    0    0  501 -0.00000000000E+00 -0.00000000000E+00 -0.12929193310E+04  0.12929193310E+04  0.00000000000E+00 0.  1.
         24    2    1    2    0    0  0.18662904512E+03  0.37186824546E+03 -0.47166775437E+03  0.63309955958E+03  0.72306219351E+02 0.  0.
        254    2    1    2    0    0 -0.18662904512E+03 -0.37186824546E+03 -0.40831516548E+03  0.10727561827E+04  0.90053770637E+03 0.  0.
         23    2    4    4    0    0  0.16532598277E+03  0.19686819548E+03  0.20175245172E+02  0.27310414589E+03  0.89939240675E+02 0.  0.
         23    2    4    4    0    0 -0.35195502789E+03 -0.56873644094E+03 -0.42849041065E+03  0.79965203676E+03  0.92227257183E+02 0.  0.
          2    1    3    3  502    0  0.17432791487E+02  0.81434239624E+01 -0.36379930882E+02  0.41154792477E+02  0.00000000000E+00 0. -1.
         -1    1    3    3    0  502  0.16919625364E+03  0.36372482150E+03 -0.43528782349E+03  0.59194476710E+03  0.00000000000E+00 0.  1.
         13    1    5    5    0    0  0.13663565587E+03  0.18145292067E+03 -0.11815698091E+02  0.22745125983E+03  0.00000000000E+00 0.  1.
        -13    1    5    5    0    0  0.28690326892E+02  0.15415274811E+02  0.31990943263E+02  0.45652886059E+02  0.00000000000E+00 0. -1.
          3    1    6    6  503    0 -0.72424854268E+02 -0.15456542073E+03 -0.69066966267E+02  0.18413602209E+03  0.00000000000E+00 0. -1.
         -3    1    6    6    0  503 -0.27953017362E+03 -0.41417102021E+03 -0.35942344438E+03  0.61551601467E+03  0.00000000000E+00 0.  1.
<mgrwt>
<rscale>  0 0.14613603E+04</rscale>
<asrwt>0</asrwt>
<pdfrwt beam="1">  1        2 0.63528679E-01 0.14613603E+04</pdfrwt>
<pdfrwt beam="2">  1       -1 0.19891066E+00 0.14613603E+04</pdfrwt>
<totfact> 0.13019232E+01</totfact>
</mgrwt>
</event>
<event>
12    7  0.1606355E-007  0.3129855E+04  0.7818608E-02  0.8207592E-01
         -1   -1    0    0    0  501 -0.00000000000E+00  0.00000000000E+00  0.11729712412E+04  0.11729712412E+04  0.00000000000E+00 0.  1.
          2   -1    0    0  501    0  0.00000000000E+00 -0.00000000000E+00 -0.20878579766E+04  0.20878579766E+04  0.00000000000E+00 0. -1.
         24    2    1    2    0    0 -0.21798140025E+02 -0.12052209573E+04 -0.12289983905E+04  0.17229020675E+04  0.70155366034E+02 0.  0.
        254    2    1    2    0    0  0.21798140025E+02  0.12052209573E+04  0.31411165507E+03  0.15379271503E+04  0.90195403041E+03 0.  0.
         23    2    4    4    0    0 -0.36177742935E+03  0.97309972707E+03  0.15531523527E+03  0.10533488193E+04  0.87263541673E+02 0.  0.
         23    2    4    4    0    0  0.38357556938E+03  0.23212123023E+03  0.15879641981E+03  0.48457833096E+03  0.92678870017E+02 0.  0.
          2    1    3    3  502    0 -0.52875763541E+01 -0.54689453840E+03 -0.50838847185E+03  0.74671308607E+03  0.00000000000E+00 0. -1.
         -1    1    3    3    0  502 -0.16510563671E+02 -0.65832641890E+03 -0.72060991864E+03  0.97618898138E+03  0.00000000000E+00 0.  1.
         13    1    5    5    0    0 -0.34866292267E+03  0.92078015459E+03  0.16567762995E+03  0.99842426043E+03  0.00000000000E+00 0.  1.
        -13    1    5    5    0    0 -0.13114506677E+02  0.52319572475E+02 -0.10362394678E+02  0.54924558922E+02  0.00000000000E+00 0. -1.
          3    1    6    6  503    0  0.88379099638E+02  0.13476102287E+02  0.18156064236E+02  0.91225617313E+02  0.00000000000E+00 0. -1.
         -3    1    6    6    0  503  0.29519646974E+03  0.21864512794E+03  0.14064035557E+03  0.39335271365E+03  0.00000000000E+00 0.  1.
<mgrwt>
<rscale>  0 0.31298545E+04</rscale>
<asrwt>0</asrwt>
<pdfrwt beam="1">  1        2 0.32120892E+00 0.31298545E+04</pdfrwt>
<pdfrwt beam="2">  1       -1 0.18045712E+00 0.31298545E+04</pdfrwt>
<totfact> 0.11873652E+00</totfact>
</mgrwt>
</event>
<event>
12    7  0.1606355E-007  0.1670903E+04  0.7818608E-02  0.8778135E-01
         -1   -1    0    0    0  501 -0.00000000000E+00  0.00000000000E+00  0.67256768852E+03  0.67256768852E+03  0.00000000000E+00 0.  1.
          2   -1    0    0  501    0  0.00000000000E+00 -0.00000000000E+00 -0.10377833333E+04  0.10377833333E+04  0.00000000000E+00 0. -1.
         24    2    1    2    0    0 -0.98490580307E+02  0.30537872899E+03 -0.63099739340E+03  0.71221658646E+03  0.78346621034E+02 0.  0.
        254    2    1    2    0    0  0.98490580307E+02 -0.30537872899E+03  0.26578174862E+03  0.99813443535E+03  0.90701480175E+03 0.  0.
         23    2    4    4    0    0  0.22806955461E+01  0.25793486784E+03 -0.12405464528E+03  0.29992517901E+03  0.89610046140E+02 0.  0.
         23    2    4    4    0    0  0.96209884761E+02 -0.56331359684E+03  0.38983639390E+03  0.69820925633E+03  0.94579074376E+02 0.  0.
          4    1    3    3  502    0 -0.70647803470E+02  0.26179092665E+03 -0.57648544232E+03  0.63707226169E+03  0.00000000000E+00 0. -1.
         -3    1    3    3    0  502 -0.27842776837E+02  0.43587802338E+02 -0.54511951082E+02  0.75144324772E+02  0.00000000000E+00 0.  1.
         13    1    5    5    0    0  0.14552729101E+02  0.40627312315E+02 -0.58341357948E+02  0.72567723386E+02  0.00000000000E+00 0.  1.
        -13    1    5    5    0    0 -0.12272033555E+02  0.21730755553E+03 -0.65713287331E+02  0.22735745563E+03  0.00000000000E+00 0. -1.
          3    1    6    6  503    0  0.38323429524E+02 -0.73476671421E+02  0.31999717178E+02  0.88834049739E+02  0.00000000000E+00 0. -1.
         -3    1    6    6    0  503  0.57886455237E+02 -0.48983692542E+03  0.35783667672E+03  0.60937520659E+03  0.00000000000E+00 0.  1.
<mgrwt>
<rscale>  0 0.16709034E+04</rscale>
<asrwt>0</asrwt>
<pdfrwt beam="1">  1        2 0.15965897E+00 0.16709034E+04</pdfrwt>
<pdfrwt beam="2">  1       -1 0.10347195E+00 0.16709034E+04</pdfrwt>
<totfact> 0.22841240E+01</totfact>
</mgrwt>
</event>
<event>
12    7  0.1606355E-007  0.2258597E+04  0.7818608E-02  0.8494427E-01
          2   -1    0    0  501    0  0.00000000000E+00  0.00000000000E+00  0.16731396925E+04  0.16731396925E+04  0.00000000000E+00 0. -1.
         -1   -1    0    0    0  501 -0.00000000000E+00 -0.00000000000E+00 -0.76222874421E+03  0.76222874421E+03  0.00000000000E+00 0.  1.
         24    2    1    2    0    0 -0.16584725876E+03 -0.33601512656E+03 -0.55541600829E+03  0.67475820648E+03  0.80001352644E+02 0.  0.
        254    2    1    2    0    0  0.16584725876E+03  0.33601512656E+03  0.14663269565E+04  0.17606102302E+04  0.89956776324E+03 0.  0.
         23    2    4    4    0    0 -0.22967975475E+03  0.43762507968E+03  0.50774940288E+03  0.71465627180E+03  0.93035641519E+02 0.  0.
         23    2    4    4    0    0  0.39552701351E+03 -0.10160995312E+03  0.95857755366E+03  0.10459539584E+04  0.91556297980E+02 0.  0.
          2    1    3    3  502    0 -0.23303286718E+02 -0.22293108650E+02 -0.19709747802E+02  0.37795502690E+02  0.00000000000E+00 0. -1.
         -1    1    3    3    0  502 -0.14254397204E+03 -0.31372201791E+03 -0.53570626049E+03  0.63696270379E+03  0.00000000000E+00 0.  1.
         13    1    5    5    0    0 -0.17061923034E+03  0.22709417988E+03  0.27662089300E+03  0.39648683047E+03  0.00000000000E+00 0. -1.
        -13    1    5    5    0    0 -0.59060524414E+02  0.21053089980E+03  0.23112850988E+03  0.31816944133E+03  0.00000000000E+00 0.  1.
          2    1    6    6  503    0  0.31205888712E+03 -0.11406262975E+03  0.80161247542E+03  0.86774051034E+03  0.00000000000E+00 0.  1.
         -2    1    6    6    0  503  0.83468126393E+02  0.12452676633E+02  0.15696507824E+03  0.17821344805E+03  0.00000000000E+00 0. -1.
<mgrwt>
<rscale>  0 0.22585971E+04</rscale>
<asrwt>0</asrwt>
<pdfrwt beam="1">  1        2 0.25740611E+00 0.22585971E+04</pdfrwt>
<pdfrwt beam="2">  1       -1 0.11726596E+00 0.22585971E+04</pdfrwt>
<totfact> 0.68859866E+00</totfact>
</mgrwt>
</event>
<event>
12    7  0.1606355E-007  0.2076652E+04  0.7818608E-02  0.8571599E-01
         -1   -1    0    0    0  501 -0.00000000000E+00  0.00000000000E+00  0.79482894059E+03  0.79482894059E+03  0.00000000000E+00 0.  1.
          2   -1    0    0  501    0  0.00000000000E+00 -0.00000000000E+00 -0.13564185914E+04  0.13564185914E+04  0.00000000000E+00 0. -1.
         24    2    1    2    0    0  0.10481647912E+03 -0.56090208567E+02  0.64323277806E+03  0.66004080806E+03  0.88163800672E+02 0.  0.
        254    2    1    2    0    0 -0.10481647912E+03  0.56090208567E+02 -0.12048224289E+04  0.14912067239E+04  0.87061346336E+03 0.  0.
         23    2    4    4    0    0  0.25217432650E+03  0.31093780213E+03 -0.42465405479E+03  0.59157388464E+03  0.96718080007E+02 0.  0.
         23    2    4    4    0    0 -0.35699080562E+03 -0.25484759356E+03 -0.78016837406E+03  0.89963283927E+03  0.91031985393E+02 0.  0.
          2    1    3    3  502    0  0.11168110992E+02  0.22700939635E+02  0.12749361823E+03  0.12997954475E+03  0.00000000000E+00 0. -1.
         -1    1    3    3    0  502  0.93648368129E+02 -0.78791148202E+02  0.51573915982E+03  0.53006126331E+03  0.00000000000E+00 0.  1.
         13    1    5    5    0    0  0.23132202734E+03  0.30237618784E+03 -0.36341941712E+03  0.52632206114E+03  0.00000000000E+00 0.  1.
        -13    1    5    5    0    0  0.20852299166E+02  0.85616142924E+01 -0.61234637671E+02  0.65251823503E+02  0.00000000000E+00 0. -1.
          3    1    6    6  503    0 -0.28210472026E+03 -0.18036834528E+03 -0.65682739494E+03  0.73725032378E+03  0.00000000000E+00 0. -1.
         -3    1    6    6    0  503 -0.74886085361E+02 -0.74479248288E+02 -0.12334097912E+03  0.16238251549E+03  0.00000000000E+00 0.  1.
<mgrwt>
<rscale>  0 0.20766519E+04</rscale>
<asrwt>0</asrwt>
<pdfrwt beam="1">  1        2 0.20867978E+00 0.20766519E+04</pdfrwt>
<pdfrwt beam="2">  1       -1 0.12228138E+00 0.20766519E+04</pdfrwt>
<totfact> 0.95348401E+00</totfact>
</mgrwt>
</event>
<event>
12    7  0.1606355E-007  0.2016305E+04  0.7818608E-02  0.8599035E-01
         -1   -1    0    0    0  501 -0.00000000000E+00  0.00000000000E+00  0.32211059415E+03  0.32211059415E+03  0.00000000000E+00 0.  1.
          2   -1    0    0  501    0  0.00000000000E+00 -0.00000000000E+00 -0.31553494457E+04  0.31553494457E+04  0.00000000000E+00 0. -1.
         24    2    1    2    0    0 -0.11591823481E+03 -0.20116760979E+03 -0.24491100474E+04  0.24614088306E+04  0.80547891782E+02 0.  0.
        254    2    1    2    0    0  0.11591823481E+03  0.20116760979E+03 -0.38412880414E+03  0.10160512092E+04  0.91153698618E+03 0.  0.
         23    2    4    4    0    0  0.42819570118E+03  0.34874807163E+03 -0.33951014592E+03  0.65458883000E+03  0.90788882611E+02 0.  0.
         23    2    4    4    0    0 -0.31227746637E+03 -0.14758046185E+03 -0.44618658215E+02  0.36146237920E+03  0.96783357029E+02 0.  0.
          2    1    3    3  502    0 -0.10718844394E+03 -0.19183185605E+03 -0.19856279927E+04  0.19977505723E+04  0.00000000000E+00 0. -1.
         -1    1    3    3    0  502 -0.87297908652E+01 -0.93357537430E+01 -0.46348205466E+03  0.46365825835E+03  0.00000000000E+00 0.  1.
         13    1    5    5    0    0  0.28883237266E+02  0.41674520052E+02 -0.74299224481E+01  0.51246568315E+02  0.00000000000E+00 0.  1.
        -13    1    5    5    0    0  0.39931246391E+03  0.30707355158E+03 -0.33208022348E+03  0.60334226169E+03  0.00000000000E+00 0. -1.
          3    1    6    6  503    0 -0.13548596782E+03 -0.11688081298E+03 -0.29984425762E+02  0.18142942900E+03  0.00000000000E+00 0. -1.
         -3    1    6    6    0  503 -0.17679149855E+03 -0.30699648869E+02 -0.14634232453E+02  0.18003295021E+03  0.00000000000E+00 0.  1.
<mgrwt>
<rscale>  0 0.20163050E+04</rscale>
<asrwt>0</asrwt>
<pdfrwt beam="1">  1        2 0.48543837E+00 0.20163050E+04</pdfrwt>
<pdfrwt beam="2">  1       -1 0.49555476E-01 0.20163050E+04</pdfrwt>
<totfact> 0.59961788E+00</totfact>
</mgrwt>
</event>
<event>
12    7  0.1606355E-007  0.1901019E+04  0.7818608E-02  0.8654350E-01
          2   -1    0    0  501    0  0.00000000000E+00  0.00000000000E+00  0.12428263262E+04  0.12428263262E+04  0.00000000000E+00 0. -1.
         -1   -1    0    0    0  501 -0.00000000000E+00 -0.00000000000E+00 -0.72694627273E+03  0.72694627273E+03  0.00000000000E+00 0.  1.
         24    2    1    2    0    0 -0.15130128165E+03  0.24638245100E+02 -0.54184342886E+03  0.56840319871E+03  0.77387169207E+02 0.  0.
        254    2    1    2    0    0  0.15130128165E+03 -0.24638245100E+02  0.10577234823E+04  0.14013694002E+04  0.90639842776E+03 0.  0.
         23    2    4    4    0    0  0.45423060283E+03  0.18805277065E+03  0.78554227619E+03  0.93092923189E+03  0.88675148791E+02 0.  0.
         23    2    4    4    0    0 -0.30292932118E+03 -0.21269101575E+03  0.27218120611E+03  0.47044016830E+03  0.10113209767E+03 0.  0.
          4    1    3    3  502    0 -0.33431402150E+01  0.23519646706E+02 -0.75904363732E+02  0.79535041342E+02  0.00000000000E+00 0. -1.
         -3    1    3    3    0  502 -0.14795814143E+03  0.11185983938E+01 -0.46593906513E+03  0.48886815737E+03  0.00000000000E+00 0.  1.
         13    1    5    5    0    0  0.29549158946E+03  0.16334224883E+03  0.50056763763E+03  0.60379129634E+03  0.00000000000E+00 0.  1.
        -13    1    5    5    0    0  0.15873901337E+03  0.24710521818E+02  0.28497463856E+03  0.32713793555E+03  0.00000000000E+00 0. -1.
          4    1    6    6  503    0 -0.22719888867E+01 -0.14617147382E+02 -0.54759856663E+01  0.15773691708E+02  0.00000000000E+00 0. -1.
         -4    1    6    6    0  503 -0.30065733230E+03 -0.19807386836E+03  0.27765719177E+03  0.45466647659E+03  0.00000000000E+00 0.  1.
<mgrwt>
<rscale>  0 0.19010186E+04</rscale>
<asrwt>0</asrwt>
<pdfrwt beam="1">  1        2 0.19120405E+00 0.19010186E+04</pdfrwt>
<pdfrwt beam="2">  1       -1 0.11183789E+00 0.19010186E+04</pdfrwt>
<totfact> 0.13993757E+01</totfact>
</mgrwt>
</event>
<event>
12    7  0.1606355E-007  0.2453171E+04  0.7818608E-02  0.8419861E-01
          2   -1    0    0  501    0  0.00000000000E+00  0.00000000000E+00  0.40884936158E+04  0.40884936158E+04  0.00000000000E+00 0. -1.
         -1   -1    0    0    0  501 -0.00000000000E+00 -0.00000000000E+00 -0.36798680967E+03  0.36798680967E+03  0.00000000000E+00 0.  1.
         24    2    1    2    0    0  0.76381019761E+03 -0.72012589790E+03  0.18655072106E+04  0.21420845978E+04  0.80137035658E+02 0.  0.
        254    2    1    2    0    0 -0.76381019761E+03  0.72012589790E+03  0.18549995955E+04  0.23143958277E+04  0.90189645802E+03 0.  0.
         23    2    4    4    0    0 -0.33191206511E+03 -0.15377866908E+03  0.73956952707E+03  0.83062188045E+03  0.95687642304E+02 0.  0.
         23    2    4    4    0    0 -0.43189813250E+03  0.87390456698E+03  0.11154300685E+04  0.14837739472E+04  0.84591369563E+02 0.  0.
          2    1    3    3  502    0  0.16388985135E+03 -0.18755531477E+03  0.49254116872E+03  0.55193630281E+03  0.00000000000E+00 0. -1.
         -1    1    3    3    0  502  0.59992034626E+03 -0.53257058313E+03  0.13729660418E+04  0.15901482949E+04  0.00000000000E+00 0.  1.
         13    1    5    5    0    0 -0.31882081558E+03 -0.12027374723E+03  0.64571080522E+03  0.73010610920E+03  0.00000000000E+00 0. -1.
        -13    1    5    5    0    0 -0.13091249530E+02 -0.33504921857E+02  0.93858721854E+02  0.10051577125E+03  0.00000000000E+00 0.  1.
          4    1    6    6  503    0 -0.54531120155E+02  0.17738941320E+03  0.18999836924E+03  0.26559372601E+03  0.00000000000E+00 0.  1.
         -4    1    6    6    0  503 -0.37736701234E+03  0.69651515378E+03  0.92543169924E+03  0.12181802212E+04  0.00000000000E+00 0. -1.
<mgrwt>
<rscale>  0 0.24531708E+04</rscale>
<asrwt>0</asrwt>
<pdfrwt beam="1">  1        2 0.62899899E+00 0.24531708E+04</pdfrwt>
<pdfrwt beam="2">  1       -1 0.56613358E-01 0.24531708E+04</pdfrwt>
<totfact> 0.93462364E-01</totfact>
</mgrwt>
</event>
<event>
12    7  0.1606355E-007  0.1707717E+04  0.7818608E-02  0.8756975E-01
          2   -1    0    0  501    0  0.00000000000E+00  0.00000000000E+00  0.42969735151E+03  0.42969735151E+03  0.00000000000E+00 0. -1.
         -1   -1    0    0    0  501 -0.00000000000E+00 -0.00000000000E+00 -0.16967164495E+04  0.16967164495E+04  0.00000000000E+00 0.  1.
         24    2    1    2    0    0  0.49335063434E+03  0.34696716787E+03 -0.29385087792E+03  0.67502811896E+03  0.74387895165E+02 0.  0.
        254    2    1    2    0    0 -0.49335063434E+03 -0.34696716787E+03 -0.97316822002E+03  0.14513856820E+04  0.89201062186E+03 0.  0.
         23    2    4    4    0    0 -0.22068469889E+03 -0.55751392764E+02 -0.10118713556E+04  0.10410246410E+04  0.89658846469E+02 0.  0.
         23    2    4    4    0    0 -0.27266593545E+03 -0.29121577511E+03  0.38703135554E+02  0.41036104104E+03  0.88005177565E+02 0.  0.
          4    1    3    3  502    0  0.48645590521E+03  0.34128963188E+03 -0.27629224344E+03  0.65532844004E+03  0.00000000000E+00 0. -1.
         -3    1    3    3    0  502  0.68947291249E+01  0.56775359970E+01 -0.17558634476E+02  0.19699678915E+02  0.00000000000E+00 0.  1.
         13    1    5    5    0    0 -0.18802021737E+03 -0.24685993121E+02 -0.91117046794E+03  0.93069469862E+03  0.00000000000E+00 0.  1.
        -13    1    5    5    0    0 -0.32664481511E+02 -0.31065399643E+02 -0.10070088764E+03  0.11032994235E+03  0.00000000000E+00 0. -1.
          2    1    6    6  503    0 -0.74846171259E+02 -0.30237013960E+02  0.11055580931E+01  0.80730716732E+02  0.00000000000E+00 0. -1.
         -2    1    6    6    0  503 -0.19781976419E+03 -0.26097876115E+03  0.37597577461E+02  0.32963032431E+03  0.00000000000E+00 0.  1.
<mgrwt>
<rscale>  0 0.17077173E+04</rscale>
<asrwt>0</asrwt>
<pdfrwt beam="1">  1        2 0.66107284E-01 0.17077173E+04</pdfrwt>
<pdfrwt beam="2">  1       -1 0.26103330E+00 0.17077173E+04</pdfrwt>
<totfact> 0.47117931E+00</totfact>
</mgrwt>
</event>
<event>
12    7  0.1606355E-007  0.2293821E+04  0.7818608E-02  0.8480361E-01
          2   -1    0    0  501    0  0.00000000000E+00  0.00000000000E+00  0.11810109375E+04  0.11810109375E+04  0.00000000000E+00 0. -1.
         -1   -1    0    0    0  501 -0.00000000000E+00 -0.00000000000E+00 -0.11137951396E+04  0.11137951396E+04  0.00000000000E+00 0.  1.
         24    2    1    2    0    0  0.96344186255E+03  0.11367463188E+03  0.17067963354E+01  0.97351525392E+03  0.81159669836E+02 0.  0.
        254    2    1    2    0    0 -0.96344186255E+03 -0.11367463188E+03  0.65509001571E+02  0.13212908232E+04  0.89463728162E+03 0.  0.
         23    2    4    4    0    0 -0.36105932095E+03 -0.28563670177E+03  0.39007909912E+03  0.60992531500E+03  0.88853968195E+02 0.  0.
         23    2    4    4    0    0 -0.60238254160E+03  0.17196206988E+03 -0.32457009755E+03  0.71136550817E+03  0.90881560765E+02 0.  0.
          2    1    3    3  502    0  0.55433250435E+03  0.75690925056E+02 -0.37797967906E+02  0.56075157413E+03  0.00000000000E+00 0. -1.
         -1    1    3    3    0  502  0.40910935820E+03  0.37983706829E+02  0.39504764242E+02  0.41276367979E+03  0.00000000000E+00 0.  1.
         13    1    5    5    0    0 -0.24860450583E+03 -0.22355652469E+03  0.23555889500E+03  0.40898620156E+03  0.00000000000E+00 0.  1.
        -13    1    5    5    0    0 -0.11245481512E+03 -0.62080177083E+02  0.15452020412E+03  0.20093911345E+03  0.00000000000E+00 0. -1.
          4    1    6    6  503    0 -0.57253506927E+03  0.17773131369E+03 -0.32290429333E+03  0.68091997184E+03  0.00000000000E+00 0. -1.
         -4    1    6    6    0  503 -0.29847472327E+02 -0.57692438022E+01 -0.16658042278E+01  0.30445536324E+02  0.00000000000E+00 0.  1.
<mgrwt>
<rscale>  0 0.22938215E+04</rscale>
<asrwt>0</asrwt>
<pdfrwt beam="1">  1        2 0.18169399E+00 0.22938215E+04</pdfrwt>
<pdfrwt beam="2">  1       -1 0.17135310E+00 0.22938215E+04</pdfrwt>
<totfact> 0.48355093E+00</totfact>
</mgrwt>
</event>
<event>
12    7  0.1606355E-007  0.1217073E+04  0.7818608E-02  0.9098042E-01
          2   -1    0    0  501    0  0.00000000000E+00  0.00000000000E+00  0.94073485285E+03  0.94073485285E+03  0.00000000000E+00 0. -1.
         -1   -1    0    0    0  501 -0.00000000000E+00 -0.00000000000E+00 -0.39364615168E+03  0.39364615168E+03  0.00000000000E+00 0.  1.
         24    2    1    2    0    0 -0.15192857375E+03  0.19021914381E+03  0.53866302076E+00  0.25843489274E+03  0.86733438966E+02 0.  0.
        254    2    1    2    0    0  0.15192857375E+03 -0.19021914381E+03  0.54655003815E+03  0.10759461118E+04  0.89424687703E+03 0.  0.
         23    2    4    4    0    0  0.29285999771E+03  0.28747135203E+03  0.22591641194E+03  0.47654696975E+03  0.87475897798E+02 0.  0.
         23    2    4    4    0    0 -0.14093142396E+03 -0.47769049584E+03  0.32063362621E+03  0.59939914204E+03  0.91779807901E+02 0.  0.
          2    1    3    3  502    0 -0.93479290518E+01 -0.92804199556E+01 -0.10826428851E+01  0.13216735139E+02  0.00000000000E+00 0. -1.
         -1    1    3    3    0  502 -0.14258064470E+03  0.19949956376E+03  0.16213059058E+01  0.24521815760E+03  0.00000000000E+00 0.  1.
         13    1    5    5    0    0  0.20410436214E+03  0.21233287821E+03  0.20383409186E+03  0.35817897596E+03  0.00000000000E+00 0. -1.
        -13    1    5    5    0    0  0.88755635569E+02  0.75138473827E+02  0.22082320074E+02  0.11836799379E+03  0.00000000000E+00 0.  1.
          2    1    6    6  503    0 -0.43789705430E+02 -0.22788354483E+03  0.19626002171E+03  0.30391848320E+03  0.00000000000E+00 0.  1.
         -2    1    6    6    0  503 -0.97141718533E+02 -0.24980695101E+03  0.12437360451E+03  0.29548065884E+03  0.00000000000E+00 0. -1.
<mgrwt>
<rscale>  0 0.12170730E+04</rscale>
<asrwt>0</asrwt>
<pdfrwt beam="1">  1        2 0.14472844E+00 0.12170730E+04</pdfrwt>
<pdfrwt beam="2">  1       -1 0.60560947E-01 0.12170730E+04</pdfrwt>
<totfact> 0.85624753E+01</totfact>
</mgrwt>
</event>
<event>
12    7  0.1606355E-007  0.1969849E+04  0.7818608E-02  0.8620849E-01
         -1   -1    0    0    0  501 -0.00000000000E+00  0.00000000000E+00  0.65464911989E+03  0.65464911989E+03  0.00000000000E+00 0.  1.
          2   -1    0    0  501    0  0.00000000000E+00 -0.00000000000E+00 -0.14818257460E+04  0.14818257460E+04  0.00000000000E+00 0. -1.
         24    2    1    2    0    0 -0.15512807422E+03  0.66127802147E+03 -0.57866830817E+03  0.89591525715E+03  0.80335521485E+02 0.  0.
        254    2    1    2    0    0  0.15512807422E+03 -0.66127802147E+03 -0.24850831794E+03  0.12405596088E+04  0.10079079411E+04 0.  0.
         23    2    4    4    0    0 -0.37008673618E+03 -0.33973188244E+03 -0.33819884340E+03  0.61161850211E+03  0.85538238286E+02 0.  0.
         23    2    4    4    0    0  0.52521481039E+03 -0.32154613904E+03  0.89690525458E+02  0.62894110664E+03  0.90994553030E+02 0.  0.
          2    1    3    3  502    0 -0.11972459967E+03  0.51242677110E+03 -0.49021150220E+03  0.71918182151E+03  0.00000000000E+00 0. -1.
         -1    1    3    3    0  502 -0.35403474544E+02  0.14885125038E+03 -0.88456805969E+02  0.17673343563E+03  0.00000000000E+00 0.  1.
         13    1    5    5    0    0 -0.32439254806E+03 -0.31618479853E+03 -0.32784130624E+03  0.55918089572E+03  0.00000000000E+00 0. -1.
        -13    1    5    5    0    0 -0.45694188117E+02 -0.23547083910E+02 -0.10357537158E+02  0.52437606394E+02  0.00000000000E+00 0.  1.
          2    1    6    6  503    0  0.14877634663E+03 -0.71613472166E+02  0.61541906415E+02  0.17621094449E+03  0.00000000000E+00 0. -1.
         -2    1    6    6    0  503  0.37643846377E+03 -0.24993266687E+03  0.28148619043E+02  0.45273016216E+03  0.00000000000E+00 0.  1.
<mgrwt>
<rscale>  0 0.19698486E+04</rscale>
<asrwt>0</asrwt>
<pdfrwt beam="1">  1        2 0.22797319E+00 0.19698486E+04</pdfrwt>
<pdfrwt beam="2">  1       -1 0.10071525E+00 0.19698486E+04</pdfrwt>
<totfact> 0.12933443E+01</totfact>
</mgrwt>
</event>
<event>
12    7  0.1606355E-007  0.1746690E+04  0.7818608E-02  0.8735175E-01
          2   -1    0    0  501    0  0.00000000000E+00  0.00000000000E+00  0.20160212939E+04  0.20160212939E+04  0.00000000000E+00 0. -1.
         -1   -1    0    0    0  501 -0.00000000000E+00 -0.00000000000E+00 -0.37833483206E+03  0.37833483206E+03  0.00000000000E+00 0.  1.
         24    2    1    2    0    0 -0.50694397387E+03  0.11815614418E+03  0.99393579773E+02  0.53607557797E+03  0.80900398939E+02 0.  0.
        254    2    1    2    0    0  0.50694397387E+03 -0.11815614418E+03  0.15382928821E+04  0.18582805480E+04  0.90327655621E+03 0.  0.
         23    2    4    4    0    0  0.14288159081E+03  0.33105114008E+03  0.26502954296E+03  0.45698801343E+03  0.92668114452E+02 0.  0.
         23    2    4    4    0    0  0.36406238305E+03 -0.44920728426E+03  0.12732633391E+04  0.14012925346E+04  0.89959066936E+02 0.  0.
          2    1    3    3  502    0 -0.92130793708E+01  0.15359729911E+02 -0.13123319513E+01  0.17958962932E+02  0.00000000000E+00 0. -1.
         -1    1    3    3    0  502 -0.49773089450E+03  0.10279641427E+03  0.10070591172E+03  0.51811661504E+03  0.00000000000E+00 0.  1.
         13    1    5    5    0    0  0.11592614040E+03  0.24271286382E+03  0.24195921747E+03  0.36179091643E+03  0.00000000000E+00 0.  1.
        -13    1    5    5    0    0  0.26955450414E+02  0.88338276260E+02  0.23070325492E+02  0.95197097004E+02  0.00000000000E+00 0. -1.
          4    1    6    6  503    0  0.32570546186E+03 -0.36698603321E+03  0.11268701727E+04  0.12290643525E+04  0.00000000000E+00 0. -1.
         -4    1    6    6    0  503  0.38356921194E+02 -0.82221251059E+02  0.14639316643E+03  0.17222818209E+03  0.00000000000E+00 0.  1.
<mgrwt>
<rscale>  0 0.17466895E+04</rscale>
<asrwt>0</asrwt>
<pdfrwt beam="1">  1        2 0.31015712E+00 0.17466895E+04</pdfrwt>
<pdfrwt beam="2">  1       -1 0.58205360E-01 0.17466895E+04</pdfrwt>
<totfact> 0.21138052E+01</totfact>
</mgrwt>
</event>
<event>
12    7  0.1606355E-007  0.2608572E+04  0.7818608E-02  0.8365295E-01
         -1   -1    0    0    0  501 -0.00000000000E+00  0.00000000000E+00  0.88446854214E+03  0.88446854214E+03  0.00000000000E+00 0.  1.
          2   -1    0    0  501    0  0.00000000000E+00 -0.00000000000E+00 -0.19233722538E+04  0.19233722538E+04  0.00000000000E+00 0. -1.
         24    2    1    2    0    0 -0.97664828990E+03 -0.52615862590E+03 -0.76338941991E+03  0.13489735656E+04  0.79255867902E+02 0.  0.
        254    2    1    2    0    0  0.97664828990E+03  0.52615862590E+03 -0.27551429177E+03  0.14588672303E+04  0.90647707581E+03 0.  0.
         23    2    4    4    0    0  0.20771713819E+03 -0.19203999774E+03 -0.27159733023E+03  0.40274366383E+03  0.91714659338E+02 0.  0.
         23    2    4    4    0    0  0.76893115171E+03  0.71819862364E+03 -0.39169615353E+01  0.10561235665E+04  0.91199046312E+02 0.  0.
          4    1    3    3  502    0 -0.44455949693E+03 -0.23961920808E+03 -0.29982582786E+03  0.58732106913E+03  0.00000000000E+00 0. -1.
         -3    1    3    3    0  502 -0.53208879297E+03 -0.28653941782E+03 -0.46356359206E+03  0.76165249652E+03  0.00000000000E+00 0.  1.
         13    1    5    5    0    0  0.20123770098E+03 -0.20222743061E+03 -0.25970597973E+03  0.38579754003E+03  0.00000000000E+00 0. -1.
        -13    1    5    5    0    0  0.64794372157E+01  0.10187432872E+02 -0.11891350504E+02  0.16946123803E+02  0.00000000000E+00 0.  1.
          2    1    6    6  503    0  0.67749070961E+03  0.60676720212E+03  0.21578443736E+02  0.90973937389E+03  0.00000000000E+00 0. -1.
         -2    1    6    6    0  503  0.91440442096E+02  0.11143142153E+03 -0.25495405271E+02  0.14638419260E+03  0.00000000000E+00 0.  1.
<mgrwt>
<rscale>  0 0.26085722E+04</rscale>
<asrwt>0</asrwt>
<pdfrwt beam="1">  1        2 0.29590342E+00 0.26085722E+04</pdfrwt>
<pdfrwt beam="2">  1       -1 0.13607209E+00 0.26085722E+04</pdfrwt>
<totfact> 0.33459397E+00</totfact>
</mgrwt>
</event>
<event>
12    7  0.1606355E-007  0.1709577E+04  0.7818608E-02  0.8755921E-01
         -1   -1    0    0    0  501 -0.00000000000E+00  0.00000000000E+00  0.24326713739E+03  0.24326713739E+03  0.00000000000E+00 0.  1.
          2   -1    0    0  501    0  0.00000000000E+00 -0.00000000000E+00 -0.30035434857E+04  0.30035434857E+04  0.00000000000E+00 0. -1.
         24    2    1    2    0    0  0.43249093503E+03  0.44908611811E+03 -0.93963263005E+03  0.11304739584E+04  0.79593598195E+02 0.  0.
        254    2    1    2    0    0 -0.43249093503E+03 -0.44908611811E+03 -0.18206437183E+04  0.21163366647E+04  0.88057400542E+03 0.  0.
         23    2    4    4    0    0 -0.92756406782E+02 -0.22327159075E+03 -0.16421979478E+04  0.16624336710E+04  0.91747787647E+02 0.  0.
         23    2    4    4    0    0 -0.33973452825E+03 -0.22581452736E+03 -0.17844577047E+03  0.45390299366E+03  0.88166230510E+02 0.  0.
          2    1    3    3  502    0  0.46295320162E+01  0.18595421764E+02 -0.49736281297E+02  0.53300280999E+02  0.00000000000E+00 0. -1.
         -1    1    3    3    0  502  0.42786140301E+03  0.43049069634E+03 -0.88989634876E+03  0.10771736774E+04  0.00000000000E+00 0.  1.
         13    1    5    5    0    0 -0.22548319169E+02 -0.14536376038E+03 -0.76740758489E+03  0.78137919787E+03  0.00000000000E+00 0. -1.
        -13    1    5    5    0    0 -0.70208087613E+02 -0.77907830370E+02 -0.87479036294E+03  0.88105447316E+03  0.00000000000E+00 0.  1.
          4    1    6    6  503    0 -0.28039559879E+03 -0.14774062243E+03 -0.11525742655E+03  0.33724361775E+03  0.00000000000E+00 0. -1.
         -4    1    6    6    0  503 -0.59338929457E+02 -0.78073904935E+02 -0.63188343916E+02  0.11665937591E+03  0.00000000000E+00 0.  1.
<mgrwt>
<rscale>  0 0.17095771E+04</rscale>
<asrwt>0</asrwt>
<pdfrwt beam="1">  1        2 0.46208358E+00 0.17095771E+04</pdfrwt>
<pdfrwt beam="2">  1       -1 0.37425716E-01 0.17095771E+04</pdfrwt>
<totfact> 0.12956994E+01</totfact>
</mgrwt>
</event>
<event>
12    7  0.1606355E-007  0.4022741E+04  0.7818608E-02  0.7999975E-01
         -3   -1    0    0    0  501 -0.00000000000E+00  0.00000000000E+00  0.11524576005E+04  0.11524576005E+04  0.00000000000E+00 0.  1.
          2   -1    0    0  501    0  0.00000000000E+00 -0.00000000000E+00 -0.35104215924E+04  0.35104215924E+04  0.00000000000E+00 0. -1.
         24    2    1    2    0    0 -0.94408282515E+03 -0.16568627978E+04 -0.10297377326E+04  0.21684679032E+04  0.73529163841E+02 0.  0.
        254    2    1    2    0    0  0.94408282515E+03  0.16568627978E+04 -0.13282262592E+04  0.24944112896E+04  0.90632001771E+03 0.  0.
         23    2    4    4    0    0  0.94363149151E+03  0.16809478752E+04 -0.10422096504E+04  0.21932876287E+04  0.91013822227E+02 0.  0.
         23    2    4    4    0    0  0.45133364115E+00 -0.24085077450E+02 -0.28601660886E+03  0.30112366090E+03  0.91047591675E+02 0.  0.
          2    1    3    3  502    0 -0.85946217630E+03 -0.14903426076E+04 -0.95107200566E+03  0.19657910063E+04  0.00000000000E+00 0. -1.
         -1    1    3    3    0  502 -0.84620648851E+02 -0.16652019015E+03 -0.78665726974E+02  0.20267689691E+03  0.00000000000E+00 0.  1.
         13    1    5    5    0    0  0.73469023133E+03  0.13755931079E+04 -0.85878569251E+03  0.17803199151E+04  0.00000000000E+00 0. -1.
        -13    1    5    5    0    0  0.20894126018E+03  0.30535476739E+03 -0.18342395786E+03  0.41296771362E+03  0.00000000000E+00 0.  1.
          2    1    6    6  503    0  0.24525237336E+02 -0.47077064694E+02 -0.22925718408E+03  0.23532231883E+03  0.00000000000E+00 0. -1.
         -2    1    6    6    0  503 -0.24073903694E+02  0.22991987245E+02 -0.56759424782E+02  0.65801342069E+02  0.00000000000E+00 0.  1.
<mgrwt>
<rscale>  0 0.40227414E+04</rscale>
<asrwt>0</asrwt>
<pdfrwt beam="1">  1        2 0.54006486E+00 0.40227414E+04</pdfrwt>
<pdfrwt beam="2">  1       -3 0.17730117E+00 0.40227414E+04</pdfrwt>
<totfact> 0.82362288E-02</totfact>
</mgrwt>
</event>
<event>
12    7  0.1606355E-007  0.2512429E+04  0.7818608E-02  0.8398571E-01
         -3   -1    0    0    0  501 -0.00000000000E+00  0.00000000000E+00  0.78383515240E+03  0.78383515240E+03  0.00000000000E+00 0.  1.
          4   -1    0    0  501    0  0.00000000000E+00 -0.00000000000E+00 -0.20132741416E+04  0.20132741416E+04  0.00000000000E+00 0. -1.
         24    2    1    2    0    0  0.15239422239E+03  0.10583808373E+04 -0.74838929623E+03  0.13076137453E+04  0.79832151693E+02 0.  0.
        254    2    1    2    0    0 -0.15239422239E+03 -0.10583808373E+04 -0.48104969294E+03  0.14894955487E+04  0.91858270539E+03 0.  0.
         23    2    4    4    0    0 -0.50802423187E+03 -0.82521198560E+03 -0.34038272464E+03  0.10310052780E+04  0.89710884156E+02 0.  0.
         23    2    4    4    0    0  0.35563000948E+03 -0.23316885170E+03 -0.14066696830E+03  0.45849027064E+03  0.97906666081E+02 0.  0.
          4    1    3    3  502    0  0.11860001108E+03  0.97172608829E+03 -0.69231649963E+03  0.11990077935E+04  0.00000000000E+00 0. -1.
         -3    1    3    3    0  502  0.33794211312E+02  0.86654749002E+02 -0.56072796606E+02  0.10860595178E+03  0.00000000000E+00 0.  1.
         13    1    5    5    0    0 -0.78645259235E+02 -0.98734961314E+02 -0.17376758498E+02  0.12741907676E+03  0.00000000000E+00 0.  1.
        -13    1    5    5    0    0 -0.42937897263E+03 -0.72647702428E+03 -0.32300596615E+03  0.90358620127E+03  0.00000000000E+00 0. -1.
          1    1    6    6  503    0  0.23512466893E+03 -0.20364335525E+03 -0.11608386194E+03  0.33200856778E+03  0.00000000000E+00 0. -1.
         -1    1    6    6    0  503  0.12050534055E+03 -0.29525496444E+02 -0.24583106359E+02  0.12648170286E+03  0.00000000000E+00 0.  1.
<mgrwt>
<rscale>  0 0.25124291E+04</rscale>
<asrwt>0</asrwt>
<pdfrwt beam="1">  1        4 0.30973448E+00 0.25124291E+04</pdfrwt>
<pdfrwt beam="2">  1       -3 0.12059002E+00 0.25124291E+04</pdfrwt>
<totfact> 0.30370631E-02</totfact>
</mgrwt>
</event>
<event>
12    7  0.1606355E-007  0.1376391E+04  0.7818608E-02  0.8971088E-01
          2   -1    0    0  501    0  0.00000000000E+00  0.00000000000E+00  0.15216379704E+04  0.15216379704E+04  0.00000000000E+00 0. -1.
         -1   -1    0    0    0  501 -0.00000000000E+00 -0.00000000000E+00 -0.31125200464E+03  0.31125200464E+03  0.00000000000E+00 0.  1.
         24    2    1    2    0    0  0.27645798274E+03 -0.13353650020E+03  0.34071797220E+02  0.31891390721E+03  0.79272818408E+02 0.  0.
        254    2    1    2    0    0 -0.27645798274E+03  0.13353650020E+03  0.11763141685E+04  0.15139760678E+04  0.90230122340E+03 0.  0.
         23    2    4    4    0    0 -0.11108991649E+03  0.36983376146E+03  0.11823970792E+03  0.41384638289E+03  0.90389266184E+02 0.  0.
         23    2    4    4    0    0 -0.16536806626E+03 -0.23629726126E+03  0.10580744606E+04  0.11001296849E+04  0.87067596987E+02 0.  0.
          4    1    3    3  502    0  0.20034823067E+03 -0.13197436788E+03  0.36925213262E+02  0.24273466725E+03  0.00000000000E+00 0. -1.
         -3    1    3    3    0  502  0.76109752071E+02 -0.15621323195E+01 -0.28534160415E+01  0.76179239960E+02  0.00000000000E+00 0.  1.
         13    1    5    5    0    0 -0.12664034464E+03  0.31883066628E+03  0.97648085159E+02  0.35668742505E+03  0.00000000000E+00 0. -1.
        -13    1    5    5    0    0  0.15550428155E+02  0.51003095181E+02  0.20591622758E+02  0.57158957842E+02  0.00000000000E+00 0.  1.
          2    1    6    6  503    0 -0.16858512608E+03 -0.21789254016E+03  0.90736467870E+03  0.94826618834E+03  0.00000000000E+00 0. -1.
         -2    1    6    6    0  503  0.32170598254E+01 -0.18404721107E+02  0.15070978193E+03  0.15186349660E+03  0.00000000000E+00 0.  1.
<mgrwt>
<rscale>  0 0.13763907E+04</rscale>
<asrwt>0</asrwt>
<pdfrwt beam="1">  1        2 0.23409814E+00 0.13763907E+04</pdfrwt>
<pdfrwt beam="2">  1       -1 0.47884925E-01 0.13763907E+04</pdfrwt>
<totfact> 0.59731008E+01</totfact>
</mgrwt>
</event>
<event>
12    7  0.1606355E-007  0.2068115E+04  0.7818608E-02  0.8575421E-01
          2   -1    0    0  501    0  0.00000000000E+00  0.00000000000E+00  0.16640300077E+04  0.16640300077E+04  0.00000000000E+00 0. -1.
         -1   -1    0    0    0  501 -0.00000000000E+00 -0.00000000000E+00 -0.64258122771E+03  0.64258122771E+03  0.00000000000E+00 0.  1.
         24    2    1    2    0    0  0.50935178231E+03 -0.66185259883E+03  0.52125328397E+03  0.98759659814E+03  0.78447140725E+02 0.  0.
        254    2    1    2    0    0 -0.50935178231E+03  0.66185259883E+03  0.50019549599E+03  0.13190146372E+04  0.89000897652E+03 0.  0.
         23    2    4    4    0    0 -0.43272131466E+03  0.72923016449E+03  0.54011042538E+02  0.85454230680E+03  0.91109782309E+02 0.  0.
         23    2    4    4    0    0 -0.76630467654E+02 -0.67377565656E+02  0.44618445345E+03  0.46447233043E+03  0.79006419397E+02 0.  0.
          4    1    3    3  502    0  0.47360703236E+03 -0.61863127441E+03  0.46099915965E+03  0.90527813405E+03  0.00000000000E+00 0. -1.
         -3    1    3    3    0  502  0.35744749951E+02 -0.43221324418E+02  0.60254124321E+02  0.82318464096E+02  0.00000000000E+00 0.  1.
         13    1    5    5    0    0 -0.63740964066E+02  0.12970646138E+03  0.41875471256E+02  0.15046671298E+03  0.00000000000E+00 0. -1.
        -13    1    5    5    0    0 -0.36898035059E+03  0.59952370311E+03  0.12135571282E+02  0.70407559382E+03  0.00000000000E+00 0.  1.
          3    1    6    6  503    0 -0.47714478572E+02 -0.31161813902E+02  0.99181363000E+02  0.11438825498E+03  0.00000000000E+00 0. -1.
         -3    1    6    6    0  503 -0.28915989082E+02 -0.36215751755E+02  0.34700309045E+03  0.35008407545E+03  0.00000000000E+00 0.  1.
<mgrwt>
<rscale>  0 0.20681145E+04</rscale>
<asrwt>0</asrwt>
<pdfrwt beam="1">  1        2 0.25600462E+00 0.20681145E+04</pdfrwt>
<pdfrwt beam="2">  1       -1 0.98858651E-01 0.20681145E+04</pdfrwt>
<totfact> 0.10574484E+01</totfact>
</mgrwt>
</event>
<event>
12    7  0.1606355E-007  0.1343845E+04  0.7818608E-02  0.8995501E-01
         -1   -1    0    0    0  501 -0.00000000000E+00  0.00000000000E+00  0.28049261660E+03  0.28049261660E+03  0.00000000000E+00 0.  1.
          2   -1    0    0  501    0  0.00000000000E+00 -0.00000000000E+00 -0.16095959504E+04  0.16095959504E+04  0.00000000000E+00 0. -1.
         24    2    1    2    0    0  0.13875717527E+03  0.33949782571E+03 -0.32756872185E+03  0.49865473755E+03  0.82722139690E+02 0.  0.
        254    2    1    2    0    0 -0.13875717527E+03 -0.33949782571E+03 -0.10015346119E+04  0.13914338294E+04  0.89359061962E+03 0.  0.
         23    2    4    4    0    0  0.20586019735E+03 -0.49531973716E+03 -0.75546868187E+03  0.93105775389E+03  0.91736300983E+02 0.  0.
         23    2    4    4    0    0 -0.34461737262E+03  0.15582191145E+03 -0.24606593007E+03  0.46037607555E+03  0.91411637135E+02 0.  0.
          2    1    3    3  502    0 -0.32884381249E+01  0.61759711077E+02 -0.75436592301E+02  0.97548732414E+02  0.00000000000E+00 0. -1.
         -1    1    3    3    0  502  0.14204561339E+03  0.27773811463E+03 -0.25213212955E+03  0.40110600513E+03  0.00000000000E+00 0.  1.
         13    1    5    5    0    0 -0.87528641821E+01 -0.35243039030E+02 -0.44376075521E+02  0.57340391611E+02  0.00000000000E+00 0. -1.
        -13    1    5    5    0    0  0.21461306154E+03 -0.46007669813E+03 -0.71109260635E+03  0.87371736228E+03  0.00000000000E+00 0.  1.
          4    1    6    6  503    0 -0.22588333831E+03  0.96458306446E+02 -0.20912576640E+03  0.32258498660E+03  0.00000000000E+00 0. -1.
         -4    1    6    6    0  503 -0.11873403431E+03  0.59363605005E+02 -0.36940163664E+02  0.13779108895E+03  0.00000000000E+00 0.  1.
<mgrwt>
<rscale>  0 0.13438449E+04</rscale>
<asrwt>0</asrwt>
<pdfrwt beam="1">  1        2 0.24763015E+00 0.13438449E+04</pdfrwt>
<pdfrwt beam="2">  1       -1 0.43152710E-01 0.13438449E+04</pdfrwt>
<totfact> 0.64928729E+01</totfact>
</mgrwt>
</event>
<event>
12    7  0.1606355E-007  0.1065763E+04  0.7818608E-02  0.9239219E-01
         -1   -1    0    0    0  501 -0.00000000000E+00  0.00000000000E+00  0.60816014698E+03  0.60816014698E+03  0.00000000000E+00 0.  1.
          2   -1    0    0  501    0  0.00000000000E+00 -0.00000000000E+00 -0.46692115176E+03  0.46692115176E+03  0.00000000000E+00 0. -1.
         24    2    1    2    0    0  0.10083550064E+01  0.82391902272E+02 -0.11934145745E+03  0.16675541128E+03  0.82313676772E+02 0.  0.
        254    2    1    2    0    0 -0.10083550064E+01 -0.82391902272E+02  0.26058045267E+03  0.90832588746E+03  0.86623570878E+03 0.  0.
         23    2    4    4    0    0  0.16359904441E+03 -0.19300994288E+02 -0.27838544617E+03  0.33432288947E+03  0.84475807625E+02 0.  0.
         23    2    4    4    0    0 -0.16460739942E+03 -0.63090907984E+02  0.53896589884E+03  0.57400299798E+03  0.88989566606E+02 0.  0.
          4    1    3    3  502    0 -0.17320940313E+02  0.60455018397E+02 -0.12279430794E+03  0.13796110425E+03  0.00000000000E+00 0. -1.
         -3    1    3    3    0  502  0.18329295319E+02  0.21936883875E+02  0.34528504845E+01  0.28794307033E+02  0.00000000000E+00 0.  1.
         13    1    5    5    0    0  0.14208596922E+03 -0.47310655475E+02 -0.22847271561E+03  0.27317851773E+03  0.00000000000E+00 0. -1.
        -13    1    5    5    0    0  0.21513075190E+02  0.28009661187E+02 -0.49912730565E+02  0.61144371748E+02  0.00000000000E+00 0.  1.
          3    1    6    6  503    0 -0.79912626699E+02  0.12049835547E+02  0.17346349739E+03  0.19136564835E+03  0.00000000000E+00 0. -1.
         -3    1    6    6    0  503 -0.84694772717E+02 -0.75140743531E+02  0.36550240145E+03  0.38263734963E+03  0.00000000000E+00 0.  1.
<mgrwt>
<rscale>  0 0.10657633E+04</rscale>
<asrwt>0</asrwt>
<pdfrwt beam="1">  1        2 0.71834023E-01 0.10657633E+04</pdfrwt>
<pdfrwt beam="2">  1       -1 0.93563100E-01 0.10657633E+04</pdfrwt>
<totfact> 0.84105317E+01</totfact>
</mgrwt>
</event>
<event>
12    7  0.1606355E-007  0.3159727E+04  0.7818608E-02  0.8199535E-01
         -1   -1    0    0    0  501 -0.00000000000E+00  0.00000000000E+00  0.10064655308E+04  0.10064655308E+04  0.00000000000E+00 0.  1.
          2   -1    0    0  501    0  0.00000000000E+00 -0.00000000000E+00 -0.24799346983E+04  0.24799346983E+04  0.00000000000E+00 0. -1.
         24    2    1    2    0    0 -0.55249536203E+03  0.95550984861E+03  0.30854170674E+03  0.11489193985E+04  0.81040752427E+02 0.  0.
        254    2    1    2    0    0  0.55249536203E+03 -0.95550984861E+03 -0.17820108743E+04  0.23374808306E+04  0.10344098228E+04 0.  0.
         23    2    4    4    0    0  0.35766166448E+03 -0.90170786414E+03 -0.18614598881E+04  0.21011220495E+04  0.93177322952E+02 0.  0.
         23    2    4    4    0    0  0.19483369755E+03 -0.53801984476E+02  0.79449013816E+02  0.23635878107E+03  0.93265772706E+02 0.  0.
          2    1    3    3  502    0 -0.55036367013E+03  0.95709902075E+03  0.30784983529E+03  0.11461719880E+04  0.00000000000E+00 0. -1.
         -1    1    3    3    0  502 -0.21316919005E+01 -0.15891721357E+01  0.69187145264E+00  0.27474105159E+01  0.00000000000E+00 0.  1.
         13    1    5    5    0    0  0.31129012320E+03 -0.71346960023E+03 -0.15445543523E+04  0.17296209291E+04  0.00000000000E+00 0. -1.
        -13    1    5    5    0    0  0.46371541281E+02 -0.18823826390E+03 -0.31690553579E+03  0.37150112040E+03  0.00000000000E+00 0.  1.
          4    1    6    6  503    0  0.42899409631E+02 -0.55382311279E+02  0.33276388818E+02  0.77555643264E+02  0.00000000000E+00 0. -1.
         -4    1    6    6    0  503  0.15193428792E+03  0.15803268023E+01  0.46172624998E+02  0.15880313781E+03  0.00000000000E+00 0.  1.
<mgrwt>
<rscale>  0 0.31597271E+04</rscale>
<asrwt>0</asrwt>
<pdfrwt beam="1">  1        2 0.38152841E+00 0.31597271E+04</pdfrwt>
<pdfrwt beam="2">  1       -1 0.15484085E+00 0.31597271E+04</pdfrwt>
<totfact> 0.10985202E+00</totfact>
</mgrwt>
</event>
<event>
12    7  0.1606355E-007  0.1821552E+04  0.7818608E-02  0.8694921E-01
         -1   -1    0    0    0  501 -0.00000000000E+00  0.00000000000E+00  0.39439818667E+03  0.39439818667E+03  0.00000000000E+00 0.  1.
          2   -1    0    0  501    0  0.00000000000E+00 -0.00000000000E+00 -0.21032377133E+04  0.21032377133E+04  0.00000000000E+00 0. -1.
         24    2    1    2    0    0  0.10805930932E+03 -0.44647869183E+03  0.49380014674E+02  0.46927942085E+03  0.82248114863E+02 0.  0.
        254    2    1    2    0    0 -0.10805930932E+03  0.44647869183E+03 -0.17582195413E+04  0.20283564791E+04  0.90104051761E+03 0.  0.
         23    2    4    4    0    0 -0.25413606511E+03  0.34810329661E+03 -0.17762236390E+04  0.18300622148E+04  0.91631051145E+02 0.  0.
         23    2    4    4    0    0  0.14607675578E+03  0.98375395213E+02  0.18004097713E+02  0.19829426432E+03  0.89332697059E+02 0.  0.
          4    1    3    3  502    0  0.63951485055E+02 -0.16883163194E+03 -0.14050018861E+02  0.18108372488E+03  0.00000000000E+00 0. -1.
         -3    1    3    3    0  502  0.44107824267E+02 -0.27764705988E+03  0.63430033535E+02  0.28819569597E+03  0.00000000000E+00 0.  1.
         13    1    5    5    0    0 -0.77400192753E+02  0.72488796555E+02 -0.30699777169E+03  0.32479693238E+03  0.00000000000E+00 0. -1.
        -13    1    5    5    0    0 -0.17673587235E+03  0.27561450006E+03 -0.14692258674E+04  0.15052652824E+04  0.00000000000E+00 0.  1.
          2    1    6    6  503    0  0.71032660041E+02 -0.14249714174E+01 -0.54043592024E+01  0.71252203014E+02  0.00000000000E+00 0. -1.
         -2    1    6    6    0  503  0.75044095744E+02  0.99800366630E+02  0.23408456915E+02  0.12704206131E+03  0.00000000000E+00 0.  1.
<mgrwt>
<rscale>  0 0.18215522E+04</rscale>
<asrwt>0</asrwt>
<pdfrwt beam="1">  1        2 0.32357504E+00 0.18215522E+04</pdfrwt>
<pdfrwt beam="2">  1       -1 0.60676643E-01 0.18215522E+04</pdfrwt>
<totfact> 0.17299582E+01</totfact>
</mgrwt>
</event>
<event>
12    7  0.1606355E-007  0.1621644E+04  0.7818608E-02  0.8807361E-01
         -1   -1    0    0    0  501 -0.00000000000E+00  0.00000000000E+00  0.11810129412E+04  0.11810129412E+04  0.00000000000E+00 0.  1.
          2   -1    0    0  501    0  0.00000000000E+00 -0.00000000000E+00 -0.55666808426E+03  0.55666808426E+03  0.00000000000E+00 0. -1.
         24    2    1    2    0    0 -0.43035816619E+03  0.34367877411E+03  0.33815230907E+03  0.65135198701E+03  0.81173738784E+02 0.  0.
        254    2    1    2    0    0  0.43035816619E+03 -0.34367877411E+03  0.28619254786E+03  0.10863290384E+04  0.89156118933E+03 0.  0.
         23    2    4    4    0    0  0.20589655047E+03 -0.59907691168E+03  0.11877189343E+02  0.63970073887E+03  0.88257759317E+02 0.  0.
         23    2    4    4    0    0  0.22446161572E+03  0.25539813757E+03  0.27431535852E+03  0.44662829957E+03  0.92826162524E+02 0.  0.
          2    1    3    3  502    0 -0.16361029751E+03  0.11286982513E+03  0.80113853794E+02  0.21430388808E+03  0.00000000000E+00 0. -1.
         -1    1    3    3    0  502 -0.26674786868E+03  0.23080894898E+03  0.25803845527E+03  0.43704809892E+03  0.00000000000E+00 0.  1.
         13    1    5    5    0    0  0.12380878355E+03 -0.46375484429E+03 -0.88317647343E+01  0.48007829628E+03  0.00000000000E+00 0. -1.
        -13    1    5    5    0    0  0.82087766920E+02 -0.13532206739E+03  0.20708954077E+02  0.15962244259E+03  0.00000000000E+00 0.  1.
          1    1    6    6  503    0  0.19592669034E+03  0.19557919394E+03  0.17595403376E+03  0.32802181496E+03  0.00000000000E+00 0. -1.
         -1    1    6    6    0  503  0.28534925373E+02  0.59818943635E+02  0.98361324757E+02  0.11860648461E+03  0.00000000000E+00 0.  1.
<mgrwt>
<rscale>  0 0.16216439E+04</rscale>
<asrwt>0</asrwt>
<pdfrwt beam="1">  1        2 0.85641244E-01 0.16216439E+04</pdfrwt>
<pdfrwt beam="2">  1       -1 0.18169430E+00 0.16216439E+04</pdfrwt>
<totfact> 0.12012854E+01</totfact>
</mgrwt>
</event>
<event>
12    7  0.1606355E-007  0.1737174E+04  0.7818608E-02  0.8740442E-01
         -1   -1    0    0    0  501 -0.00000000000E+00  0.00000000000E+00  0.53766473334E+03  0.53766473334E+03  0.00000000000E+00 0.  1.
          2   -1    0    0  501    0  0.00000000000E+00 -0.00000000000E+00 -0.14031860031E+04  0.14031860031E+04  0.00000000000E+00 0. -1.
         24    2    1    2    0    0 -0.54863362423E+03 -0.25278097498E+03 -0.54261447810E+03  0.81588690767E+03  0.79648598987E+02 0.  0.
        254    2    1    2    0    0  0.54863362423E+03  0.25278097498E+03 -0.32290679161E+03  0.11249638287E+04  0.89239999156E+03 0.  0.
         23    2    4    4    0    0  0.36704354427E+03  0.54854706901E+03 -0.36761003754E+03  0.76131027446E+03  0.93975230727E+02 0.  0.
         23    2    4    4    0    0  0.18159007996E+03 -0.29576609404E+03  0.44703245926E+02  0.36365355427E+03  0.98959526149E+02 0.  0.
          4    1    3    3  502    0 -0.30918567188E+02  0.42763592161E+01 -0.30424565800E+02  0.43587833730E+02  0.00000000000E+00 0. -1.
         -3    1    3    3    0  502 -0.51771505704E+03 -0.25705733419E+03 -0.51218991230E+03  0.77229907394E+03  0.00000000000E+00 0.  1.
         13    1    5    5    0    0  0.10213416693E+03  0.19118582536E+03 -0.77339738377E+02  0.23014091989E+03  0.00000000000E+00 0. -1.
        -13    1    5    5    0    0  0.26490937733E+03  0.35736124365E+03 -0.29027029916E+03  0.53116935458E+03  0.00000000000E+00 0.  1.
          4    1    6    6  503    0  0.16481123543E+03 -0.24026449824E+03  0.15287278232E+01  0.29136250521E+03  0.00000000000E+00 0. -1.
         -4    1    6    6    0  503  0.16778844532E+02 -0.55501595799E+02  0.43174518103E+02  0.72291049055E+02  0.00000000000E+00 0.  1.
<mgrwt>
<rscale>  0 0.17371743E+04</rscale>
<asrwt>0</asrwt>
<pdfrwt beam="1">  1        2 0.21587477E+00 0.17371743E+04</pdfrwt>
<pdfrwt beam="2">  1       -1 0.82717652E-01 0.17371743E+04</pdfrwt>
<totfact> 0.22627470E+01</totfact>
</mgrwt>
</event>
<event>
12    7  0.1606355E-007  0.1626018E+04  0.7818608E-02  0.8804722E-01
         -1   -1    0    0    0  501 -0.00000000000E+00  0.00000000000E+00  0.29385330918E+03  0.29385330918E+03  0.00000000000E+00 0.  1.
          2   -1    0    0  501    0  0.00000000000E+00 -0.00000000000E+00 -0.22493659688E+04  0.22493659688E+04  0.00000000000E+00 0. -1.
         24    2    1    2    0    0 -0.54433607996E+02  0.54823420985E+03 -0.51012021806E+03  0.75437552808E+03  0.73048161943E+02 0.  0.
        254    2    1    2    0    0  0.54433607996E+02 -0.54823420985E+03 -0.14453924416E+04  0.17888437499E+04  0.89848699763E+03 0.  0.
         23    2    4    4    0    0 -0.16234261869E+03  0.66928970367E+02 -0.93575219575E+03  0.95627065297E+03  0.89368769509E+02 0.  0.
         23    2    4    4    0    0  0.21677622668E+03 -0.61516318022E+03 -0.50964024586E+03  0.83257309697E+03  0.89594145147E+02 0.  0.
          2    1    3    3  502    0 -0.36718818308E+02  0.48920224937E+03 -0.42364089301E+03  0.64818108476E+03  0.00000000000E+00 0. -1.
         -1    1    3    3    0  502 -0.17714789689E+02  0.59031960483E+02 -0.86479325046E+02  0.10619444332E+03  0.00000000000E+00 0.  1.
         13    1    5    5    0    0 -0.11571869624E+03  0.82456846891E+01 -0.67755296964E+03  0.68741314698E+03  0.00000000000E+00 0. -1.
        -13    1    5    5    0    0 -0.46623922447E+02  0.58683285678E+02 -0.25819922611E+03  0.26885750599E+03  0.00000000000E+00 0.  1.
          4    1    6    6  503    0  0.35561465606E+02 -0.48971239022E+02 -0.73773639415E+02  0.95421957430E+02  0.00000000000E+00 0. -1.
         -4    1    6    6    0  503  0.18121476108E+03 -0.56619194120E+03 -0.43586660644E+03  0.73715113954E+03  0.00000000000E+00 0.  1.
<mgrwt>
<rscale>  0 0.16260180E+04</rscale>
<asrwt>0</asrwt>
<pdfrwt beam="1">  1        2 0.34605629E+00 0.16260180E+04</pdfrwt>
<pdfrwt beam="2">  1       -1 0.45208203E-01 0.16260180E+04</pdfrwt>
<totfact> 0.25651837E+01</totfact>
</mgrwt>
</event>
<event>
12    7  0.1606355E-007  0.1481313E+04  0.7818608E-02  0.8896975E-01
          2   -1    0    0  501    0  0.00000000000E+00  0.00000000000E+00  0.78587164096E+03  0.78587164096E+03  0.00000000000E+00 0. -1.
         -1   -1    0    0    0  501 -0.00000000000E+00 -0.00000000000E+00 -0.69804312366E+03  0.69804312366E+03  0.00000000000E+00 0.  1.
         24    2    1    2    0    0  0.18272396639E+03 -0.36161899894E+03 -0.17888614147E+03  0.44989478849E+03  0.79048850752E+02 0.  0.
        254    2    1    2    0    0 -0.18272396639E+03  0.36161899894E+03  0.26671465877E+03  0.10340199761E+04  0.91318358152E+03 0.  0.
         23    2    4    4    0    0 -0.49933655948E+03  0.33913251105E+03  0.35858306486E+01  0.61178454485E+03  0.99597246173E+02 0.  0.
         23    2    4    4    0    0  0.31661259309E+03  0.22486487898E+02  0.26312882812E+03  0.42223543129E+03  0.91086788304E+02 0.  0.
          4    1    3    3  502    0  0.10806881463E+03 -0.15226761278E+03 -0.11222075196E+03  0.21784809333E+03  0.00000000000E+00 0. -1.
         -3    1    3    3    0  502  0.74655151759E+02 -0.20935138617E+03 -0.66665389512E+02  0.23204669516E+03  0.00000000000E+00 0.  1.
         13    1    5    5    0    0 -0.14871672180E+03  0.63512210113E+02 -0.30264784917E+02  0.16451875693E+03  0.00000000000E+00 0.  1.
        -13    1    5    5    0    0 -0.35061983768E+03  0.27562030093E+03  0.33850615565E+02  0.44726578791E+03  0.00000000000E+00 0. -1.
          2    1    6    6  503    0  0.46961447605E+02 -0.20078353910E+02  0.14748397620E+02  0.53160446661E+02  0.00000000000E+00 0. -1.
         -2    1    6    6    0  503  0.26965114549E+03  0.42564841808E+02  0.24838043050E+03  0.36907498463E+03  0.00000000000E+00 0.  1.
<mgrwt>
<rscale>  0 0.14813133E+04</rscale>
<asrwt>0</asrwt>
<pdfrwt beam="1">  1        2 0.12090333E+00 0.14813133E+04</pdfrwt>
<pdfrwt beam="2">  1       -1 0.10739125E+00 0.14813133E+04</pdfrwt>
<totfact> 0.31480585E+01</totfact>
</mgrwt>
</event>
<event>
12    7  0.1606355E-007  0.2377883E+04  0.7818608E-02  0.8447831E-01
          2   -1    0    0  501    0  0.00000000000E+00  0.00000000000E+00  0.18429985075E+04  0.18429985075E+04  0.00000000000E+00 0. -1.
         -1   -1    0    0    0  501 -0.00000000000E+00 -0.00000000000E+00 -0.76700091924E+03  0.76700091924E+03  0.00000000000E+00 0.  1.
         24    2    1    2    0    0  0.84622750503E+03  0.41137723871E+03  0.89056064505E+03  0.12980199412E+04  0.80157859355E+02 0.  0.
        254    2    1    2    0    0 -0.84622750503E+03 -0.41137723871E+03  0.18543694324E+03  0.13119794856E+04  0.89530502504E+03 0.  0.
         23    2    4    4    0    0 -0.83338316457E+03 -0.62822704333E+03  0.22772730879E+03  0.10723740383E+04  0.94496740425E+02 0.  0.
         23    2    4    4    0    0 -0.12844340457E+02  0.21684980462E+03 -0.42290365551E+02  0.23960544725E+03  0.91833983289E+02 0.  0.
          4    1    3    3  502    0  0.76314765916E+03  0.38309336632E+03  0.83398664371E+03  0.11936031999E+04  0.00000000000E+00 0. -1.
         -3    1    3    3    0  502  0.83079845874E+02  0.28283872390E+02  0.56574001337E+02  0.10441674126E+03  0.00000000000E+00 0.  1.
         13    1    5    5    0    0 -0.64486742497E+03 -0.50553140932E+03  0.21474440530E+03  0.84707211098E+03  0.00000000000E+00 0. -1.
        -13    1    5    5    0    0 -0.18851573961E+03 -0.12269563400E+03  0.12982903489E+02  0.22530192735E+03  0.00000000000E+00 0.  1.
          3    1    6    6  503    0 -0.25758340281E+02  0.21319838183E+03 -0.22819726805E+02  0.21595782468E+03  0.00000000000E+00 0. -1.
         -3    1    6    6    0  503  0.12913999824E+02  0.36514227884E+01 -0.19470638746E+02  0.23647622566E+02  0.00000000000E+00 0.  1.
<mgrwt>
<rscale>  0 0.23778827E+04</rscale>
<asrwt>0</asrwt>
<pdfrwt beam="1">  1        2 0.28353823E+00 0.23778827E+04</pdfrwt>
<pdfrwt beam="2">  1       -1 0.11800014E+00 0.23778827E+04</pdfrwt>
<totfact> 0.54022051E+00</totfact>
</mgrwt>
</event>
<event>
12    7  0.1606355E-007  0.1866990E+04  0.7818608E-02  0.8671464E-01
         -1   -1    0    0    0  501 -0.00000000000E+00  0.00000000000E+00  0.53718046660E+03  0.53718046660E+03  0.00000000000E+00 0.  1.
          2   -1    0    0  501    0  0.00000000000E+00 -0.00000000000E+00 -0.16221979344E+04  0.16221979344E+04  0.00000000000E+00 0. -1.
         24    2    1    2    0    0  0.30849142189E+02 -0.65928736326E+03 -0.91842731867E+02  0.67088333372E+03  0.77703688059E+02 0.  0.
        254    2    1    2    0    0 -0.30849142189E+02  0.65928736326E+03 -0.99317473595E+03  0.14884950673E+04  0.89084791760E+03 0.  0.
         23    2    4    4    0    0 -0.13107495294E+02 -0.19459769038E+03 -0.36761816721E+03  0.42613477120E+03  0.91693286721E+02 0.  0.
         23    2    4    4    0    0 -0.17741646895E+02  0.85388505364E+03 -0.62555656875E+03  0.10623602961E+04  0.88622385213E+02 0.  0.
          2    1    3    3  502    0  0.52925543933E+02 -0.37264325222E+03 -0.67214231145E+02  0.38233736345E+03  0.00000000000E+00 0. -1.
         -3    1    3    3    0  502 -0.22076401744E+02 -0.28664411104E+03 -0.24628500723E+02  0.28854597027E+03  0.00000000000E+00 0.  1.
         13    1    5    5    0    0  0.13932903359E+02 -0.58418230975E+01 -0.41221868619E+01  0.15660303881E+02  0.00000000000E+00 0. -1.
        -13    1    5    5    0    0 -0.27040398653E+02 -0.18875586728E+03 -0.36349598034E+03  0.41047446732E+03  0.00000000000E+00 0.  1.
          2    1    6    6  503    0 -0.17187107826E+02  0.33931200931E+03 -0.30160577362E+03  0.45430615120E+03  0.00000000000E+00 0. -1.
         -2    1    6    6    0  503 -0.55453906897E+00  0.51457304433E+03 -0.32395079513E+03  0.60805414490E+03  0.00000000000E+00 0.  1.
<mgrwt>
<rscale>  0 0.18669901E+04</rscale>
<asrwt>0</asrwt>
<pdfrwt beam="1">  1        2 0.24956891E+00 0.18669901E+04</pdfrwt>
<pdfrwt beam="2">  1       -1 0.82643149E-01 0.18669901E+04</pdfrwt>
<totfact> 0.16866906E+01</totfact>
</mgrwt>
</event>
<event>
12    7  0.1606355E-007  0.2839723E+04  0.7818608E-02  0.8291041E-01
          2   -1    0    0  501    0  0.00000000000E+00  0.00000000000E+00  0.16186409665E+04  0.16186409665E+04  0.00000000000E+00 0. -1.
         -1   -1    0    0    0  501 -0.00000000000E+00 -0.00000000000E+00 -0.12454930337E+04  0.12454930337E+04  0.00000000000E+00 0.  1.
         24    2    1    2    0    0 -0.67593751358E+03 -0.10487547964E+04  0.41679673437E+03  0.13179368469E+04  0.80373313022E+02 0.  0.
        254    2    1    2    0    0  0.67593751358E+03  0.10487547964E+04 -0.43648801632E+02  0.15461971533E+04  0.91216351258E+03 0.  0.
         23    2    4    4    0    0  0.44392887570E+03  0.90649350032E+03 -0.39872562566E+03  0.10893542986E+04  0.94378760847E+02 0.  0.
         23    2    4    4    0    0  0.23200863788E+03  0.14226129605E+03  0.35507682403E+03  0.45684285467E+03  0.92517882025E+02 0.  0.
          4    1    3    3  502    0 -0.13323981022E+03 -0.18850609961E+03  0.10882816220E+03  0.25520769093E+03  0.00000000000E+00 0. -1.
         -3    1    3    3    0  502 -0.54269770335E+03 -0.86024869676E+03  0.30796857217E+03  0.10627291560E+04  0.00000000000E+00 0.  1.
         13    1    5    5    0    0  0.40209041203E+03  0.82058401154E+03 -0.38951291189E+03  0.99335548922E+03  0.00000000000E+00 0.  1.
        -13    1    5    5    0    0  0.41838463668E+02  0.85909488786E+02 -0.92127137651E+01  0.95998809370E+02  0.00000000000E+00 0. -1.
          1    1    6    6  503    0  0.34768273422E+02  0.33908676110E+02  0.12905919977E+03  0.13789455464E+03  0.00000000000E+00 0. -1.
         -1    1    6    6    0  503  0.19724036445E+03  0.10835261994E+03  0.22601762426E+03  0.31894830003E+03  0.00000000000E+00 0.  1.
<mgrwt>
<rscale>  0 0.28397226E+04</rscale>
<asrwt>0</asrwt>
<pdfrwt beam="1">  1        2 0.24902169E+00 0.28397226E+04</pdfrwt>
<pdfrwt beam="2">  1       -1 0.19161431E+00 0.28397226E+04</pdfrwt>
<totfact> 0.18507914E+00</totfact>
</mgrwt>
</event>
<event>
12    7  0.1606355E-007  0.1708985E+04  0.7818608E-02  0.8756256E-01
          2   -1    0    0  501    0  0.00000000000E+00  0.00000000000E+00  0.21087079496E+04  0.21087079496E+04  0.00000000000E+00 0. -1.
         -3   -1    0    0    0  501 -0.00000000000E+00 -0.00000000000E+00 -0.34625823820E+03  0.34625823820E+03  0.00000000000E+00 0.  1.
         24    2    1    2    0    0 -0.12297368179E+03  0.42254881859E+03  0.10689388851E+04  0.11588005651E+04  0.80736479124E+02 0.  0.
        254    2    1    2    0    0  0.12297368179E+03 -0.42254881859E+03  0.69351082628E+03  0.12961656227E+04  0.10027053529E+04 0.  0.
         23    2    4    4    0    0 -0.27774935953E+03 -0.49920449006E+03  0.12589342570E+03  0.59194726183E+03  0.90568076805E+02 0.  0.
         23    2    4    4    0    0  0.40072304132E+03  0.76655671473E+02  0.56761740057E+03  0.70421836087E+03  0.85316695552E+02 0.  0.
          4    1    3    3  502    0 -0.63942698181E+02  0.31672832226E+03  0.71292782758E+03  0.78273340680E+03  0.00000000000E+00 0. -1.
         -3    1    3    3    0  502 -0.59030983612E+02  0.10582049632E+03  0.35601105753E+03  0.37606715830E+03  0.00000000000E+00 0.  1.
         13    1    5    5    0    0 -0.54034316260E+02 -0.98272869804E+02 -0.11423241006E+02  0.11272867740E+03  0.00000000000E+00 0. -1.
        -13    1    5    5    0    0 -0.22371504327E+03 -0.40093162025E+03  0.13731666671E+03  0.47921858443E+03  0.00000000000E+00 0.  1.
          3    1    6    6  503    0  0.29475587854E+02 -0.13984137630E+02  0.65921966269E+02  0.73553191783E+02  0.00000000000E+00 0. -1.
         -3    1    6    6    0  503  0.37124745346E+03  0.90639809103E+02  0.50169543430E+03  0.63066516909E+03  0.00000000000E+00 0.  1.
<mgrwt>
<rscale>  0 0.17089851E+04</rscale>
<asrwt>0</asrwt>
<pdfrwt beam="1">  1        2 0.32441660E+00 0.17089851E+04</pdfrwt>
<pdfrwt beam="2">  1       -3 0.53270500E-01 0.17089851E+04</pdfrwt>
<totfact> 0.12364047E+01</totfact>
</mgrwt>
</event>
<event>
12    7  0.1606355E-007  0.1102913E+04  0.7818608E-02  0.9202357E-01
         -3   -1    0    0    0  501 -0.00000000000E+00  0.00000000000E+00  0.38700044302E+03  0.38700044302E+03  0.00000000000E+00 0.  1.
          2   -1    0    0  501    0  0.00000000000E+00 -0.00000000000E+00 -0.78579864360E+03  0.78579864360E+03  0.00000000000E+00 0. -1.
         24    2    1    2    0    0 -0.51560664955E+02  0.15223709402E+03 -0.25528741744E+02  0.18120145229E+03  0.79671919090E+02 0.  0.
        254    2    1    2    0    0  0.51560664955E+02 -0.15223709402E+03 -0.37326945884E+03  0.99159763434E+03  0.90448943861E+03 0.  0.
         23    2    4    4    0    0  0.52042057177E+02  0.30842741313E+03  0.83198199372E+02  0.33656398552E+03  0.92290471242E+02 0.  0.
         23    2    4    4    0    0 -0.48139222200E+00 -0.46066450715E+03 -0.45646765821E+03  0.65503364882E+03  0.92164734054E+02 0.  0.
          2    1    3    3  502    0  0.19058906560E+02  0.31952377446E+02 -0.18476779055E+02  0.41540193884E+02  0.00000000000E+00 0. -1.
         -3    1    3    3    0  502 -0.70619571515E+02  0.12028471657E+03 -0.70519626889E+01  0.13966125841E+03  0.00000000000E+00 0.  1.
         13    1    5    5    0    0  0.44794206792E+02  0.31354468810E+03  0.77677768195E+02  0.32611444014E+03  0.00000000000E+00 0.  1.
        -13    1    5    5    0    0  0.72478503852E+01 -0.51172749632E+01  0.55204311765E+01  0.10449545379E+02  0.00000000000E+00 0. -1.
          1    1    6    6  503    0 -0.23428709392E+02 -0.57287718744E+02 -0.34632848174E+02  0.70924053151E+02  0.00000000000E+00 0. -1.
         -1    1    6    6    0  503  0.22947317170E+02 -0.40337678841E+03 -0.42183481004E+03  0.58410959567E+03  0.00000000000E+00 0.  1.
<mgrwt>
<rscale>  0 0.11029133E+04</rscale>
<asrwt>0</asrwt>
<pdfrwt beam="1">  1        2 0.12089210E+00 0.11029133E+04</pdfrwt>
<pdfrwt beam="2">  1       -3 0.59538530E-01 0.11029133E+04</pdfrwt>
<totfact> 0.61365641E+01</totfact>
</mgrwt>
</event>
<event>
12    7  0.1606355E-007  0.1564842E+04  0.7818608E-02  0.8842443E-01
          2   -1    0    0  501    0  0.00000000000E+00  0.00000000000E+00  0.18003721241E+04  0.18003721241E+04  0.00000000000E+00 0. -1.
         -1   -1    0    0    0  501 -0.00000000000E+00 -0.00000000000E+00 -0.34003107516E+03  0.34003107516E+03  0.00000000000E+00 0.  1.
         24    2    1    2    0    0  0.87444496684E+02 -0.32528423581E+03  0.10508807447E+04  0.11063304463E+04  0.78487850399E+02 0.  0.
        254    2    1    2    0    0 -0.87444496684E+02  0.32528423581E+03  0.40946030423E+03  0.10340727530E+04  0.88780197324E+03 0.  0.
         23    2    4    4    0    0  0.70419813536E+02 -0.23516163851E+03 -0.73232785768E+02  0.27198632904E+03  0.91397898835E+02 0.  0.
         23    2    4    4    0    0 -0.15786431022E+03  0.56044587431E+03  0.48269309000E+03  0.76208642395E+03  0.93607584980E+02 0.  0.
          4    1    3    3  502    0  0.73537649823E+02 -0.23910084552E+03  0.87377228761E+03  0.90887568504E+03  0.00000000000E+00 0. -1.
         -3    1    3    3    0  502  0.13906846861E+02 -0.86183390288E+02  0.17710845709E+03  0.19745476121E+03  0.00000000000E+00 0.  1.
         13    1    5    5    0    0  0.75237049502E+01 -0.15119020873E+01 -0.23819519772E+02  0.25025217407E+02  0.00000000000E+00 0. -1.
        -13    1    5    5    0    0  0.62896108585E+02 -0.23364973642E+03 -0.49413265995E+02  0.24696111164E+03  0.00000000000E+00 0.  1.
          2    1    6    6  503    0 -0.39100141265E+02  0.14963568365E+03  0.18451984599E+03  0.24076385201E+03  0.00000000000E+00 0. -1.
         -2    1    6    6    0  503 -0.11876416896E+03  0.41081019066E+03  0.29817324401E+03  0.52132257195E+03  0.00000000000E+00 0.  1.
<mgrwt>
<rscale>  0 0.15648418E+04</rscale>
<asrwt>0</asrwt>
<pdfrwt beam="1">  1        2 0.27698032E+00 0.15648418E+04</pdfrwt>
<pdfrwt beam="2">  1       -1 0.52312474E-01 0.15648418E+04</pdfrwt>
<totfact> 0.34772247E+01</totfact>
</mgrwt>
</event>
<event>
12    7  0.1606355E-007  0.2277007E+04  0.7818608E-02  0.8487042E-01
          2   -1    0    0  501    0  0.00000000000E+00  0.00000000000E+00  0.37050972924E+04  0.37050972924E+04  0.00000000000E+00 0. -1.
         -1   -1    0    0    0  501 -0.00000000000E+00 -0.00000000000E+00 -0.34983973477E+03  0.34983973477E+03  0.00000000000E+00 0.  1.
         24    2    1    2    0    0 -0.90237869605E+03  0.21553509532E+03  0.10181812187E+04  0.13798938097E+04  0.81677680871E+02 0.  0.
        254    2    1    2    0    0  0.90237869605E+03 -0.21553509532E+03  0.23370763389E+04  0.26750432174E+04  0.91279116607E+03 0.  0.
         23    2    4    4    0    0 -0.90776713723E+02 -0.26961029729E+03  0.61654342871E+03  0.68540839349E+03  0.93427737954E+02 0.  0.
         23    2    4    4    0    0  0.99315540977E+03  0.54075201974E+02  0.17205329102E+04  0.19896348239E+04  0.95558579664E+02 0.  0.
          4    1    3    3  502    0 -0.17554183043E+03  0.58707657084E+02  0.16278358175E+03  0.24649547201E+03  0.00000000000E+00 0. -1.
         -3    1    3    3    0  502 -0.72683686562E+03  0.15682743823E+03  0.85539763694E+03  0.11333983377E+04  0.00000000000E+00 0.  1.
         13    1    5    5    0    0 -0.21183946215E+02 -0.44656327964E+02  0.43390154604E+02  0.65769694549E+02  0.00000000000E+00 0.  1.
        -13    1    5    5    0    0 -0.69592767508E+02 -0.22495396933E+03  0.57315327411E+03  0.61963869894E+03  0.00000000000E+00 0. -1.
          1    1    6    6  503    0  0.98973630588E+03  0.60575075434E+02  0.17114334116E+04  0.19779412573E+04  0.00000000000E+00 0. -1.
         -1    1    6    6    0  503  0.34191038924E+01 -0.64998734598E+01  0.90994986056E+01  0.11693566663E+02  0.00000000000E+00 0.  1.
<mgrwt>
<rscale>  0 0.22770070E+04</rscale>
<asrwt>0</asrwt>
<pdfrwt beam="1">  1        2 0.57001494E+00 0.22770070E+04</pdfrwt>
<pdfrwt beam="2">  1       -1 0.53821500E-01 0.22770070E+04</pdfrwt>
<totfact> 0.20920376E+00</totfact>
</mgrwt>
</event>
<event>
12    7  0.1606355E-007  0.2289496E+04  0.7818608E-02  0.8482074E-01
          2   -1    0    0  501    0  0.00000000000E+00  0.00000000000E+00  0.75552789583E+03  0.75552789583E+03  0.00000000000E+00 0. -1.
         -1   -1    0    0    0  501 -0.00000000000E+00 -0.00000000000E+00 -0.17344794066E+04  0.17344794066E+04  0.00000000000E+00 0.  1.
         24    2    1    2    0    0 -0.82078095321E+03  0.11049926941E+03 -0.96069195297E+03  0.12708762384E+04  0.79409843542E+02 0.  0.
        254    2    1    2    0    0  0.82078095321E+03 -0.11049926941E+03 -0.18259557810E+02  0.12191310640E+04  0.89445831543E+03 0.  0.
         23    2    4    4    0    0  0.71658744621E+01  0.26670063351E+03  0.11877274053E+03  0.30737725421E+03  0.95881358146E+02 0.  0.
         23    2    4    4    0    0  0.81361507875E+03 -0.37719990292E+03 -0.13703229834E+03  0.91175380979E+03  0.90927970081E+02 0.  0.
          2    1    3    3  502    0 -0.39835046345E+03  0.82692249498E+02 -0.42911214324E+03  0.59131914508E+03  0.00000000000E+00 0. -1.
         -1    1    3    3    0  502 -0.42243048976E+03  0.27807019911E+02 -0.53157980973E+03  0.67955709337E+03  0.00000000000E+00 0.  1.
         13    1    5    5    0    0 -0.19803983187E+02  0.57006166123E+01  0.13617038248E+02  0.24700577129E+02  0.00000000000E+00 0. -1.
        -13    1    5    5    0    0  0.26969857649E+02  0.26100001689E+03  0.10515570228E+03  0.28267667708E+03  0.00000000000E+00 0.  1.
          1    1    6    6  503    0  0.25242823941E+03 -0.16425860521E+03 -0.46813649519E+02  0.30478258352E+03  0.00000000000E+00 0. -1.
         -1    1    6    6    0  503  0.56118683934E+03 -0.21294129770E+03 -0.90218648822E+02  0.60697122626E+03  0.00000000000E+00 0.  1.
<mgrwt>
<rscale>  0 0.22894956E+04</rscale>
<asrwt>0</asrwt>
<pdfrwt beam="1">  1        2 0.11623506E+00 0.22894956E+04</pdfrwt>
<pdfrwt beam="2">  1       -1 0.26684298E+00 0.22894956E+04</pdfrwt>
<totfact> 0.20829258E+00</totfact>
</mgrwt>
</event>
<event>
12    7  0.1606355E-007  0.1789205E+04  0.7818608E-02  0.8712061E-01
         -1   -1    0    0    0  501 -0.00000000000E+00  0.00000000000E+00  0.55144186856E+03  0.55144186856E+03  0.00000000000E+00 0.  1.
          2   -1    0    0  501    0  0.00000000000E+00 -0.00000000000E+00 -0.14513113033E+04  0.14513113033E+04  0.00000000000E+00 0. -1.
         24    2    1    2    0    0  0.13407838278E+03  0.11584245772E+03  0.38333517629E+03  0.42976535047E+03  0.79723969713E+02 0.  0.
        254    2    1    2    0    0 -0.13407838278E+03 -0.11584245772E+03 -0.12832046110E+04  0.15729878214E+04  0.89234529458E+03 0.  0.
         23    2    4    4    0    0 -0.10666523307E+03  0.30406610939E+03 -0.16189928623E+03  0.37181847520E+03  0.90575541939E+02 0.  0.
         23    2    4    4    0    0 -0.27413149714E+02 -0.41990856711E+03 -0.11213053248E+04  0.12011693462E+04  0.91692318653E+02 0.  0.
          4    1    3    3  502    0  0.58624260827E+02  0.51948056521E+02  0.85537081471E+02  0.11598274372E+03  0.00000000000E+00 0. -1.
         -3    1    3    3    0  502  0.75454121955E+02  0.63894401198E+02  0.29779809482E+03  0.31378260675E+03  0.00000000000E+00 0.  1.
         13    1    5    5    0    0 -0.66307345458E+02  0.84524700165E+02 -0.80408147166E+02  0.13418852086E+03  0.00000000000E+00 0.  1.
        -13    1    5    5    0    0 -0.40357887610E+02  0.21954140922E+03 -0.81491139059E+02  0.23762995434E+03  0.00000000000E+00 0. -1.
          2    1    6    6  503    0 -0.52341530820E+02 -0.25144052644E+03 -0.74768278559E+03  0.79056405310E+03  0.00000000000E+00 0. -1.
         -2    1    6    6    0  503  0.24928381106E+02 -0.16846804066E+03 -0.37362253921E+03  0.41060529309E+03  0.00000000000E+00 0.  1.
<mgrwt>
<rscale>  0 0.17892052E+04</rscale>
<asrwt>0</asrwt>
<pdfrwt beam="1">  1        2 0.22327866E+00 0.17892052E+04</pdfrwt>
<pdfrwt beam="2">  1       -1 0.84837210E-01 0.17892052E+04</pdfrwt>
<totfact> 0.20024693E+01</totfact>
</mgrwt>
</event>
<event>
12    7  0.1606355E-007  0.1850030E+04  0.7818608E-02  0.8680137E-01
         -1   -1    0    0    0  501 -0.00000000000E+00  0.00000000000E+00  0.78255415382E+03  0.78255415382E+03  0.00000000000E+00 0.  1.
          2   -1    0    0  501    0  0.00000000000E+00 -0.00000000000E+00 -0.10934102944E+04  0.10934102944E+04  0.00000000000E+00 0. -1.
         24    2    1    2    0    0 -0.56105263183E+03 -0.39962974916E+03  0.48454914256E+01  0.69352033218E+03  0.80392663009E+02 0.  0.
        254    2    1    2    0    0  0.56105263183E+03  0.39962974916E+03 -0.31570163205E+03  0.11824441161E+04  0.90775689208E+03 0.  0.
         23    2    4    4    0    0  0.50666882944E+03  0.14820297848E+03 -0.59004408790E+03  0.79710772280E+03  0.92473080017E+02 0.  0.
         23    2    4    4    0    0  0.54383802392E+02  0.25142677068E+03  0.27434245585E+03  0.38533639329E+03  0.83948400437E+02 0.  0.
          2    1    3    3  502    0 -0.58765201149E+02 -0.47184529104E+02 -0.24411177027E+02  0.79218900628E+02  0.00000000000E+00 0. -1.
         -1    1    3    3    0  502 -0.50228743068E+03 -0.35244522005E+03  0.29256668453E+02  0.61430143155E+03  0.00000000000E+00 0.  1.
         13    1    5    5    0    0  0.41263709715E+03  0.86781078253E+02 -0.49248889421E+03  0.64834068236E+03  0.00000000000E+00 0. -1.
        -13    1    5    5    0    0  0.94031732291E+02  0.61421900225E+02 -0.97555193689E+02  0.14876704044E+03  0.00000000000E+00 0.  1.
          2    1    6    6  503    0  0.60905373351E+02  0.11602889927E+03  0.16789857902E+03  0.21298380879E+03  0.00000000000E+00 0.  1.
         -2    1    6    6    0  503 -0.65215709588E+01  0.13539787141E+03  0.10644387683E+03  0.17235258450E+03  0.00000000000E+00 0. -1.
<mgrwt>
<rscale>  0 0.18500300E+04</rscale>
<asrwt>0</asrwt>
<pdfrwt beam="1">  1        2 0.16821697E+00 0.18500300E+04</pdfrwt>
<pdfrwt beam="2">  1       -1 0.12039295E+00 0.18500300E+04</pdfrwt>
<totfact> 0.14486139E+01</totfact>
</mgrwt>
</event>
<event>
12    7  0.1606355E-007  0.1600652E+04  0.7818608E-02  0.8820147E-01
          2   -1    0    0  501    0  0.00000000000E+00  0.00000000000E+00  0.17358111114E+04  0.17358111114E+04  0.00000000000E+00 0. -1.
         -1   -1    0    0    0  501 -0.00000000000E+00 -0.00000000000E+00 -0.36900449316E+03  0.36900449316E+03  0.00000000000E+00 0.  1.
         24    2    1    2    0    0 -0.13006796323E+03  0.26902283752E+03 -0.54743422285E+02  0.31412141368E+03  0.79902803964E+02 0.  0.
        254    2    1    2    0    0  0.13006796323E+03 -0.26902283752E+03  0.14215500405E+04  0.17906941909E+04  0.10471342824E+04 0.  0.
         23    2    4    4    0    0 -0.21208911261E+03 -0.40928797014E+03  0.13127974159E+04  0.13943444500E+04  0.90889799956E+02 0.  0.
         23    2    4    4    0    0  0.34215707584E+03  0.14026513262E+03  0.10875262460E+03  0.39634974091E+03  0.92304993276E+02 0.  0.
          4    1    3    3  502    0 -0.28907994812E+02  0.44636576555E+02 -0.41808662864E+02  0.67646584696E+02  0.00000000000E+00 0. -1.
         -3    1    3    3    0  502 -0.10115996842E+03  0.22438626096E+03 -0.12934759421E+02  0.24647482898E+03  0.00000000000E+00 0.  1.
         13    1    5    5    0    0 -0.20301298295E+03 -0.31332293320E+03  0.10308432159E+04  0.10963682171E+04  0.00000000000E+00 0. -1.
        -13    1    5    5    0    0 -0.90761296633E+01 -0.95965036940E+02  0.28195420005E+03  0.29797623289E+03  0.00000000000E+00 0.  1.
          2    1    6    6  503    0  0.26835660916E+03  0.87324177341E+02  0.45943830433E+02  0.28592239714E+03  0.00000000000E+00 0. -1.
         -2    1    6    6    0  503  0.73800466680E+02  0.52940955282E+02  0.62808794166E+02  0.11042734377E+03  0.00000000000E+00 0.  1.
<mgrwt>
<rscale>  0 0.16006525E+04</rscale>
<asrwt>0</asrwt>
<pdfrwt beam="1">  1        2 0.26704786E+00 0.16006525E+04</pdfrwt>
<pdfrwt beam="2">  1       -1 0.56769923E-01 0.16006525E+04</pdfrwt>
<totfact> 0.32137971E+01</totfact>
</mgrwt>
</event>
<event>
12    7  0.1606355E-007  0.1727696E+04  0.7818608E-02  0.8745724E-01
          2   -1    0    0  501    0  0.00000000000E+00  0.00000000000E+00  0.13126250813E+04  0.13126250813E+04  0.00000000000E+00 0. -1.
         -1   -1    0    0    0  501 -0.00000000000E+00 -0.00000000000E+00 -0.56850469649E+03  0.56850469649E+03  0.00000000000E+00 0.  1.
         24    2    1    2    0    0  0.31598413300E+03  0.53000923489E+03  0.14437330437E+03  0.63875736533E+03  0.80072213568E+02 0.  0.
        254    2    1    2    0    0 -0.31598413300E+03 -0.53000923489E+03  0.59974708043E+03  0.12423724124E+04  0.89612325566E+03 0.  0.
         23    2    4    4    0    0 -0.19278899340E+03 -0.59090911814E+02  0.70244749672E+03  0.73640850369E+03  0.90585135851E+02 0.  0.
         23    2    4    4    0    0 -0.12319513960E+03 -0.47091832307E+03 -0.10270041628E+03  0.50596390874E+03  0.92255037910E+02 0.  0.
          2    1    3    3  502    0  0.28039730345E+03  0.42726240845E+03  0.14022850075E+03  0.52994324779E+03  0.00000000000E+00 0. -1.
         -1    1    3    3    0  502  0.35586829543E+02  0.10274682644E+03  0.41448036196E+01  0.10881411754E+03  0.00000000000E+00 0.  1.
         13    1    5    5    0    0 -0.19436326003E+03 -0.71427835167E+02  0.67891120520E+03  0.70978830437E+03  0.00000000000E+00 0.  1.
        -13    1    5    5    0    0  0.15742666368E+01  0.12336923353E+02  0.23536291520E+02  0.26620199319E+02  0.00000000000E+00 0. -1.
          4    1    6    6  503    0 -0.37168905444E+02 -0.51710204821E+02  0.73248977781E+01  0.64102472199E+02  0.00000000000E+00 0. -1.
         -4    1    6    6    0  503 -0.86026234155E+02 -0.41920811825E+03 -0.11002531406E+03  0.44186143654E+03  0.00000000000E+00 0.  1.
<mgrwt>
<rscale>  0 0.17276962E+04</rscale>
<asrwt>0</asrwt>
<pdfrwt beam="1">  1        2 0.20194232E+00 0.17276962E+04</pdfrwt>
<pdfrwt beam="2">  1       -1 0.87462261E-01 0.17276962E+04</pdfrwt>
<totfact> 0.22632552E+01</totfact>
</mgrwt>
</event>
<event>
12    7  0.1606355E-007  0.3107948E+04  0.7818608E-02  0.8213560E-01
          2   -1    0    0  501    0  0.00000000000E+00  0.00000000000E+00  0.17955493477E+04  0.17955493477E+04  0.00000000000E+00 0. -1.
         -1   -1    0    0    0  501 -0.00000000000E+00 -0.00000000000E+00 -0.13449003151E+04  0.13449003151E+04  0.00000000000E+00 0.  1.
         24    2    1    2    0    0  0.13435636011E+04 -0.64877146438E+02 -0.25702968908E+03  0.13717269804E+04  0.78730257206E+02 0.  0.
        254    2    1    2    0    0 -0.13435636011E+04  0.64877146438E+02  0.70767872167E+03  0.17687226823E+04  0.90454328780E+03 0.  0.
         23    2    4    4    0    0 -0.92085080531E+03  0.38515820683E+03  0.18602549195E+03  0.10196095398E+04  0.93193777298E+02 0.  0.
         23    2    4    4    0    0 -0.42271279579E+03 -0.32028106039E+03  0.52165322972E+03  0.74911314249E+03  0.88217587824E+02 0.  0.
          2    1    3    3  502    0  0.98557913018E+03 -0.64660857038E+02 -0.15761602935E+03  0.10001950115E+04  0.00000000000E+00 0. -1.
         -1    1    3    3    0  502  0.35798447092E+03 -0.21628940058E+00 -0.99413659729E+02  0.37153196894E+03  0.00000000000E+00 0.  1.
         13    1    5    5    0    0 -0.83606107974E+03  0.37180420305E+03  0.18627384685E+03  0.93377429847E+03  0.00000000000E+00 0. -1.
        -13    1    5    5    0    0 -0.84789725578E+02  0.13354003779E+02 -0.24835489386E+00  0.85835241368E+02  0.00000000000E+00 0.  1.
          4    1    6    6  503    0 -0.13382725275E+03 -0.11052353781E+03  0.11612951236E+03  0.20883306642E+03  0.00000000000E+00 0. -1.
         -4    1    6    6    0  503 -0.28888554304E+03 -0.20975752258E+03  0.40552371736E+03  0.54028007607E+03  0.00000000000E+00 0.  1.
<mgrwt>
<rscale>  0 0.31079478E+04</rscale>
<asrwt>0</asrwt>
<pdfrwt beam="1">  1        2 0.27623836E+00 0.31079478E+04</pdfrwt>
<pdfrwt beam="2">  1       -1 0.20690774E+00 0.31079478E+04</pdfrwt>
<totfact> 0.11306719E+00</totfact>
</mgrwt>
</event>
<event>
12    7  0.1606355E-007  0.9967252E+03  0.7818608E-02  0.9312144E-01
          2   -1    0    0  501    0  0.00000000000E+00  0.00000000000E+00  0.22779466798E+03  0.22779466798E+03  0.00000000000E+00 0. -1.
         -1   -1    0    0    0  501 -0.00000000000E+00 -0.00000000000E+00 -0.10903033750E+04  0.10903033750E+04  0.00000000000E+00 0.  1.
         24    2    1    2    0    0 -0.15443214423E+03 -0.45365166542E+02 -0.47614021375E+02  0.18637957897E+03  0.81012140569E+02 0.  0.
        254    2    1    2    0    0  0.15443214423E+03  0.45365166542E+02 -0.81489468569E+03  0.11317184641E+04  0.76865209790E+03 0.  0.
         23    2    4    4    0    0  0.40181973657E+03 -0.14940266595E+03 -0.58358473285E+03  0.73070164847E+03  0.97844271043E+02 0.  0.
         23    2    4    4    0    0 -0.24738759234E+03  0.19476783249E+03 -0.23130995284E+03  0.40101681558E+03  0.90416053192E+02 0.  0.
          4    1    3    3  502    0 -0.88482979965E+01 -0.82770132985E+01  0.18602532034E+02  0.22200349651E+02  0.00000000000E+00 0. -1.
         -3    1    3    3    0  502 -0.14558384623E+03 -0.37088153244E+02 -0.66216553409E+02  0.16417922932E+03  0.00000000000E+00 0.  1.
         13    1    5    5    0    0  0.35156695251E+03 -0.16204858127E+03 -0.49978345500E+03  0.63217289303E+03  0.00000000000E+00 0. -1.
        -13    1    5    5    0    0  0.50252784065E+02  0.12645915322E+02 -0.83801277847E+02  0.98528755444E+02  0.00000000000E+00 0.  1.
          3    1    6    6  503    0 -0.12283751593E+03  0.14775731722E+03 -0.15971000086E+03  0.24985708813E+03  0.00000000000E+00 0. -1.
         -3    1    6    6    0  503 -0.12455007641E+03  0.47010515273E+02 -0.71599951982E+02  0.15115972745E+03  0.00000000000E+00 0.  1.
<mgrwt>
<rscale>  0 0.99672523E+03</rscale>
<asrwt>0</asrwt>
<pdfrwt beam="1">  1        2 0.35045333E-01 0.99672523E+03</pdfrwt>
<pdfrwt beam="2">  1       -1 0.16773898E+00 0.99672523E+03</pdfrwt>
<totfact> 0.43799171E+01</totfact>
</mgrwt>
</event>
<event>
12    7  0.1606355E-007  0.2939718E+04  0.7818608E-02  0.8261157E-01
          2   -1    0    0  501    0  0.00000000000E+00  0.00000000000E+00  0.38813243175E+04  0.38813243175E+04  0.00000000000E+00 0. -1.
         -1   -1    0    0    0  501 -0.00000000000E+00 -0.00000000000E+00 -0.55663620624E+03  0.55663620624E+03  0.00000000000E+00 0.  1.
         24    2    1    2    0    0 -0.33175859726E+03 -0.49680327117E+03  0.32948048068E+04  0.33496296586E+04  0.86039975626E+02 0.  0.
        254    2    1    2    0    0  0.33175859726E+03  0.49680327117E+03  0.29883304426E+02  0.10883308652E+04  0.90922703605E+03 0.  0.
         23    2    4    4    0    0 -0.21029151657E+03  0.33552955156E+03 -0.22267246979E+03  0.46373469388E+03  0.93081875762E+02 0.  0.
         23    2    4    4    0    0  0.54205011383E+03  0.16127371961E+03  0.25255577421E+03  0.62459617128E+03  0.80674776468E+02 0.  0.
          2    1    3    3  502    0 -0.28216464711E+03 -0.46657695159E+03  0.29503182190E+04  0.30002814090E+04  0.00000000000E+00 0. -1.
         -1    1    3    3    0  502 -0.49593950153E+02 -0.30226319583E+02  0.34448658787E+03  0.34934824961E+03  0.00000000000E+00 0.  1.
         13    1    5    5    0    0 -0.44280746245E+02  0.14467593422E+03 -0.10865549787E+03  0.18627379753E+03  0.00000000000E+00 0.  1.
        -13    1    5    5    0    0 -0.16601077032E+03  0.19085361734E+03 -0.11401697191E+03  0.27746089634E+03  0.00000000000E+00 0. -1.
          4    1    6    6  503    0  0.40645975776E+03  0.11239225156E+03  0.22454308823E+03  0.47776683787E+03  0.00000000000E+00 0.  1.
         -4    1    6    6    0  503  0.13559035606E+03  0.48881468048E+02  0.28012685980E+02  0.14682933342E+03  0.00000000000E+00 0. -1.
<mgrwt>
<rscale>  0 0.29397181E+04</rscale>
<asrwt>0</asrwt>
<pdfrwt beam="1">  1        2 0.59712680E+00 0.29397181E+04</pdfrwt>
<pdfrwt beam="2">  1       -1 0.85636342E-01 0.29397181E+04</pdfrwt>
<totfact> 0.55955840E-01</totfact>
</mgrwt>
</event>
<event>
12    7  0.1606355E-007  0.1322744E+04  0.7818608E-02  0.9011721E-01
         -1   -1    0    0    0  501 -0.00000000000E+00  0.00000000000E+00  0.27562113650E+03  0.27562113650E+03  0.00000000000E+00 0.  1.
          2   -1    0    0  501    0  0.00000000000E+00 -0.00000000000E+00 -0.15870084947E+04  0.15870084947E+04  0.00000000000E+00 0. -1.
         24    2    1    2    0    0 -0.26006131608E+03  0.15132255617E+03 -0.57169710908E+03  0.65099913062E+03  0.80198998795E+02 0.  0.
        254    2    1    2    0    0  0.26006131608E+03 -0.15132255617E+03 -0.73969024909E+03  0.12116305005E+04  0.91124991145E+03 0.  0.
         23    2    4    4    0    0 -0.85529669786E+02 -0.46685446325E+03 -0.36589297675E+03  0.60585376630E+03  0.88953366599E+02 0.  0.
         23    2    4    4    0    0  0.34559098587E+03  0.31553190708E+03 -0.37379727234E+03  0.60577673424E+03  0.90815951463E+02 0.  0.
          2    1    3    3  502    0 -0.23254117536E+03  0.10002651051E+03 -0.46102211641E+03  0.52594875497E+03  0.00000000000E+00 0. -1.
         -1    1    3    3    0  502 -0.27520140727E+02  0.51296045665E+02 -0.11067499267E+03  0.12505037565E+03  0.00000000000E+00 0.  1.
         13    1    5    5    0    0 -0.75911176215E+01 -0.24132097142E+03 -0.15127601570E+03  0.28491730246E+03  0.00000000000E+00 0. -1.
        -13    1    5    5    0    0 -0.77938552164E+02 -0.22553349184E+03 -0.21461696105E+03  0.32093646384E+03  0.00000000000E+00 0.  1.
          4    1    6    6  503    0  0.33467931283E+03  0.29716151958E+03 -0.32688671167E+03  0.55422931483E+03  0.00000000000E+00 0. -1.
         -4    1    6    6    0  503  0.10911673043E+02  0.18370387501E+02 -0.46910560668E+02  0.51547419409E+02  0.00000000000E+00 0.  1.
<mgrwt>
<rscale>  0 0.13227442E+04</rscale>
<asrwt>0</asrwt>
<pdfrwt beam="1">  1        2 0.24415515E+00 0.13227442E+04</pdfrwt>
<pdfrwt beam="2">  1       -1 0.42403252E-01 0.13227442E+04</pdfrwt>
<totfact> 0.69154888E+01</totfact>
</mgrwt>
</event>
<event>
12    7  0.1606355E-007  0.1894612E+04  0.7818608E-02  0.8657543E-01
         -1   -1    0    0    0  501 -0.00000000000E+00  0.00000000000E+00  0.43245609849E+03  0.43245609849E+03  0.00000000000E+00 0.  1.
          2   -1    0    0  501    0  0.00000000000E+00 -0.00000000000E+00 -0.20750987418E+04  0.20750987418E+04  0.00000000000E+00 0. -1.
         24    2    1    2    0    0  0.63283588871E+02  0.22834040368E+03  0.27553524628E+03  0.37211563025E+03  0.80038851548E+02 0.  0.
        254    2    1    2    0    0 -0.63283588871E+02 -0.22834040368E+03 -0.19181778896E+04  0.21354392100E+04  0.90804738371E+03 0.  0.
         23    2    4    4    0    0 -0.10984005886E+03 -0.48235967665E+03 -0.17328243991E+04  0.18043341724E+04  0.90585380902E+02 0.  0.
         23    2    4    4    0    0  0.46556469988E+02  0.25401927296E+03 -0.18535349046E+03  0.33110503765E+03  0.92635487783E+02 0.  0.
          2    1    3    3  502    0  0.13308462938E+02  0.16106103814E+03  0.14576938522E+03  0.21763843149E+03  0.00000000000E+00 0. -1.
         -1    1    3    3    0  502  0.49975125933E+02  0.67279365540E+02  0.12976586106E+03  0.15447719876E+03  0.00000000000E+00 0.  1.
         13    1    5    5    0    0 -0.35996030972E+02 -0.33840553388E+03 -0.11250469938E+04  0.11753913211E+04  0.00000000000E+00 0. -1.
        -13    1    5    5    0    0 -0.73844027887E+02 -0.14395414276E+03 -0.60777740534E+03  0.62894285123E+03  0.00000000000E+00 0.  1.
          2    1    6    6  503    0 -0.18392605324E+02  0.13680940659E+03 -0.72547693360E+02  0.15594316104E+03  0.00000000000E+00 0. -1.
         -2    1    6    6    0  503  0.64949075312E+02  0.11720986637E+03 -0.11280579710E+03  0.17516187661E+03  0.00000000000E+00 0.  1.
<mgrwt>
<rscale>  0 0.18946125E+04</rscale>
<asrwt>0</asrwt>
<pdfrwt beam="1">  1        2 0.31924596E+00 0.18946125E+04</pdfrwt>
<pdfrwt beam="2">  1       -1 0.66531708E-01 0.18946125E+04</pdfrwt>
<totfact> 0.14817653E+01</totfact>
</mgrwt>
</event>
<event>
12    7  0.1606355E-007  0.1969908E+04  0.7818608E-02  0.8620820E-01
         -1   -1    0    0    0  501 -0.00000000000E+00  0.00000000000E+00  0.54580536242E+03  0.54580536242E+03  0.00000000000E+00 0.  1.
          2   -1    0    0  501    0  0.00000000000E+00 -0.00000000000E+00 -0.17774360578E+04  0.17774360578E+04  0.00000000000E+00 0. -1.
         24    2    1    2    0    0  0.40795579854E+03  0.62276404987E+03 -0.75571944786E+03  0.10640120103E+04  0.82138168961E+02 0.  0.
        254    2    1    2    0    0 -0.40795579854E+03 -0.62276404987E+03 -0.47591124753E+03  0.12592294099E+04  0.89716453116E+03 0.  0.
         23    2    4    4    0    0 -0.53872475244E+03 -0.41289242919E+03 -0.64772029193E+03  0.94230753045E+03  0.87734761608E+02 0.  0.
         23    2    4    4    0    0  0.13076895390E+03 -0.20987162068E+03  0.17180904440E+03  0.31692187949E+03  0.98866139251E+02 0.  0.
          4    1    3    3  502    0  0.31686922913E+02  0.64593917060E+02 -0.10851432653E+03  0.13019905633E+03  0.00000000000E+00 0. -1.
         -3    1    3    3    0  502  0.37626887563E+03  0.55817013281E+03 -0.64720512132E+03  0.93381295397E+03  0.00000000000E+00 0.  1.
         13    1    5    5    0    0 -0.53104356582E+03 -0.41453188371E+03 -0.62764657458E+03  0.92075196117E+03  0.00000000000E+00 0.  1.
        -13    1    5    5    0    0 -0.76811866203E+01  0.16394545166E+01 -0.20073717351E+02  0.21555569287E+02  0.00000000000E+00 0. -1.
          4    1    6    6  503    0  0.25899820499E+02 -0.13251566003E+03  0.10095804284E+03  0.16859337848E+03  0.00000000000E+00 0. -1.
         -4    1    6    6    0  503  0.10486913340E+03 -0.77355960650E+02  0.70851001565E+02  0.14832850101E+03  0.00000000000E+00 0.  1.
<mgrwt>
<rscale>  0 0.19699077E+04</rscale>
<asrwt>0</asrwt>
<pdfrwt beam="1">  1        2 0.27345170E+00 0.19699077E+04</pdfrwt>
<pdfrwt beam="2">  1       -1 0.83970057E-01 0.19699077E+04</pdfrwt>
<totfact> 0.13241419E+01</totfact>
</mgrwt>
</event>
<event>
12    7  0.1606355E-007  0.1294648E+04  0.7818608E-02  0.9033820E-01
          2   -1    0    0  501    0  0.00000000000E+00  0.00000000000E+00  0.15738626166E+04  0.15738626166E+04  0.00000000000E+00 0. -1.
         -1   -1    0    0    0  501 -0.00000000000E+00 -0.00000000000E+00 -0.26624200000E+03  0.26624200000E+03  0.00000000000E+00 0.  1.
         24    2    1    2    0    0  0.28399902598E+02 -0.87177932785E+02  0.81933839540E+03  0.82842911211E+03  0.81073060797E+02 0.  0.
        254    2    1    2    0    0 -0.28399902598E+02  0.87177932785E+02  0.48828222123E+03  0.10116755045E+04  0.88128386598E+03 0.  0.
         23    2    4    4    0    0  0.32460686967E+03  0.19222076815E+03  0.49939062478E+03  0.63231913063E+03  0.90100184781E+02 0.  0.
         23    2    4    4    0    0 -0.35300677227E+03 -0.10504283537E+03 -0.11108403544E+02  0.37935637389E+03  0.90222409890E+02 0.  0.
          4    1    3    3  502    0  0.29693707974E+02 -0.13682227820E+02  0.48522631379E+03  0.48632653151E+03  0.00000000000E+00 0. -1.
         -3    1    3    3    0  502 -0.12938053765E+01 -0.73495704965E+02  0.33411208160E+03  0.34210258060E+03  0.00000000000E+00 0.  1.
         13    1    5    5    0    0  0.35664614740E+02 -0.14864288847E+00  0.21431215312E+02  0.41608698958E+02  0.00000000000E+00 0.  1.
        -13    1    5    5    0    0  0.28894225493E+03  0.19236941104E+03  0.47795940946E+03  0.59071043167E+03  0.00000000000E+00 0. -1.
          4    1    6    6  503    0 -0.15073771198E+03 -0.72342066464E+02  0.31340280452E+02  0.17011009838E+03  0.00000000000E+00 0.  1.
         -4    1    6    6    0  503 -0.20226906029E+03 -0.32700768902E+02 -0.42448683996E+02  0.20924627550E+03  0.00000000000E+00 0. -1.
<mgrwt>
<rscale>  0 0.12946480E+04</rscale>
<asrwt>0</asrwt>
<pdfrwt beam="1">  1        2 0.24213270E+00 0.12946480E+04</pdfrwt>
<pdfrwt beam="2">  1       -1 0.40960309E-01 0.12946480E+04</pdfrwt>
<totfact> 0.75122947E+01</totfact>
</mgrwt>
</event>
<event>
12    7  0.1606355E-007  0.1338906E+04  0.7818608E-02  0.8999269E-01
         -1   -1    0    0    0  501 -0.00000000000E+00  0.00000000000E+00  0.56876935537E+03  0.56876935537E+03  0.00000000000E+00 0.  1.
          2   -1    0    0  501    0  0.00000000000E+00 -0.00000000000E+00 -0.78796003380E+03  0.78796003380E+03  0.00000000000E+00 0. -1.
         24    2    1    2    0    0 -0.28962489248E+03 -0.20386388589E+03 -0.24891017083E+02  0.36407959294E+03  0.80568759168E+02 0.  0.
        254    2    1    2    0    0  0.28962489248E+03  0.20386388589E+03 -0.19429966135E+03  0.99264979623E+03  0.90672939582E+03 0.  0.
         23    2    4    4    0    0 -0.20810928090E+02  0.10395277575E+03  0.33567472857E+03  0.36324687113E+03  0.89618589983E+02 0.  0.
         23    2    4    4    0    0  0.31043582057E+03  0.99911110143E+02 -0.52997438991E+03  0.62940292510E+03  0.94459300982E+02 0.  0.
          4    1    3    3  502    0 -0.11358967588E+03 -0.82196642480E+02  0.29513873214E+02  0.14328283642E+03  0.00000000000E+00 0. -1.
         -3    1    3    3    0  502 -0.17603521660E+03 -0.12166724341E+03 -0.54404890297E+02  0.22079675652E+03  0.00000000000E+00 0.  1.
         13    1    5    5    0    0 -0.20985591335E+02  0.77155208352E+02  0.11001919701E+03  0.13600567977E+03  0.00000000000E+00 0. -1.
        -13    1    5    5    0    0  0.17466324529E+00  0.26797567395E+02  0.22565553156E+03  0.22724119135E+03  0.00000000000E+00 0.  1.
          3    1    6    6  503    0  0.56995541213E+02  0.60339037060E+02 -0.13156156831E+03  0.15555621932E+03  0.00000000000E+00 0. -1.
         -3    1    6    6    0  503  0.25344027935E+03  0.39572073083E+02 -0.39841282160E+03  0.47384670579E+03  0.00000000000E+00 0.  1.
<mgrwt>
<rscale>  0 0.13389063E+04</rscale>
<asrwt>0</asrwt>
<pdfrwt beam="1">  1        2 0.12122462E+00 0.13389063E+04</pdfrwt>
<pdfrwt beam="2">  1       -1 0.87502978E-01 0.13389063E+04</pdfrwt>
<totfact> 0.50435176E+01</totfact>
</mgrwt>
</event>
<event>
12    7  0.1606355E-007  0.1832505E+04  0.7818608E-02  0.8689202E-01
         -3   -1    0    0    0  501 -0.00000000000E+00  0.00000000000E+00  0.71328687617E+03  0.71328687617E+03  0.00000000000E+00 0.  1.
          4   -1    0    0  501    0  0.00000000000E+00 -0.00000000000E+00 -0.11769723074E+04  0.11769723074E+04  0.00000000000E+00 0. -1.
         24    2    1    2    0    0  0.76748485903E+02 -0.68111268153E+03 -0.30180372303E+03  0.75340903090E+03  0.82066226786E+02 0.  0.
        254    2    1    2    0    0 -0.76748485903E+02  0.68111268153E+03 -0.16188170820E+03  0.11368501527E+04  0.89242241521E+03 0.  0.
         23    2    4    4    0    0  0.30709887432E+03  0.42103504448E+03  0.17397769753E+03  0.55722611970E+03  0.93018718300E+02 0.  0.
         23    2    4    4    0    0 -0.38384736022E+03  0.26007763704E+03 -0.33585940572E+03  0.57962403297E+03  0.90461626939E+02 0.  0.
          2    1    3    3  502    0  0.70684289518E+02 -0.59963034998E+03 -0.29332749457E+03  0.67126287285E+03  0.00000000000E+00 0. -1.
         -1    1    3    3    0  502  0.60641963848E+01 -0.81482331550E+02 -0.84762284542E+01  0.82146158045E+02  0.00000000000E+00 0.  1.
         13    1    5    5    0    0  0.47539381955E+02  0.13498239578E+03  0.46760361873E+02  0.15055487854E+03  0.00000000000E+00 0.  1.
        -13    1    5    5    0    0  0.25955949236E+03  0.28605264870E+03  0.12721733565E+03  0.40667124117E+03  0.00000000000E+00 0. -1.
          3    1    6    6  503    0 -0.38619468405E+03  0.25519980707E+03 -0.31965981239E+03  0.56254392822E+03  0.00000000000E+00 0. -1.
         -3    1    6    6    0  503  0.23473238251E+01  0.48778299690E+01 -0.16199593332E+02  0.17080104756E+02  0.00000000000E+00 0.  1.
<mgrwt>
<rscale>  0 0.18325053E+04</rscale>
<asrwt>0</asrwt>
<pdfrwt beam="1">  1        4 0.18107266E+00 0.18325053E+04</pdfrwt>
<pdfrwt beam="2">  1       -3 0.10973644E+00 0.18325053E+04</pdfrwt>
<totfact> 0.26659535E-01</totfact>
</mgrwt>
</event>
<event>
12    7  0.1606355E-007  0.2116081E+04  0.7818608E-02  0.8554192E-01
         -1   -1    0    0    0  501 -0.00000000000E+00  0.00000000000E+00  0.31035638308E+03  0.31035638308E+03  0.00000000000E+00 0.  1.
          2   -1    0    0  501    0  0.00000000000E+00 -0.00000000000E+00 -0.36069828767E+04  0.36069828767E+04  0.00000000000E+00 0. -1.
         24    2    1    2    0    0  0.41094284679E+03  0.51732021755E+03 -0.32260262912E+03  0.73950574553E+03  0.79385518427E+02 0.  0.
        254    2    1    2    0    0 -0.41094284679E+03 -0.51732021755E+03 -0.29740238645E+04  0.31778335143E+04  0.90405401767E+03 0.  0.
         23    2    4    4    0    0  0.40355227649E+02 -0.63481086690E+03 -0.17961166506E+04  0.19074811337E+04  0.88520457427E+02 0.  0.
         23    2    4    4    0    0 -0.45129807444E+03  0.11749064935E+03 -0.11779072139E+04  0.12703523806E+04  0.94105057065E+02 0.  0.
          2    1    3    3  502    0  0.96569480211E+02  0.13627221570E+03 -0.11961229373E+03  0.20543340062E+03  0.00000000000E+00 0. -1.
         -1    1    3    3    0  502  0.31437336658E+03  0.38104800185E+03 -0.20299033539E+03  0.53407234491E+03  0.00000000000E+00 0.  1.
         13    1    5    5    0    0  0.50622215566E+02 -0.32610837513E+03 -0.10244832987E+04  0.10763249093E+04  0.00000000000E+00 0.  1.
        -13    1    5    5    0    0 -0.10266987918E+02 -0.30870249177E+03 -0.77163335195E+03  0.83115622436E+03  0.00000000000E+00 0. -1.
          2    1    6    6  503    0 -0.18074238850E+02 -0.22297914208E+01 -0.11331717105E+03  0.11477121300E+03  0.00000000000E+00 0. -1.
         -2    1    6    6    0  503 -0.43322383559E+03  0.11972044077E+03 -0.10645900429E+04  0.11555811676E+04  0.00000000000E+00 0.  1.
<mgrwt>
<rscale>  0 0.21160814E+04</rscale>
<asrwt>0</asrwt>
<pdfrwt beam="1">  1        2 0.55492045E+00 0.21160814E+04</pdfrwt>
<pdfrwt beam="2">  1       -1 0.47747135E-01 0.21160814E+04</pdfrwt>
<totfact> 0.31475260E+00</totfact>
</mgrwt>
</event>
<event>
12    7  0.1606355E-007  0.1580755E+04  0.7818608E-02  0.8832459E-01
          2   -1    0    0  501    0  0.00000000000E+00  0.00000000000E+00  0.77057570997E+03  0.77057570997E+03  0.00000000000E+00 0. -1.
         -1   -1    0    0    0  501 -0.00000000000E+00 -0.00000000000E+00 -0.81068790315E+03  0.81068790315E+03  0.00000000000E+00 0.  1.
         24    2    1    2    0    0  0.55666592216E+01  0.52183122777E+03  0.12063394415E+03  0.54147827398E+03  0.79418856315E+02 0.  0.
        254    2    1    2    0    0 -0.55666592216E+01 -0.52183122777E+03 -0.16074613733E+03  0.10397853391E+04  0.88485897908E+03 0.  0.
         23    2    4    4    0    0  0.10495375460E+03 -0.73488784077E+03 -0.21274348594E+03  0.77755391719E+03  0.90856338285E+02 0.  0.
         23    2    4    4    0    0 -0.11052041382E+03  0.21305661301E+03  0.51997348609E+02  0.26223142195E+03  0.91944070945E+02 0.  0.
          4    1    3    3  502    0  0.21436925889E+02  0.46037877951E+03  0.84869810732E+02  0.46862676747E+03  0.00000000000E+00 0. -1.
         -3    1    3    3    0  502 -0.15870266667E+02  0.61452448253E+02  0.35764133422E+02  0.72851506504E+02  0.00000000000E+00 0.  1.
         13    1    5    5    0    0  0.20784982751E+02 -0.49906974638E+02 -0.36635092953E+02  0.65305831755E+02  0.00000000000E+00 0.  1.
        -13    1    5    5    0    0  0.84168771848E+02 -0.68498086613E+03 -0.17610839299E+03  0.71224808543E+03  0.00000000000E+00 0. -1.
          4    1    6    6  503    0 -0.10920130514E+03  0.12008747703E+03  0.18333637933E+02  0.16334640940E+03  0.00000000000E+00 0. -1.
         -4    1    6    6    0  503 -0.13191086785E+01  0.92969135971E+02  0.33663710676E+02  0.98885012552E+02  0.00000000000E+00 0.  1.
<mgrwt>
<rscale>  0 0.15807548E+04</rscale>
<asrwt>0</asrwt>
<pdfrwt beam="1">  1        2 0.11855011E+00 0.15807548E+04</pdfrwt>
<pdfrwt beam="2">  1       -1 0.12472122E+00 0.15807548E+04</pdfrwt>
<totfact> 0.22341352E+01</totfact>
</mgrwt>
</event>
<event>
12    7  0.1606355E-007  0.2954676E+04  0.7818608E-02  0.8256793E-01
         -1   -1    0    0    0  501 -0.00000000000E+00  0.00000000000E+00  0.19288495982E+04  0.19288495982E+04  0.00000000000E+00 0.  1.
          2   -1    0    0  501    0  0.00000000000E+00 -0.00000000000E+00 -0.11315178283E+04  0.11315178283E+04  0.00000000000E+00 0. -1.
         24    2    1    2    0    0 -0.86695519863E+03  0.10363965297E+04  0.31592051385E+03  0.13898677753E+04  0.78724700493E+02 0.  0.
        254    2    1    2    0    0  0.86695519863E+03 -0.10363965297E+04  0.48141125613E+03  0.16704996512E+04  0.85620278214E+03 0.  0.
         23    2    4    4    0    0  0.39041361452E+02  0.98782161230E+02  0.18061984337E+03  0.23112236021E+03  0.97528838234E+02 0.  0.
         23    2    4    4    0    0  0.82791383718E+03 -0.11351786909E+04  0.30079141276E+03  0.14393772910E+04  0.85202874992E+02 0.  0.
          2    1    3    3  502    0 -0.64555141673E+03  0.75879373569E+03  0.26723103140E+03  0.10314635181E+04  0.00000000000E+00 0. -1.
         -1    1    3    3    0  502 -0.22140378190E+03  0.27760279398E+03  0.48689482451E+02  0.35840425719E+03  0.00000000000E+00 0.  1.
         13    1    5    5    0    0  0.14469203067E+02  0.10887584564E+03  0.17025335760E+03  0.20260679499E+03  0.00000000000E+00 0. -1.
        -13    1    5    5    0    0  0.24572158385E+02 -0.10093684410E+02  0.10366485775E+02  0.28515565223E+02  0.00000000000E+00 0.  1.
          1    1    6    6  503    0  0.46737044924E+03 -0.58359334291E+03  0.18634171910E+03  0.77054497791E+03  0.00000000000E+00 0. -1.
         -1    1    6    6    0  503  0.36054338794E+03 -0.55158534798E+03  0.11444969366E+03  0.66883231312E+03  0.00000000000E+00 0.  1.
<mgrwt>
<rscale>  0 0.29546761E+04</rscale>
<asrwt>0</asrwt>
<pdfrwt beam="1">  1        2 0.17407967E+00 0.29546761E+04</pdfrwt>
<pdfrwt beam="2">  1       -1 0.29674609E+00 0.29546761E+04</pdfrwt>
<totfact> 0.70711848E-01</totfact>
</mgrwt>
</event>
<event>
12    7  0.1606355E-007  0.1392035E+04  0.7818608E-02  0.8959604E-01
         -1   -1    0    0    0  501 -0.00000000000E+00  0.00000000000E+00  0.90051336978E+03  0.90051336978E+03  0.00000000000E+00 0.  1.
          2   -1    0    0  501    0  0.00000000000E+00 -0.00000000000E+00 -0.53796035691E+03  0.53796035691E+03  0.00000000000E+00 0. -1.
         24    2    1    2    0    0 -0.54487811944E+02 -0.20223314396E+03  0.46000639023E+03  0.51181399814E+03  0.80501698601E+02 0.  0.
        254    2    1    2    0    0  0.54487811944E+02  0.20223314396E+03 -0.97453377351E+02  0.92665972855E+03  0.89740399241E+03 0.  0.
         23    2    4    4    0    0 -0.16757874002E+03  0.36834512514E+03 -0.34813078140E+03  0.54178118489E+03  0.92579943907E+02 0.  0.
         23    2    4    4    0    0  0.22206655197E+03 -0.16611198118E+03  0.25067740405E+03  0.38487854366E+03  0.91572859916E+02 0.  0.
          2    1    3    3  502    0  0.59013339477E+01 -0.18284940232E+02  0.11147522288E+03  0.11311892015E+03  0.00000000000E+00 0. -1.
         -1    1    3    3    0  502 -0.60389145892E+02 -0.18394820373E+03  0.34853116735E+03  0.39869507799E+03  0.00000000000E+00 0.  1.
         13    1    5    5    0    0 -0.12563268069E+03  0.18275363681E+03 -0.22004267199E+03  0.31241197115E+03  0.00000000000E+00 0.  1.
        -13    1    5    5    0    0 -0.41946059329E+02  0.18559148833E+03 -0.12808810942E+03  0.22936921373E+03  0.00000000000E+00 0. -1.
          3    1    6    6  503    0  0.12485417024E+02  0.46670671568E+01 -0.35250414874E+01  0.13787424400E+02  0.00000000000E+00 0. -1.
         -3    1    6    6    0  503  0.20958113494E+03 -0.17077904834E+03  0.25420244554E+03  0.37109111926E+03  0.00000000000E+00 0.  1.
<mgrwt>
<rscale>  0 0.13920352E+04</rscale>
<asrwt>0</asrwt>
<pdfrwt beam="1">  1        2 0.82763132E-01 0.13920352E+04</pdfrwt>
<pdfrwt beam="2">  1       -1 0.13854052E+00 0.13920352E+04</pdfrwt>
<totfact> 0.27109419E+01</totfact>
</mgrwt>
</event>
<event>
12    7  0.1606355E-007  0.1633253E+04  0.7818608E-02  0.8800376E-01
         -1   -1    0    0    0  501 -0.00000000000E+00  0.00000000000E+00  0.54728776241E+03  0.54728776241E+03  0.00000000000E+00 0.  1.
          2   -1    0    0  501    0  0.00000000000E+00 -0.00000000000E+00 -0.12185154455E+04  0.12185154455E+04  0.00000000000E+00 0. -1.
         24    2    1    2    0    0 -0.49264501144E+02 -0.77824602030E+01 -0.83473091543E+03  0.83998884509E+03  0.79485853730E+02 0.  0.
        254    2    1    2    0    0  0.49264501144E+02  0.77824602030E+01  0.16350323230E+03  0.92581436286E+03  0.90989635110E+03 0.  0.
         23    2    4    4    0    0 -0.80089785690E+02 -0.20770278724E+03  0.46392083903E+03  0.52360659051E+03  0.96883926130E+02 0.  0.
         23    2    4    4    0    0  0.12935428683E+03  0.21548524744E+03 -0.30041760673E+03  0.40220777235E+03  0.91399837608E+02 0.  0.
          2    1    3    3  502    0 -0.48559629831E+02 -0.37076548964E+02 -0.65959419351E+03  0.66241769923E+03  0.00000000000E+00 0. -1.
         -3    1    3    3    0  502 -0.70487131274E+00  0.29294088761E+02 -0.17513672192E+03  0.17757114587E+03  0.00000000000E+00 0.  1.
         13    1    5    5    0    0  0.12793682087E+02 -0.87654363844E+02  0.13664985333E+03  0.16285007896E+03  0.00000000000E+00 0. -1.
        -13    1    5    5    0    0 -0.92883467778E+02 -0.12004842340E+03  0.32727098569E+03  0.36075651155E+03  0.00000000000E+00 0.  1.
          3    1    6    6  503    0  0.57353843161E+02  0.17424585450E+03 -0.19019239187E+03  0.26424274268E+03  0.00000000000E+00 0. -1.
         -3    1    6    6    0  503  0.72000443673E+02  0.41239392948E+02 -0.11022521486E+03  0.13796502966E+03  0.00000000000E+00 0.  1.
<mgrwt>
<rscale>  0 0.16332527E+04</rscale>
<asrwt>0</asrwt>
<pdfrwt beam="1">  1        2 0.18746391E+00 0.16332527E+04</pdfrwt>
<pdfrwt beam="2">  1       -1 0.84198118E-01 0.16332527E+04</pdfrwt>
<totfact> 0.28146371E+01</totfact>
</mgrwt>
</event>
<event>
12    7  0.1606355E-007  0.1841885E+04  0.7818608E-02  0.8684337E-01
         -1   -1    0    0    0  501 -0.00000000000E+00  0.00000000000E+00  0.77501944116E+03  0.77501944116E+03  0.00000000000E+00 0.  1.
          2   -1    0    0  501    0  0.00000000000E+00 -0.00000000000E+00 -0.10943401741E+04  0.10943401741E+04  0.00000000000E+00 0. -1.
         24    2    1    2    0    0 -0.54621473900E+03  0.18638057462E+03 -0.53002394272E+03  0.79117909601E+03  0.10931935972E+03 0.  0.
        254    2    1    2    0    0  0.54621473900E+03 -0.18638057462E+03  0.21070320976E+03  0.10781805193E+04  0.88599612293E+03 0.  0.
         23    2    4    4    0    0  0.73839576418E+03 -0.27413311025E+03  0.27529918184E+03  0.83940384329E+03  0.91825409967E+02 0.  0.
         23    2    4    4    0    0 -0.19218102517E+03  0.87752535624E+02 -0.64595972085E+02  0.23877667599E+03  0.90595846706E+02 0.  0.
          2    1    3    3  502    0 -0.53091239692E+03  0.19207330509E+03 -0.53067471284E+03  0.77483919531E+03  0.00000000000E+00 0. -1.
         -1    1    3    3    0  502 -0.15302342082E+02 -0.56927304695E+01  0.65077011888E+00  0.16339900708E+02  0.00000000000E+00 0.  1.
         13    1    5    5    0    0  0.24049976567E+03 -0.12230343857E+03  0.12668816183E+03  0.29807408260E+03  0.00000000000E+00 0.  1.
        -13    1    5    5    0    0  0.49789599851E+03 -0.15182967168E+03  0.14861102001E+03  0.54132976069E+03  0.00000000000E+00 0. -1.
          3    1    6    6  503    0 -0.79324091298E+02 -0.72106239855E+01 -0.40398129165E+02  0.89310208814E+02  0.00000000000E+00 0. -1.
         -3    1    6    6    0  503 -0.11285693388E+03  0.94963159610E+02 -0.24197842921E+02  0.14946646717E+03  0.00000000000E+00 0.  1.
<mgrwt>
<rscale>  0 0.18418848E+04</rscale>
<asrwt>0</asrwt>
<pdfrwt beam="1">  1        2 0.16836003E+00 0.18418848E+04</pdfrwt>
<pdfrwt beam="2">  1       -1 0.11923376E+00 0.18418848E+04</pdfrwt>
<totfact> 0.14823991E+01</totfact>
</mgrwt>
</event>
<event>
12    7  0.1606355E-007  0.1858514E+04  0.7818608E-02  0.8675787E-01
          2   -1    0    0  501    0  0.00000000000E+00  0.00000000000E+00  0.13779502680E+04  0.13779502680E+04  0.00000000000E+00 0. -1.
         -1   -1    0    0    0  501 -0.00000000000E+00 -0.00000000000E+00 -0.62666909870E+03  0.62666909870E+03  0.00000000000E+00 0.  1.
         24    2    1    2    0    0 -0.58590069552E+03 -0.37262513526E+03  0.13668030535E+03  0.71489006960E+03  0.10127778288E+03 0.  0.
        254    2    1    2    0    0  0.58590069552E+03  0.37262513526E+03  0.61460086393E+03  0.12897292971E+04  0.89640299049E+03 0.  0.
         23    2    4    4    0    0  0.47801151331E+03 -0.18928567445E+03  0.44502697849E+03  0.68606567521E+03  0.91175795610E+02 0.  0.
         23    2    4    4    0    0  0.10788918220E+03  0.56191080972E+03  0.16957388543E+03  0.60366362186E+03  0.90943015285E+02 0.  0.
          2    1    3    3  502    0 -0.28800975499E+01  0.34660642822E+01  0.81105207785E+01  0.92784217841E+01  0.00000000000E+00 0. -1.
         -1    1    3    3    0  502 -0.58302059797E+03 -0.37609119954E+03  0.12856978457E+03  0.70561164781E+03  0.00000000000E+00 0.  1.
         13    1    5    5    0    0  0.35716619069E+03 -0.18155676745E+03  0.33034255398E+03  0.51928484529E+03  0.00000000000E+00 0.  1.
        -13    1    5    5    0    0  0.12084532263E+03 -0.77289070022E+01  0.11468442451E+03  0.16678082992E+03  0.00000000000E+00 0. -1.
          4    1    6    6  503    0 -0.48229356642E+01  0.16862175183E+03  0.69735452328E+02  0.18253654212E+03  0.00000000000E+00 0. -1.
         -4    1    6    6    0  503  0.11271211787E+03  0.39328905789E+03  0.99838433105E+02  0.42112707974E+03  0.00000000000E+00 0.  1.
<mgrwt>
<rscale>  0 0.18585143E+04</rscale>
<asrwt>0</asrwt>
<pdfrwt beam="1">  1        2 0.21199235E+00 0.18585143E+04</pdfrwt>
<pdfrwt beam="2">  1       -1 0.96410631E-01 0.18585143E+04</pdfrwt>
<totfact> 0.16527450E+01</totfact>
</mgrwt>
</event>
<event>
12    7  0.1606355E-007  0.1284914E+04  0.7818608E-02  0.9041615E-01
          2   -1    0    0  501    0  0.00000000000E+00  0.00000000000E+00  0.68007095236E+03  0.68007095236E+03  0.00000000000E+00 0. -1.
         -1   -1    0    0    0  501 -0.00000000000E+00 -0.00000000000E+00 -0.60692344652E+03  0.60692344652E+03  0.00000000000E+00 0.  1.
         24    2    1    2    0    0 -0.23989857261E+03 -0.10931649360E+03  0.19323753681E+03  0.33659554292E+03  0.80339236800E+02 0.  0.
        254    2    1    2    0    0  0.23989857261E+03  0.10931649360E+03 -0.12009003097E+03  0.95039885595E+03  0.90517122631E+03 0.  0.
         23    2    4    4    0    0 -0.14991771922E+02  0.47490782156E+03 -0.97103405449E+02  0.49521522988E+03  0.10023402792E+03 0.  0.
         23    2    4    4    0    0  0.25489034453E+03 -0.36559132796E+03 -0.22986625516E+02  0.45518362607E+03  0.89652895502E+02 0.  0.
          4    1    3    3  502    0 -0.18919635285E+03 -0.57999785372E+02  0.16977882668E+03  0.26073757885E+03  0.00000000000E+00 0. -1.
         -3    1    3    3    0  502 -0.50702219759E+02 -0.51316708230E+02  0.23458710121E+02  0.75857964069E+02  0.00000000000E+00 0.  1.
         13    1    5    5    0    0 -0.45725095624E+02  0.23568897168E+03 -0.15437888620E+02  0.24057930948E+03  0.00000000000E+00 0.  1.
        -13    1    5    5    0    0  0.30733323703E+02  0.23921884988E+03 -0.81665516829E+02  0.25463592041E+03  0.00000000000E+00 0. -1.
          3    1    6    6  503    0  0.12265018418E+03 -0.24698090292E+03  0.22008147760E+01  0.27576707141E+03  0.00000000000E+00 0. -1.
         -3    1    6    6    0  503  0.13224016035E+03 -0.11861042504E+03 -0.25187440292E+02  0.17941655466E+03  0.00000000000E+00 0.  1.
<mgrwt>
<rscale>  0 0.12849140E+04</rscale>
<asrwt>0</asrwt>
<pdfrwt beam="1">  1        2 0.10462630E+00 0.12849140E+04</pdfrwt>
<pdfrwt beam="2">  1       -1 0.93372838E-01 0.12849140E+04</pdfrwt>
<totfact> 0.53042717E+01</totfact>
</mgrwt>
</event>
<event>
12    7  0.1606355E-007  0.2529014E+04  0.7818608E-02  0.8392722E-01
          2   -1    0    0  501    0  0.00000000000E+00  0.00000000000E+00  0.23510308468E+04  0.23510308468E+04  0.00000000000E+00 0. -1.
         -1   -1    0    0    0  501 -0.00000000000E+00 -0.00000000000E+00 -0.68011768934E+03  0.68011768934E+03  0.00000000000E+00 0.  1.
         24    2    1    2    0    0  0.69246224126E+03 -0.84655392981E+02  0.17510048743E+04  0.18865686376E+04  0.80328470922E+02 0.  0.
        254    2    1    2    0    0 -0.69246224126E+03  0.84655392981E+02 -0.80091716878E+02  0.11445798986E+04  0.90386833662E+03 0.  0.
         23    2    4    4    0    0  0.19448546420E+03 -0.77255057628E+02 -0.62990682684E+02  0.23804602061E+03  0.94367060529E+02 0.  0.
         23    2    4    4    0    0 -0.88694770545E+03  0.16191045061E+03 -0.17101034193E+02  0.90653387794E+03  0.92843956530E+02 0.  0.
          4    1    3    3  502    0  0.69297751708E+03 -0.87746417581E+02  0.17363908640E+04  0.18716224260E+04  0.00000000000E+00 0. -1.
         -3    1    3    3    0  502 -0.51527581761E+00  0.30910245993E+01  0.14614010346E+02  0.14946211581E+02  0.00000000000E+00 0.  1.
         13    1    5    5    0    0  0.18360403103E+03 -0.78663565614E+02 -0.28397362305E+02  0.20175432325E+03  0.00000000000E+00 0.  1.
        -13    1    5    5    0    0  0.10881433166E+02  0.14085079858E+01 -0.34593320380E+02  0.36291697361E+02  0.00000000000E+00 0. -1.
          2    1    6    6  503    0 -0.12556165225E+03  0.56608231664E+02 -0.38554351874E+01  0.13778637374E+03  0.00000000000E+00 0. -1.
         -2    1    6    6    0  503 -0.76138605320E+03  0.10530221895E+03 -0.13245599006E+02  0.76874750420E+03  0.00000000000E+00 0.  1.
<mgrwt>
<rscale>  0 0.25290138E+04</rscale>
<asrwt>0</asrwt>
<pdfrwt beam="1">  1        2 0.36169705E+00 0.25290138E+04</pdfrwt>
<pdfrwt beam="2">  1       -1 0.10463349E+00 0.25290138E+04</pdfrwt>
<totfact> 0.36826793E+00</totfact>
</mgrwt>
</event>
<event>
12    7  0.1606355E-007  0.1685740E+04  0.7818608E-02  0.8769539E-01
          2   -1    0    0  501    0  0.00000000000E+00  0.00000000000E+00  0.13969647734E+04  0.13969647734E+04  0.00000000000E+00 0. -1.
         -1   -1    0    0    0  501 -0.00000000000E+00 -0.00000000000E+00 -0.50855250360E+03  0.50855250360E+03  0.00000000000E+00 0.  1.
         24    2    1    2    0    0 -0.42571636064E+03  0.26669445515E+03 -0.36054960189E+02  0.50987155001E+03  0.79427232321E+02 0.  0.
        254    2    1    2    0    0  0.42571636064E+03 -0.26669445515E+03  0.92446722996E+03  0.13956457270E+04  0.91696618464E+03 0.  0.
         23    2    4    4    0    0  0.84004284808E+02  0.32546945909E+03  0.39065699301E+03  0.52362999909E+03  0.92673626766E+02 0.  0.
         23    2    4    4    0    0  0.34171207583E+03 -0.59216391424E+03  0.53381023695E+03  0.87201572786E+03  0.89625980998E+02 0.  0.
          4    1    3    3  502    0 -0.16185722003E+03  0.90770651984E+02  0.23963287641E+02  0.18711309439E+03  0.00000000000E+00 0. -1.
         -3    1    3    3    0  502 -0.26385914061E+03  0.17592380316E+03 -0.60018247830E+02  0.32275845562E+03  0.00000000000E+00 0.  1.
         13    1    5    5    0    0  0.10381898829E+03  0.27383696885E+03  0.31778583701E+03  0.43214917106E+03  0.00000000000E+00 0.  1.
        -13    1    5    5    0    0 -0.19814703480E+02  0.51632490239E+02  0.72871155995E+02  0.91480828037E+02  0.00000000000E+00 0. -1.
          3    1    6    6  503    0  0.32292310525E+03 -0.51016571264E+03  0.48728844485E+03  0.77588556807E+03  0.00000000000E+00 0. -1.
         -3    1    6    6    0  503  0.18788970581E+02 -0.81998201598E+02  0.46521792097E+02  0.96130159787E+02  0.00000000000E+00 0.  1.
<mgrwt>
<rscale>  0 0.16857401E+04</rscale>
<asrwt>0</asrwt>
<pdfrwt beam="1">  1        2 0.21491766E+00 0.16857401E+04</pdfrwt>
<pdfrwt beam="2">  1       -1 0.78238847E-01 0.16857401E+04</pdfrwt>
<totfact> 0.25799505E+01</totfact>
</mgrwt>
</event>
<event>
12    7  0.1606355E-007  0.1684231E+04  0.7818608E-02  0.8770410E-01
          2   -1    0    0  501    0  0.00000000000E+00  0.00000000000E+00  0.15268337861E+04  0.15268337861E+04  0.00000000000E+00 0. -1.
         -1   -1    0    0    0  501 -0.00000000000E+00 -0.00000000000E+00 -0.46446334153E+03  0.46446334153E+03  0.00000000000E+00 0.  1.
         24    2    1    2    0    0 -0.53495497642E+03  0.22754717598E+03  0.22984726281E+03  0.63037990461E+03  0.81206624225E+02 0.  0.
        254    2    1    2    0    0  0.53495497642E+03 -0.22754717598E+03  0.83252318173E+03  0.13609172230E+04  0.90611604976E+03 0.  0.
         23    2    4    4    0    0  0.15542138107E+03 -0.51011412364E+03  0.64963863620E+03  0.84544193137E+03  0.91484844854E+02 0.  0.
         23    2    4    4    0    0  0.37953359534E+03  0.28256694766E+03  0.18288454552E+03  0.51547529162E+03  0.91532449864E+02 0.  0.
          4    1    3    3  502    0 -0.16824540146E+02  0.12676379469E+02  0.26244910121E+02  0.33653395889E+02  0.00000000000E+00 0. -1.
         -3    1    3    3    0  502 -0.51813043627E+03  0.21487079651E+03  0.20360235269E+03  0.59672650872E+03  0.00000000000E+00 0.  1.
         13    1    5    5    0    0  0.11102441502E+03 -0.44645658735E+03  0.58640522470E+03  0.74533280665E+03  0.00000000000E+00 0. -1.
        -13    1    5    5    0    0  0.44396966051E+02 -0.63657536292E+02  0.63233411506E+02  0.10010912472E+03  0.00000000000E+00 0.  1.
          2    1    6    6  503    0  0.32144214771E+03  0.24897826059E+03  0.12105041797E+03  0.42422686415E+03  0.00000000000E+00 0. -1.
         -2    1    6    6    0  503  0.58091447632E+02  0.33588687070E+02  0.61834127550E+02  0.91248427476E+02  0.00000000000E+00 0.  1.
<mgrwt>
<rscale>  0 0.16842308E+04</rscale>
<asrwt>0</asrwt>
<pdfrwt beam="1">  1        2 0.23489750E+00 0.16842308E+04</pdfrwt>
<pdfrwt beam="2">  1       -1 0.71455899E-01 0.16842308E+04</pdfrwt>
<totfact> 0.26315150E+01</totfact>
</mgrwt>
</event>
<event>
12    7  0.1606355E-007  0.1168340E+04  0.7818608E-02  0.9141029E-01
          2   -1    0    0  501    0  0.00000000000E+00  0.00000000000E+00  0.77154112488E+03  0.77154112488E+03  0.00000000000E+00 0. -1.
         -1   -1    0    0    0  501 -0.00000000000E+00 -0.00000000000E+00 -0.44230267980E+03  0.44230267980E+03  0.00000000000E+00 0.  1.
         24    2    1    2    0    0  0.20175069687E+03 -0.81298960988E+01  0.24990397871E+03  0.33157243636E+03  0.81968549347E+02 0.  0.
        254    2    1    2    0    0 -0.20175069687E+03  0.81298960988E+01  0.79334466371E+02  0.88227136832E+03  0.85518382287E+03 0.  0.
         23    2    4    4    0    0  0.25805091514E+03 -0.21618779378E+03  0.96664124955E+02  0.36236448500E+03  0.92933470567E+02 0.  0.
         23    2    4    4    0    0 -0.45980161201E+03  0.22431768988E+03 -0.17329658584E+02  0.51990688332E+03  0.90922504687E+02 0.  0.
          4    1    3    3  502    0  0.15473719590E+03  0.28117459502E+02  0.19680561781E+03  0.25192586712E+03  0.00000000000E+00 0. -1.
         -3    1    3    3    0  502  0.47013500971E+02 -0.36247355600E+02  0.53098360905E+02  0.79646569244E+02  0.00000000000E+00 0.  1.
         13    1    5    5    0    0 -0.25527096831E+01 -0.24116872501E+02  0.14895987161E+02  0.28461031243E+02  0.00000000000E+00 0. -1.
        -13    1    5    5    0    0  0.26060362482E+03 -0.19207092128E+03  0.81768137794E+02  0.33390345375E+03  0.00000000000E+00 0.  1.
          3    1    6    6  503    0 -0.36912606854E+02  0.26537243082E+02 -0.27146864995E+02  0.52950147254E+02  0.00000000000E+00 0. -1.
         -3    1    6    6    0  503 -0.42288900516E+03  0.19778044679E+03  0.98172064109E+01  0.46695673607E+03  0.00000000000E+00 0.  1.
<mgrwt>
<rscale>  0 0.11683402E+04</rscale>
<asrwt>0</asrwt>
<pdfrwt beam="1">  1        2 0.11869863E+00 0.11683402E+04</pdfrwt>
<pdfrwt beam="2">  1       -1 0.68046566E-01 0.11683402E+04</pdfrwt>
<totfact> 0.89225060E+01</totfact>
</mgrwt>
</event>
<event>
12    7  0.1606355E-007  0.1564081E+04  0.7818608E-02  0.8842924E-01
         -3   -1    0    0    0  501 -0.00000000000E+00  0.00000000000E+00  0.46973798705E+03  0.46973798705E+03  0.00000000000E+00 0.  1.
          2   -1    0    0  501    0  0.00000000000E+00 -0.00000000000E+00 -0.13019748180E+04  0.13019748180E+04  0.00000000000E+00 0. -1.
         24    2    1    2    0    0  0.11251098743E+03  0.47591389400E+00  0.29743284301E+03  0.32676662532E+03  0.75174347604E+02 0.  0.
        254    2    1    2    0    0 -0.11251098743E+03 -0.47591389400E+00 -0.11296696740E+04  0.14449461798E+04  0.89389984969E+03 0.  0.
         23    2    4    4    0    0  0.11368447985E+03 -0.13469829606E+03 -0.11503869276E+04  0.11673731218E+04  0.91116027823E+02 0.  0.
         23    2    4    4    0    0 -0.22619546728E+03  0.13422238217E+03  0.20717253557E+02  0.27757305794E+03  0.86241292945E+02 0.  0.
          4    1    3    3  502    0  0.60261552624E+02  0.32568293879E+02  0.20232022492E+03  0.21360154939E+03  0.00000000000E+00 0. -1.
         -3    1    3    3    0  502  0.52249434808E+02 -0.32092379985E+02  0.95112618092E+02  0.11316507593E+03  0.00000000000E+00 0.  1.
         13    1    5    5    0    0  0.78187058174E+02 -0.36697057242E+02 -0.68700490258E+03  0.69241290156E+03  0.00000000000E+00 0.  1.
        -13    1    5    5    0    0  0.35497421674E+02 -0.98001238821E+02 -0.46338202498E+03  0.47496022026E+03  0.00000000000E+00 0. -1.
          2    1    6    6  503    0 -0.20440081899E+02  0.47800318607E+02 -0.78765532637E+01  0.52580485908E+02  0.00000000000E+00 0. -1.
         -2    1    6    6    0  503 -0.20575538538E+03  0.86422063562E+02  0.28593806821E+02  0.22499257204E+03  0.00000000000E+00 0.  1.
<mgrwt>
<rscale>  0 0.15640806E+04</rscale>
<asrwt>0</asrwt>
<pdfrwt beam="1">  1        2 0.20030382E+00 0.15640806E+04</pdfrwt>
<pdfrwt beam="2">  1       -3 0.72267383E-01 0.15640806E+04</pdfrwt>
<totfact> 0.18390407E+01</totfact>
</mgrwt>
</event>
<event>
12    7  0.1606355E-007  0.1600560E+04  0.7818608E-02  0.8820204E-01
         -1   -1    0    0    0  501 -0.00000000000E+00  0.00000000000E+00  0.45037461813E+03  0.45037461813E+03  0.00000000000E+00 0.  1.
          2   -1    0    0  501    0  0.00000000000E+00 -0.00000000000E+00 -0.14220332445E+04  0.14220332445E+04  0.00000000000E+00 0. -1.
         24    2    1    2    0    0  0.34689099755E+03  0.19617132090E+02  0.13922012866E+03  0.38286203231E+03  0.80516430022E+02 0.  0.
        254    2    1    2    0    0 -0.34689099755E+03 -0.19617132090E+02 -0.11108787551E+04  0.14895458304E+04  0.92950361818E+03 0.  0.
         23    2    4    4    0    0 -0.34094837508E+03  0.29797910567E+03 -0.10592933013E+04  0.11555724925E+04  0.90598815830E+02 0.  0.
         23    2    4    4    0    0 -0.59426224699E+01 -0.31759623776E+03 -0.51585453762E+02  0.33397333782E+03  0.89299755532E+02 0.  0.
          4    1    3    3  502    0  0.97952275487E+02  0.22325649834E+01  0.79742247932E+02  0.12632679338E+03  0.00000000000E+00 0. -1.
         -3    1    3    3    0  502  0.24893872206E+03  0.17384567107E+02  0.59477880726E+02  0.25653523893E+03  0.00000000000E+00 0.  1.
         13    1    5    5    0    0 -0.32509761803E+03  0.30366140827E+03 -0.10162251748E+04  0.11093296706E+04  0.00000000000E+00 0. -1.
        -13    1    5    5    0    0 -0.15850757056E+02 -0.56823026093E+01 -0.43068126469E+02  0.46242821926E+02  0.00000000000E+00 0.  1.
          1    1    6    6  503    0  0.21545055082E+02 -0.11235848288E+03  0.17384910938E+02  0.11571885414E+03  0.00000000000E+00 0. -1.
         -1    1    6    6    0  503 -0.27487677552E+02 -0.20523775487E+03 -0.68970364700E+02  0.21825448369E+03  0.00000000000E+00 0.  1.
<mgrwt>
<rscale>  0 0.16005595E+04</rscale>
<asrwt>0</asrwt>
<pdfrwt beam="1">  1        2 0.21877434E+00 0.16005595E+04</pdfrwt>
<pdfrwt beam="2">  1       -1 0.69288403E-01 0.16005595E+04</pdfrwt>
<totfact> 0.32366776E+01</totfact>
</mgrwt>
</event>
<event>
12    7  0.1606355E-007  0.2038857E+04  0.7818608E-02  0.8588666E-01
         -1   -1    0    0    0  501 -0.00000000000E+00  0.00000000000E+00  0.67276440806E+03  0.67276440806E+03  0.00000000000E+00 0.  1.
          2   -1    0    0  501    0  0.00000000000E+00 -0.00000000000E+00 -0.15447231948E+04  0.15447231948E+04  0.00000000000E+00 0. -1.
         24    2    1    2    0    0  0.13610294855E+03 -0.90359337119E+02 -0.12227547237E+04  0.12361656319E+04  0.79293963221E+02 0.  0.
        254    2    1    2    0    0 -0.13610294855E+03  0.90359337119E+02  0.35079593697E+03  0.98132197100E+03  0.90180164059E+03 0.  0.
         23    2    4    4    0    0 -0.18117103897E+03  0.29835128536E+03 -0.17952748269E+03  0.40286228442E+03  0.90727439812E+02 0.  0.
         23    2    4    4    0    0  0.45068090416E+02 -0.20799194824E+03  0.53032341966E+03  0.57845968658E+03  0.89893805448E+02 0.  0.
          4    1    3    3  502    0  0.12280573338E+03 -0.98994811972E+02 -0.11812566979E+04  0.11917418375E+04  0.00000000000E+00 0. -1.
         -3    1    3    3    0  502  0.13297215168E+02  0.86354748528E+01 -0.41498025834E+02  0.44423794359E+02  0.00000000000E+00 0.  1.
         13    1    5    5    0    0 -0.36796705076E+02  0.13900425335E+03 -0.52241868807E+02  0.15298821134E+03  0.00000000000E+00 0. -1.
        -13    1    5    5    0    0 -0.14437433389E+03  0.15934703201E+03 -0.12728561388E+03  0.24987407308E+03  0.00000000000E+00 0.  1.
          3    1    6    6  503    0  0.28308868875E+02 -0.20409122865E+03  0.43175330483E+03  0.47839893175E+03  0.00000000000E+00 0. -1.
         -3    1    6    6    0  503  0.16759221541E+02 -0.39007195836E+01  0.98570114828E+02  0.10006075483E+03  0.00000000000E+00 0.  1.
<mgrwt>
<rscale>  0 0.20388573E+04</rscale>
<asrwt>0</asrwt>
<pdfrwt beam="1">  1        2 0.23764972E+00 0.20388573E+04</pdfrwt>
<pdfrwt beam="2">  1       -1 0.10350222E+00 0.20388573E+04</pdfrwt>
<totfact> 0.11125152E+01</totfact>
</mgrwt>
</event>
<event>
12    7  0.1606355E-007  0.1448587E+04  0.7818608E-02  0.8919381E-01
          2   -1    0    0  501    0  0.00000000000E+00  0.00000000000E+00  0.76405186616E+03  0.76405186616E+03  0.00000000000E+00 0. -1.
         -1   -1    0    0    0  501 -0.00000000000E+00 -0.00000000000E+00 -0.68660360616E+03  0.68660360616E+03  0.00000000000E+00 0.  1.
         24    2    1    2    0    0 -0.16564112264E+03 -0.36063167620E+03 -0.17961907993E+03  0.44304363649E+03  0.80823651035E+02 0.  0.
        254    2    1    2    0    0  0.16564112264E+03  0.36063167620E+03  0.25706733992E+03  0.10076118358E+04  0.88977851574E+03 0.  0.
         23    2    4    4    0    0  0.22810243745E+03  0.17544612761E+03  0.55959554068E+03  0.63576908506E+03  0.90791490276E+02 0.  0.
         23    2    4    4    0    0 -0.62461314813E+02  0.18518554859E+03 -0.30252820076E+03  0.37184275077E+03  0.92458724810E+02 0.  0.
          4    1    3    3  502    0 -0.24006874582E+02 -0.73763207442E+02 -0.30634377703E+01  0.77631987288E+02  0.00000000000E+00 0. -1.
         -3    1    3    3    0  502 -0.14163424806E+03 -0.28686846876E+03 -0.17655564216E+03  0.36541164920E+03  0.00000000000E+00 0.  1.
         13    1    5    5    0    0 -0.35119639592E+01  0.23972635389E+02  0.58734823139E+02  0.63535821294E+02  0.00000000000E+00 0. -1.
        -13    1    5    5    0    0  0.23161440141E+03  0.15147349222E+03  0.50086071754E+03  0.57223326377E+03  0.00000000000E+00 0.  1.
          4    1    6    6  503    0  0.14118841548E+02  0.84911824589E+02 -0.88947267279E+02  0.12377793017E+03  0.00000000000E+00 0. -1.
         -4    1    6    6    0  503 -0.76580156361E+02  0.10027372400E+03 -0.21358093348E+03  0.24806482060E+03  0.00000000000E+00 0.  1.
<mgrwt>
<rscale>  0 0.14485866E+04</rscale>
<asrwt>0</asrwt>
<pdfrwt beam="1">  1        2 0.11754644E+00 0.14485866E+04</pdfrwt>
<pdfrwt beam="2">  1       -1 0.10563132E+00 0.14485866E+04</pdfrwt>
<totfact> 0.34045540E+01</totfact>
</mgrwt>
</event>
<event>
12    7  0.1606355E-007  0.1459131E+04  0.7818608E-02  0.8912094E-01
         -1   -1    0    0    0  501 -0.00000000000E+00  0.00000000000E+00  0.34977474483E+03  0.34977474483E+03  0.00000000000E+00 0.  1.
          2   -1    0    0  501    0  0.00000000000E+00 -0.00000000000E+00 -0.15217394533E+04  0.15217394533E+04  0.00000000000E+00 0. -1.
         24    2    1    2    0    0  0.41324709936E+02 -0.40739816978E+03 -0.60644329083E+03  0.73593076962E+03  0.78355805684E+02 0.  0.
        254    2    1    2    0    0 -0.41324709936E+02  0.40739816978E+03 -0.56552141763E+03  0.11355834285E+04  0.89557481480E+03 0.  0.
         23    2    4    4    0    0 -0.31026535074E+03  0.56177366125E+03 -0.45762389960E+03  0.79487133254E+03  0.10269648226E+03 0.  0.
         23    2    4    4    0    0  0.26894064080E+03 -0.15437549146E+03 -0.10789751803E+03  0.34071209597E+03  0.91005479527E+02 0.  0.
          4    1    3    3  502    0  0.28879620027E+02 -0.35319076805E+03 -0.56349449716E+03  0.66566042350E+03  0.00000000000E+00 0. -1.
         -3    1    3    3    0  502  0.12445089909E+02 -0.54207401737E+02 -0.42948793675E+02  0.70270346122E+02  0.00000000000E+00 0.  1.
         13    1    5    5    0    0 -0.27583081170E+02  0.11618974961E+03 -0.11446044176E+03  0.16541486333E+03  0.00000000000E+00 0. -1.
        -13    1    5    5    0    0 -0.28268226956E+03  0.44558391163E+03 -0.34316345784E+03  0.62945646921E+03  0.00000000000E+00 0.  1.
          3    1    6    6  503    0  0.74816343554E+02 -0.63489390498E+02  0.53839910203E+01  0.98271945782E+02  0.00000000000E+00 0. -1.
         -3    1    6    6    0  503  0.19412429725E+03 -0.90886100965E+02 -0.11328150905E+03  0.24244015018E+03  0.00000000000E+00 0.  1.
<mgrwt>
<rscale>  0 0.14591313E+04</rscale>
<asrwt>0</asrwt>
<pdfrwt beam="1">  1        2 0.23411376E+00 0.14591313E+04</pdfrwt>
<pdfrwt beam="2">  1       -1 0.53811499E-01 0.14591313E+04</pdfrwt>
<totfact> 0.47494998E+01</totfact>
</mgrwt>
</event>
<event>
12    7  0.1606355E-007  0.1445286E+04  0.7818608E-02  0.8921675E-01
          2   -1    0    0  501    0  0.00000000000E+00  0.00000000000E+00  0.20903992226E+04  0.20903992226E+04  0.00000000000E+00 0. -1.
         -1   -1    0    0    0  501 -0.00000000000E+00 -0.00000000000E+00 -0.24981502797E+03  0.24981502797E+03  0.00000000000E+00 0.  1.
         24    2    1    2    0    0 -0.36497392823E+03 -0.16372184226E+03  0.87507953413E+03  0.96552825117E+03  0.80435084597E+02 0.  0.
        254    2    1    2    0    0  0.36497392823E+03  0.16372184226E+03  0.96550466049E+03  0.13746859994E+04  0.89305741000E+03 0.  0.
         23    2    4    4    0    0  0.22032073601E+03  0.56803567325E+02  0.11023078922E+04  0.11293825323E+04  0.93028722619E+02 0.  0.
         23    2    4    4    0    0  0.14465319223E+03  0.10691827494E+03 -0.13680323169E+03  0.24530346705E+03  0.95407563681E+02 0.  0.
          4    1    3    3  502    0 -0.33989525815E+03 -0.17155670628E+03  0.83351591322E+03  0.91635651772E+03  0.00000000000E+00 0. -1.
         -3    1    3    3    0  502 -0.25078670077E+02  0.78348640170E+01  0.41563620910E+02  0.49171733447E+02  0.00000000000E+00 0.  1.
         13    1    5    5    0    0  0.17320873713E+03  0.71806593271E+02  0.97387760487E+03  0.99176360224E+03  0.00000000000E+00 0. -1.
        -13    1    5    5    0    0  0.47111998880E+02 -0.15003025947E+02  0.12843028731E+03  0.13761893011E+03  0.00000000000E+00 0.  1.
          3    1    6    6  503    0  0.14315243485E+02 -0.15995592555E+02 -0.29467939938E+02  0.36457436298E+02  0.00000000000E+00 0. -1.
         -3    1    6    6    0  503  0.13033794874E+03  0.12291386749E+03 -0.10733529175E+03  0.20884603075E+03  0.00000000000E+00 0.  1.
<mgrwt>
<rscale>  0 0.14452863E+04</rscale>
<asrwt>0</asrwt>
<pdfrwt beam="1">  1        2 0.32159987E+00 0.14452863E+04</pdfrwt>
<pdfrwt beam="2">  1       -1 0.38433083E-01 0.14452863E+04</pdfrwt>
<totfact> 0.43107632E+01</totfact>
</mgrwt>
</event>
<event>
12    7  0.1606355E-007  0.2260902E+04  0.7818608E-02  0.8493498E-01
         -1   -1    0    0    0  501 -0.00000000000E+00  0.00000000000E+00  0.63031195549E+03  0.63031195549E+03  0.00000000000E+00 0.  1.
          2   -1    0    0  501    0  0.00000000000E+00 -0.00000000000E+00 -0.20274392305E+04  0.20274392305E+04  0.00000000000E+00 0. -1.
         24    2    1    2    0    0  0.15874232303E+03  0.40195728762E+03 -0.15791508010E+04  0.16391373179E+04  0.79278675750E+02 0.  0.
        254    2    1    2    0    0 -0.15874232303E+03 -0.40195728762E+03  0.18202352607E+03  0.10186138680E+04  0.90425265378E+03 0.  0.
         23    2    4    4    0    0 -0.15706702429E+03 -0.68054032588E+03  0.16293375022E+03  0.72325150502E+03  0.93488754851E+02 0.  0.
         23    2    4    4    0    0 -0.16752987385E+01  0.27858303826E+03  0.19089775855E+02  0.29536236300E+03  0.96245467958E+02 0.  0.
          4    1    3    3  502    0  0.10421048946E+03  0.31681155642E+03 -0.13047521576E+04  0.13467024843E+04  0.00000000000E+00 0. -1.
         -3    1    3    3    0  502  0.54531833569E+02  0.85145731204E+02 -0.27439864340E+03  0.29243483362E+03  0.00000000000E+00 0.  1.
         13    1    5    5    0    0 -0.16799888715E+03 -0.59273051083E+03  0.14635427241E+03  0.63322401850E+03  0.00000000000E+00 0. -1.
        -13    1    5    5    0    0  0.10931862858E+02 -0.87809815050E+02  0.16579477810E+02  0.90027486520E+02  0.00000000000E+00 0.  1.
          1    1    6    6  503    0  0.38969623906E+02  0.14724005813E+03  0.36926216905E+02  0.15672208460E+03  0.00000000000E+00 0. -1.
         -1    1    6    6    0  503 -0.40644922645E+02  0.13134298012E+03 -0.17836441050E+02  0.13864027840E+03  0.00000000000E+00 0.  1.
<mgrwt>
<rscale>  0 0.22609018E+04</rscale>
<asrwt>0</asrwt>
<pdfrwt beam="1">  1        2 0.31191373E+00 0.22609018E+04</pdfrwt>
<pdfrwt beam="2">  1       -1 0.96971070E-01 0.22609018E+04</pdfrwt>
<totfact> 0.68249693E+00</totfact>
</mgrwt>
</event>
<event>
12    7  0.1606355E-007  0.1509760E+04  0.7818608E-02  0.8877988E-01
         -1   -1    0    0    0  501 -0.00000000000E+00  0.00000000000E+00  0.33114088282E+03  0.33114088282E+03  0.00000000000E+00 0.  1.
          2   -1    0    0  501    0  0.00000000000E+00 -0.00000000000E+00 -0.17208509568E+04  0.17208509568E+04  0.00000000000E+00 0. -1.
         24    2    1    2    0    0 -0.45807122313E+03 -0.19981005137E+02 -0.65386033883E+03  0.80254669142E+03  0.79494422350E+02 0.  0.
        254    2    1    2    0    0  0.45807122313E+03  0.19981005137E+02 -0.73584973514E+03  0.12494451482E+04  0.89967208450E+03 0.  0.
         23    2    4    4    0    0  0.62579687748E+02  0.33721748917E+03 -0.63099226456E+03  0.72382661624E+03  0.90232367361E+02 0.  0.
         23    2    4    4    0    0  0.39549153538E+03 -0.31723648403E+03 -0.10485747058E+03  0.52561853196E+03  0.90703972595E+02 0.  0.
          2    1    3    3  502    0 -0.39868741617E+03  0.78216083303E+01 -0.54203412232E+03  0.67291442482E+03  0.00000000000E+00 0. -1.
         -1    1    3    3    0  502 -0.59383806955E+02 -0.27802613467E+02 -0.11182621651E+03  0.12963226660E+03  0.00000000000E+00 0.  1.
         13    1    5    5    0    0  0.22136365709E+02  0.13554779323E+03 -0.34684221948E+03  0.37304523607E+03  0.00000000000E+00 0.  1.
        -13    1    5    5    0    0  0.40443322039E+02  0.20166969594E+03 -0.28415004508E+03  0.35078138017E+03  0.00000000000E+00 0. -1.
          2    1    6    6  503    0  0.13556565637E+03 -0.12696916473E+03 -0.80939282633E+02  0.20260894218E+03  0.00000000000E+00 0. -1.
         -2    1    6    6    0  503  0.25992587901E+03 -0.19026731931E+03 -0.23918187950E+02  0.32300958978E+03  0.00000000000E+00 0.  1.
<mgrwt>
<rscale>  0 0.15097604E+04</rscale>
<asrwt>0</asrwt>
<pdfrwt beam="1">  1        2 0.26474630E+00 0.15097604E+04</pdfrwt>
<pdfrwt beam="2">  1       -1 0.50944752E-01 0.15097604E+04</pdfrwt>
<totfact> 0.40672885E+01</totfact>
</mgrwt>
</event>
<event>
12    7  0.1606355E-007  0.1507719E+04  0.7818608E-02  0.8879336E-01
          2   -1    0    0  501    0  0.00000000000E+00  0.00000000000E+00  0.84682772586E+03  0.84682772586E+03  0.00000000000E+00 0. -1.
         -1   -1    0    0    0  501 -0.00000000000E+00 -0.00000000000E+00 -0.67109796969E+03  0.67109796969E+03  0.00000000000E+00 0.  1.
         24    2    1    2    0    0 -0.28429518117E+02 -0.48083246827E+03  0.58963714721E+02  0.49161312999E+03  0.78731504995E+02 0.  0.
        254    2    1    2    0    0  0.28429518117E+02  0.48083246827E+03  0.11676604144E+03  0.10263125656E+04  0.89870744615E+03 0.  0.
         23    2    4    4    0    0 -0.22977827668E+02  0.48051924631E+03 -0.31513778006E+03  0.58217363713E+03  0.90485339757E+02 0.  0.
         23    2    4    4    0    0  0.51407345785E+02  0.31322195802E+00  0.43190382150E+03  0.44413892843E+03  0.89864695039E+02 0.  0.
          4    1    3    3  502    0 -0.86558408607E+00 -0.99268148099E+02 -0.19300891218E+02  0.10113080077E+03  0.00000000000E+00 0. -1.
         -3    1    3    3    0  502 -0.27563934031E+02 -0.38156432017E+03  0.78264605940E+02  0.39048232922E+03  0.00000000000E+00 0.  1.
         13    1    5    5    0    0  0.13471567668E+02  0.56178189828E+02 -0.70001602236E+02  0.90761756613E+02  0.00000000000E+00 0. -1.
        -13    1    5    5    0    0 -0.36449395336E+02  0.42434105648E+03 -0.24513617782E+03  0.49141188052E+03  0.00000000000E+00 0.  1.
          3    1    6    6  503    0  0.17546016289E+02 -0.22786115230E+01  0.89578721520E+01  0.19831748072E+02  0.00000000000E+00 0. -1.
         -3    1    6    6    0  503  0.33861329495E+02  0.25918334810E+01  0.42294594935E+03  0.42430718036E+03  0.00000000000E+00 0.  1.
<mgrwt>
<rscale>  0 0.15077193E+04</rscale>
<asrwt>0</asrwt>
<pdfrwt beam="1">  1        2 0.13028119E+00 0.15077193E+04</pdfrwt>
<pdfrwt beam="2">  1       -1 0.10324584E+00 0.15077193E+04</pdfrwt>
<totfact> 0.31144522E+01</totfact>
</mgrwt>
</event>
<event>
12    7  0.1606355E-007  0.1538364E+04  0.7818608E-02  0.8859335E-01
          2   -1    0    0  501    0  0.00000000000E+00  0.00000000000E+00  0.92287994043E+03  0.92287994043E+03  0.00000000000E+00 0. -1.
         -1   -1    0    0    0  501 -0.00000000000E+00 -0.00000000000E+00 -0.64108101871E+03  0.64108101871E+03  0.00000000000E+00 0.  1.
         24    2    1    2    0    0 -0.34929372371E+03 -0.10418920114E+03  0.44207415707E+03  0.57846506437E+03  0.79566169234E+02 0.  0.
        254    2    1    2    0    0  0.34929372371E+03  0.10418920114E+03 -0.16027523534E+03  0.98549589477E+03  0.90147241360E+03 0.  0.
         23    2    4    4    0    0  0.44328594076E+03  0.42645183725E+03 -0.86894953827E+02  0.62723029918E+03  0.86622863281E+02 0.  0.
         23    2    4    4    0    0 -0.93992217046E+02 -0.32226263611E+03 -0.73380281514E+02  0.35826559559E+03  0.10139934795E+03 0.  0.
          4    1    3    3  502    0 -0.32206178881E+03 -0.73636922964E+02  0.37387093184E+03  0.49892450923E+03  0.00000000000E+00 0. -1.
         -3    1    3    3    0  502 -0.27231934905E+02 -0.30552278176E+02  0.68203225223E+02  0.79540555135E+02  0.00000000000E+00 0.  1.
         13    1    5    5    0    0  0.23852891927E+03  0.19435014186E+03 -0.78317061752E+01  0.30778134867E+03  0.00000000000E+00 0.  1.
        -13    1    5    5    0    0  0.20475702149E+03  0.23210169540E+03 -0.79063247652E+02  0.31944895051E+03  0.00000000000E+00 0. -1.
          2    1    6    6  503    0 -0.10983192042E+03 -0.29922211327E+03 -0.81788250420E+02  0.32906874923E+03  0.00000000000E+00 0. -1.
         -2    1    6    6    0  503  0.15839703377E+02 -0.23040522846E+02  0.84079689068E+01  0.29196846357E+02  0.00000000000E+00 0.  1.
<mgrwt>
<rscale>  0 0.15383638E+04</rscale>
<asrwt>0</asrwt>
<pdfrwt beam="1">  1        2 0.14198153E+00 0.15383638E+04</pdfrwt>
<pdfrwt beam="2">  1       -1 0.98627849E-01 0.15383638E+04</pdfrwt>
<totfact> 0.30615073E+01</totfact>
</mgrwt>
</event>
<event>
12    7  0.1606355E-007  0.1479338E+04  0.7818608E-02  0.8898310E-01
          2   -1    0    0  501    0  0.00000000000E+00  0.00000000000E+00  0.18629108464E+04  0.18629108464E+04  0.00000000000E+00 0. -1.
         -1   -1    0    0    0  501 -0.00000000000E+00 -0.00000000000E+00 -0.29368570337E+03  0.29368570337E+03  0.00000000000E+00 0.  1.
         24    2    1    2    0    0 -0.22192460350E+02 -0.31019320439E+03  0.96991705659E+03  0.10217410389E+04  0.80643192340E+02 0.  0.
        254    2    1    2    0    0  0.22192460350E+02  0.31019320439E+03  0.59930808643E+03  0.11348555109E+04  0.91214829870E+03 0.  0.
         23    2    4    4    0    0  0.36329220747E+03  0.22867567665E+01 -0.30747410722E+00  0.37373029222E+03  0.87679983526E+02 0.  0.
         23    2    4    4    0    0 -0.34109974712E+03  0.30790644762E+03  0.59961556054E+03  0.76112521869E+03  0.92829737197E+02 0.  0.
          4    1    3    3  502    0 -0.25765124570E+02 -0.17618019748E+03  0.66943509529E+03  0.69270964367E+03  0.00000000000E+00 0. -1.
         -3    1    3    3    0  502  0.35726642201E+01 -0.13401300691E+03  0.30048196131E+03  0.32903139519E+03  0.00000000000E+00 0.  1.
         13    1    5    5    0    0  0.26249806196E+02  0.55892122447E+01  0.23717786117E+02  0.35816546416E+02  0.00000000000E+00 0.  1.
        -13    1    5    5    0    0  0.33704240128E+03 -0.33024554783E+01 -0.24025260225E+02  0.33791374580E+03  0.00000000000E+00 0. -1.
          1    1    6    6  503    0 -0.15495177395E+03  0.20166807143E+03  0.31591923202E+03  0.40556753376E+03  0.00000000000E+00 0. -1.
         -1    1    6    6    0  503 -0.18614797317E+03  0.10623837619E+03  0.28369632852E+03  0.35555768492E+03  0.00000000000E+00 0.  1.
<mgrwt>
<rscale>  0 0.14793381E+04</rscale>
<asrwt>0</asrwt>
<pdfrwt beam="1">  1        2 0.28660166E+00 0.14793381E+04</pdfrwt>
<pdfrwt beam="2">  1       -1 0.45182417E-01 0.14793381E+04</pdfrwt>
<totfact> 0.42665776E+01</totfact>
</mgrwt>
</event>
<event>
12    7  0.1606355E-007  0.2487670E+04  0.7818608E-02  0.8407391E-01
          2   -1    0    0  501    0  0.00000000000E+00  0.00000000000E+00  0.31000382020E+04  0.31000382020E+04  0.00000000000E+00 0. -1.
         -1   -1    0    0    0  501 -0.00000000000E+00 -0.00000000000E+00 -0.49906674835E+03  0.49906674835E+03  0.00000000000E+00 0.  1.
         24    2    1    2    0    0  0.53291899377E+03 -0.86896207541E+03  0.60961556714E+03  0.11904670365E+04  0.80516352203E+02 0.  0.
        254    2    1    2    0    0 -0.53291899377E+03  0.86896207541E+03  0.19913558865E+04  0.24086379138E+04  0.89271529094E+03 0.  0.
         23    2    4    4    0    0  0.63530060412E+01  0.19503332075E+03 -0.22434236694E+02  0.21579765588E+03  0.89369885397E+02 0.  0.
         23    2    4    4    0    0 -0.53927199981E+03  0.67392875466E+03  0.20137901232E+04  0.21928402580E+04  0.90573066359E+02 0.  0.
          4    1    3    3  502    0  0.25302443531E+02 -0.44804203942E+02  0.53121444965E+02  0.73956191456E+02  0.00000000000E+00 0. -1.
         -3    1    3    3    0  502  0.50761655024E+03 -0.82415787147E+03  0.55649412218E+03  0.11165108451E+04  0.00000000000E+00 0.  1.
         13    1    5    5    0    0 -0.40378733997E+02  0.71019647735E+02 -0.15010303473E+02  0.83063480145E+02  0.00000000000E+00 0. -1.
        -13    1    5    5    0    0  0.46731740038E+02  0.12401367302E+03 -0.74239332214E+01  0.13273417573E+03  0.00000000000E+00 0.  1.
          4    1    6    6  503    0 -0.29513179241E+03  0.42081756522E+03  0.12715321436E+04  0.13714897704E+04  0.00000000000E+00 0. -1.
         -4    1    6    6    0  503 -0.24414020741E+03  0.25311118944E+03  0.74225797962E+03  0.82135048755E+03  0.00000000000E+00 0.  1.
<mgrwt>
<rscale>  0 0.24876704E+04</rscale>
<asrwt>0</asrwt>
<pdfrwt beam="1">  1        2 0.47692894E+00 0.24876704E+04</pdfrwt>
<pdfrwt beam="2">  1       -1 0.76779502E-01 0.24876704E+04</pdfrwt>
<totfact> 0.26011860E+00</totfact>
</mgrwt>
</event>
<event>
12    7  0.1606355E-007  0.1743032E+04  0.7818608E-02  0.8737195E-01
         -1   -1    0    0    0  501 -0.00000000000E+00  0.00000000000E+00  0.19875935929E+04  0.19875935929E+04  0.00000000000E+00 0.  1.
          2   -1    0    0  501    0  0.00000000000E+00 -0.00000000000E+00 -0.38214058185E+03  0.38214058185E+03  0.00000000000E+00 0. -1.
         24    2    1    2    0    0  0.17107530510E+03 -0.17699131761E+03 -0.20325789746E+03  0.32903393996E+03  0.79730008396E+02 0.  0.
        254    2    1    2    0    0 -0.17107530510E+03  0.17699131761E+03  0.18087109086E+04  0.20407002348E+04  0.91237580592E+03 0.  0.
         23    2    4    4    0    0 -0.49652762679E+03  0.13437836115E+03  0.65732393308E+03  0.83979163132E+03  0.92617508648E+02 0.  0.
         23    2    4    4    0    0  0.32545232170E+03  0.42612956464E+02  0.11513869755E+04  0.12009086035E+04  0.93565105579E+02 0.  0.
          2    1    3    3  502    0  0.15597361757E+03 -0.15401330807E+03 -0.20674658880E+03  0.30131714260E+03  0.00000000000E+00 0. -1.
         -1    1    3    3    0  502  0.15101687531E+02 -0.22978009540E+02  0.34886913418E+01  0.27716797362E+02  0.00000000000E+00 0.  1.
         13    1    5    5    0    0 -0.34770419368E+03  0.11069010032E+03  0.39876441932E+03  0.54052156916E+03  0.00000000000E+00 0. -1.
        -13    1    5    5    0    0 -0.14882343311E+03  0.23688260830E+02  0.25855951376E+03  0.29927006216E+03  0.00000000000E+00 0.  1.
          1    1    6    6  503    0  0.16010536506E+03  0.17561700875E+02  0.72983819527E+03  0.74739944644E+03  0.00000000000E+00 0. -1.
         -1    1    6    6    0  503  0.16534695663E+03  0.25051255589E+02  0.42154878020E+03  0.45350915709E+03  0.00000000000E+00 0.  1.
<mgrwt>
<rscale>  0 0.17430320E+04</rscale>
<asrwt>0</asrwt>
<pdfrwt beam="1">  1        2 0.58790860E-01 0.17430320E+04</pdfrwt>
<pdfrwt beam="2">  1       -1 0.30578362E+00 0.17430320E+04</pdfrwt>
<totfact> 0.27546513E+00</totfact>
</mgrwt>
</event>
<event>
12    7  0.1606355E-007  0.1869293E+04  0.7818608E-02  0.8670294E-01
          2   -1    0    0  501    0  0.00000000000E+00  0.00000000000E+00  0.16518457881E+04  0.16518457881E+04  0.00000000000E+00 0. -1.
         -1   -1    0    0    0  501 -0.00000000000E+00 -0.00000000000E+00 -0.52884100081E+03  0.52884100081E+03  0.00000000000E+00 0.  1.
         24    2    1    2    0    0 -0.30706451311E+03  0.34036957863E+03 -0.20686082252E+03  0.50950763269E+03  0.81649020821E+02 0.  0.
        254    2    1    2    0    0  0.30706451311E+03 -0.34036957863E+03  0.13298656098E+04  0.16711791562E+04  0.90230658135E+03 0.  0.
         23    2    4    4    0    0  0.45936963048E+03  0.11392808333E+03  0.42283614134E+03  0.64118009819E+03  0.91221983699E+02 0.  0.
         23    2    4    4    0    0 -0.15230511737E+03 -0.45429766196E+03  0.90702946843E+03  0.10299990580E+04  0.92802954892E+02 0.  0.
          2    1    3    3  502    0 -0.23364448223E+02  0.50904424989E+02 -0.49411284863E+02  0.74690246995E+02  0.00000000000E+00 0. -1.
         -1    1    3    3    0  502 -0.28370006489E+03  0.28946515364E+03 -0.15744953766E+03  0.43481738569E+03  0.00000000000E+00 0.  1.
         13    1    5    5    0    0  0.12999601031E+03  0.48803413756E+02  0.17743056105E+03  0.22530499304E+03  0.00000000000E+00 0. -1.
        -13    1    5    5    0    0  0.32937362017E+03  0.65124669577E+02  0.24540558029E+03  0.41587510515E+03  0.00000000000E+00 0.  1.
          3    1    6    6  503    0 -0.45729861705E+01 -0.31147799548E+01  0.49613242475E+02  0.49920816154E+02  0.00000000000E+00 0. -1.
         -3    1    6    6    0  503 -0.14773213119E+03 -0.45118288201E+03  0.85741622596E+03  0.98007824184E+03  0.00000000000E+00 0.  1.
<mgrwt>
<rscale>  0 0.18692927E+04</rscale>
<asrwt>0</asrwt>
<pdfrwt beam="1">  1        2 0.25413012E+00 0.18692927E+04</pdfrwt>
<pdfrwt beam="2">  1       -1 0.81360155E-01 0.18692927E+04</pdfrwt>
<totfact> 0.16786923E+01</totfact>
</mgrwt>
</event>
<event>
12    7  0.1606355E-007  0.2951079E+04  0.7818608E-02  0.8257840E-01
         -1   -1    0    0    0  501 -0.00000000000E+00  0.00000000000E+00  0.13790549031E+04  0.13790549031E+04  0.00000000000E+00 0.  1.
          2   -1    0    0  501    0  0.00000000000E+00 -0.00000000000E+00 -0.15787748749E+04  0.15787748749E+04  0.00000000000E+00 0. -1.
         24    2    1    2    0    0  0.49427010064E+03  0.13711007949E+03 -0.13267307214E+04  0.14246728624E+04  0.79851433746E+02 0.  0.
        254    2    1    2    0    0 -0.49427010064E+03 -0.13711007949E+03  0.11270107496E+04  0.15331569157E+04  0.90405464007E+03 0.  0.
         23    2    4    4    0    0 -0.14830330159E+03 -0.22742587523E+03  0.11280421803E+04  0.11642696669E+04  0.96583117417E+02 0.  0.
         23    2    4    4    0    0 -0.34596679904E+03  0.90315795739E+02 -0.10314307512E+01  0.36888724885E+03  0.90701540859E+02 0.  0.
          2    1    3    3  502    0  0.40770513765E+03  0.97866798679E+02 -0.11492208829E+04  0.12233192663E+04  0.00000000000E+00 0. -1.
         -1    1    3    3    0  502  0.86564962987E+02  0.39243280816E+02 -0.17750983842E+03  0.20135359605E+03  0.00000000000E+00 0.  1.
         13    1    5    5    0    0 -0.11609360679E+03 -0.22456025821E+03  0.93660582172E+03  0.97012138435E+03  0.00000000000E+00 0. -1.
        -13    1    5    5    0    0 -0.32209694802E+02 -0.28656170240E+01  0.19143635861E+03  0.19414828250E+03  0.00000000000E+00 0.  1.
          3    1    6    6  503    0 -0.18523644127E+03  0.33648465841E+02  0.42463968303E+02  0.19299727209E+03  0.00000000000E+00 0. -1.
         -3    1    6    6    0  503 -0.16073035777E+03  0.56667329898E+02 -0.43495399054E+02  0.17588997676E+03  0.00000000000E+00 0.  1.
<mgrwt>
<rscale>  0 0.29510793E+04</rscale>
<asrwt>0</asrwt>
<pdfrwt beam="1">  1        2 0.24288844E+00 0.29510793E+04</pdfrwt>
<pdfrwt beam="2">  1       -1 0.21216229E+00 0.29510793E+04</pdfrwt>
<totfact> 0.13939381E+00</totfact>
</mgrwt>
</event>
<event>
12    7  0.1606355E-007  0.1216038E+04  0.7818608E-02  0.9098933E-01
         -1   -1    0    0    0  501 -0.00000000000E+00  0.00000000000E+00  0.35215366889E+03  0.35215366889E+03  0.00000000000E+00 0.  1.
          2   -1    0    0  501    0  0.00000000000E+00 -0.00000000000E+00 -0.10497894853E+04  0.10497894853E+04  0.00000000000E+00 0. -1.
         24    2    1    2    0    0 -0.24695763614E+03  0.10976664301E+02 -0.33399391969E+02  0.26207069659E+03  0.80355270005E+02 0.  0.
        254    2    1    2    0    0  0.24695763614E+03 -0.10976664301E+02 -0.66423642443E+03  0.11398724576E+04  0.89274331744E+03 0.  0.
         23    2    4    4    0    0 -0.16031980666E+03 -0.33095108143E+03 -0.15536596682E+03  0.40813555667E+03  0.84882214053E+02 0.  0.
         23    2    4    4    0    0  0.40727744280E+03  0.31997441713E+03 -0.50887045761E+03  0.73173690092E+03  0.90725996855E+02 0.  0.
          2    1    3    3  502    0 -0.64088855500E+02  0.36042030063E+01 -0.45458486674E+02  0.78656504431E+02  0.00000000000E+00 0. -1.
         -1    1    3    3    0  502 -0.18286878064E+03  0.73724612943E+01  0.12059094705E+02  0.18341419215E+03  0.00000000000E+00 0.  1.
         13    1    5    5    0    0 -0.12929966467E+03 -0.19630919176E+03 -0.12665380518E+03  0.26701477191E+03  0.00000000000E+00 0. -1.
        -13    1    5    5    0    0 -0.31020141989E+02 -0.13464188968E+03 -0.28712161641E+02  0.14112078476E+03  0.00000000000E+00 0.  1.
          3    1    6    6  503    0  0.39795138846E+03  0.29949347706E+03 -0.50427141039E+03  0.70876745531E+03  0.00000000000E+00 0. -1.
         -3    1    6    6    0  503  0.93260543415E+01  0.20480940077E+02 -0.45990472167E+01  0.22969445603E+02  0.00000000000E+00 0.  1.
<mgrwt>
<rscale>  0 0.12160382E+04</rscale>
<asrwt>0</asrwt>
<pdfrwt beam="1">  1        2 0.16150607E+00 0.12160382E+04</pdfrwt>
<pdfrwt beam="2">  1       -1 0.54177488E-01 0.12160382E+04</pdfrwt>
<totfact> 0.90546834E+01</totfact>
</mgrwt>
</event>
<event>
12    7  0.1606355E-007  0.1588609E+04  0.7818608E-02  0.8827577E-01
          2   -1    0    0  501    0  0.00000000000E+00  0.00000000000E+00  0.13071867901E+04  0.13071867901E+04  0.00000000000E+00 0. -1.
         -1   -1    0    0    0  501 -0.00000000000E+00 -0.00000000000E+00 -0.48265435679E+03  0.48265435679E+03  0.00000000000E+00 0.  1.
         24    2    1    2    0    0  0.18072983365E+03  0.28350672190E+03 -0.19851336445E+03  0.39836796670E+03  0.79057870533E+02 0.  0.
        254    2    1    2    0    0 -0.18072983365E+03 -0.28350672190E+03  0.10230457978E+04  0.13914731802E+04  0.88121255824E+03 0.  0.
         23    2    4    4    0    0 -0.19675919650E+03  0.28715125281E+03  0.32234274234E+03  0.48300680056E+03  0.90668089474E+02 0.  0.
         23    2    4    4    0    0  0.16029362852E+02 -0.57065797471E+03  0.70070305545E+03  0.90846637968E+03  0.91754708385E+02 0.  0.
          4    1    3    3  502    0  0.52239716334E+02  0.11324497087E+03 -0.34793524903E+02  0.12947586943E+03  0.00000000000E+00 0. -1.
         -3    1    3    3    0  502  0.12849011731E+03  0.17026175103E+03 -0.16371983954E+03  0.26889209726E+03  0.00000000000E+00 0.  1.
         13    1    5    5    0    0 -0.68993224424E+02  0.16464334077E+03  0.12510587902E+03  0.21798847594E+03  0.00000000000E+00 0.  1.
        -13    1    5    5    0    0 -0.12776597207E+03  0.12250791204E+03  0.19723686332E+03  0.26501832462E+03  0.00000000000E+00 0. -1.
          4    1    6    6  503    0  0.49304102523E+01  0.77474918299E+00  0.11513984661E+01  0.51220015600E+01  0.00000000000E+00 0. -1.
         -4    1    6    6    0  503  0.11098952600E+02 -0.57143272389E+03  0.69955165699E+03  0.90334437812E+03  0.00000000000E+00 0.  1.
<mgrwt>
<rscale>  0 0.15886087E+04</rscale>
<asrwt>0</asrwt>
<pdfrwt beam="1">  1        2 0.20110566E+00 0.15886087E+04</pdfrwt>
<pdfrwt beam="2">  1       -1 0.74254517E-01 0.15886087E+04</pdfrwt>
<totfact> 0.32705145E+01</totfact>
</mgrwt>
</event>
<event>
12    7  0.1606355E-007  0.3326604E+04  0.7818608E-02  0.8156159E-01
          2   -1    0    0  501    0  0.00000000000E+00  0.00000000000E+00  0.12542695386E+04  0.12542695386E+04  0.00000000000E+00 0. -1.
         -1   -1    0    0    0  501 -0.00000000000E+00 -0.00000000000E+00 -0.22057243911E+04  0.22057243911E+04  0.00000000000E+00 0.  1.
         24    2    1    2    0    0  0.26474786542E+02  0.13954659930E+04  0.18677425959E+03  0.14103859049E+04  0.79230832682E+02 0.  0.
        254    2    1    2    0    0 -0.26474786542E+02 -0.13954659930E+04 -0.11382291121E+04  0.20496080247E+04  0.97841774898E+03 0.  0.
         23    2    4    4    0    0  0.65048542857E+02  0.11186967725E+03 -0.51051640257E+01  0.15960765096E+03  0.93286665346E+02 0.  0.
         23    2    4    4    0    0 -0.91523329399E+02 -0.15073356702E+04 -0.11331239481E+04  0.18900003738E+04  0.87716524001E+02 0.  0.
          2    1    3    3  502    0  0.20298734784E+02  0.13053647391E+04  0.19367366341E+03  0.13198100730E+04  0.00000000000E+00 0. -1.
         -1    1    3    3    0  502  0.61760517576E+01  0.90101253852E+02 -0.68994038122E+01  0.90575831953E+02  0.00000000000E+00 0.  1.
         13    1    5    5    0    0  0.66652801165E+02  0.12523028592E+03  0.62489708612E+01  0.14200095088E+03  0.00000000000E+00 0.  1.
        -13    1    5    5    0    0 -0.16042583075E+01 -0.13360608671E+02 -0.11354134887E+02  0.17606700083E+02  0.00000000000E+00 0. -1.
          1    1    6    6  503    0  0.33042614592E+01 -0.56555246315E+03 -0.39926326881E+03  0.69229449264E+03  0.00000000000E+00 0. -1.
         -1    1    6    6    0  503 -0.94827590858E+02 -0.94178320707E+03 -0.73386067926E+03  0.11977058811E+04  0.00000000000E+00 0.  1.
<mgrwt>
<rscale>  0 0.33266036E+04</rscale>
<asrwt>0</asrwt>
<pdfrwt beam="1">  1        2 0.19296455E+00 0.33266036E+04</pdfrwt>
<pdfrwt beam="2">  1       -1 0.33934221E+00 0.33266036E+04</pdfrwt>
<totfact> 0.30497458E-01</totfact>
</mgrwt>
</event>
<event>
12    7  0.1606355E-007  0.2261591E+04  0.7818608E-02  0.8493221E-01
          2   -1    0    0  501    0  0.00000000000E+00  0.00000000000E+00  0.21749303701E+04  0.21749303701E+04  0.00000000000E+00 0. -1.
         -1   -1    0    0    0  501 -0.00000000000E+00 -0.00000000000E+00 -0.58792629942E+03  0.58792629942E+03  0.00000000000E+00 0.  1.
         24    2    1    2    0    0 -0.75260136799E+03  0.58350211535E+03  0.74542964643E+03  0.12120550212E+04  0.80799003243E+02 0.  0.
        254    2    1    2    0    0  0.75260136799E+03 -0.58350211535E+03  0.84157442424E+03  0.15508016483E+04  0.88873770210E+03 0.  0.
         23    2    4    4    0    0  0.62846484517E+03 -0.11118127878E+03  0.83312473966E+03  0.10529240884E+04  0.84988033251E+02 0.  0.
         23    2    4    4    0    0  0.12413652282E+03 -0.47232083657E+03  0.84496845816E+01  0.49787755988E+03  0.96508126608E+02 0.  0.
          4    1    3    3  502    0 -0.69621040290E+03  0.54304001736E+03  0.71554754062E+03  0.11364900653E+04  0.00000000000E+00 0. -1.
         -3    1    3    3    0  502 -0.56390965097E+02  0.40462097996E+02  0.29882105804E+02  0.75564955940E+02  0.00000000000E+00 0.  1.
         13    1    5    5    0    0  0.44456213108E+03 -0.57023484091E+02  0.52814254781E+03  0.69269164636E+03  0.00000000000E+00 0. -1.
        -13    1    5    5    0    0  0.18390271410E+03 -0.54157794688E+02  0.30498219184E+03  0.36023244207E+03  0.00000000000E+00 0.  1.
          1    1    6    6  503    0  0.11170354560E+02 -0.22220224287E+03 -0.10904105108E+02  0.22274988904E+03  0.00000000000E+00 0. -1.
         -1    1    6    6    0  503  0.11296616826E+03 -0.25011859370E+03  0.19353789690E+02  0.27512767084E+03  0.00000000000E+00 0.  1.
<mgrwt>
<rscale>  0 0.22615913E+04</rscale>
<asrwt>0</asrwt>
<pdfrwt beam="1">  1        2 0.33460467E+00 0.22615913E+04</pdfrwt>
<pdfrwt beam="2">  1       -1 0.90450201E-01 0.22615913E+04</pdfrwt>
<totfact> 0.65947386E+00</totfact>
</mgrwt>
</event>
<event>
12    7  0.1606355E-007  0.1116978E+04  0.7818608E-02  0.9188800E-01
         -3   -1    0    0    0  501 -0.00000000000E+00  0.00000000000E+00  0.23685957882E+03  0.23685957882E+03  0.00000000000E+00 0.  1.
          4   -1    0    0  501    0  0.00000000000E+00 -0.00000000000E+00 -0.13168563611E+04  0.13168563611E+04  0.00000000000E+00 0. -1.
         24    2    1    2    0    0 -0.15922545924E+03  0.11489175401E+01 -0.27489549371E+03  0.32763421264E+03  0.80140987965E+02 0.  0.
        254    2    1    2    0    0  0.15922545924E+03 -0.11489175401E+01 -0.80510128858E+03  0.12260817273E+04  0.91089749709E+03 0.  0.
         23    2    4    4    0    0 -0.50131846411E+01  0.16507653839E+02 -0.96949255021E+03  0.97374326655E+03  0.89232895149E+02 0.  0.
         23    2    4    4    0    0  0.16423864388E+03 -0.17656571379E+02  0.16439126163E+03  0.25233846073E+03  0.96768410186E+02 0.  0.
          4    1    3    3  502    0 -0.62309855764E+02  0.22951498036E+02 -0.17310744941E+03  0.18540625240E+03  0.00000000000E+00 0. -1.
         -3    1    3    3    0  502 -0.96915603474E+02 -0.21802580496E+02 -0.10178804430E+03  0.14222796024E+03  0.00000000000E+00 0.  1.
         13    1    5    5    0    0 -0.14574681970E+02 -0.32748889817E+02 -0.25723363493E+03  0.25971918312E+03  0.00000000000E+00 0.  1.
        -13    1    5    5    0    0  0.95614973287E+01  0.49256543656E+02 -0.71225891528E+03  0.71402408343E+03  0.00000000000E+00 0. -1.
          4    1    6    6  503    0  0.15852393359E+03 -0.34997229045E+02  0.11299121595E+03  0.19779195748E+03  0.00000000000E+00 0. -1.
         -4    1    6    6    0  503  0.57147102915E+01  0.17340657666E+02  0.51400045673E+02  0.54546503254E+02  0.00000000000E+00 0.  1.
<mgrwt>
<rscale>  0 0.11169781E+04</rscale>
<asrwt>0</asrwt>
<pdfrwt beam="1">  1        4 0.20259328E+00 0.11169781E+04</pdfrwt>
<pdfrwt beam="2">  1       -3 0.36439936E-01 0.11169781E+04</pdfrwt>
<totfact> 0.21428736E+00</totfact>
</mgrwt>
</event>
<event>
12    7  0.1606355E-007  0.1659422E+04  0.7818608E-02  0.8784852E-01
         -1   -1    0    0    0  501 -0.00000000000E+00  0.00000000000E+00  0.38373823390E+03  0.38373823390E+03  0.00000000000E+00 0.  1.
          2   -1    0    0  501    0  0.00000000000E+00 -0.00000000000E+00 -0.17939833524E+04  0.17939833524E+04  0.00000000000E+00 0. -1.
         24    2    1    2    0    0 -0.36306173661E+03  0.22273432376E+03 -0.99979417745E+03  0.10903218574E+04  0.88255038896E+02 0.  0.
        254    2    1    2    0    0  0.36306173661E+03 -0.22273432376E+03 -0.41045094108E+03  0.10873997289E+04  0.91243837702E+03 0.  0.
         23    2    4    4    0    0  0.10631471484E+03  0.29298961556E+03  0.71913851313E+02  0.33045883765E+03  0.82980166011E+02 0.  0.
         23    2    4    4    0    0  0.25674702177E+03 -0.51572393932E+03 -0.48236479239E+03  0.75694089127E+03  0.91616074856E+02 0.  0.
          4    1    3    3  502    0 -0.25973377672E+03  0.11682979762E+03 -0.70863651085E+03  0.76372543554E+03  0.00000000000E+00 0. -1.
         -3    1    3    3    0  502 -0.10332795989E+03  0.10590452614E+03 -0.29115766660E+03  0.32659642186E+03  0.00000000000E+00 0.  1.
         13    1    5    5    0    0  0.94301047261E+02  0.21242034178E+03  0.85956055250E+02  0.24779736187E+03  0.00000000000E+00 0.  1.
        -13    1    5    5    0    0  0.12013667581E+02  0.80569273779E+02 -0.14042203937E+02  0.82661475775E+02  0.00000000000E+00 0. -1.
          2    1    6    6  503    0 -0.70775894113E+01 -0.56439097649E+01 -0.82110506163E+01  0.12221593249E+02  0.00000000000E+00 0. -1.
         -2    1    6    6    0  503  0.26382461118E+03 -0.51008002955E+03 -0.47415374178E+03  0.74471929803E+03  0.00000000000E+00 0.  1.
<mgrwt>
<rscale>  0 0.16594216E+04</rscale>
<asrwt>0</asrwt>
<pdfrwt beam="1">  1        2 0.27599744E+00 0.16594216E+04</pdfrwt>
<pdfrwt beam="2">  1       -1 0.59036651E-01 0.16594216E+04</pdfrwt>
<totfact> 0.27496247E+01</totfact>
</mgrwt>
</event>
<event>
12    7  0.1606355E-007  0.2014533E+04  0.7818608E-02  0.8599856E-01
          2   -1    0    0  501    0  0.00000000000E+00  0.00000000000E+00  0.18958348105E+04  0.18958348105E+04  0.00000000000E+00 0. -1.
         -1   -1    0    0    0  501 -0.00000000000E+00 -0.00000000000E+00 -0.53516552837E+03  0.53516552837E+03  0.00000000000E+00 0.  1.
         24    2    1    2    0    0  0.39506455280E+03 -0.50484854431E+03 -0.42806817687E+02  0.64755949047E+03  0.80949468711E+02 0.  0.
        254    2    1    2    0    0 -0.39506455280E+03  0.50484854431E+03  0.14034760998E+04  0.17834408484E+04  0.89440932653E+03 0.  0.
         23    2    4    4    0    0 -0.64335562461E+01  0.65304849236E+03  0.70605096582E+03  0.96659707833E+03  0.96375419405E+02 0.  0.
         23    2    4    4    0    0 -0.38863099655E+03 -0.14819994805E+03  0.69742513399E+03  0.81684377006E+03  0.88513564410E+02 0.  0.
          2    1    3    3  502    0  0.31652643593E+02 -0.32212359521E+02  0.17249765626E+02  0.48343359073E+02  0.00000000000E+00 0. -1.
         -1    1    3    3    0  502  0.36341190921E+03 -0.47263618479E+03 -0.60056583313E+02  0.59921613140E+03  0.00000000000E+00 0.  1.
         13    1    5    5    0    0 -0.27291889250E+02  0.31579962970E+03  0.40291951282E+03  0.51265815818E+03  0.00000000000E+00 0.  1.
        -13    1    5    5    0    0  0.20858333004E+02  0.33724886266E+03  0.30313145300E+03  0.45393892014E+03  0.00000000000E+00 0. -1.
          2    1    6    6  503    0 -0.75413456224E+02 -0.54822874589E+02  0.21252337718E+03  0.23207525246E+03  0.00000000000E+00 0. -1.
         -2    1    6    6    0  503 -0.31321754033E+03 -0.93377073463E+02  0.48490175681E+03  0.58476851760E+03  0.00000000000E+00 0.  1.
<mgrwt>
<rscale>  0 0.20145326E+04</rscale>
<asrwt>0</asrwt>
<pdfrwt beam="1">  1        2 0.29166689E+00 0.20145326E+04</pdfrwt>
<pdfrwt beam="2">  1       -1 0.82333159E-01 0.20145326E+04</pdfrwt>
<totfact> 0.11830503E+01</totfact>
</mgrwt>
</event>
<event>
12    7  0.1606355E-007  0.1600197E+04  0.7818608E-02  0.8820427E-01
          2   -1    0    0  501    0  0.00000000000E+00  0.00000000000E+00  0.29100135154E+04  0.29100135154E+04  0.00000000000E+00 0. -1.
         -1   -1    0    0    0  501 -0.00000000000E+00 -0.00000000000E+00 -0.21998431197E+03  0.21998431197E+03  0.00000000000E+00 0.  1.
         24    2    1    2    0    0  0.52251093643E+03  0.11115377640E+03  0.10502925417E+04  0.11810127026E+04  0.79396094906E+02 0.  0.
        254    2    1    2    0    0 -0.52251093643E+03 -0.11115377640E+03  0.16397366617E+04  0.19489851247E+04  0.90798340071E+03 0.  0.
         23    2    4    4    0    0 -0.32159984901E+03 -0.50134192546E+03  0.10072292235E+04  0.11735901108E+04  0.89626170669E+02 0.  0.
         23    2    4    4    0    0 -0.20091108742E+03  0.39018814905E+03  0.63250743824E+03  0.77539501392E+03  0.92518708814E+02 0.  0.
          2    1    3    3  502    0  0.46322497177E+03  0.76676111656E+02  0.94727553445E+03  0.10572547180E+04  0.00000000000E+00 0. -1.
         -1    1    3    3    0  502  0.59285964660E+02  0.34477664748E+02  0.10301700723E+03  0.12375798460E+03  0.00000000000E+00 0.  1.
         13    1    5    5    0    0 -0.18822630448E+03 -0.30914212928E+03  0.52578364711E+03  0.63831531500E+03  0.00000000000E+00 0. -1.
        -13    1    5    5    0    0 -0.13337354452E+03 -0.19219979618E+03  0.48144557636E+03  0.53527479580E+03  0.00000000000E+00 0.  1.
          2    1    6    6  503    0 -0.12667639405E+03  0.14920192357E+03  0.29699484463E+03  0.35568815069E+03  0.00000000000E+00 0. -1.
         -2    1    6    6    0  503 -0.74234693369E+02  0.24098622549E+03  0.33551259361E+03  0.41970686323E+03  0.00000000000E+00 0.  1.
<mgrwt>
<rscale>  0 0.16001966E+04</rscale>
<asrwt>0</asrwt>
<pdfrwt beam="1">  1        2 0.44769436E+00 0.16001966E+04</pdfrwt>
<pdfrwt beam="2">  1       -1 0.33843742E-01 0.16001966E+04</pdfrwt>
<totfact> 0.17915149E+01</totfact>
</mgrwt>
</event>
<event>
12    7  0.1606355E-007  0.1275354E+04  0.7818608E-02  0.9049341E-01
          2   -1    0    0  501    0  0.00000000000E+00  0.00000000000E+00  0.74393871573E+03  0.74393871573E+03  0.00000000000E+00 0. -1.
         -1   -1    0    0    0  501 -0.00000000000E+00 -0.00000000000E+00 -0.54659317172E+03  0.54659317172E+03  0.00000000000E+00 0.  1.
         24    2    1    2    0    0  0.22403661355E+03  0.10335873165E+03  0.24371589885E+03  0.35620895316E+03  0.81313881597E+02 0.  0.
        254    2    1    2    0    0 -0.22403661355E+03 -0.10335873165E+03 -0.46370354831E+02  0.93432293429E+03  0.89996316820E+03 0.  0.
         23    2    4    4    0    0 -0.20644343829E+03 -0.21135289772E+03  0.37720288868E+03  0.48768938150E+03  0.90939391946E+02 0.  0.
         23    2    4    4    0    0 -0.17593175258E+02  0.10799416607E+03 -0.42357324351E+03  0.44663355279E+03  0.89972096442E+02 0.  0.
          2    1    3    3  502    0  0.17799158819E+03  0.61281678947E+02  0.21983235466E+03  0.28941788783E+03  0.00000000000E+00 0. -1.
         -1    1    3    3    0  502  0.46045025358E+02  0.42077052707E+02  0.23883544187E+02  0.66791065328E+02  0.00000000000E+00 0.  1.
         13    1    5    5    0    0 -0.57313826477E+02 -0.30604246742E+02  0.37538789653E+02  0.75037692880E+02  0.00000000000E+00 0.  1.
        -13    1    5    5    0    0 -0.14912961182E+03 -0.18074865098E+03  0.33966409903E+03  0.41265168862E+03  0.00000000000E+00 0. -1.
          4    1    6    6  503    0 -0.54419316424E+01  0.80246565482E+02 -0.40065640186E+03  0.40864982350E+03  0.00000000000E+00 0. -1.
         -4    1    6    6    0  503 -0.12151243616E+02  0.27747600586E+02 -0.22916841649E+02  0.37983729291E+02  0.00000000000E+00 0.  1.
<mgrwt>
<rscale>  0 0.12753538E+04</rscale>
<asrwt>0</asrwt>
<pdfrwt beam="1">  1        2 0.11445211E+00 0.12753538E+04</pdfrwt>
<pdfrwt beam="2">  1       -1 0.84091258E-01 0.12753538E+04</pdfrwt>
<totfact> 0.59573267E+01</totfact>
</mgrwt>
</event>
<event>
12    7  0.1606355E-007  0.2287645E+04  0.7818608E-02  0.8482808E-01
         -1   -1    0    0    0  501 -0.00000000000E+00  0.00000000000E+00  0.44062674251E+03  0.44062674251E+03  0.00000000000E+00 0.  1.
          2   -1    0    0  501    0  0.00000000000E+00 -0.00000000000E+00 -0.29692486348E+04  0.29692486348E+04  0.00000000000E+00 0. -1.
         24    2    1    2    0    0  0.23843680922E+03 -0.90327173117E+03 -0.14275958260E+04  0.17080295034E+04  0.81135749528E+02 0.  0.
        254    2    1    2    0    0 -0.23843680922E+03  0.90327173117E+03 -0.11010260664E+04  0.17018458739E+04  0.90070475049E+03 0.  0.
         23    2    4    4    0    0 -0.29380919415E+03  0.88284319336E+03 -0.12218973814E+04  0.15386715650E+04  0.93493462579E+02 0.  0.
         23    2    4    4    0    0  0.55372384925E+02  0.20428537807E+02  0.12087131509E+03  0.16317430894E+03  0.92371825337E+02 0.  0.
          4    1    3    3  502    0  0.23312524231E+03 -0.89619686671E+03 -0.14236990033E+04  0.16983624626E+04  0.00000000000E+00 0. -1.
         -3    1    3    3    0  502  0.53115669128E+01 -0.70748644514E+01 -0.38968226591E+01  0.96670407526E+01  0.00000000000E+00 0.  1.
         13    1    5    5    0    0 -0.27183480392E+01  0.27409384018E+02 -0.65856553626E+02  0.71384517956E+02  0.00000000000E+00 0. -1.
        -13    1    5    5    0    0 -0.29109084611E+03  0.85543380934E+03 -0.11560408278E+04  0.14672870471E+04  0.00000000000E+00 0.  1.
          4    1    6    6  503    0  0.74791227498E+02 -0.13668824895E+01  0.60838613395E+02  0.96420604428E+02  0.00000000000E+00 0.  1.
         -4    1    6    6    0  503 -0.19418842573E+02  0.21795420297E+02  0.60032701696E+02  0.66753704509E+02  0.00000000000E+00 0. -1.
<mgrwt>
<rscale>  0 0.22876454E+04</rscale>
<asrwt>0</asrwt>
<pdfrwt beam="1">  1        2 0.45680749E+00 0.22876454E+04</pdfrwt>
<pdfrwt beam="2">  1       -1 0.67788728E-01 0.22876454E+04</pdfrwt>
<totfact> 0.41439032E+00</totfact>
</mgrwt>
</event>
<event>
12    7  0.1606355E-007  0.2690084E+04  0.7818608E-02  0.8338229E-01
          2   -1    0    0  501    0  0.00000000000E+00  0.00000000000E+00  0.15068858128E+04  0.15068858128E+04  0.00000000000E+00 0. -1.
         -1   -1    0    0    0  501 -0.00000000000E+00 -0.00000000000E+00 -0.12005808214E+04  0.12005808214E+04  0.00000000000E+00 0.  1.
         24    2    1    2    0    0  0.10062351759E+04 -0.41193471364E+03 -0.26996481182E+03  0.11233589790E+04  0.82794677714E+02 0.  0.
        254    2    1    2    0    0 -0.10062351759E+04  0.41193471364E+03  0.57626980324E+03  0.15841076553E+04  0.99755237455E+03 0.  0.
         23    2    4    4    0    0  0.12194785286E+03 -0.14314192469E+03  0.13526746583E+03  0.24901069296E+03  0.91368202763E+02 0.  0.
         23    2    4    4    0    0 -0.11281830287E+04  0.55507663832E+03  0.44100233741E+03  0.13350969623E+04  0.84224797450E+02 0.  0.
          2    1    3    3  502    0  0.47271592645E+03 -0.19013161469E+03 -0.16899648885E+03  0.53681485753E+03  0.00000000000E+00 0. -1.
         -1    1    3    3    0  502  0.53351924941E+03 -0.22180309895E+03 -0.10096832298E+03  0.58654412147E+03  0.00000000000E+00 0.  1.
         13    1    5    5    0    0  0.12303661591E+03 -0.96232785828E+02  0.76850064460E+02  0.17408242395E+03  0.00000000000E+00 0. -1.
        -13    1    5    5    0    0 -0.10887630456E+01 -0.46909138859E+02  0.58417401373E+02  0.74928269009E+02  0.00000000000E+00 0.  1.
          2    1    6    6  503    0 -0.83321065958E+03  0.38546826351E+03  0.35354858744E+03  0.98377964458E+03  0.00000000000E+00 0. -1.
         -2    1    6    6    0  503 -0.29497236913E+03  0.16960837481E+03  0.87453749963E+02  0.35131731774E+03  0.00000000000E+00 0.  1.
<mgrwt>
<rscale>  0 0.26900842E+04</rscale>
<asrwt>0</asrwt>
<pdfrwt beam="1">  1        2 0.23182859E+00 0.26900842E+04</pdfrwt>
<pdfrwt beam="2">  1       -1 0.18470474E+00 0.26900842E+04</pdfrwt>
<totfact> 0.24228928E+00</totfact>
</mgrwt>
</event>
<event>
12    7  0.1606355E-007  0.1132946E+04  0.7818608E-02  0.9173662E-01
          2   -1    0    0  501    0  0.00000000000E+00  0.00000000000E+00  0.40671754172E+03  0.40671754172E+03  0.00000000000E+00 0. -1.
         -1   -1    0    0    0  501 -0.00000000000E+00 -0.00000000000E+00 -0.78897913880E+03  0.78897913880E+03  0.00000000000E+00 0.  1.
         24    2    1    2    0    0  0.11413632470E+03  0.87730250458E+02 -0.21332258773E+03  0.26987904203E+03  0.81267911463E+02 0.  0.
        254    2    1    2    0    0 -0.11413632470E+03 -0.87730250458E+02 -0.16893900935E+03  0.92581763848E+03  0.89881823156E+03 0.  0.
         23    2    4    4    0    0  0.27072806051E+02  0.38968730393E+03 -0.11075252610E+03  0.41599051676E+03  0.90514398456E+02 0.  0.
         23    2    4    4    0    0 -0.14120913075E+03 -0.47741755439E+03 -0.58186483255E+02  0.50982712172E+03  0.93115451774E+02 0.  0.
          4    1    3    3  502    0  0.18386257950E+02  0.33712159510E+02 -0.11894158127E+03  0.12498665503E+03  0.00000000000E+00 0. -1.
         -3    1    3    3    0  502  0.95750066747E+02  0.54018090948E+02 -0.94381006452E+02  0.14489238700E+03  0.00000000000E+00 0.  1.
         13    1    5    5    0    0 -0.23029338060E+01  0.31413314256E+02 -0.37770761666E+02  0.49180588178E+02  0.00000000000E+00 0. -1.
        -13    1    5    5    0    0  0.29375739857E+02  0.35827398968E+03 -0.72981764432E+02  0.36680992859E+03  0.00000000000E+00 0.  1.
          2    1    6    6  503    0 -0.49944442929E+01 -0.28558091867E+02  0.18693699453E+02  0.34495847346E+02  0.00000000000E+00 0. -1.
         -2    1    6    6    0  503 -0.13621468646E+03 -0.44885946252E+03 -0.76880182708E+02  0.47533127437E+03  0.00000000000E+00 0.  1.
<mgrwt>
<rscale>  0 0.11329460E+04</rscale>
<asrwt>0</asrwt>
<pdfrwt beam="1">  1        2 0.62571930E-01 0.11329460E+04</pdfrwt>
<pdfrwt beam="2">  1       -1 0.12138140E+00 0.11329460E+04</pdfrwt>
<totfact> 0.53289035E+01</totfact>
</mgrwt>
</event>
<event>
12    7  0.1606355E-007  0.2203591E+04  0.7818608E-02  0.8516935E-01
          2   -1    0    0  501    0  0.00000000000E+00  0.00000000000E+00  0.15296193296E+04  0.15296193296E+04  0.00000000000E+00 0. -1.
         -1   -1    0    0    0  501 -0.00000000000E+00 -0.00000000000E+00 -0.79363111895E+03  0.79363111895E+03  0.00000000000E+00 0.  1.
         24    2    1    2    0    0 -0.71045452856E+03 -0.52788065408E+03  0.57465750545E+02  0.89084874434E+03  0.83099643220E+02 0.  0.
        254    2    1    2    0    0  0.71045452856E+03  0.52788065408E+03  0.67852246011E+03  0.14324017042E+04  0.89887612676E+03 0.  0.
         23    2    4    4    0    0  0.85871135308E+03  0.62057175817E+03  0.56588601243E+03  0.12052868693E+04  0.99974813869E+02 0.  0.
         23    2    4    4    0    0 -0.14825682451E+03 -0.92691104097E+02  0.11263644768E+03  0.22711483487E+03  0.91227474372E+02 0.  0.
          2    1    3    3  502    0 -0.61631975223E+03 -0.48486704918E+03  0.66259664368E+02  0.78697931071E+03  0.00000000000E+00 0. -1.
         -1    1    3    3    0  502 -0.94134776336E+02 -0.43013604895E+02 -0.87939138234E+01  0.10386943363E+03  0.00000000000E+00 0.  1.
         13    1    5    5    0    0  0.65506244198E+03  0.52139108462E+03  0.45940397093E+03  0.95499082431E+03  0.00000000000E+00 0. -1.
        -13    1    5    5    0    0  0.20364891110E+03  0.99180673553E+02  0.10648204150E+03  0.25029604504E+03  0.00000000000E+00 0.  1.
          2    1    6    6  503    0 -0.13277927231E+03 -0.11099268556E+03  0.95612989358E+02  0.19771584443E+03  0.00000000000E+00 0. -1.
         -2    1    6    6    0  503 -0.15477552200E+02  0.18301581461E+02  0.17023458319E+02  0.29398990445E+02  0.00000000000E+00 0.  1.
<mgrwt>
<rscale>  0 0.22035912E+04</rscale>
<asrwt>0</asrwt>
<pdfrwt beam="1">  1        2 0.23532605E+00 0.22035912E+04</pdfrwt>
<pdfrwt beam="2">  1       -1 0.12209710E+00 0.22035912E+04</pdfrwt>
<totfact> 0.75427223E+00</totfact>
</mgrwt>
</event>
<event>
12    7  0.1606355E-007  0.3198412E+04  0.7818608E-02  0.8189237E-01
          2   -1    0    0  501    0  0.00000000000E+00  0.00000000000E+00  0.14093850370E+04  0.14093850370E+04  0.00000000000E+00 0. -1.
         -1   -1    0    0    0  501 -0.00000000000E+00 -0.00000000000E+00 -0.18145925352E+04  0.18145925352E+04  0.00000000000E+00 0.  1.
         24    2    1    2    0    0 -0.86528696091E+03 -0.50198786499E+03 -0.12732121224E+04  0.16207676039E+04  0.71450512657E+02 0.  0.
        254    2    1    2    0    0  0.86528696091E+03  0.50198786499E+03  0.86800462419E+03  0.16032099684E+04  0.90340291882E+03 0.  0.
         23    2    4    4    0    0  0.25859177057E+03 -0.22212173055E+03  0.43453416276E+03  0.55985689868E+03  0.91717181629E+02 0.  0.
         23    2    4    4    0    0  0.60669519035E+03  0.72410959554E+03  0.43347046143E+03  0.10433530697E+04  0.90968273304E+02 0.  0.
          2    1    3    3  502    0 -0.20369216616E+03 -0.11375545726E+03 -0.25013843985E+03  0.34205268849E+03  0.00000000000E+00 0. -1.
         -1    1    3    3    0  502 -0.66159479475E+03 -0.38823240773E+03 -0.10230736826E+04  0.12787149154E+04  0.00000000000E+00 0.  1.
         13    1    5    5    0    0  0.49367403572E+02 -0.31656249636E+02  0.13827219003E+03  0.15019473097E+03  0.00000000000E+00 0. -1.
        -13    1    5    5    0    0  0.20922436700E+03 -0.19046548092E+03  0.29626197273E+03  0.40966216771E+03  0.00000000000E+00 0.  1.
          3    1    6    6  503    0  0.26566723707E+03  0.28067965247E+03  0.13546332816E+03  0.40952467745E+03  0.00000000000E+00 0. -1.
         -3    1    6    6    0  503  0.34102795328E+03  0.44342994307E+03  0.29800713327E+03  0.63382839224E+03  0.00000000000E+00 0.  1.
<mgrwt>
<rscale>  0 0.31984118E+04</rscale>
<asrwt>0</asrwt>
<pdfrwt beam="1">  1        2 0.21682847E+00 0.31984118E+04</pdfrwt>
<pdfrwt beam="2">  1       -1 0.27916808E+00 0.31984118E+04</pdfrwt>
<totfact> 0.61761779E-01</totfact>
</mgrwt>
</event>
<event>
12    7  0.1606355E-007  0.3018898E+04  0.7818608E-02  0.8238355E-01
          2   -1    0    0  501    0  0.00000000000E+00  0.00000000000E+00  0.21532011323E+04  0.21532011323E+04  0.00000000000E+00 0. -1.
         -1   -1    0    0    0  501 -0.00000000000E+00 -0.00000000000E+00 -0.10581626113E+04  0.10581626113E+04  0.00000000000E+00 0.  1.
         24    2    1    2    0    0  0.78929600304E+03  0.60315297420E+03 -0.50521297346E+03  0.11179408543E+04  0.88147118129E+02 0.  0.
        254    2    1    2    0    0 -0.78929600304E+03 -0.60315297420E+03  0.16002514945E+04  0.20934228893E+04  0.91369188315E+03 0.  0.
         23    2    4    4    0    0 -0.16612721764E+03 -0.25672358160E+03 -0.17814440813E+02  0.32271104507E+03  0.10158648789E+03 0.  0.
         23    2    4    4    0    0 -0.62316878540E+03 -0.34642939261E+03  0.16180659353E+04  0.17707118443E+04  0.94500821867E+02 0.  0.
          2    1    3    3  502    0  0.46686500269E+03  0.31895350899E+03 -0.25136706609E+03  0.61877271558E+03  0.00000000000E+00 0. -1.
         -1    1    3    3    0  502  0.32243100036E+03  0.28419946521E+03 -0.25384590737E+03  0.49916813871E+03  0.00000000000E+00 0.  1.
         13    1    5    5    0    0 -0.11607629509E+03 -0.11917494048E+03  0.29343176996E+02  0.16893014756E+03  0.00000000000E+00 0. -1.
        -13    1    5    5    0    0 -0.50050922557E+02 -0.13754864111E+03 -0.47157617809E+02  0.15378089751E+03  0.00000000000E+00 0.  1.
          4    1    6    6  503    0 -0.16870076635E+03 -0.99490993162E+02  0.55396367356E+03  0.58756630087E+03  0.00000000000E+00 0. -1.
         -4    1    6    6    0  503 -0.45446801906E+03 -0.24693839945E+03  0.10641022617E+04  0.11831455434E+04  0.00000000000E+00 0.  1.
<mgrwt>
<rscale>  0 0.30188984E+04</rscale>
<asrwt>0</asrwt>
<pdfrwt beam="1">  1        2 0.33126171E+00 0.30188984E+04</pdfrwt>
<pdfrwt beam="2">  1       -1 0.16279425E+00 0.30188984E+04</pdfrwt>
<totfact> 0.14843491E+00</totfact>
</mgrwt>
</event>
<event>
12    7  0.1606355E-007  0.1835342E+04  0.7818608E-02  0.8687728E-01
         -1   -1    0    0    0  501 -0.00000000000E+00  0.00000000000E+00  0.40681888789E+03  0.40681888789E+03  0.00000000000E+00 0.  1.
          2   -1    0    0  501    0  0.00000000000E+00 -0.00000000000E+00 -0.20700122647E+04  0.20700122647E+04  0.00000000000E+00 0. -1.
         24    2    1    2    0    0 -0.38310522957E+02  0.55553108816E+03 -0.79130631988E+02  0.56762626854E+03  0.76520831987E+02 0.  0.
        254    2    1    2    0    0  0.38310522957E+02 -0.55553108816E+03 -0.15840627448E+04  0.19092048840E+04  0.90869468121E+03 0.  0.
         23    2    4    4    0    0 -0.23882720587E+03 -0.39747697995E+03 -0.14919172025E+04  0.15648698319E+04  0.89298756134E+02 0.  0.
         23    2    4    4    0    0  0.27713772883E+03 -0.15805410822E+03 -0.92145542359E+02  0.34433505218E+03  0.91046171346E+02 0.  0.
          4    1    3    3  502    0 -0.31903146000E+02  0.20998083756E+03 -0.63430974706E+02  0.22166021614E+03  0.00000000000E+00 0. -1.
         -3    1    3    3    0  502 -0.64073769571E+01  0.34555025061E+03 -0.15699657283E+02  0.34596605240E+03  0.00000000000E+00 0.  1.
         13    1    5    5    0    0  0.60590879546E+01 -0.97138265596E+01 -0.18775448688E+02  0.21990644527E+02  0.00000000000E+00 0. -1.
        -13    1    5    5    0    0 -0.24488629383E+03 -0.38776315339E+03 -0.14731417538E+04  0.15428791873E+04  0.00000000000E+00 0.  1.
          4    1    6    6  503    0  0.11196266742E+02 -0.32113643172E+02 -0.25813922866E+02  0.42696616734E+02  0.00000000000E+00 0. -1.
         -4    1    6    6    0  503  0.26594146209E+03 -0.12594046505E+03 -0.66331619493E+02  0.30163843545E+03  0.00000000000E+00 0.  1.
<mgrwt>
<rscale>  0 0.18353420E+04</rscale>
<asrwt>0</asrwt>
<pdfrwt beam="1">  1        2 0.31846343E+00 0.18353420E+04</pdfrwt>
<pdfrwt beam="2">  1       -1 0.62587521E-01 0.18353420E+04</pdfrwt>
<totfact> 0.16952656E+01</totfact>
</mgrwt>
</event>
<event>
12    7  0.1606355E-007  0.2179379E+04  0.7818608E-02  0.8527061E-01
          2   -1    0    0  501    0  0.00000000000E+00  0.00000000000E+00  0.24566253234E+04  0.24566253234E+04  0.00000000000E+00 0. -1.
         -1   -1    0    0    0  501 -0.00000000000E+00 -0.00000000000E+00 -0.48335522975E+03  0.48335522975E+03  0.00000000000E+00 0.  1.
         24    2    1    2    0    0  0.54334187840E+03  0.41530092141E+03  0.21997745570E+02  0.68873501258E+03  0.78592395338E+02 0.  0.
        254    2    1    2    0    0 -0.54334187840E+03 -0.41530092141E+03  0.19512723481E+04  0.22512455406E+04  0.89047597126E+03 0.  0.
         23    2    4    4    0    0 -0.63159468823E+03 -0.47100194698E+02  0.16140792531E+04  0.17362728397E+04  0.90891473955E+02 0.  0.
         23    2    4    4    0    0  0.88252809834E+02 -0.36820072671E+03  0.33719309498E+03  0.51497270087E+03  0.90207348628E+02 0.  0.
          4    1    3    3  502    0  0.73624140512E+01  0.22751722275E+02 -0.15336423045E+01  0.23962430299E+02  0.00000000000E+00 0. -1.
         -3    1    3    3    0  502  0.53597946435E+03  0.39254919913E+03  0.23531387874E+02  0.66477258228E+03  0.00000000000E+00 0.  1.
         13    1    5    5    0    0 -0.49133326988E+03 -0.28807384448E+02  0.11442028774E+04  0.12455675301E+04  0.00000000000E+00 0.  1.
        -13    1    5    5    0    0 -0.14026141836E+03 -0.18292810250E+02  0.46987637573E+03  0.49070530959E+03  0.00000000000E+00 0. -1.
          3    1    6    6  503    0 -0.22125874149E+01 -0.12046217269E+02 -0.46391693630E+01  0.13096899860E+02  0.00000000000E+00 0. -1.
         -3    1    6    6    0  503  0.90465397249E+02 -0.35615450944E+03  0.34183226434E+03  0.50187580101E+03  0.00000000000E+00 0.  1.
<mgrwt>
<rscale>  0 0.21793785E+04</rscale>
<asrwt>0</asrwt>
<pdfrwt beam="1">  1        2 0.37794235E+00 0.21793785E+04</pdfrwt>
<pdfrwt beam="2">  1       -1 0.74362344E-01 0.21793785E+04</pdfrwt>
<totfact> 0.69953312E+00</totfact>
</mgrwt>
</event>
<event>
12    7  0.1606355E-007  0.4175645E+04  0.7818608E-02  0.7970021E-01
         -1   -1    0    0    0  501 -0.00000000000E+00  0.00000000000E+00  0.16319601782E+04  0.16319601782E+04  0.00000000000E+00 0.  1.
          2   -1    0    0  501    0  0.00000000000E+00 -0.00000000000E+00 -0.26710223341E+04  0.26710223341E+04  0.00000000000E+00 0. -1.
         24    2    1    2    0    0 -0.15912717342E+04  0.43963420393E+03  0.65451828829E+03  0.17777828088E+04  0.81814181477E+02 0.  0.
        254    2    1    2    0    0  0.15912717342E+04 -0.43963420393E+03 -0.16935804442E+04  0.25251997035E+04  0.88486996556E+03 0.  0.
         23    2    4    4    0    0  0.12576772047E+04 -0.52498670391E+02 -0.15243206169E+04  0.19790588198E+04  0.92803057818E+02 0.  0.
         23    2    4    4    0    0  0.33359452956E+03 -0.38713553354E+03 -0.16925982731E+03  0.54614088368E+03  0.91987739411E+02 0.  0.
          4    1    3    3  502    0 -0.73818212451E+02  0.35857240059E+02  0.22379735575E+02  0.85063051430E+02  0.00000000000E+00 0. -1.
         -3    1    3    3    0  502 -0.15174535218E+04  0.40377696387E+03  0.63213855271E+03  0.16927197574E+04  0.00000000000E+00 0.  1.
         13    1    5    5    0    0  0.22601025269E+03  0.18949237538E+02 -0.24133152993E+03  0.33118063842E+03  0.00000000000E+00 0. -1.
        -13    1    5    5    0    0  0.10316669520E+04 -0.71447907930E+02 -0.12829890870E+04  0.16478781814E+04  0.00000000000E+00 0.  1.
          4    1    6    6  503    0  0.32745693896E+02 -0.86305158692E+02 -0.14629693120E+02  0.93460627038E+02  0.00000000000E+00 0. -1.
         -4    1    6    6    0  503  0.30084883567E+03 -0.30083037485E+03 -0.15463013419E+03  0.45268025664E+03  0.00000000000E+00 0.  1.
<mgrwt>
<rscale>  0 0.41756447E+04</rscale>
<asrwt>0</asrwt>
<pdfrwt beam="1">  1        2 0.41092651E+00 0.41756447E+04</pdfrwt>
<pdfrwt beam="2">  1       -1 0.25107080E+00 0.41756447E+04</pdfrwt>
<totfact> 0.16752822E-01</totfact>
</mgrwt>
</event>
<event>
12    7  0.1606355E-007  0.2797552E+04  0.7818608E-02  0.8304029E-01
         -1   -1    0    0    0  501 -0.00000000000E+00  0.00000000000E+00  0.60846355646E+03  0.60846355646E+03  0.00000000000E+00 0.  1.
          2   -1    0    0  501    0  0.00000000000E+00 -0.00000000000E+00 -0.32155970864E+04  0.32155970864E+04  0.00000000000E+00 0. -1.
         24    2    1    2    0    0 -0.41234005258E+03 -0.31587664874E+03 -0.27256540901E+04  0.27758522760E+04  0.79770064923E+02 0.  0.
        254    2    1    2    0    0  0.41234005258E+03  0.31587664874E+03  0.11852056016E+03  0.10482083668E+04  0.90271328835E+03 0.  0.
         23    2    4    4    0    0 -0.14531347868E+03  0.43070142940E+03  0.78232218155E+02  0.47036886764E+03  0.92232658615E+02 0.  0.
         23    2    4    4    0    0  0.55765353126E+03 -0.11482478067E+03  0.40288342004E+02  0.57783949920E+03  0.90072999029E+02 0.  0.
          2    1    3    3  502    0 -0.38901093778E+03 -0.31748411582E+03 -0.26009653742E+04  0.26489897227E+04  0.00000000000E+00 0. -1.
         -1    1    3    3    0  502 -0.23329114798E+02  0.16074670831E+01 -0.12468871595E+03  0.12686255331E+03  0.00000000000E+00 0.  1.
         13    1    5    5    0    0 -0.20136463287E+02  0.82949401816E+02 -0.20555961672E+02  0.87798792563E+02  0.00000000000E+00 0.  1.
        -13    1    5    5    0    0 -0.12517701539E+03  0.34775202759E+03  0.98788179826E+02  0.38257007508E+03  0.00000000000E+00 0. -1.
          3    1    6    6  503    0  0.14810463879E+03 -0.43385682784E+02 -0.27071435563E+02  0.15668491991E+03  0.00000000000E+00 0. -1.
         -3    1    6    6    0  503  0.40954889247E+03 -0.71439097882E+02  0.67359777567E+02  0.42115457929E+03  0.00000000000E+00 0.  1.
<mgrwt>
<rscale>  0 0.27975515E+04</rscale>
<asrwt>0</asrwt>
<pdfrwt beam="1">  1        2 0.49470725E+00 0.27975515E+04</pdfrwt>
<pdfrwt beam="2">  1       -1 0.93609777E-01 0.27975515E+04</pdfrwt>
<totfact> 0.13861751E+00</totfact>
</mgrwt>
</event>
<event>
12    7  0.1606355E-007  0.1631538E+04  0.7818608E-02  0.8801404E-01
          2   -1    0    0  501    0  0.00000000000E+00  0.00000000000E+00  0.14898902655E+04  0.14898902655E+04  0.00000000000E+00 0. -1.
         -1   -1    0    0    0  501 -0.00000000000E+00 -0.00000000000E+00 -0.44666297829E+03  0.44666297829E+03  0.00000000000E+00 0.  1.
         24    2    1    2    0    0 -0.47391122827E+03  0.34945109090E+02  0.68194978426E+03  0.83481288844E+03  0.77743408313E+02 0.  0.
        254    2    1    2    0    0  0.47391122827E+03 -0.34945109090E+02  0.36127750296E+03  0.11017403553E+04  0.92601153531E+03 0.  0.
         23    2    4    4    0    0 -0.16620887553E+02 -0.30119303117E+03  0.42871045194E+03  0.53219690617E+03  0.91909735074E+02 0.  0.
         23    2    4    4    0    0  0.49053211582E+03  0.26624792208E+03 -0.67432948985E+02  0.56954344917E+03  0.91229519486E+02 0.  0.
          4    1    3    3  502    0 -0.43317489802E+03  0.40822153652E+02  0.58149115440E+03  0.72624989029E+03  0.00000000000E+00 0. -1.
         -3    1    3    3    0  502 -0.40736330244E+02 -0.58770445622E+01  0.10045862986E+03  0.10856299815E+03  0.00000000000E+00 0.  1.
         13    1    5    5    0    0 -0.62355251735E+01 -0.74865696857E+02  0.18380261869E+03  0.19856272806E+03  0.00000000000E+00 0. -1.
        -13    1    5    5    0    0 -0.10385362380E+02 -0.22632733432E+03  0.24490783326E+03  0.33363417811E+03  0.00000000000E+00 0.  1.
          2    1    6    6  503    0  0.41781438905E+02  0.23171120770E+02 -0.32923194635E+02  0.58021773669E+02  0.00000000000E+00 0. -1.
         -2    1    6    6    0  503  0.44875067691E+03  0.24307680131E+03 -0.34509754351E+02  0.51152167550E+03  0.00000000000E+00 0.  1.
<mgrwt>
<rscale>  0 0.16315377E+04</rscale>
<asrwt>0</asrwt>
<pdfrwt beam="1">  1        2 0.22921389E+00 0.16315377E+04</pdfrwt>
<pdfrwt beam="2">  1       -1 0.68717382E-01 0.16315377E+04</pdfrwt>
<totfact> 0.30046940E+01</totfact>
</mgrwt>
</event>
<event>
12    7  0.1606355E-007  0.2082995E+04  0.7818608E-02  0.8568772E-01
         -1   -1    0    0    0  501 -0.00000000000E+00  0.00000000000E+00  0.92845521164E+03  0.92845521164E+03  0.00000000000E+00 0.  1.
          2   -1    0    0  501    0  0.00000000000E+00 -0.00000000000E+00 -0.11683026090E+04  0.11683026090E+04  0.00000000000E+00 0. -1.
         24    2    1    2    0    0 -0.15513282606E+03  0.32288595290E+03 -0.86673173678E+03  0.94126871512E+03  0.80258072627E+02 0.  0.
        254    2    1    2    0    0  0.15513282606E+03 -0.32288595290E+03  0.62688433938E+03  0.11554891056E+04  0.90213611268E+03 0.  0.
         23    2    4    4    0    0  0.28760818636E+03 -0.73739318958E+02 -0.13444404708E+03  0.33845129029E+03  0.91203717499E+02 0.  0.
         23    2    4    4    0    0 -0.13247536029E+03 -0.24914663394E+03  0.76132838646E+03  0.81703781526E+03  0.91137880475E+02 0.  0.
          4    1    3    3  502    0 -0.15416691694E+03  0.26635468630E+03 -0.77002032162E+03  0.82924275873E+03  0.00000000000E+00 0. -1.
         -3    1    3    3    0  502 -0.96590911961E+00  0.56531266596E+02 -0.96711415157E+02  0.11202595639E+03  0.00000000000E+00 0.  1.
         13    1    5    5    0    0  0.12636821079E+03 -0.79067689773E+02 -0.58368933013E+02  0.16008609123E+03  0.00000000000E+00 0. -1.
        -13    1    5    5    0    0  0.16123997556E+03  0.53283708148E+01 -0.76075114068E+02  0.17836519906E+03  0.00000000000E+00 0.  1.
          1    1    6    6  503    0 -0.12308651977E+03 -0.20116599484E+03  0.69967813596E+03  0.73835461858E+03  0.00000000000E+00 0. -1.
         -1    1    6    6    0  503 -0.93888405231E+01 -0.47980639101E+02  0.61650250493E+02  0.78683196687E+02  0.00000000000E+00 0.  1.
<mgrwt>
<rscale>  0 0.20829946E+04</rscale>
<asrwt>0</asrwt>
<pdfrwt beam="1">  1        2 0.17973886E+00 0.20829946E+04</pdfrwt>
<pdfrwt beam="2">  1       -1 0.14283926E+00 0.20829946E+04</pdfrwt>
<totfact> 0.82798672E+00</totfact>
</mgrwt>
</event>
<event>
12    7  0.1606355E-007  0.1405370E+04  0.7818608E-02  0.8949940E-01
          2   -1    0    0  501    0  0.00000000000E+00  0.00000000000E+00  0.61586321224E+03  0.61586321224E+03  0.00000000000E+00 0. -1.
         -3   -1    0    0    0  501 -0.00000000000E+00 -0.00000000000E+00 -0.80174687283E+03  0.80174687283E+03  0.00000000000E+00 0.  1.
         24    2    1    2    0    0  0.24763585905E+03 -0.28084989206E+03 -0.20682668655E+03  0.43769407886E+03  0.92728894357E+02 0.  0.
        254    2    1    2    0    0 -0.24763585905E+03  0.28084989206E+03  0.20943025966E+02  0.97991600621E+03  0.90531573958E+03 0.  0.
         23    2    4    4    0    0 -0.30414416311E+02 -0.31340415654E+03 -0.65815253415E+02  0.33422640328E+03  0.90710743617E+02 0.  0.
         23    2    4    4    0    0 -0.21722144274E+03  0.59425404860E+03  0.86758279381E+02  0.64568960293E+03  0.95210476465E+02 0.  0.
          4    1    3    3  502    0  0.23535210636E+03 -0.24123384077E+03 -0.15402809052E+03  0.37055233445E+03  0.00000000000E+00 0. -1.
         -3    1    3    3    0  502  0.12283752691E+02 -0.39616051291E+02 -0.52798596032E+02  0.67141744415E+02  0.00000000000E+00 0.  1.
         13    1    5    5    0    0 -0.38164383065E+01 -0.26397638630E+03 -0.80870555996E+02  0.27611255776E+03  0.00000000000E+00 0. -1.
        -13    1    5    5    0    0 -0.26597978004E+02 -0.49427770249E+02  0.15055302581E+02  0.58113845523E+02  0.00000000000E+00 0.  1.
          2    1    6    6  503    0 -0.12741517835E+03  0.46570639404E+03  0.72446001760E+02  0.48822689018E+03  0.00000000000E+00 0. -1.
         -2    1    6    6    0  503 -0.89806264387E+02  0.12854765456E+03  0.14312277621E+02  0.15746271275E+03  0.00000000000E+00 0.  1.
<mgrwt>
<rscale>  0 0.14053703E+04</rscale>
<asrwt>0</asrwt>
<pdfrwt beam="1">  1        2 0.94748187E-01 0.14053703E+04</pdfrwt>
<pdfrwt beam="2">  1       -3 0.12334567E+00 0.14053703E+04</pdfrwt>
<totfact> 0.15559211E+01</totfact>
</mgrwt>
</event>
<event>
12    7  0.1606355E-007  0.3301256E+04  0.7818608E-02  0.8162576E-01
          2   -1    0    0  501    0  0.00000000000E+00  0.00000000000E+00  0.21296649449E+04  0.21296649449E+04  0.00000000000E+00 0. -1.
         -1   -1    0    0    0  501 -0.00000000000E+00 -0.00000000000E+00 -0.12793434955E+04  0.12793434955E+04  0.00000000000E+00 0.  1.
         24    2    1    2    0    0 -0.10478940888E+04 -0.61090960437E+03 -0.56559375679E+03  0.13406931208E+04  0.79178156340E+02 0.  0.
        254    2    1    2    0    0  0.10478940888E+04  0.61090960437E+03  0.14159152062E+04  0.20683153196E+04  0.89544392586E+03 0.  0.
         23    2    4    4    0    0  0.47778717340E+03  0.91150651046E+02  0.11413378057E+04  0.12440883990E+04  0.92276397738E+02 0.  0.
         23    2    4    4    0    0  0.57010691536E+03  0.51975895333E+03  0.27457740051E+03  0.82422692064E+03  0.93733683079E+02 0.  0.
          2    1    3    3  502    0 -0.18660768881E+03 -0.12308827814E+03 -0.73808030170E+02  0.23541618265E+03  0.00000000000E+00 0. -1.
         -1    1    3    3    0  502 -0.86128639994E+03 -0.48782132624E+03 -0.49178572661E+03  0.11052769381E+04  0.00000000000E+00 0.  1.
         13    1    5    5    0    0  0.41888345567E+03  0.10107028007E+03  0.10496920806E+04  0.11346946792E+04  0.00000000000E+00 0. -1.
        -13    1    5    5    0    0  0.58903717732E+02 -0.99196290289E+01  0.91645725076E+02  0.10939371978E+03  0.00000000000E+00 0.  1.
          1    1    6    6  503    0  0.38167115404E+03  0.39367973304E+03  0.16638086568E+03  0.57300889566E+03  0.00000000000E+00 0. -1.
         -1    1    6    6    0  503  0.18843576132E+03  0.12607922028E+03  0.10819653483E+03  0.25121802499E+03  0.00000000000E+00 0.  1.
<mgrwt>
<rscale>  0 0.33012561E+04</rscale>
<asrwt>0</asrwt>
<pdfrwt beam="1">  1        2 0.32764076E+00 0.33012561E+04</pdfrwt>
<pdfrwt beam="2">  1       -1 0.19682208E+00 0.33012561E+04</pdfrwt>
<totfact> 0.85034653E-01</totfact>
</mgrwt>
</event>
<event>
12    7  0.1606355E-007  0.1354667E+04  0.7818608E-02  0.8987303E-01
         -1   -1    0    0    0  501 -0.00000000000E+00  0.00000000000E+00  0.43593860363E+03  0.43593860363E+03  0.00000000000E+00 0.  1.
          2   -1    0    0  501    0  0.00000000000E+00 -0.00000000000E+00 -0.10523966950E+04  0.10523966950E+04  0.00000000000E+00 0. -1.
         24    2    1    2    0    0 -0.23677371592E+03  0.28011142018E+03 -0.62145207630E+02  0.38061112797E+03  0.80489773475E+02 0.  0.
        254    2    1    2    0    0  0.23677371592E+03 -0.28011142018E+03 -0.55431288373E+03  0.11077241707E+04  0.88615228088E+03 0.  0.
         23    2    4    4    0    0  0.34234992685E+03  0.17674308451E+03 -0.48371942678E+03  0.62524812162E+03  0.92244996709E+02 0.  0.
         23    2    4    4    0    0 -0.10557621093E+03 -0.45685450469E+03 -0.70593456956E+02  0.48247604903E+03  0.89091677233E+02 0.  0.
          4    1    3    3  502    0 -0.10743093893E+02 -0.32463234366E+01 -0.87559794652E+01  0.14234460251E+02  0.00000000000E+00 0. -1.
         -3    1    3    3    0  502 -0.22603062203E+03  0.28335774362E+03 -0.53389228165E+02  0.36637666771E+03  0.00000000000E+00 0.  1.
         13    1    5    5    0    0  0.11109311509E+03  0.10307411513E+03 -0.21637242982E+03  0.26416468693E+03  0.00000000000E+00 0. -1.
        -13    1    5    5    0    0  0.23125681176E+03  0.73668969377E+02 -0.26734699695E+03  0.36108343470E+03  0.00000000000E+00 0.  1.
          1    1    6    6  503    0 -0.11803701585E+03 -0.40783559519E+03 -0.48680062194E+02  0.42735507283E+03  0.00000000000E+00 0. -1.
         -1    1    6    6    0  503  0.12460804916E+02 -0.49018909498E+02 -0.21913394762E+02  0.55120976202E+02  0.00000000000E+00 0.  1.
<mgrwt>
<rscale>  0 0.13546665E+04</rscale>
<asrwt>0</asrwt>
<pdfrwt beam="1">  1        2 0.16190719E+00 0.13546665E+04</pdfrwt>
<pdfrwt beam="2">  1       -1 0.67067477E-01 0.13546665E+04</pdfrwt>
<totfact> 0.58519905E+01</totfact>
</mgrwt>
</event>
<event>
12    7  0.1606355E-007  0.1753279E+04  0.7818608E-02  0.8731548E-01
         -1   -1    0    0    0  501 -0.00000000000E+00  0.00000000000E+00  0.13460043671E+04  0.13460043671E+04  0.00000000000E+00 0.  1.
          2   -1    0    0  501    0  0.00000000000E+00 -0.00000000000E+00 -0.57094653878E+03  0.57094653878E+03  0.00000000000E+00 0. -1.
         24    2    1    2    0    0 -0.17340229536E+03 -0.36628386587E+03  0.82865481117E+03  0.92558114340E+03  0.76153991990E+02 0.  0.
        254    2    1    2    0    0  0.17340229536E+03  0.36628386587E+03 -0.53596982907E+02  0.99136976244E+03  0.90316617677E+03 0.  0.
         23    2    4    4    0    0 -0.26088592186E+03  0.18692269618E+03 -0.30370149465E+03  0.45142985100E+03  0.92481100487E+02 0.  0.
         23    2    4    4    0    0  0.43428821721E+03  0.17936116969E+03  0.25010451174E+03  0.53993991144E+03  0.90587837887E+02 0.  0.
          2    1    3    3  502    0 -0.11060710768E+03 -0.23566196453E+03  0.44625159176E+03  0.51663427775E+03  0.00000000000E+00 0. -1.
         -1    1    3    3    0  502 -0.62795187678E+02 -0.13062190134E+03  0.38240321941E+03  0.40894686565E+03  0.00000000000E+00 0.  1.
         13    1    5    5    0    0 -0.78925729660E+02  0.58315632033E+02 -0.15532250029E+03  0.18372550949E+03  0.00000000000E+00 0.  1.
        -13    1    5    5    0    0 -0.18196019220E+03  0.12860706415E+03 -0.14837899436E+03  0.26770434150E+03  0.00000000000E+00 0. -1.
          2    1    6    6  503    0  0.43824452282E+03  0.17393410822E+03  0.24873455432E+03  0.53308556001E+03  0.00000000000E+00 0. -1.
         -2    1    6    6    0  503 -0.39563056032E+01  0.54270614698E+01  0.13699574274E+01  0.68543514336E+01  0.00000000000E+00 0.  1.
<mgrwt>
<rscale>  0 0.17532787E+04</rscale>
<asrwt>0</asrwt>
<pdfrwt beam="1">  1        2 0.87837929E-01 0.17532787E+04</pdfrwt>
<pdfrwt beam="2">  1       -1 0.20707759E+00 0.17532787E+04</pdfrwt>
<totfact> 0.76698864E+00</totfact>
</mgrwt>
</event>
<event>
12    7  0.1606355E-007  0.1701201E+04  0.7818608E-02  0.8760679E-01
          2   -1    0    0  501    0  0.00000000000E+00  0.00000000000E+00  0.10399386003E+04  0.10399386003E+04  0.00000000000E+00 0. -1.
         -1   -1    0    0    0  501 -0.00000000000E+00 -0.00000000000E+00 -0.69573485440E+03  0.69573485440E+03  0.00000000000E+00 0.  1.
         24    2    1    2    0    0  0.35403027054E+03 -0.41093686320E+03  0.41611084030E+03  0.68818433935E+03  0.79012122569E+02 0.  0.
        254    2    1    2    0    0 -0.35403027054E+03  0.41093686320E+03 -0.71907094432E+02  0.10474891153E+04  0.89322801036E+03 0.  0.
         23    2    4    4    0    0  0.25355197719E+03 -0.39281460720E+02  0.47789739986E+02  0.27652979907E+03  0.91396018702E+02 0.  0.
         23    2    4    4    0    0 -0.60758224772E+03  0.45021832392E+03 -0.11969683442E+03  0.77095931625E+03  0.90543957273E+02 0.  0.
          2    1    3    3  502    0  0.27925295923E+03 -0.29040297084E+03  0.27286191293E+03  0.48658989328E+03  0.00000000000E+00 0. -1.
         -1    1    3    3    0  502  0.74777311312E+02 -0.12053389236E+03  0.14324892737E+03  0.20159444607E+03  0.00000000000E+00 0.  1.
         13    1    5    5    0    0  0.91094968324E+02 -0.26378713947E+02 -0.24950244672E+02  0.98064491599E+02  0.00000000000E+00 0.  1.
        -13    1    5    5    0    0  0.16245700886E+03 -0.12902746773E+02  0.72739984657E+02  0.17846530747E+03  0.00000000000E+00 0. -1.
          1    1    6    6  503    0 -0.13145298726E+01  0.84487350581E+01  0.58754187359E+01  0.10374471466E+02  0.00000000000E+00 0.  1.
         -1    1    6    6    0  503 -0.60626771785E+03  0.44176958886E+03 -0.12557225315E+03  0.76058484479E+03  0.00000000000E+00 0. -1.
<mgrwt>
<rscale>  0 0.17012014E+04</rscale>
<asrwt>0</asrwt>
<pdfrwt beam="1">  1        2 0.15999055E+00 0.17012014E+04</pdfrwt>
<pdfrwt beam="2">  1       -1 0.10703613E+00 0.17012014E+04</pdfrwt>
<totfact> 0.20988633E+01</totfact>
</mgrwt>
</event>
<event>
12    7  0.1606355E-007  0.1687202E+04  0.7818608E-02  0.8768697E-01
          2   -1    0    0  501    0  0.00000000000E+00  0.00000000000E+00  0.42834796041E+04  0.42834796041E+04  0.00000000000E+00 0. -1.
         -3   -1    0    0    0  501 -0.00000000000E+00 -0.00000000000E+00 -0.16614121839E+03  0.16614121839E+03  0.00000000000E+00 0.  1.
         24    2    1    2    0    0  0.68109655176E+02  0.13964399199E+03 -0.52255105250E+02  0.18201694222E+03  0.79121435798E+02 0.  0.
        254    2    1    2    0    0 -0.68109655176E+02 -0.13964399199E+03  0.41695934910E+04  0.42676038803E+04  0.89598751639E+03 0.  0.
         23    2    4    4    0    0  0.34709682533E+03 -0.25712517756E+03  0.15771981645E+04  0.16379327123E+04  0.93166286323E+02 0.  0.
         23    2    4    4    0    0 -0.41520648051E+03  0.11748118557E+03  0.25923953265E+04  0.26296711680E+04  0.91971041781E+02 0.  0.
          2    1    3    3  502    0 -0.17132482534E+02  0.32584550839E+02 -0.17823866073E+02  0.40901896202E+02  0.00000000000E+00 0. -1.
         -1    1    3    3    0  502  0.85242137710E+02  0.10705944115E+03 -0.34431239177E+02  0.14111504601E+03  0.00000000000E+00 0.  1.
         13    1    5    5    0    0  0.21109224924E+03 -0.20992305348E+03  0.10382493552E+04  0.10800876583E+04  0.00000000000E+00 0. -1.
        -13    1    5    5    0    0  0.13600457609E+03 -0.47202124077E+02  0.53894880929E+03  0.55784505400E+03  0.00000000000E+00 0.  1.
          4    1    6    6  503    0 -0.39706919032E+03  0.88191610018E+02  0.23870982587E+04  0.24215036235E+04  0.00000000000E+00 0. -1.
         -4    1    6    6    0  503 -0.18137290186E+02  0.29289575556E+02  0.20529706780E+03  0.20816754449E+03  0.00000000000E+00 0.  1.
<mgrwt>
<rscale>  0 0.16872018E+04</rscale>
<asrwt>0</asrwt>
<pdfrwt beam="1">  1        2 0.65899678E+00 0.16872018E+04</pdfrwt>
<pdfrwt beam="2">  1       -3 0.25560191E-01 0.16872018E+04</pdfrwt>
<totfact> 0.18319258E+00</totfact>
</mgrwt>
</event>
<event>
12    7  0.1606355E-007  0.2017030E+04  0.7818608E-02  0.8598700E-01
         -1   -1    0    0    0  501 -0.00000000000E+00  0.00000000000E+00  0.14844067406E+04  0.14844067406E+04  0.00000000000E+00 0.  1.
          2   -1    0    0  501    0  0.00000000000E+00 -0.00000000000E+00 -0.68519125840E+03  0.68519125840E+03  0.00000000000E+00 0. -1.
         24    2    1    2    0    0  0.71438896499E+03 -0.31687416107E+03  0.10948757707E+03  0.79339896515E+03  0.82058278757E+02 0.  0.
        254    2    1    2    0    0 -0.71438896499E+03  0.31687416107E+03  0.68972790517E+03  0.13761990339E+04  0.89857574553E+03 0.  0.
         23    2    4    4    0    0 -0.24324980793E+03  0.57764716019E+03  0.46253556935E+03  0.78440058322E+03  0.92186828254E+02 0.  0.
         23    2    4    4    0    0 -0.47113915706E+03 -0.26077299912E+03  0.22719233582E+03  0.59179845067E+03  0.92921398920E+02 0.  0.
          2    1    3    3  502    0  0.37140423082E+02 -0.68159300212E+01 -0.99113722965E+01  0.39039764722E+02  0.00000000000E+00 0. -1.
         -1    1    3    3    0  502  0.67724854191E+03 -0.31005823105E+03  0.11939894937E+03  0.75435920043E+03  0.00000000000E+00 0.  1.
         13    1    5    5    0    0 -0.24572881909E+03  0.54243663491E+03  0.41793860751E+03  0.72752514394E+03  0.00000000000E+00 0. -1.
        -13    1    5    5    0    0  0.24790111657E+01  0.35210525284E+02  0.44596961843E+02  0.56875439276E+02  0.00000000000E+00 0.  1.
          3    1    6    6  503    0 -0.25462237609E+03 -0.17636889162E+03  0.92767570910E+02  0.32333320669E+03  0.00000000000E+00 0. -1.
         -3    1    6    6    0  503 -0.21651678097E+03 -0.84404107499E+02  0.13442476491E+03  0.26846524398E+03  0.00000000000E+00 0.  1.
<mgrwt>
<rscale>  0 0.20170300E+04</rscale>
<asrwt>0</asrwt>
<pdfrwt beam="1">  1        2 0.10541404E+00 0.20170300E+04</pdfrwt>
<pdfrwt beam="2">  1       -1 0.22837027E+00 0.20170300E+04</pdfrwt>
<totfact> 0.43142991E+00</totfact>
</mgrwt>
</event>
<event>
12    7  0.1606355E-007  0.1748281E+04  0.7818608E-02  0.8734297E-01
          2   -1    0    0  501    0  0.00000000000E+00  0.00000000000E+00  0.14628499316E+04  0.14628499316E+04  0.00000000000E+00 0. -1.
         -1   -1    0    0    0  501 -0.00000000000E+00 -0.00000000000E+00 -0.52235145611E+03  0.52235145611E+03  0.00000000000E+00 0.  1.
         24    2    1    2    0    0 -0.43138065391E+03  0.30956571555E+03  0.73492803270E+03  0.90999629555E+03  0.77806451221E+02 0.  0.
        254    2    1    2    0    0  0.43138065391E+03 -0.30956571555E+03  0.20557044280E+03  0.10752050922E+04  0.91207816687E+03 0.  0.
         23    2    4    4    0    0  0.68220304155E+03 -0.21832332806E+03  0.29405946424E+03  0.77966612766E+03  0.91335845260E+02 0.  0.
         23    2    4    4    0    0 -0.25082238764E+03 -0.91242387486E+02 -0.88489021441E+02  0.29553896452E+03  0.90972134286E+02 0.  0.
          4    1    3    3  502    0 -0.34096826633E+03  0.24568927227E+03  0.63107193894E+03  0.75820470143E+03  0.00000000000E+00 0. -1.
         -3    1    3    3    0  502 -0.90412387583E+02  0.63876443280E+02  0.10385609376E+03  0.15179159412E+03  0.00000000000E+00 0.  1.
         13    1    5    5    0    0  0.21615706470E+03 -0.10340915133E+03  0.67916336786E+02  0.24905814181E+03  0.00000000000E+00 0.  1.
        -13    1    5    5    0    0  0.46604597685E+03 -0.11491417674E+03  0.22614312745E+03  0.53060798585E+03  0.00000000000E+00 0. -1.
          3    1    6    6  503    0 -0.19885884208E+03 -0.97453776318E+02 -0.98304622643E+02  0.24229295579E+03  0.00000000000E+00 0. -1.
         -3    1    6    6    0  503 -0.51963545564E+02  0.62113888326E+01  0.98156012019E+01  0.53246008731E+02  0.00000000000E+00 0.  1.
<mgrwt>
<rscale>  0 0.17482812E+04</rscale>
<asrwt>0</asrwt>
<pdfrwt beam="1">  1        2 0.22505383E+00 0.17482812E+04</pdfrwt>
<pdfrwt beam="2">  1       -1 0.80361764E-01 0.17482812E+04</pdfrwt>
<totfact> 0.22237316E+01</totfact>
</mgrwt>
</event>
<event>
12    7  0.1606355E-007  0.1762737E+04  0.7818608E-02  0.8726370E-01
          2   -1    0    0  501    0  0.00000000000E+00  0.00000000000E+00  0.90025254468E+03  0.90025254468E+03  0.00000000000E+00 0. -1.
         -1   -1    0    0    0  501 -0.00000000000E+00 -0.00000000000E+00 -0.86288077046E+03  0.86288077046E+03  0.00000000000E+00 0.  1.
         24    2    1    2    0    0 -0.76303815290E+02  0.60278291824E+03 -0.22764756274E+03  0.65377141657E+03  0.80150692834E+02 0.  0.
        254    2    1    2    0    0  0.76303815290E+02 -0.60278291824E+03  0.26501933696E+03  0.11093618986E+04  0.88953867497E+03 0.  0.
         23    2    4    4    0    0 -0.21945777034E+03  0.87883355525E+02  0.24499478260E+03  0.35225775120E+03  0.90431646228E+02 0.  0.
         23    2    4    4    0    0  0.29576158563E+03 -0.69066627376E+03  0.20024554363E+02  0.75710414736E+03  0.91164082418E+02 0.  0.
          2    1    3    3  502    0 -0.30760806962E+01  0.28983019608E+02  0.62680345591E+01  0.29812177970E+02  0.00000000000E+00 0. -1.
         -1    1    3    3    0  502 -0.73227734594E+02  0.57379989863E+03 -0.23391559730E+03  0.62395923860E+03  0.00000000000E+00 0.  1.
         13    1    5    5    0    0 -0.39212835387E+02  0.53539854941E+02  0.41580213647E+02  0.78313962313E+02  0.00000000000E+00 0.  1.
        -13    1    5    5    0    0 -0.18024493496E+03  0.34343500584E+02  0.20341456895E+03  0.27394378889E+03  0.00000000000E+00 0. -1.
          1    1    6    6  503    0  0.25938109916E+03 -0.52139232783E+03 -0.36141145222E+01  0.58235863173E+03  0.00000000000E+00 0. -1.
         -1    1    6    6    0  503  0.36380486471E+02 -0.16927394593E+03  0.23638668885E+02  0.17474551563E+03  0.00000000000E+00 0.  1.
<mgrwt>
<rscale>  0 0.17627372E+04</rscale>
<asrwt>0</asrwt>
<pdfrwt beam="1">  1        2 0.13850039E+00 0.17627372E+04</pdfrwt>
<pdfrwt beam="2">  1       -1 0.13275089E+00 0.17627372E+04</pdfrwt>
<totfact> 0.15232009E+01</totfact>
</mgrwt>
</event>
<event>
12    7  0.1606355E-007  0.2268933E+04  0.7818608E-02  0.8490272E-01
          2   -1    0    0  501    0  0.00000000000E+00  0.00000000000E+00  0.21713422104E+04  0.21713422104E+04  0.00000000000E+00 0. -1.
         -1   -1    0    0    0  501 -0.00000000000E+00 -0.00000000000E+00 -0.59272773636E+03  0.59272773636E+03  0.00000000000E+00 0.  1.
         24    2    1    2    0    0  0.65864325003E+03 -0.59708062805E+03  0.34476701709E+03  0.95753219582E+03  0.87677835121E+02 0.  0.
        254    2    1    2    0    0 -0.65864325003E+03  0.59708062805E+03  0.12338474570E+04  0.18065377510E+04  0.97513224301E+03 0.  0.
         23    2    4    4    0    0  0.17476980186E+03 -0.63436114358E+02  0.50085717044E+02  0.21265119579E+03  0.90240388819E+02 0.  0.
         23    2    4    4    0    0 -0.83341305189E+03  0.66051674240E+03  0.11837617399E+04  0.15938865552E+04  0.91229445671E+02 0.  0.
          2    1    3    3  502    0  0.21782547892E+03 -0.15636014985E+03  0.75847137975E+02  0.27865610359E+03  0.00000000000E+00 0. -1.
         -1    1    3    3    0  502  0.44081777110E+03 -0.44072047820E+03  0.26891987911E+03  0.67887609223E+03  0.00000000000E+00 0.  1.
         13    1    5    5    0    0  0.16639973404E+03 -0.75773253110E+02  0.26502405960E+02  0.18475073720E+03  0.00000000000E+00 0.  1.
        -13    1    5    5    0    0  0.83700678198E+01  0.12337138753E+02  0.23583311084E+02  0.27900458591E+02  0.00000000000E+00 0. -1.
          1    1    6    6  503    0 -0.24850866750E+03  0.16887641103E+03  0.38724720736E+03  0.49013895952E+03  0.00000000000E+00 0. -1.
         -1    1    6    6    0  503 -0.58490438439E+03  0.49164033137E+03  0.79651453256E+03  0.11037475956E+04  0.00000000000E+00 0.  1.
<mgrwt>
<rscale>  0 0.22689335E+04</rscale>
<asrwt>0</asrwt>
<pdfrwt beam="1">  1        2 0.33405264E+00 0.22689335E+04</pdfrwt>
<pdfrwt beam="2">  1       -1 0.91188884E-01 0.22689335E+04</pdfrwt>
<totfact> 0.65030922E+00</totfact>
</mgrwt>
</event>
<event>
12    7  0.1606355E-007  0.2994666E+04  0.7818608E-02  0.8245256E-01
          2   -1    0    0  501    0  0.00000000000E+00  0.00000000000E+00  0.28151223168E+04  0.28151223168E+04  0.00000000000E+00 0. -1.
         -1   -1    0    0    0  501 -0.00000000000E+00 -0.00000000000E+00 -0.79641540890E+03  0.79641540890E+03  0.00000000000E+00 0.  1.
         24    2    1    2    0    0  0.51333825227E+03  0.88795619133E+03 -0.15979565627E+03  0.10414683824E+04  0.84494857262E+02 0.  0.
        254    2    1    2    0    0 -0.51333825227E+03 -0.88795619133E+03  0.21785025642E+04  0.25700693433E+04  0.89855475520E+03 0.  0.
         23    2    4    4    0    0 -0.33255980600E+03 -0.10349988004E+04  0.19306380972E+04  0.22175655394E+04  0.91732860870E+02 0.  0.
         23    2    4    4    0    0 -0.18077844627E+03  0.14704260911E+03  0.24786446699E+03  0.35250380387E+03  0.92302557993E+02 0.  0.
          4    1    3    3  502    0  0.12608743002E+03  0.29630422785E+03 -0.51156599947E+02  0.32605403413E+03  0.00000000000E+00 0. -1.
         -3    1    3    3    0  502  0.38725082225E+03  0.59165196348E+03 -0.10863905632E+03  0.71541434832E+03  0.00000000000E+00 0.  1.
         13    1    5    5    0    0 -0.17318683205E+03 -0.39629499664E+03  0.78662497704E+03  0.89767603157E+03  0.00000000000E+00 0.  1.
        -13    1    5    5    0    0 -0.15937297395E+03 -0.63870380379E+03  0.11440131202E+04  0.13198895078E+04  0.00000000000E+00 0. -1.
          2    1    6    6  503    0 -0.27709766492E+02 -0.92878472459E+01  0.14529170287E+02  0.32637280137E+02  0.00000000000E+00 0. -1.
         -2    1    6    6    0  503 -0.15306867978E+03  0.15633045635E+03  0.23333529671E+03  0.31986652373E+03  0.00000000000E+00 0.  1.
<mgrwt>
<rscale>  0 0.29946665E+04</rscale>
<asrwt>0</asrwt>
<pdfrwt beam="1">  1        2 0.43309573E+00 0.29946665E+04</pdfrwt>
<pdfrwt beam="2">  1       -1 0.12252545E+00 0.29946665E+04</pdfrwt>
<totfact> 0.12951644E+00</totfact>
</mgrwt>
</event>
<event>
12    7  0.1606355E-007  0.2582599E+04  0.7818608E-02  0.8374136E-01
          2   -1    0    0  501    0  0.00000000000E+00  0.00000000000E+00  0.21185693477E+04  0.21185693477E+04  0.00000000000E+00 0. -1.
         -1   -1    0    0    0  501 -0.00000000000E+00 -0.00000000000E+00 -0.78706613727E+03  0.78706613727E+03  0.00000000000E+00 0.  1.
         24    2    1    2    0    0  0.12533748713E+03 -0.92314932114E+03  0.13150013947E+04  0.16133121425E+04  0.75054954303E+02 0.  0.
        254    2    1    2    0    0 -0.12533748713E+03  0.92314932114E+03  0.16501815645E+02  0.12923233424E+04  0.89549603944E+03 0.  0.
         23    2    4    4    0    0 -0.37706103088E+03  0.10033736277E+03  0.12407362638E+03  0.42042716562E+03  0.95509839570E+02 0.  0.
         23    2    4    4    0    0  0.25172354375E+03  0.82281195837E+03 -0.10757181073E+03  0.87189617680E+03  0.90812924962E+02 0.  0.
          4    1    3    3  502    0  0.96008251645E+02 -0.75086544852E+03  0.11154511966E+04  0.13480533662E+04  0.00000000000E+00 0. -1.
         -3    1    3    3    0  502  0.29329235486E+02 -0.17228387262E+03  0.19955019816E+03  0.26525877630E+03  0.00000000000E+00 0.  1.
         13    1    5    5    0    0 -0.23316169289E+03  0.14263562308E+02  0.81768365036E+02  0.24749523179E+03  0.00000000000E+00 0.  1.
        -13    1    5    5    0    0 -0.14389933799E+03  0.86073800461E+02  0.42305261340E+02  0.17293193383E+03  0.00000000000E+00 0. -1.
          4    1    6    6  503    0  0.16005411910E+03  0.36845480153E+03 -0.51535095690E+02  0.40500879978E+03  0.00000000000E+00 0. -1.
         -4    1    6    6    0  503  0.91669424644E+02  0.45435715684E+03 -0.56036715041E+02  0.46688737702E+03  0.00000000000E+00 0.  1.
<mgrwt>
<rscale>  0 0.25825988E+04</rscale>
<asrwt>0</asrwt>
<pdfrwt beam="1">  1        2 0.32593374E+00 0.25825988E+04</pdfrwt>
<pdfrwt beam="2">  1       -1 0.12108710E+00 0.25825988E+04</pdfrwt>
<totfact> 0.35002877E+00</totfact>
</mgrwt>
</event>
<event>
12    7  0.1606355E-007  0.1426509E+04  0.7818608E-02  0.8934850E-01
         -1   -1    0    0    0  501 -0.00000000000E+00  0.00000000000E+00  0.10767751094E+04  0.10767751094E+04  0.00000000000E+00 0.  1.
          2   -1    0    0  501    0  0.00000000000E+00 -0.00000000000E+00 -0.47245894365E+03  0.47245894365E+03  0.00000000000E+00 0. -1.
         24    2    1    2    0    0 -0.53767968866E+02 -0.19664261585E+03  0.58701862754E+03  0.62589602679E+03  0.74804106990E+02 0.  0.
        254    2    1    2    0    0  0.53767968866E+02  0.19664261585E+03  0.17297538167E+02  0.92333802622E+03  0.90038580231E+03 0.  0.
         23    2    4    4    0    0 -0.35701463688E+03  0.46633273736E+02  0.22128564872E+03  0.43260273652E+03  0.92432008246E+02 0.  0.
         23    2    4    4    0    0  0.41078260575E+03  0.15000934211E+03 -0.20398811055E+03  0.49073528971E+03  0.89245859360E+02 0.  0.
          4    1    3    3  502    0  0.87225325891E+01 -0.39539814238E+02  0.59706283564E+02  0.72140971589E+02  0.00000000000E+00 0. -1.
         -3    1    3    3    0  502 -0.62490501455E+02 -0.15710280161E+03  0.52731234398E+03  0.55375505520E+03  0.00000000000E+00 0.  1.
         13    1    5    5    0    0 -0.13177610773E+03 -0.26475883765E+02  0.69353143962E+02  0.15124739194E+03  0.00000000000E+00 0.  1.
        -13    1    5    5    0    0 -0.22523852915E+03  0.73109157501E+02  0.15193250475E+03  0.28135534458E+03  0.00000000000E+00 0. -1.
          2    1    6    6  503    0  0.61033968586E+02 -0.28590280241E+01 -0.50743306910E+02  0.79424193787E+02  0.00000000000E+00 0. -1.
         -2    1    6    6    0  503  0.34974863716E+03  0.15286837014E+03 -0.15324480364E+03  0.41131109592E+03  0.00000000000E+00 0.  1.
<mgrwt>
<rscale>  0 0.14265091E+04</rscale>
<asrwt>0</asrwt>
<pdfrwt beam="1">  1        2 0.72685992E-01 0.14265091E+04</pdfrwt>
<pdfrwt beam="2">  1       -1 0.16565771E+00 0.14265091E+04</pdfrwt>
<totfact> 0.19356972E+01</totfact>
</mgrwt>
</event>
<event>
12    7  0.1606355E-007  0.2129624E+04  0.7818608E-02  0.8548305E-01
         -1   -1    0    0    0  501 -0.00000000000E+00  0.00000000000E+00  0.11866075702E+04  0.11866075702E+04  0.00000000000E+00 0.  1.
          2   -1    0    0  501    0  0.00000000000E+00 -0.00000000000E+00 -0.95551788504E+03  0.95551788504E+03  0.00000000000E+00 0. -1.
         24    2    1    2    0    0  0.31279002906E+03  0.22222758079E+03 -0.68549352417E+03  0.78949687123E+03  0.78620850077E+02 0.  0.
        254    2    1    2    0    0 -0.31279002906E+03 -0.22222758079E+03  0.91658320936E+03  0.13526285840E+04  0.91774539318E+03 0.  0.
         23    2    4    4    0    0 -0.59644998707E+03 -0.30490921936E+03  0.54054336839E+03  0.86559733501E+03  0.91375019224E+02 0.  0.
         23    2    4    4    0    0  0.28365995801E+03  0.82681638571E+02  0.37603984097E+03  0.48703124902E+03  0.92164257636E+02 0.  0.
          4    1    3    3  502    0  0.28876998205E+03  0.22125761989E+03 -0.60971650784E+03  0.70999806819E+03  0.00000000000E+00 0. -1.
         -3    1    3    3    0  502  0.24020047012E+02  0.96996089644E+00 -0.75777016325E+02  0.79498803046E+02  0.00000000000E+00 0.  1.
         13    1    5    5    0    0 -0.56233480966E+03 -0.29508326768E+03  0.48250746065E+03  0.79756380472E+03  0.00000000000E+00 0.  1.
        -13    1    5    5    0    0 -0.34115177413E+02 -0.98259516772E+01  0.58035907739E+02  0.68033530288E+02  0.00000000000E+00 0. -1.
          2    1    6    6  503    0  0.11377483406E+03 -0.12110843410E+02  0.15339239167E+03  0.19136512539E+03  0.00000000000E+00 0. -1.
         -2    1    6    6    0  503  0.16988512395E+03  0.94792481981E+02  0.22264744931E+03  0.29566612363E+03  0.00000000000E+00 0.  1.
<mgrwt>
<rscale>  0 0.21296242E+04</rscale>
<asrwt>0</asrwt>
<pdfrwt beam="1">  1        2 0.14700275E+00 0.21296242E+04</pdfrwt>
<pdfrwt beam="2">  1       -1 0.18255501E+00 0.21296242E+04</pdfrwt>
<totfact> 0.56329012E+00</totfact>
</mgrwt>
</event>
<event>
12    7  0.1606355E-007  0.1791643E+04  0.7818608E-02  0.8710756E-01
         -1   -1    0    0    0  501 -0.00000000000E+00  0.00000000000E+00  0.12123056157E+04  0.12123056157E+04  0.00000000000E+00 0.  1.
          2   -1    0    0  501    0  0.00000000000E+00 -0.00000000000E+00 -0.66195869484E+03  0.66195869484E+03  0.00000000000E+00 0. -1.
         24    2    1    2    0    0  0.28645299564E+03  0.37069714976E+03 -0.28885084366E+03  0.55596812307E+03  0.78702277207E+02 0.  0.
        254    2    1    2    0    0 -0.28645299564E+03 -0.37069714976E+03  0.83919776448E+03  0.13182961874E+04  0.90231937491E+03 0.  0.
         23    2    4    4    0    0 -0.18508917262E+02 -0.37719125394E+03 -0.44579350122E+02  0.38995159771E+03  0.86366127821E+02 0.  0.
         23    2    4    4    0    0 -0.26794407838E+03  0.64941041787E+01  0.88377711460E+03  0.92834458972E+03  0.94474792591E+02 0.  0.
          2    1    3    3  502    0  0.27038259350E+03  0.30751020421E+03 -0.24145464798E+03  0.47536261906E+03  0.00000000000E+00 0. -1.
         -1    1    3    3    0  502  0.16070402132E+02  0.63186945549E+02 -0.47396195683E+02  0.80605504016E+02  0.00000000000E+00 0.  1.
         13    1    5    5    0    0  0.52162872241E+01 -0.26389327789E+03 -0.66373686366E+02  0.27216233761E+03  0.00000000000E+00 0. -1.
        -13    1    5    5    0    0 -0.23725204486E+02 -0.11329797605E+03  0.21794336244E+02  0.11778926011E+03  0.00000000000E+00 0.  1.
          3    1    6    6  503    0 -0.24178060867E+03 -0.22745071286E+02  0.71683748196E+03  0.75685611350E+03  0.00000000000E+00 0. -1.
         -3    1    6    6    0  503 -0.26163469705E+02  0.29239175464E+02  0.16693963264E+03  0.17148847622E+03  0.00000000000E+00 0.  1.
<mgrwt>
<rscale>  0 0.17916431E+04</rscale>
<asrwt>0</asrwt>
<pdfrwt beam="1">  1        2 0.10183980E+00 0.17916431E+04</pdfrwt>
<pdfrwt beam="2">  1       -1 0.18650856E+00 0.17916431E+04</pdfrwt>
<totfact> 0.88669503E+00</totfact>
</mgrwt>
</event>
<event>
12    7  0.1606355E-007  0.2592652E+04  0.7818608E-02  0.8370701E-01
         -1   -1    0    0    0  501 -0.00000000000E+00  0.00000000000E+00  0.12729525791E+04  0.12729525791E+04  0.00000000000E+00 0.  1.
          2   -1    0    0  501    0  0.00000000000E+00 -0.00000000000E+00 -0.13201283899E+04  0.13201283899E+04  0.00000000000E+00 0. -1.
         24    2    1    2    0    0  0.95486506437E+03 -0.50564227824E+03  0.34340667434E+03  0.11364268588E+04  0.78079810491E+02 0.  0.
        254    2    1    2    0    0 -0.95486506437E+03  0.50564227824E+03 -0.39058248513E+03  0.14566541102E+04  0.89545804727E+03 0.  0.
         23    2    4    4    0    0 -0.79728063104E+03  0.66453895955E+03 -0.55092034348E+02  0.10434679186E+04  0.92313224431E+02 0.  0.
         23    2    4    4    0    0 -0.15758443333E+03 -0.15889668131E+03 -0.33549045078E+03  0.41318619166E+03  0.89933183283E+02 0.  0.
          4    1    3    3  502    0  0.19580383384E+03 -0.89283636206E+02  0.98706306623E+02  0.23675650785E+03  0.00000000000E+00 0. -1.
         -3    1    3    3    0  502  0.75906123052E+03 -0.41635864203E+03  0.24470036772E+03  0.89967035098E+03  0.00000000000E+00 0.  1.
         13    1    5    5    0    0 -0.35668225351E+03  0.30334621188E+03 -0.70638782871E+02  0.47353034948E+03  0.00000000000E+00 0. -1.
        -13    1    5    5    0    0 -0.44059837753E+03  0.36119274767E+03  0.15546748523E+02  0.56993756907E+03  0.00000000000E+00 0.  1.
          4    1    6    6  503    0 -0.40342025221E+01  0.71403007318E+00  0.53306095198E+01  0.67230965178E+01  0.00000000000E+00 0. -1.
         -4    1    6    6    0  503 -0.15355023080E+03 -0.15961071139E+03 -0.34082106030E+03  0.40646309514E+03  0.00000000000E+00 0.  1.
<mgrwt>
<rscale>  0 0.25926518E+04</rscale>
<asrwt>0</asrwt>
<pdfrwt beam="1">  1        2 0.20309668E+00 0.25926518E+04</pdfrwt>
<pdfrwt beam="2">  1       -1 0.19583886E+00 0.25926518E+04</pdfrwt>
<totfact> 0.26099244E+00</totfact>
</mgrwt>
</event>
<event>
12    7  0.1690738E-007  0.2495874E+04  0.7818608E-02  0.8404457E-01
          2   -1    0    0  501    0  0.00000000000E+00  0.00000000000E+00  0.15416519446E+04  0.15416519446E+04  0.00000000000E+00 0. -1.
         -1   -1    0    0    0  501 -0.00000000000E+00 -0.00000000000E+00 -0.10101805092E+04  0.10101805092E+04  0.00000000000E+00 0.  1.
         24    2    1    2    0    0 -0.91390898236E+03  0.23259967208E+03 -0.30065318291E+03  0.99356917124E+03  0.86343072400E+02 0.  0.
        254    2    1    2    0    0  0.91390898236E+03 -0.23259967208E+03  0.83212461839E+03  0.15582632826E+04  0.92001132698E+03 0.  0.
         23    2    4    4    0    0  0.30696396907E+03 -0.33953498550E+03  0.81011857022E+03  0.93490615168E+03  0.90810406527E+02 0.  0.
         23    2    4    4    0    0  0.60694501329E+03  0.10693531342E+03  0.22006048165E+02  0.62335713089E+03  0.90952933212E+02 0.  0.
          4    1    3    3  502    0 -0.84610258246E+02  0.43941178469E+02 -0.15758385872E+02  0.96633584695E+02  0.00000000000E+00 0. -1.
         -1    1    3    3    0  502 -0.82929872412E+03  0.18865849361E+03 -0.28489479704E+03  0.89693558655E+03  0.00000000000E+00 0.  1.
         13    1    5    5    0    0  0.10193250188E+03 -0.59305622371E+02  0.17416611730E+03  0.21033598883E+03  0.00000000000E+00 0. -1.
        -13    1    5    5    0    0  0.20503146720E+03 -0.28022936313E+03  0.63595245293E+03  0.72457016284E+03  0.00000000000E+00 0.  1.
          4    1    6    6  503    0  0.10464575373E+03  0.15498616518E+01 -0.26128204668E+02  0.10786945316E+03  0.00000000000E+00 0. -1.
         -4    1    6    6    0  503  0.50229925956E+03  0.10538545177E+03  0.48134252833E+02  0.51548767773E+03  0.00000000000E+00 0.  1.
<mgrwt>
<rscale>  0 0.24958740E+04</rscale>
<asrwt>0</asrwt>
<pdfrwt beam="1">  1        2 0.23717722E+00 0.24958740E+04</pdfrwt>
<pdfrwt beam="2">  1       -1 0.15541239E+00 0.24958740E+04</pdfrwt>
<totfact> 0.38712071E+00</totfact>
</mgrwt>
</event>
<event>
12    7  0.1606355E-007  0.1992811E+04  0.7818608E-02  0.8609989E-01
         -1   -1    0    0    0  501 -0.00000000000E+00  0.00000000000E+00  0.35806384767E+03  0.35806384767E+03  0.00000000000E+00 0.  1.
          2   -1    0    0  501    0  0.00000000000E+00 -0.00000000000E+00 -0.27727579692E+04  0.27727579692E+04  0.00000000000E+00 0. -1.
         24    2    1    2    0    0  0.74626264414E+03 -0.33210680580E+02 -0.62602096223E+03  0.97804719194E+03  0.81628311097E+02 0.  0.
        254    2    1    2    0    0 -0.74626264414E+03  0.33210680580E+02 -0.17886731593E+04  0.21527746250E+04  0.93652337485E+03 0.  0.
         23    2    4    4    0    0 -0.43883550629E+03  0.47171362890E+03 -0.10721024713E+04  0.12534820810E+04  0.81995542639E+02 0.  0.
         23    2    4    4    0    0 -0.30742713785E+03 -0.43850294832E+03 -0.71657068798E+03  0.89929254398E+03  0.91963297077E+02 0.  0.
          2    1    3    3  502    0  0.18132263197E+03  0.19385448680E+02 -0.12468853828E+03  0.22090931185E+03  0.00000000000E+00 0. -1.
         -1    1    3    3    0  502  0.56494001217E+03 -0.52596129261E+02 -0.50133242394E+03  0.75713788009E+03  0.00000000000E+00 0.  1.
         13    1    5    5    0    0 -0.42880939000E+03  0.47235780787E+03 -0.10638782055E+04  0.12404983788E+04  0.00000000000E+00 0.  1.
        -13    1    5    5    0    0 -0.10026116292E+02 -0.64417897183E+00 -0.82242658648E+01  0.12983702225E+02  0.00000000000E+00 0. -1.
          3    1    6    6  503    0 -0.12922715240E+03 -0.11050845582E+03 -0.23052922395E+03  0.28645331002E+03  0.00000000000E+00 0. -1.
         -3    1    6    6    0  503 -0.17819998545E+03 -0.32799449250E+03 -0.48604146403E+03  0.61283923396E+03  0.00000000000E+00 0.  1.
<mgrwt>
<rscale>  0 0.19928115E+04</rscale>
<asrwt>0</asrwt>
<pdfrwt beam="1">  1        2 0.42657817E+00 0.19928115E+04</pdfrwt>
<pdfrwt beam="2">  1       -1 0.55086743E-01 0.19928115E+04</pdfrwt>
<totfact> 0.84770680E+00</totfact>
</mgrwt>
</event>
<event>
12    7  0.1606355E-007  0.1793064E+04  0.7818608E-02  0.8709997E-01
          2   -1    0    0  501    0  0.00000000000E+00  0.00000000000E+00  0.17666433719E+04  0.17666433719E+04  0.00000000000E+00 0. -1.
         -1   -1    0    0    0  501 -0.00000000000E+00 -0.00000000000E+00 -0.45496980530E+03  0.45496980530E+03  0.00000000000E+00 0.  1.
         24    2    1    2    0    0  0.30250213896E+03  0.54498414920E+03  0.18890391862E+03  0.65650358304E+03  0.82443902902E+02 0.  0.
        254    2    1    2    0    0 -0.30250213896E+03 -0.54498414920E+03  0.11227696480E+04  0.15651095942E+04  0.89467373515E+03 0.  0.
         23    2    4    4    0    0  0.12631901834E+03 -0.44704033398E+03  0.98601044602E+03  0.10944273684E+04  0.98757837957E+02 0.  0.
         23    2    4    4    0    0 -0.42882115730E+03 -0.97943815219E+02  0.13675920198E+03  0.47068222573E+03  0.96737285510E+02 0.  0.
          2    1    3    3  502    0  0.91477941248E+02  0.10872039328E+03  0.65274616048E+02  0.15636212185E+03  0.00000000000E+00 0. -1.
         -1    1    3    3    0  502  0.21102419771E+03  0.43626375592E+03  0.12362930257E+03  0.50014146119E+03  0.00000000000E+00 0.  1.
         13    1    5    5    0    0  0.77451708502E+02 -0.36972998567E+03  0.71912053712E+03  0.81230128422E+03  0.00000000000E+00 0. -1.
        -13    1    5    5    0    0  0.48867309834E+02 -0.77310348312E+02  0.26688990890E+03  0.28212608422E+03  0.00000000000E+00 0.  1.
          4    1    6    6  503    0 -0.26661042140E+03 -0.92291855504E+02  0.49627091362E+02  0.28646422393E+03  0.00000000000E+00 0.  1.
         -4    1    6    6    0  503 -0.16221073589E+03 -0.56519597144E+01  0.87132110617E+02  0.18421800180E+03  0.00000000000E+00 0. -1.
<mgrwt>
<rscale>  0 0.17930637E+04</rscale>
<asrwt>0</asrwt>
<pdfrwt beam="1">  1        2 0.27179128E+00 0.17930637E+04</pdfrwt>
<pdfrwt beam="2">  1       -1 0.69995356E-01 0.17930637E+04</pdfrwt>
<totfact> 0.19991049E+01</totfact>
</mgrwt>
</event>
<event>
12    7  0.1606355E-007  0.2079815E+04  0.7818608E-02  0.8570188E-01
          2   -1    0    0  501    0  0.00000000000E+00  0.00000000000E+00  0.76213240775E+03  0.76213240775E+03  0.00000000000E+00 0. -1.
         -1   -1    0    0    0  501 -0.00000000000E+00 -0.00000000000E+00 -0.14189230259E+04  0.14189230259E+04  0.00000000000E+00 0.  1.
         24    2    1    2    0    0 -0.12727711471E+03 -0.70185678184E+03  0.20631571028E+03  0.74674240238E+03  0.79092585368E+02 0.  0.
        254    2    1    2    0    0  0.12727711471E+03  0.70185678184E+03 -0.86310632839E+03  0.14343130312E+04  0.89638101904E+03 0.  0.
         23    2    4    4    0    0  0.17671739643E+03 -0.17345687434E+03 -0.17738611636E+03  0.31752306235E+03  0.89658995052E+02 0.  0.
         23    2    4    4    0    0 -0.49440281719E+02  0.87531365618E+03 -0.68572021203E+03  0.11167899689E+04  0.91593052377E+02 0.  0.
          2    1    3    3  502    0 -0.97522259754E+02 -0.51995020224E+03  0.18834300462E+03  0.56154420249E+03  0.00000000000E+00 0. -1.
         -1    1    3    3    0  502 -0.29754854956E+02 -0.18190657960E+03  0.17972705662E+02  0.18519819989E+03  0.00000000000E+00 0.  1.
         13    1    5    5    0    0  0.16240580186E+03 -0.18097154669E+03 -0.17799893513E+03  0.30134691984E+03  0.00000000000E+00 0. -1.
        -13    1    5    5    0    0  0.14311594564E+02  0.75146723592E+01  0.61281876838E+00  0.16176142509E+02  0.00000000000E+00 0.  1.
          1    1    6    6  503    0 -0.22021670288E+02  0.78000252184E+03 -0.63100224528E+03  0.10035201650E+04  0.00000000000E+00 0. -1.
         -1    1    6    6    0  503 -0.27418611431E+02  0.95311134342E+02 -0.54717966752E+02  0.11326980387E+03  0.00000000000E+00 0.  1.
<mgrwt>
<rscale>  0 0.20798146E+04</rscale>
<asrwt>0</asrwt>
<pdfrwt beam="1">  1        2 0.11725114E+00 0.20798146E+04</pdfrwt>
<pdfrwt beam="2">  1       -1 0.21829585E+00 0.20798146E+04</pdfrwt>
<totfact> 0.43706434E+00</totfact>
</mgrwt>
</event>
<event>
12    7  0.1606355E-007  0.1940995E+04  0.7818608E-02  0.8634715E-01
         -1   -1    0    0    0  501 -0.00000000000E+00  0.00000000000E+00  0.95195361220E+03  0.95195361220E+03  0.00000000000E+00 0.  1.
          2   -1    0    0  501    0  0.00000000000E+00 -0.00000000000E+00 -0.98940295827E+03  0.98940295827E+03  0.00000000000E+00 0. -1.
         24    2    1    2    0    0  0.52497873789E+03 -0.26708309255E+03 -0.49359447657E+03  0.77259637100E+03  0.79583865330E+02 0.  0.
        254    2    1    2    0    0 -0.52497873789E+03  0.26708309255E+03  0.45614513050E+03  0.11687601995E+04  0.90055314681E+03 0.  0.
         23    2    4    4    0    0 -0.75268941604E+02  0.36446329494E+03  0.56903995845E+03  0.68605934563E+03  0.91498876956E+02 0.  0.
         23    2    4    4    0    0 -0.44970979629E+03 -0.97380202395E+02 -0.11289482794E+03  0.48270085385E+03  0.92374603826E+02 0.  0.
          2    1    3    3  502    0  0.36167825661E+03 -0.22283183211E+03 -0.36506181964E+03  0.56012080738E+03  0.00000000000E+00 0. -1.
         -1    1    3    3    0  502  0.16330048128E+03 -0.44251260439E+02 -0.12853265694E+03  0.21247556362E+03  0.00000000000E+00 0.  1.
         13    1    5    5    0    0 -0.80293882554E+02  0.24372488501E+03  0.32827228397E+03  0.41666727681E+03  0.00000000000E+00 0.  1.
        -13    1    5    5    0    0  0.50249409503E+01  0.12073840994E+03  0.24076767448E+03  0.26939206882E+03  0.00000000000E+00 0. -1.
          2    1    6    6  503    0 -0.52637682694E+02  0.11773651207E+02  0.54980540024E+01  0.54217830092E+02  0.00000000000E+00 0. -1.
         -2    1    6    6    0  503 -0.39707211359E+03 -0.10915385360E+03 -0.11839288195E+03  0.42848302375E+03  0.00000000000E+00 0.  1.
<mgrwt>
<rscale>  0 0.19409953E+04</rscale>
<asrwt>0</asrwt>
<pdfrwt beam="1">  1        2 0.15221584E+00 0.19409953E+04</pdfrwt>
<pdfrwt beam="2">  1       -1 0.14645440E+00 0.19409953E+04</pdfrwt>
<totfact> 0.10138733E+01</totfact>
</mgrwt>
</event>
<event>
12    7  0.1606355E-007  0.2190547E+04  0.7818608E-02  0.8522373E-01
         -1   -1    0    0    0  501 -0.00000000000E+00  0.00000000000E+00  0.10780803296E+04  0.10780803296E+04  0.00000000000E+00 0.  1.
          4   -1    0    0  501    0  0.00000000000E+00 -0.00000000000E+00 -0.11127408054E+04  0.11127408054E+04  0.00000000000E+00 0. -1.
         24    2    1    2    0    0 -0.28210127560E+03  0.84253935402E+03 -0.18836060625E+03  0.91157857563E+03  0.77730874141E+02 0.  0.
        254    2    1    2    0    0  0.28210127560E+03 -0.84253935402E+03  0.15370013047E+03  0.12792425595E+04  0.90740514824E+03 0.  0.
         23    2    4    4    0    0  0.26907243882E+02 -0.61259667358E+03  0.48965052037E+03  0.79007827738E+03  0.92018302694E+02 0.  0.
         23    2    4    4    0    0  0.25519403172E+03 -0.22994268044E+03 -0.33595038991E+03  0.48916428207E+03  0.91768187661E+02 0.  0.
          4    1    3    3  502    0 -0.10351323038E+03  0.35631106253E+03 -0.11478150827E+03  0.38839072696E+03  0.00000000000E+00 0. -1.
         -3    1    3    3    0  502 -0.17858804522E+03  0.48622829148E+03 -0.73579097978E+02  0.52318784867E+03  0.00000000000E+00 0.  1.
         13    1    5    5    0    0  0.24024313124E+02 -0.20201031594E+03  0.11205173345E+03  0.23225185971E+03  0.00000000000E+00 0.  1.
        -13    1    5    5    0    0  0.28829307585E+01 -0.41058635764E+03  0.37759878692E+03  0.55782641767E+03  0.00000000000E+00 0. -1.
          1    1    6    6  503    0  0.64267501110E+02 -0.87936379918E+02 -0.58428629674E+02  0.12360025638E+03  0.00000000000E+00 0. -1.
         -1    1    6    6    0  503  0.19092653061E+03 -0.14200630052E+03 -0.27752176023E+03  0.36556402569E+03  0.00000000000E+00 0.  1.
<mgrwt>
<rscale>  0 0.21905469E+04</rscale>
<asrwt>0</asrwt>
<pdfrwt beam="1">  1        4 0.17119089E+00 0.21905469E+04</pdfrwt>
<pdfrwt beam="2">  1       -1 0.16585851E+00 0.21905469E+04</pdfrwt>
<totfact> 0.20652176E-01</totfact>
</mgrwt>
</event>
<event>
12    7  0.1606355E-007  0.1838476E+04  0.7818608E-02  0.8686102E-01
          2   -1    0    0  501    0  0.00000000000E+00  0.00000000000E+00  0.21793989415E+04  0.21793989415E+04  0.00000000000E+00 0. -1.
         -1   -1    0    0    0  501 -0.00000000000E+00 -0.00000000000E+00 -0.38772105656E+03  0.38772105656E+03  0.00000000000E+00 0.  1.
         24    2    1    2    0    0  0.57432846829E+02  0.34207066164E+03 -0.15871188331E+03  0.38898231538E+03  0.76203086061E+02 0.  0.
        254    2    1    2    0    0 -0.57432846829E+02 -0.34207066164E+03  0.19503897682E+04  0.21781376826E+04  0.90551236720E+03 0.  0.
         23    2    4    4    0    0 -0.14897588463E+03 -0.32752340992E+03  0.20043791758E+04  0.20382308408E+04  0.85928354122E+02 0.  0.
         23    2    4    4    0    0  0.91543037804E+02 -0.14547251726E+02 -0.53989407554E+02  0.13990684181E+03  0.89818249554E+02 0.  0.
          4    1    3    3  502    0  0.24309219446E+02  0.76601297316E+02 -0.51877946706E+01  0.80533285753E+02  0.00000000000E+00 0. -1.
         -3    1    3    3    0  502  0.33123627382E+02  0.26546936433E+03 -0.15352408864E+03  0.30844902963E+03  0.00000000000E+00 0.  1.
         13    1    5    5    0    0 -0.65921449469E+02 -0.24151228165E+03  0.13470463397E+04  0.13701122804E+04  0.00000000000E+00 0.  1.
        -13    1    5    5    0    0 -0.83054435165E+02 -0.86011128262E+02  0.65733283610E+03  0.66811856043E+03  0.00000000000E+00 0. -1.
          2    1    6    6  503    0  0.27596976927E+01 -0.21039886814E+02  0.16074771230E+02  0.26621251635E+02  0.00000000000E+00 0. -1.
         -2    1    6    6    0  503  0.88783340112E+02  0.64926350878E+01 -0.70064178784E+02  0.11328559017E+03  0.00000000000E+00 0.  1.
<mgrwt>
<rscale>  0 0.18384764E+04</rscale>
<asrwt>0</asrwt>
<pdfrwt beam="1">  1        2 0.33529214E+00 0.18384764E+04</pdfrwt>
<pdfrwt beam="2">  1       -1 0.59649395E-01 0.18384764E+04</pdfrwt>
<totfact> 0.16198301E+01</totfact>
</mgrwt>
</event>
<event>
12    7  0.1606355E-007  0.1524939E+04  0.7818608E-02  0.8868036E-01
         -1   -1    0    0    0  501 -0.00000000000E+00  0.00000000000E+00  0.19599657064E+03  0.19599657064E+03  0.00000000000E+00 0.  1.
          2   -1    0    0  501    0  0.00000000000E+00 -0.00000000000E+00 -0.29661736985E+04  0.29661736985E+04  0.00000000000E+00 0. -1.
         24    2    1    2    0    0 -0.14966413149E+03 -0.42348511267E+03 -0.48893038208E+03  0.66871628361E+03  0.79934701615E+02 0.  0.
        254    2    1    2    0    0  0.14966413149E+03  0.42348511267E+03 -0.22812467458E+04  0.24934539855E+04  0.90082577113E+03 0.  0.
         23    2    4    4    0    0 -0.19877611262E+03  0.69025235377E+02 -0.17328907242E+04  0.17480832542E+04  0.92781331136E+02 0.  0.
         23    2    4    4    0    0  0.34844024411E+03  0.35445987730E+03 -0.54835602156E+03  0.74537073134E+03  0.88491764799E+02 0.  0.
          2    1    3    3  502    0 -0.43650941709E+02 -0.14773899827E+03 -0.11540402258E+03  0.19248455717E+03  0.00000000000E+00 0. -1.
         -1    1    3    3    0  502 -0.10601318978E+03 -0.27574611440E+03 -0.37352635950E+03  0.47623172643E+03  0.00000000000E+00 0.  1.
         13    1    5    5    0    0 -0.18908934754E+03  0.33227356508E+02 -0.15047362562E+04  0.15169344215E+04  0.00000000000E+00 0.  1.
        -13    1    5    5    0    0 -0.96867650827E+01  0.35797878869E+02 -0.22815446805E+03  0.23114883267E+03  0.00000000000E+00 0. -1.
          1    1    6    6  503    0  0.10980053766E+02  0.19264827806E+02 -0.40757929144E+01  0.22545670515E+02  0.00000000000E+00 0. -1.
         -1    1    6    6    0  503  0.33746019034E+03  0.33519504949E+03 -0.54428022864E+03  0.72282506083E+03  0.00000000000E+00 0.  1.
<mgrwt>
<rscale>  0 0.15249392E+04</rscale>
<asrwt>0</asrwt>
<pdfrwt beam="1">  1        2 0.45633442E+00 0.15249392E+04</pdfrwt>
<pdfrwt beam="2">  1       -1 0.30153319E-01 0.15249392E+04</pdfrwt>
<totfact> 0.20435999E+01</totfact>
</mgrwt>
</event>
<event>
12    7  0.1606355E-007  0.1325823E+04  0.7818608E-02  0.9009334E-01
          2   -1    0    0  501    0  0.00000000000E+00  0.00000000000E+00  0.71020182263E+03  0.71020182263E+03  0.00000000000E+00 0. -1.
         -1   -1    0    0    0  501 -0.00000000000E+00 -0.00000000000E+00 -0.61877048255E+03  0.61877048255E+03  0.00000000000E+00 0.  1.
         24    2    1    2    0    0 -0.27217211193E+03  0.10558080705E+03 -0.18874944499E+03  0.35756315930E+03  0.83666567844E+02 0.  0.
        254    2    1    2    0    0  0.27217211193E+03 -0.10558080705E+03  0.28018078507E+03  0.97140914588E+03  0.88312484454E+03 0.  0.
         23    2    4    4    0    0  0.52185433205E+03  0.88006277331E+02  0.34128953506E+03  0.63636797825E+03  0.91698463875E+02 0.  0.
         23    2    4    4    0    0 -0.24968222012E+03 -0.19358708438E+03 -0.61108749990E+02  0.33504116762E+03  0.93279871325E+02 0.  0.
          4    1    3    3  502    0 -0.12950760818E+03  0.51506340292E+02 -0.41244058433E+02  0.14534853292E+03  0.00000000000E+00 0. -1.
         -3    1    3    3    0  502 -0.14266450376E+03  0.54074466754E+02 -0.14750538656E+03  0.21221462638E+03  0.00000000000E+00 0.  1.
         13    1    5    5    0    0  0.50054087000E+02  0.13337023917E+01  0.67479843750E+02  0.84028088757E+02  0.00000000000E+00 0.  1.
        -13    1    5    5    0    0  0.47180024505E+03  0.86672574939E+02  0.27380969131E+03  0.55233988950E+03  0.00000000000E+00 0. -1.
          4    1    6    6  503    0 -0.23381132658E+03 -0.17624394408E+03 -0.27580717914E+02  0.29409243489E+03  0.00000000000E+00 0. -1.
         -4    1    6    6    0  503 -0.15870893542E+02 -0.17343140299E+02 -0.33528032076E+02  0.40948732729E+02  0.00000000000E+00 0.  1.
<mgrwt>
<rscale>  0 0.13258234E+04</rscale>
<asrwt>0</asrwt>
<pdfrwt beam="1">  1        2 0.10926182E+00 0.13258234E+04</pdfrwt>
<pdfrwt beam="2">  1       -1 0.95195459E-01 0.13258234E+04</pdfrwt>
<totfact> 0.47935922E+01</totfact>
</mgrwt>
</event>
<event>
12    7  0.1606355E-007  0.1865411E+04  0.7818608E-02  0.8672268E-01
         -1   -1    0    0    0  501 -0.00000000000E+00  0.00000000000E+00  0.89947124781E+03  0.89947124781E+03  0.00000000000E+00 0.  1.
          2   -1    0    0  501    0  0.00000000000E+00 -0.00000000000E+00 -0.96716754168E+03  0.96716754168E+03  0.00000000000E+00 0. -1.
         24    2    1    2    0    0  0.23529109498E+03  0.44431518782E+03  0.57586160379E+03  0.76859972492E+03  0.79693568887E+02 0.  0.
        254    2    1    2    0    0 -0.23529109498E+03 -0.44431518782E+03 -0.64355789765E+03  0.10980390646E+04  0.73399259819E+03 0.  0.
         23    2    4    4    0    0 -0.46808594444E+03 -0.22111869158E+03 -0.25620704012E+03  0.58527344286E+03  0.94366457800E+02 0.  0.
         23    2    4    4    0    0  0.23279484946E+03 -0.22319649624E+03 -0.38735085754E+03  0.51276562172E+03  0.94221961932E+02 0.  0.
          4    1    3    3  502    0  0.57092163808E+02  0.19084661069E+03  0.22400976706E+03  0.29977044504E+03  0.00000000000E+00 0. -1.
         -3    1    3    3    0  502  0.17819893117E+03  0.25346857713E+03  0.35185183673E+03  0.46882927988E+03  0.00000000000E+00 0.  1.
         13    1    5    5    0    0 -0.45775118665E+03 -0.21072039645E+03 -0.26376381712E+03  0.56877990961E+03  0.00000000000E+00 0. -1.
        -13    1    5    5    0    0 -0.10334757798E+02 -0.10398295133E+02  0.75567770002E+01  0.16493533249E+02  0.00000000000E+00 0.  1.
          1    1    6    6  503    0  0.16636223783E+03 -0.17182818088E+03 -0.21744228882E+03  0.32323747754E+03  0.00000000000E+00 0. -1.
         -1    1    6    6    0  503  0.66432611633E+02 -0.51368315362E+02 -0.16990856872E+03  0.18952814418E+03  0.00000000000E+00 0.  1.
<mgrwt>
<rscale>  0 0.18654108E+04</rscale>
<asrwt>0</asrwt>
<pdfrwt beam="1">  1        2 0.14879501E+00 0.18654108E+04</pdfrwt>
<pdfrwt beam="2">  1       -1 0.13838019E+00 0.18654108E+04</pdfrwt>
<totfact> 0.12249298E+01</totfact>
</mgrwt>
</event>
<event>
12    7  0.1606355E-007  0.1449638E+04  0.7818608E-02  0.8918651E-01
         -1   -1    0    0    0  501 -0.00000000000E+00  0.00000000000E+00  0.18248966305E+04  0.18248966305E+04  0.00000000000E+00 0.  1.
          2   -1    0    0  501    0  0.00000000000E+00 -0.00000000000E+00 -0.28788623580E+03  0.28788623580E+03  0.00000000000E+00 0. -1.
         24    2    1    2    0    0 -0.27396343955E+03 -0.30292531434E+03  0.38561315204E+03  0.56736504767E+03  0.79911713815E+02 0.  0.
        254    2    1    2    0    0  0.27396343955E+03  0.30292531434E+03  0.11513972427E+04  0.15454178187E+04  0.94645703099E+03 0.  0.
         23    2    4    4    0    0 -0.30955278888E+03  0.23130228422E+03  0.26895436708E+03  0.48115783362E+03  0.99260936420E+02 0.  0.
         23    2    4    4    0    0  0.58351622843E+03  0.71623030123E+02  0.88244287561E+03  0.10642599850E+04  0.91229599173E+02 0.  0.
          2    1    3    3  502    0 -0.60879982044E+02 -0.68497174251E+02  0.13623442214E+03  0.16418907658E+03  0.00000000000E+00 0. -1.
         -1    1    3    3    0  502 -0.21308345751E+03 -0.23442814009E+03  0.24937872991E+03  0.40317597108E+03  0.00000000000E+00 0.  1.
         13    1    5    5    0    0 -0.30082765989E+03  0.20210323539E+03  0.22143948045E+03  0.42470983296E+03  0.00000000000E+00 0. -1.
        -13    1    5    5    0    0 -0.87251289967E+01  0.29199048831E+02  0.47514886622E+02  0.56448000667E+02  0.00000000000E+00 0.  1.
          2    1    6    6  503    0  0.42172168730E+03  0.67585989695E+02  0.70335270081E+03  0.82287427307E+03  0.00000000000E+00 0. -1.
         -2    1    6    6    0  503  0.16179454114E+03  0.40370404276E+01  0.17909017480E+03  0.24138571198E+03  0.00000000000E+00 0.  1.
<mgrwt>
<rscale>  0 0.14496381E+04</rscale>
<asrwt>0</asrwt>
<pdfrwt beam="1">  1        2 0.44290191E-01 0.14496381E+04</pdfrwt>
<pdfrwt beam="2">  1       -1 0.28075332E+00 0.14496381E+04</pdfrwt>
<totfact> 0.56312323E+00</totfact>
</mgrwt>
</event>
<event>
12    7  0.1606355E-007  0.2392240E+04  0.7818608E-02  0.8442414E-01
         -1   -1    0    0    0  501 -0.00000000000E+00  0.00000000000E+00  0.15320415140E+04  0.15320415140E+04  0.00000000000E+00 0.  1.
          2   -1    0    0  501    0  0.00000000000E+00 -0.00000000000E+00 -0.93385401534E+03  0.93385401534E+03  0.00000000000E+00 0. -1.
         24    2    1    2    0    0 -0.39445717830E+03 -0.65797668327E+03  0.95675750119E+03  0.12288760137E+04  0.78876863910E+02 0.  0.
        254    2    1    2    0    0  0.39445717830E+03  0.65797668327E+03 -0.35857000250E+03  0.12370195157E+04  0.90172892507E+03 0.  0.
         23    2    4    4    0    0  0.19802745519E+03  0.76141240278E+03 -0.51706311248E+03  0.94574473060E+03  0.90083922391E+02 0.  0.
         23    2    4    4    0    0  0.19642972311E+03 -0.10343571951E+03  0.15849310998E+03  0.29127478510E+03  0.10216335121E+03 0.  0.
          2    1    3    3  502    0 -0.14503711746E+03 -0.19924505436E+03  0.35504365150E+03  0.43219249369E+03  0.00000000000E+00 0. -1.
         -1    1    3    3    0  502 -0.24942006084E+03 -0.45873162890E+03  0.60171384968E+03  0.79668351998E+03  0.00000000000E+00 0.  1.
         13    1    5    5    0    0  0.17640671144E+03  0.59282109375E+03 -0.44041320922E+03  0.75928912273E+03  0.00000000000E+00 0.  1.
        -13    1    5    5    0    0  0.21620743743E+02  0.16859130903E+03 -0.76649903252E+02  0.18645560787E+03  0.00000000000E+00 0. -1.
          4    1    6    6  503    0  0.12036451221E+03 -0.60675666118E+01  0.71003413131E+02  0.13987821789E+03  0.00000000000E+00 0. -1.
         -4    1    6    6    0  503  0.76065210906E+02 -0.97368152898E+02  0.87489696846E+02  0.15139656721E+03  0.00000000000E+00 0.  1.
<mgrwt>
<rscale>  0 0.23922401E+04</rscale>
<asrwt>0</asrwt>
<pdfrwt beam="1">  1        2 0.14366985E+00 0.23922401E+04</pdfrwt>
<pdfrwt beam="2">  1       -1 0.23569869E+00 0.23922401E+04</pdfrwt>
<totfact> 0.24708790E+00</totfact>
</mgrwt>
</event>
<event>
12    7  0.1606355E-007  0.1247089E+04  0.7818608E-02  0.9072609E-01
         -1   -1    0    0    0  501 -0.00000000000E+00  0.00000000000E+00  0.15883973030E+03  0.15883973030E+03  0.00000000000E+00 0.  1.
          2   -1    0    0  501    0  0.00000000000E+00 -0.00000000000E+00 -0.24478007681E+04  0.24478007681E+04  0.00000000000E+00 0. -1.
         24    2    1    2    0    0 -0.37205369910E+02  0.92170413077E+02 -0.14940922934E+02  0.14889000658E+03  0.10984251583E+03 0.  0.
        254    2    1    2    0    0  0.37205369910E+02 -0.92170413077E+02 -0.22740201149E+04  0.24577504919E+04  0.92708703618E+03 0.  0.
         23    2    4    4    0    0 -0.50705134766E+02 -0.49441510273E+03 -0.13753611563E+04  0.14651924684E+04  0.90295928067E+02 0.  0.
         23    2    4    4    0    0  0.87910504677E+02  0.40224468966E+03 -0.89865895858E+03  0.99255802346E+03  0.89746637307E+02 0.  0.
          2    1    3    3  502    0 -0.15940175324E+02  0.10134105123E+02 -0.52795134562E+02  0.56072413088E+02  0.00000000000E+00 0. -1.
         -1    1    3    3    0  502 -0.21265194586E+02  0.82036307955E+02  0.37854211628E+02  0.92817593492E+02  0.00000000000E+00 0.  1.
         13    1    5    5    0    0  0.18308584746E+02 -0.64655126592E+02 -0.24089124590E+03  0.25008814850E+03  0.00000000000E+00 0.  1.
        -13    1    5    5    0    0 -0.69013719512E+02 -0.42975997614E+03 -0.11344699104E+04  0.12151043199E+04  0.00000000000E+00 0. -1.
          2    1    6    6  503    0  0.16007285944E+02  0.94265584852E+01 -0.19398819891E+02  0.26859028675E+02  0.00000000000E+00 0.  1.
         -2    1    6    6    0  503  0.71903218732E+02  0.39281813117E+03 -0.87926013868E+03  0.96569899478E+03  0.00000000000E+00 0. -1.
<mgrwt>
<rscale>  0 0.12470894E+04</rscale>
<asrwt>0</asrwt>
<pdfrwt beam="1">  1        2 0.37658469E+00 0.12470894E+04</pdfrwt>
<pdfrwt beam="2">  1       -1 0.24436884E-01 0.12470894E+04</pdfrwt>
<totfact> 0.61201687E+01</totfact>
</mgrwt>
</event>
<event>
12    7  0.1606355E-007  0.2017090E+04  0.7818608E-02  0.8598672E-01
          2   -1    0    0  501    0  0.00000000000E+00  0.00000000000E+00  0.11883376145E+04  0.11883376145E+04  0.00000000000E+00 0. -1.
         -3   -1    0    0    0  501 -0.00000000000E+00 -0.00000000000E+00 -0.85595499370E+03  0.85595499370E+03  0.00000000000E+00 0.  1.
         24    2    1    2    0    0  0.35052738409E+03  0.86876301900E+02 -0.58516394034E+03  0.69226729337E+03  0.80001434792E+02 0.  0.
        254    2    1    2    0    0 -0.35052738409E+03 -0.86876301900E+02  0.91754656119E+03  0.13520253149E+04  0.92502098423E+03 0.  0.
         23    2    4    4    0    0  0.58897315182E+02  0.30590994801E+03  0.76154069624E+02  0.33334994174E+03  0.90955765699E+02 0.  0.
         23    2    4    4    0    0 -0.40942469927E+03 -0.39278624991E+03  0.84139249157E+03  0.10186753731E+04  0.88592146655E+02 0.  0.
          4    1    3    3  502    0  0.22632511255E+03  0.50344035537E+02 -0.30052638350E+03  0.37957039619E+03  0.00000000000E+00 0. -1.
         -3    1    3    3    0  502  0.12420227153E+03  0.36532266363E+02 -0.28463755685E+03  0.31269689718E+03  0.00000000000E+00 0.  1.
         13    1    5    5    0    0  0.43865653889E+02  0.28712401076E+03  0.44896231177E+02  0.29390485657E+03  0.00000000000E+00 0.  1.
        -13    1    5    5    0    0  0.15031661294E+02  0.18785937253E+02  0.31257838447E+02  0.39445085171E+02  0.00000000000E+00 0. -1.
          1    1    6    6  503    0 -0.81727214557E+02 -0.70636077888E+02  0.22750682901E+03  0.25184945969E+03  0.00000000000E+00 0. -1.
         -1    1    6    6    0  503 -0.32769748471E+03 -0.32215017202E+03  0.61388566256E+03  0.76682591343E+03  0.00000000000E+00 0.  1.
<mgrwt>
<rscale>  0 0.20170905E+04</rscale>
<asrwt>0</asrwt>
<pdfrwt beam="1">  1        2 0.18282117E+00 0.20170905E+04</pdfrwt>
<pdfrwt beam="2">  1       -3 0.13168538E+00 0.20170905E+04</pdfrwt>
<totfact> 0.50826535E+00</totfact>
</mgrwt>
</event>
<event>
12    7  0.1606355E-007  0.3203179E+04  0.7818608E-02  0.8187978E-01
         -1   -1    0    0    0  501 -0.00000000000E+00  0.00000000000E+00  0.14659038058E+04  0.14659038058E+04  0.00000000000E+00 0.  1.
          2   -1    0    0  501    0  0.00000000000E+00 -0.00000000000E+00 -0.17498345730E+04  0.17498345730E+04  0.00000000000E+00 0. -1.
         24    2    1    2    0    0 -0.25371115261E+03  0.13535409816E+04  0.39325770815E+03  0.14343948739E+04  0.79965563693E+02 0.  0.
        254    2    1    2    0    0  0.25371115261E+03 -0.13535409816E+04 -0.67718847544E+03  0.17813435049E+04  0.90452081964E+03 0.  0.
         23    2    4    4    0    0 -0.21162939693E+03 -0.16383737542E+03  0.80130187385E+02  0.29343423929E+03  0.89739169974E+02 0.  0.
         23    2    4    4    0    0  0.46534054955E+03 -0.11897036062E+04 -0.75731866283E+03  0.14879092656E+04  0.91683847305E+02 0.  0.
          4    1    3    3  502    0 -0.95113458608E+01  0.20397080753E+03  0.55485897530E+02  0.21159688289E+03  0.00000000000E+00 0. -1.
         -3    1    3    3    0  502 -0.24419980675E+03  0.11495701741E+04  0.33777181062E+03  0.12227979910E+04  0.00000000000E+00 0.  1.
         13    1    5    5    0    0 -0.19810178304E+03 -0.12164082713E+03  0.44759678654E+02  0.23673663869E+03  0.00000000000E+00 0. -1.
        -13    1    5    5    0    0 -0.13527613894E+02 -0.42196548295E+02  0.35370508732E+02  0.56697600598E+02  0.00000000000E+00 0.  1.
          1    1    6    6  503    0  0.46512003618E+03 -0.11681584012E+04 -0.75402677148E+03  0.14661129119E+04  0.00000000000E+00 0. -1.
         -1    1    6    6    0  503  0.22051336655E+00 -0.21545204986E+02 -0.32918913448E+01  0.21796353655E+02  0.00000000000E+00 0.  1.
<mgrwt>
<rscale>  0 0.32031791E+04</rscale>
<asrwt>0</asrwt>
<pdfrwt beam="1">  1        2 0.26920532E+00 0.32031791E+04</pdfrwt>
<pdfrwt beam="2">  1       -1 0.22552366E+00 0.32031791E+04</pdfrwt>
<totfact> 0.89102452E-01</totfact>
</mgrwt>
</event>
<event>
12    7  0.1606355E-007  0.1344344E+04  0.7818608E-02  0.8995121E-01
          2   -1    0    0  501    0  0.00000000000E+00  0.00000000000E+00  0.17321952503E+04  0.17321952503E+04  0.00000000000E+00 0. -1.
         -1   -1    0    0    0  501 -0.00000000000E+00 -0.00000000000E+00 -0.26083395415E+03  0.26083395415E+03  0.00000000000E+00 0.  1.
         24    2    1    2    0    0 -0.12675139628E+02 -0.81666290901E+01  0.94152822044E+03  0.94419924680E+03  0.69350376881E+02 0.  0.
        254    2    1    2    0    0  0.12675139628E+02  0.81666290901E+01  0.52983307570E+03  0.10488299576E+04  0.90503803177E+03 0.  0.
         23    2    4    4    0    0 -0.18992730511E+03 -0.36455949184E+03  0.85962191379E+02  0.42971812721E+03  0.91061332053E+02 0.  0.
         23    2    4    4    0    0  0.20260244474E+03  0.37272612093E+03  0.44387088432E+03  0.61911183043E+03  0.79407712432E+02 0.  0.
          4    1    3    3  502    0 -0.33564179613E+02 -0.88958469119E+00  0.81915684060E+03  0.81984466518E+03  0.00000000000E+00 0. -1.
         -3    1    3    3    0  502  0.20889039985E+02 -0.72770443989E+01  0.12237137984E+03  0.12435458162E+03  0.00000000000E+00 0.  1.
         13    1    5    5    0    0 -0.17351086851E+03 -0.27165177080E+03  0.91910404749E+02  0.33518387278E+03  0.00000000000E+00 0. -1.
        -13    1    5    5    0    0 -0.16416436593E+02 -0.92907721039E+02 -0.59482133700E+01  0.94534254434E+02  0.00000000000E+00 0.  1.
          2    1    6    6  503    0  0.21389278891E+02  0.10949478194E+03  0.10258196447E+03  0.15155747411E+03  0.00000000000E+00 0.  1.
         -2    1    6    6    0  503  0.18121316584E+03  0.26323133899E+03  0.34128891985E+03  0.46755435632E+03  0.00000000000E+00 0. -1.
<mgrwt>
<rscale>  0 0.13443442E+04</rscale>
<asrwt>0</asrwt>
<pdfrwt beam="1">  1        2 0.26649157E+00 0.13443442E+04</pdfrwt>
<pdfrwt beam="2">  1       -1 0.40128302E-01 0.13443442E+04</pdfrwt>
<totfact> 0.63435158E+01</totfact>
</mgrwt>
</event>
<event>
12    7  0.1606355E-007  0.1741603E+04  0.7818608E-02  0.8737986E-01
         -1   -1    0    0    0  501 -0.00000000000E+00  0.00000000000E+00  0.46115124901E+03  0.46115124901E+03  0.00000000000E+00 0.  1.
          2   -1    0    0  501    0  0.00000000000E+00 -0.00000000000E+00 -0.16443528064E+04  0.16443528064E+04  0.00000000000E+00 0. -1.
         24    2    1    2    0    0  0.32300020919E+03  0.39604270495E+03  0.17252300886E+02  0.52195361848E+03  0.10468514066E+03 0.  0.
        254    2    1    2    0    0 -0.32300020919E+03 -0.39604270495E+03 -0.12004538583E+04  0.15835504369E+04  0.89742050410E+03 0.  0.
         23    2    4    4    0    0 -0.53952268664E+03 -0.53079776199E+03 -0.86321877467E+03  0.11513633183E+04  0.87520535728E+02 0.  0.
         23    2    4    4    0    0  0.21652247746E+03  0.13475505704E+03 -0.33723508360E+03  0.43218711866E+03  0.89539350465E+02 0.  0.
          2    1    3    3  502    0 -0.75185339991E+01  0.16976197106E+02  0.31391807830E+01  0.18830137484E+02  0.00000000000E+00 0. -1.
         -1    1    3    3    0  502  0.33051874319E+03  0.37906650785E+03  0.14113120103E+02  0.50312348100E+03  0.00000000000E+00 0.  1.
         13    1    5    5    0    0 -0.26557170475E+02 -0.80112945292E+01 -0.18540857604E+02  0.33365064729E+02  0.00000000000E+00 0.  1.
        -13    1    5    5    0    0 -0.51296551617E+03 -0.52278646746E+03 -0.84467791707E+03  0.11179982535E+04  0.00000000000E+00 0. -1.
          3    1    6    6  503    0  0.14723480784E+03  0.13301160488E+03 -0.22230895198E+03  0.29797893517E+03  0.00000000000E+00 0. -1.
         -3    1    6    6    0  503  0.69287669614E+02  0.17434521514E+01 -0.11492613162E+03  0.13420818349E+03  0.00000000000E+00 0.  1.
<mgrwt>
<rscale>  0 0.17416031E+04</rscale>
<asrwt>0</asrwt>
<pdfrwt beam="1">  1        2 0.25297735E+00 0.17416031E+04</pdfrwt>
<pdfrwt beam="2">  1       -1 0.70946347E-01 0.17416031E+04</pdfrwt>
<totfact> 0.22839491E+01</totfact>
</mgrwt>
</event>
<event>
12    7  0.1606355E-007  0.3615433E+04  0.7818608E-02  0.8086966E-01
         -1   -1    0    0    0  501 -0.00000000000E+00  0.00000000000E+00  0.85613470570E+03  0.85613470570E+03  0.00000000000E+00 0.  1.
          2   -1    0    0  501    0  0.00000000000E+00 -0.00000000000E+00 -0.38169671628E+04  0.38169671628E+04  0.00000000000E+00 0. -1.
         24    2    1    2    0    0 -0.20897614847E+03 -0.16796906322E+04 -0.11721847772E+04  0.20603185822E+04  0.76575830711E+02 0.  0.
        254    2    1    2    0    0  0.20897614847E+03  0.16796906322E+04 -0.17886476799E+04  0.26127832862E+04  0.87312331750E+03 0.  0.
         23    2    4    4    0    0  0.32157074461E+03  0.53470496660E+03 -0.11021190162E+04  0.12697256718E+04  0.90663172599E+02 0.  0.
         23    2    4    4    0    0 -0.11259459614E+03  0.11449856656E+04 -0.68652866372E+03  0.13430576144E+04  0.93874554319E+02 0.  0.
          4    1    3    3  502    0 -0.53142270243E+02 -0.30932572303E+03 -0.18629040975E+03  0.36498030163E+03  0.00000000000E+00 0. -1.
         -3    1    3    3    0  502 -0.15583387823E+03 -0.13703649092E+04 -0.98589436745E+03  0.16953382806E+04  0.00000000000E+00 0.  1.
         13    1    5    5    0    0  0.11144439592E+03  0.17169826457E+03 -0.44993184357E+03  0.49430639415E+03  0.00000000000E+00 0.  1.
        -13    1    5    5    0    0  0.21012634869E+03  0.36300670202E+03 -0.65218717259E+03  0.77541927770E+03  0.00000000000E+00 0. -1.
          4    1    6    6  503    0 -0.81598526684E+02  0.49295982564E+03 -0.33600818244E+03  0.60213720025E+03  0.00000000000E+00 0. -1.
         -4    1    6    6    0  503 -0.30996069453E+02  0.65202583997E+03 -0.35052048128E+03  0.74092041415E+03  0.00000000000E+00 0.  1.
<mgrwt>
<rscale>  0 0.36154325E+04</rscale>
<asrwt>0</asrwt>
<pdfrwt beam="1">  1        2 0.58722571E+00 0.36154325E+04</pdfrwt>
<pdfrwt beam="2">  1       -1 0.13171303E+00 0.36154325E+04</pdfrwt>
<totfact> 0.21550109E-01</totfact>
</mgrwt>
</event>
<event>
12    7  0.1606355E-007  0.2058719E+04  0.7818608E-02  0.8579649E-01
         -3   -1    0    0    0  501 -0.00000000000E+00  0.00000000000E+00  0.88498555397E+03  0.88498555397E+03  0.00000000000E+00 0.  1.
          2   -1    0    0  501    0  0.00000000000E+00 -0.00000000000E+00 -0.11972859316E+04  0.11972859316E+04  0.00000000000E+00 0. -1.
         24    2    1    2    0    0  0.24168750706E+02  0.15262283680E+02  0.71346459692E+03  0.71859452234E+03  0.80804026343E+02 0.  0.
        254    2    1    2    0    0 -0.24168750706E+02 -0.15262283680E+02 -0.10257649746E+04  0.13636769633E+04  0.89811135793E+03 0.  0.
         23    2    4    4    0    0  0.18642906462E+03 -0.67699490704E+02 -0.10958886847E+04  0.11176701336E+04  0.94209877346E+02 0.  0.
         23    2    4    4    0    0 -0.21059781532E+03  0.52437207025E+02  0.70123710151E+02  0.24600682969E+03  0.92200461110E+02 0.  0.
          4    1    3    3  502    0 -0.20929705431E+02  0.96007635489E+01  0.73609188758E+02  0.77126778098E+02  0.00000000000E+00 0. -1.
         -3    1    3    3    0  502  0.45098456137E+02  0.56615201307E+01  0.63985540816E+03  0.64146774425E+03  0.00000000000E+00 0.  1.
         13    1    5    5    0    0  0.94519279981E+02 -0.24051960572E+02 -0.77302867480E+03  0.77915705936E+03  0.00000000000E+00 0.  1.
        -13    1    5    5    0    0  0.91909784638E+02 -0.43647530133E+02 -0.32286000993E+03  0.33851307421E+03  0.00000000000E+00 0. -1.
          1    1    6    6  503    0 -0.31123248641E+02 -0.56534244612E+01 -0.19497326591E+02  0.37158626970E+02  0.00000000000E+00 0. -1.
         -1    1    6    6    0  503 -0.17947456668E+03  0.58090631486E+02  0.89621036742E+02  0.20884820272E+03  0.00000000000E+00 0.  1.
<mgrwt>
<rscale>  0 0.20587188E+04</rscale>
<asrwt>0</asrwt>
<pdfrwt beam="1">  1        2 0.18419784E+00 0.20587188E+04</pdfrwt>
<pdfrwt beam="2">  1       -3 0.13615162E+00 0.20587188E+04</pdfrwt>
<totfact> 0.46011167E+00</totfact>
</mgrwt>
</event>
<event>
12    7  0.1606355E-007  0.1487317E+04  0.7818608E-02  0.8892931E-01
          2   -1    0    0  501    0  0.00000000000E+00  0.00000000000E+00  0.12521604905E+04  0.12521604905E+04  0.00000000000E+00 0. -1.
         -1   -1    0    0    0  501 -0.00000000000E+00 -0.00000000000E+00 -0.44165891156E+03  0.44165891156E+03  0.00000000000E+00 0.  1.
         24    2    1    2    0    0 -0.11675654069E+01  0.89015968138E+02  0.78784828530E+03  0.79673655945E+03  0.78479415858E+02 0.  0.
        254    2    1    2    0    0  0.11675654069E+01 -0.89015968138E+02  0.22653293616E+02  0.89708284258E+03  0.89236721643E+03 0.  0.
         23    2    4    4    0    0  0.74101065893E+02 -0.47726694081E+03  0.77281661401E+01  0.49160728505E+03  0.91341652092E+02 0.  0.
         23    2    4    4    0    0 -0.72933500486E+02  0.38825097267E+03  0.14925127476E+02  0.40547555753E+03  0.90164045239E+02 0.  0.
          2    1    3    3  502    0  0.38114480875E+02  0.41690184302E+02  0.42007978769E+03  0.42386060580E+03  0.00000000000E+00 0. -1.
         -1    1    3    3    0  502 -0.39282046282E+02  0.47325783837E+02  0.36776849761E+03  0.37287595365E+03  0.00000000000E+00 0.  1.
         13    1    5    5    0    0 -0.14951554696E+02 -0.17546160992E+02 -0.28034287215E+01  0.23222316120E+02  0.00000000000E+00 0.  1.
        -13    1    5    5    0    0  0.89052620589E+02 -0.45972077982E+03  0.10531594862E+02  0.46838496893E+03  0.00000000000E+00 0. -1.
          4    1    6    6  503    0 -0.36997197888E+00  0.41613432612E+01 -0.12941854123E+02  0.13599457531E+02  0.00000000000E+00 0.  1.
         -4    1    6    6    0  503 -0.72563528507E+02  0.38408962941E+03  0.27866981599E+02  0.39187610000E+03  0.00000000000E+00 0. -1.
<mgrwt>
<rscale>  0 0.14873168E+04</rscale>
<asrwt>0</asrwt>
<pdfrwt beam="1">  1        2 0.19264007E+00 0.14873168E+04</pdfrwt>
<pdfrwt beam="2">  1       -1 0.67947525E-01 0.14873168E+04</pdfrwt>
<totfact> 0.42644819E+01</totfact>
</mgrwt>
</event>
<event>
12    7  0.1606355E-007  0.1483450E+04  0.7818608E-02  0.8895534E-01
         -1   -1    0    0    0  501 -0.00000000000E+00  0.00000000000E+00  0.50394480359E+03  0.50394480359E+03  0.00000000000E+00 0.  1.
          2   -1    0    0  501    0  0.00000000000E+00 -0.00000000000E+00 -0.10916990822E+04  0.10916990822E+04  0.00000000000E+00 0. -1.
         24    2    1    2    0    0 -0.33287719159E+03  0.31546124188E+03 -0.13030371616E+03  0.48304177024E+03  0.77635517301E+02 0.  0.
        254    2    1    2    0    0  0.33287719159E+03 -0.31546124188E+03 -0.45745056242E+03  0.11126021155E+04  0.90459904409E+03 0.  0.
         23    2    4    4    0    0 -0.13960803138E+02 -0.56468595861E+03 -0.29773995935E+03  0.64594659121E+03  0.97635953547E+02 0.  0.
         23    2    4    4    0    0  0.34683799473E+03  0.24922471673E+03 -0.15971060307E+03  0.46665552431E+03  0.99248917453E+02 0.  0.
          2    1    3    3  502    0 -0.29957400048E+02  0.25304862629E+02  0.10463701346E+02  0.40586585668E+02  0.00000000000E+00 0. -1.
         -1    1    3    3    0  502 -0.30291979154E+03  0.29015637925E+03 -0.14076741750E+03  0.44245518458E+03  0.00000000000E+00 0.  1.
         13    1    5    5    0    0 -0.53058174160E+02 -0.26400502222E+03 -0.12370971932E+03  0.29634087848E+03  0.00000000000E+00 0.  1.
        -13    1    5    5    0    0  0.39097371022E+02 -0.30068093639E+03 -0.17403024004E+03  0.34960571273E+03  0.00000000000E+00 0. -1.
          3    1    6    6  503    0  0.28795539901E+03  0.22974416009E+03 -0.10272736953E+03  0.38243117468E+03  0.00000000000E+00 0. -1.
         -3    1    6    6    0  503  0.58882595714E+02  0.19480556639E+02 -0.56983233541E+02  0.84224349625E+02  0.00000000000E+00 0.  1.
<mgrwt>
<rscale>  0 0.14834501E+04</rscale>
<asrwt>0</asrwt>
<pdfrwt beam="1">  1        2 0.16795370E+00 0.14834501E+04</pdfrwt>
<pdfrwt beam="2">  1       -1 0.77529970E-01 0.14834501E+04</pdfrwt>
<totfact> 0.40564103E+01</totfact>
</mgrwt>
</event>
<event>
12    7  0.1606355E-007  0.1610649E+04  0.7818608E-02  0.8814032E-01
          2   -1    0    0  501    0  0.00000000000E+00  0.00000000000E+00  0.58560913151E+03  0.58560913151E+03  0.00000000000E+00 0. -1.
         -1   -1    0    0    0  501 -0.00000000000E+00 -0.00000000000E+00 -0.11074753162E+04  0.11074753162E+04  0.00000000000E+00 0.  1.
         24    2    1    2    0    0 -0.36975908140E+03 -0.19906225476E+03 -0.54841020635E+03  0.69800442428E+03  0.10054283837E+03 0.  0.
        254    2    1    2    0    0  0.36975908140E+03  0.19906225476E+03  0.26544021646E+02  0.99508002344E+03  0.90173838136E+03 0.  0.
         23    2    4    4    0    0 -0.10859910473E+03 -0.32299597663E+02 -0.32144103267E+03  0.35318341009E+03  0.92612926318E+02 0.  0.
         23    2    4    4    0    0  0.47835818613E+03  0.23136185243E+03  0.34798505432E+03  0.64189661335E+03  0.92643419698E+02 0.  0.
          4    1    3    3  502    0 -0.29170484965E+03 -0.12136537686E+03 -0.45297358907E+03  0.55227379659E+03  0.00000000000E+00 0. -1.
         -3    1    3    3    0  502 -0.78054231746E+02 -0.77696877906E+02 -0.95436617277E+02  0.14573062769E+03  0.00000000000E+00 0.  1.
         13    1    5    5    0    0 -0.43960052248E+01 -0.17329656444E+01  0.63256568006E+01  0.78956928651E+01  0.00000000000E+00 0.  1.
        -13    1    5    5    0    0 -0.10420309950E+03 -0.30566632019E+02 -0.32776668947E+03  0.34528771722E+03  0.00000000000E+00 0. -1.
          1    1    6    6  503    0  0.45280504092E+03  0.19635399857E+03  0.33553994431E+03  0.59680344508E+03  0.00000000000E+00 0. -1.
         -1    1    6    6    0  503  0.25553145210E+02  0.35007853853E+02  0.12445110007E+02  0.45093168270E+02  0.00000000000E+00 0.  1.
<mgrwt>
<rscale>  0 0.16106491E+04</rscale>
<asrwt>0</asrwt>
<pdfrwt beam="1">  1        2 0.90093712E-01 0.16106491E+04</pdfrwt>
<pdfrwt beam="2">  1       -1 0.17038082E+00 0.16106491E+04</pdfrwt>
<totfact> 0.13668985E+01</totfact>
</mgrwt>
</event>
<event>
12    7  0.1606355E-007  0.1622779E+04  0.7818608E-02  0.8806675E-01
          2   -1    0    0  501    0  0.00000000000E+00  0.00000000000E+00  0.23288775354E+04  0.23288775354E+04  0.00000000000E+00 0. -1.
         -1   -1    0    0    0  501 -0.00000000000E+00 -0.00000000000E+00 -0.28269113375E+03  0.28269113375E+03  0.00000000000E+00 0.  1.
         24    2    1    2    0    0  0.88151603288E+02 -0.48375418318E+03  0.10266702735E+04  0.11411931076E+04  0.80504928831E+02 0.  0.
        254    2    1    2    0    0 -0.88151603288E+02  0.48375418318E+03  0.10195161282E+04  0.14703755616E+04  0.93851070394E+03 0.  0.
         23    2    4    4    0    0 -0.50316094173E+03  0.21606809176E+03  0.48341975371E+03  0.73660067288E+03  0.95023888861E+02 0.  0.
         23    2    4    4    0    0  0.41500933844E+03  0.26768609142E+03  0.53609637452E+03  0.73377488868E+03  0.84484732052E+02 0.  0.
          2    1    3    3  502    0  0.34816571995E+02 -0.13000188548E+03  0.36465162974E+03  0.38869460375E+03  0.00000000000E+00 0. -1.
         -1    1    3    3    0  502  0.53335031292E+02 -0.35375229770E+03  0.66201864373E+03  0.75249850388E+03  0.00000000000E+00 0.  1.
         13    1    5    5    0    0 -0.25957517875E+03  0.86625184891E+02  0.18553956231E+03  0.33061779332E+03  0.00000000000E+00 0. -1.
        -13    1    5    5    0    0 -0.24358576298E+03  0.12944290687E+03  0.29788019140E+03  0.40598287956E+03  0.00000000000E+00 0.  1.
          2    1    6    6  503    0  0.20300443855E+03  0.14020170519E+03  0.32850149242E+03  0.41082910161E+03  0.00000000000E+00 0. -1.
         -2    1    6    6    0  503  0.21200489989E+03  0.12748438623E+03  0.20759488210E+03  0.32294578707E+03  0.00000000000E+00 0.  1.
<mgrwt>
<rscale>  0 0.16227791E+04</rscale>
<asrwt>0</asrwt>
<pdfrwt beam="1">  1        2 0.35828884E+00 0.16227791E+04</pdfrwt>
<pdfrwt beam="2">  1       -1 0.43490945E-01 0.16227791E+04</pdfrwt>
<totfact> 0.24867392E+01</totfact>
</mgrwt>
</event>
<event>
12    7  0.1606355E-007  0.3668770E+04  0.7818608E-02  0.8074918E-01
         -1   -1    0    0    0  501 -0.00000000000E+00  0.00000000000E+00  0.18181860391E+04  0.18181860391E+04  0.00000000000E+00 0.  1.
          2   -1    0    0  501    0  0.00000000000E+00 -0.00000000000E+00 -0.18507283346E+04  0.18507283346E+04  0.00000000000E+00 0. -1.
         24    2    1    2    0    0  0.24227664970E+03  0.50720372005E+03 -0.16462377951E+04  0.17412723554E+04  0.77310729732E+02 0.  0.
        254    2    1    2    0    0 -0.24227664970E+03 -0.50720372005E+03  0.16136954996E+04  0.19276420183E+04  0.89209696599E+03 0.  0.
         23    2    4    4    0    0 -0.25471814191E+02  0.85182634814E+02  0.11010189086E+04  0.11087587535E+04  0.95908506949E+02 0.  0.
         23    2    4    4    0    0 -0.21680483551E+03 -0.59238635487E+03  0.51267659095E+03  0.81888326480E+03  0.99028199705E+02 0.  0.
          4    1    3    3  502    0  0.18910506944E+03  0.43036961614E+03 -0.12899046513E+04  0.13728921091E+04  0.00000000000E+00 0. -1.
         -3    1    3    3    0  502  0.53171580260E+02  0.76834103911E+02 -0.35633314376E+03  0.36838024623E+03  0.00000000000E+00 0.  1.
         13    1    5    5    0    0 -0.80865026793E+01 -0.21079080352E+02  0.23154124677E+03  0.23263935202E+03  0.00000000000E+00 0. -1.
        -13    1    5    5    0    0 -0.17385311512E+02  0.10626171517E+03  0.86947766184E+03  0.87611940145E+03  0.00000000000E+00 0.  1.
          1    1    6    6  503    0 -0.21754712097E+02 -0.18952721101E+03  0.14451399760E+03  0.23932849122E+03  0.00000000000E+00 0. -1.
         -1    1    6    6    0  503 -0.19505012342E+03 -0.40285914386E+03  0.36816259335E+03  0.57955477358E+03  0.00000000000E+00 0.  1.
<mgrwt>
<rscale>  0 0.36687701E+04</rscale>
<asrwt>0</asrwt>
<pdfrwt beam="1">  1        2 0.28472744E+00 0.36687701E+04</pdfrwt>
<pdfrwt beam="2">  1       -1 0.27972093E+00 0.36687701E+04</pdfrwt>
<totfact> 0.33330175E-01</totfact>
</mgrwt>
</event>
<event>
12    7  0.1606355E-007  0.2678193E+04  0.7818608E-02  0.8342115E-01
         -1   -1    0    0    0  501 -0.00000000000E+00  0.00000000000E+00  0.64867572680E+03  0.64867572680E+03  0.00000000000E+00 0.  1.
          2   -1    0    0  501    0  0.00000000000E+00 -0.00000000000E+00 -0.27643698530E+04  0.27643698530E+04  0.00000000000E+00 0. -1.
         24    2    1    2    0    0  0.48028377733E+03 -0.42864238957E+03  0.32979042167E+03  0.72824977436E+03  0.84730199595E+02 0.  0.
        254    2    1    2    0    0 -0.48028377733E+03  0.42864238957E+03 -0.24454845479E+04  0.26847958054E+04  0.90184646040E+03 0.  0.
         23    2    4    4    0    0  0.71610333713E+02  0.19827229897E+03 -0.17424023716E+04  0.17576177559E+04  0.93884006532E+02 0.  0.
         23    2    4    4    0    0 -0.55189411105E+03  0.23037009060E+03 -0.70308217623E+03  0.92717804955E+03  0.87619065218E+02 0.  0.
          2    1    3    3  502    0  0.11796087291E+03 -0.10275617417E+03  0.40752826637E+02  0.16166134895E+03  0.00000000000E+00 0. -1.
         -1    1    3    3    0  502  0.36232290442E+03 -0.32588621540E+03  0.28903759504E+03  0.56658842540E+03  0.00000000000E+00 0.  1.
         13    1    5    5    0    0  0.45245744616E+02  0.86868790177E+02 -0.47126932753E+03  0.48133994556E+03  0.00000000000E+00 0. -1.
        -13    1    5    5    0    0  0.26364589097E+02  0.11140350879E+03 -0.12711330441E+04  0.12762778103E+04  0.00000000000E+00 0.  1.
          4    1    6    6  503    0 -0.44148390050E+02  0.17577949191E+02 -0.24830435062E+02  0.53615437582E+02  0.00000000000E+00 0. -1.
         -4    1    6    6    0  503 -0.50774572100E+03  0.21279214141E+03 -0.67825174117E+03  0.87356261197E+03  0.00000000000E+00 0.  1.
<mgrwt>
<rscale>  0 0.26781931E+04</rscale>
<asrwt>0</asrwt>
<pdfrwt beam="1">  1        2 0.42528767E+00 0.26781931E+04</pdfrwt>
<pdfrwt beam="2">  1       -1 0.99796265E-01 0.26781931E+04</pdfrwt>
<totfact> 0.23241806E+00</totfact>
</mgrwt>
</event>
<event>
12    7  0.1606355E-007  0.2980983E+04  0.7818608E-02  0.8249182E-01
         -1   -1    0    0    0  501 -0.00000000000E+00  0.00000000000E+00  0.98501877157E+03  0.98501877157E+03  0.00000000000E+00 0.  1.
          2   -1    0    0  501    0  0.00000000000E+00 -0.00000000000E+00 -0.22553534384E+04  0.22553534384E+04  0.00000000000E+00 0. -1.
         24    2    1    2    0    0 -0.86146550023E+03 -0.14681447329E+03  0.54521834498E+03  0.10339506379E+04  0.90075413834E+02 0.  0.
        254    2    1    2    0    0  0.86146550023E+03  0.14681447329E+03 -0.18155530118E+04  0.22064215721E+04  0.89910295156E+03 0.  0.
         23    2    4    4    0    0  0.80121687266E+03  0.45153246478E+03 -0.14316924981E+04  0.17041113052E+04  0.91770842601E+02 0.  0.
         23    2    4    4    0    0  0.60248627565E+02 -0.30471799149E+03 -0.38386051369E+03  0.50231026691E+03  0.92107322212E+02 0.  0.
          2    1    3    3  502    0 -0.26205888133E+03 -0.23726500852E+02  0.12266815615E+03  0.29031927367E+03  0.00000000000E+00 0. -1.
         -1    1    3    3    0  502 -0.59940661889E+03 -0.12308797244E+03  0.42255018883E+03  0.74363136419E+03  0.00000000000E+00 0.  1.
         13    1    5    5    0    0 -0.68260005596E+00  0.75442719235E+01 -0.13818194980E+02  0.15758315081E+02  0.00000000000E+00 0.  1.
        -13    1    5    5    0    0  0.80189947272E+03  0.44398819286E+03 -0.14178743031E+04  0.16883529901E+04  0.00000000000E+00 0. -1.
          3    1    6    6  503    0  0.37108159346E+02 -0.28064812271E+03 -0.37067414023E+03  0.46641151626E+03  0.00000000000E+00 0. -1.
         -3    1    6    6    0  503  0.23140468219E+02 -0.24069868782E+02 -0.13186373467E+02  0.35898750644E+02  0.00000000000E+00 0.  1.
<mgrwt>
<rscale>  0 0.29809834E+04</rscale>
<asrwt>0</asrwt>
<pdfrwt beam="1">  1        2 0.34697745E+00 0.29809834E+04</pdfrwt>
<pdfrwt beam="2">  1       -1 0.15154135E+00 0.29809834E+04</pdfrwt>
<totfact> 0.15896945E+00</totfact>
</mgrwt>
</event>
<event>
12    7  0.1606355E-007  0.1055409E+04  0.7818608E-02  0.9249777E-01
         -1   -1    0    0    0  501 -0.00000000000E+00  0.00000000000E+00  0.36118402143E+03  0.36118402143E+03  0.00000000000E+00 0.  1.
          2   -1    0    0  501    0  0.00000000000E+00 -0.00000000000E+00 -0.77099753872E+03  0.77099753872E+03  0.00000000000E+00 0. -1.
         24    2    1    2    0    0 -0.46147369290E+01  0.35058788892E+02  0.69282854860E+02  0.11081654236E+03  0.78928940234E+02 0.  0.
        254    2    1    2    0    0  0.46147369290E+01 -0.35058788892E+02 -0.47909637215E+03  0.10213650178E+04  0.90133387338E+03 0.  0.
         23    2    4    4    0    0 -0.39310969260E+02  0.36719510623E+03 -0.47226256865E+03  0.60625065414E+03  0.90168306817E+02 0.  0.
         23    2    4    4    0    0  0.43925706189E+02 -0.40225389512E+03 -0.68338035010E+01  0.41511436366E+03  0.92388149882E+02 0.  0.
          4    1    3    3  502    0 -0.37803528059E+02  0.59436882121E+01  0.15636926912E+02  0.41339420007E+02  0.00000000000E+00 0. -1.
         -3    1    3    3    0  502  0.33188791130E+02  0.29115100680E+02  0.53645927948E+02  0.69477122348E+02  0.00000000000E+00 0.  1.
         13    1    5    5    0    0 -0.68138426705E+02  0.23966626443E+03 -0.31969282164E+03  0.40532241945E+03  0.00000000000E+00 0. -1.
        -13    1    5    5    0    0  0.28827457445E+02  0.12752884180E+03 -0.15256974701E+03  0.20092823469E+03  0.00000000000E+00 0.  1.
          3    1    6    6  503    0  0.31795643416E+02 -0.35631576542E+03  0.23898232569E+02  0.35852895720E+03  0.00000000000E+00 0. -1.
         -3    1    6    6    0  503  0.12130062773E+02 -0.45938129700E+02 -0.30732036070E+02  0.56585406460E+02  0.00000000000E+00 0.  1.
<mgrwt>
<rscale>  0 0.10554089E+04</rscale>
<asrwt>0</asrwt>
<pdfrwt beam="1">  1        2 0.11861500E+00 0.10554089E+04</pdfrwt>
<pdfrwt beam="2">  1       -1 0.55566773E-01 0.10554089E+04</pdfrwt>
<totfact> 0.13460423E+02</totfact>
</mgrwt>
</event>
<event>
12    7  0.1606355E-007  0.1928856E+04  0.7818608E-02  0.8640625E-01
         -3   -1    0    0    0  501 -0.00000000000E+00  0.00000000000E+00  0.72305439999E+03  0.72305439999E+03  0.00000000000E+00 0.  1.
          2   -1    0    0  501    0  0.00000000000E+00 -0.00000000000E+00 -0.12863787624E+04  0.12863787624E+04  0.00000000000E+00 0. -1.
         24    2    1    2    0    0 -0.46879620055E+03  0.31156280607E+03  0.29400090669E+03  0.64011860970E+03  0.80461429106E+02 0.  0.
        254    2    1    2    0    0  0.46879620055E+03 -0.31156280607E+03 -0.85732526911E+03  0.13693145527E+04  0.90728962706E+03 0.  0.
         23    2    4    4    0    0  0.20486160673E+03  0.27319561451E+03 -0.90343354271E+02  0.36523438989E+03  0.92898418686E+02 0.  0.
         23    2    4    4    0    0  0.26393459382E+03 -0.58475842059E+03 -0.76698191484E+03  0.10040801628E+04  0.91169267690E+02 0.  0.
          4    1    3    3  502    0 -0.26681666215E+03  0.19836910227E+03  0.13292245300E+03  0.35806397536E+03  0.00000000000E+00 0. -1.
         -3    1    3    3    0  502 -0.20197953840E+03  0.11319370380E+03  0.16107845369E+03  0.28205463435E+03  0.00000000000E+00 0.  1.
         13    1    5    5    0    0  0.18588857238E+03  0.18916185831E+03 -0.49083323695E+02  0.26971455772E+03  0.00000000000E+00 0.  1.
        -13    1    5    5    0    0  0.18973034348E+02  0.84033756204E+02 -0.41260030576E+02  0.95519832167E+02  0.00000000000E+00 0. -1.
          1    1    6    6  503    0  0.24376891150E+03 -0.46551571579E+03 -0.64980353254E+03  0.83568701962E+03  0.00000000000E+00 0. -1.
         -1    1    6    6    0  503  0.20165682322E+02 -0.11924270480E+03 -0.11717838230E+03  0.16839314318E+03  0.00000000000E+00 0.  1.
<mgrwt>
<rscale>  0 0.19288565E+04</rscale>
<asrwt>0</asrwt>
<pdfrwt beam="1">  1        2 0.19790442E+00 0.19288565E+04</pdfrwt>
<pdfrwt beam="2">  1       -3 0.11123914E+00 0.19288565E+04</pdfrwt>
<totfact> 0.67798472E+00</totfact>
</mgrwt>
</event>
<event>
12    7  0.1606355E-007  0.4080258E+04  0.7818608E-02  0.7988549E-01
          2   -1    0    0  501    0  0.00000000000E+00  0.00000000000E+00  0.35688451229E+04  0.35688451229E+04  0.00000000000E+00 0. -1.
         -1   -1    0    0    0  501 -0.00000000000E+00 -0.00000000000E+00 -0.11662392259E+04  0.11662392259E+04  0.00000000000E+00 0.  1.
         24    2    1    2    0    0  0.46177801487E+03 -0.13716207060E+04  0.26447803543E+04  0.30159183503E+04  0.79486331936E+02 0.  0.
        254    2    1    2    0    0 -0.46177801487E+03  0.13716207060E+04 -0.24217445728E+03  0.17191659986E+04  0.89571254705E+03 0.  0.
         23    2    4    4    0    0  0.96224311446E+02 -0.63749040408E+02 -0.82129726575E+02  0.16844743187E+03  0.91138285311E+02 0.  0.
         23    2    4    4    0    0 -0.55800232632E+03  0.14353697464E+04 -0.16004473071E+03  0.15507185667E+04  0.86376225997E+02 0.  0.
          2    1    3    3  502    0  0.14044278368E+03 -0.52307681135E+03  0.10269920186E+04  0.11610538887E+04  0.00000000000E+00 0. -1.
         -1    1    3    3    0  502  0.32133523120E+03 -0.84854389461E+03  0.16177883357E+04  0.18548644616E+04  0.00000000000E+00 0.  1.
         13    1    5    5    0    0  0.72098163174E+02 -0.50950864339E+02 -0.10183079123E+03  0.13477257048E+03  0.00000000000E+00 0.  1.
        -13    1    5    5    0    0  0.24126148272E+02 -0.12798176070E+02  0.19701064657E+02  0.33674861392E+02  0.00000000000E+00 0. -1.
          3    1    6    6  503    0 -0.12604102865E+03  0.41281137634E+03 -0.66712370956E+02  0.43674948630E+03  0.00000000000E+00 0. -1.
         -3    1    6    6    0  503 -0.43196129767E+03  0.10225583700E+04 -0.93332359753E+02  0.11139690804E+04  0.00000000000E+00 0.  1.
<mgrwt>
<rscale>  0 0.40802584E+04</rscale>
<asrwt>0</asrwt>
<pdfrwt beam="1">  1        2 0.54905309E+00 0.40802584E+04</pdfrwt>
<pdfrwt beam="2">  1       -1 0.17942142E+00 0.40802584E+04</pdfrwt>
<totfact> 0.13555029E-01</totfact>
</mgrwt>
</event>
<event>
12    7  0.1606355E-007  0.1872723E+04  0.7818608E-02  0.8668554E-01
         -1   -1    0    0    0  501 -0.00000000000E+00  0.00000000000E+00  0.45335951272E+03  0.45335951272E+03  0.00000000000E+00 0.  1.
          2   -1    0    0  501    0  0.00000000000E+00 -0.00000000000E+00 -0.19339454020E+04  0.19339454020E+04  0.00000000000E+00 0. -1.
         24    2    1    2    0    0 -0.56081192955E+03 -0.43955958609E+03 -0.73533635106E+03  0.10270601975E+04  0.80065286080E+02 0.  0.
        254    2    1    2    0    0  0.56081192955E+03  0.43955958609E+03 -0.74524953824E+03  0.13602447172E+04  0.88721258246E+03 0.  0.
         23    2    4    4    0    0  0.79168847659E+03  0.34231059111E+03 -0.61424870759E+03  0.10627237703E+04  0.90183991756E+02 0.  0.
         23    2    4    4    0    0 -0.23087654705E+03  0.97248994982E+02 -0.13100083065E+03  0.29752094696E+03  0.92715420778E+02 0.  0.
          4    1    3    3  502    0 -0.54272711905E+03 -0.43684011134E+03 -0.70197561347E+03  0.98901555627E+03  0.00000000000E+00 0. -1.
         -3    1    3    3    0  502 -0.18084810492E+02 -0.27194747518E+01 -0.33360737580E+02  0.38044641218E+02  0.00000000000E+00 0.  1.
         13    1    5    5    0    0  0.38524416433E+03  0.11887104947E+03 -0.29828411458E+03  0.50151451182E+03  0.00000000000E+00 0.  1.
        -13    1    5    5    0    0  0.40644431226E+03  0.22343954164E+03 -0.31596459301E+03  0.56120925846E+03  0.00000000000E+00 0. -1.
          1    1    6    6  503    0 -0.16340203278E+03  0.23233074987E+02 -0.98598909626E+02  0.19225437595E+03  0.00000000000E+00 0. -1.
         -1    1    6    6    0  503 -0.67474514266E+02  0.74015919995E+02 -0.32401921023E+02  0.10526657102E+03  0.00000000000E+00 0.  1.
<mgrwt>
<rscale>  0 0.18727227E+04</rscale>
<asrwt>0</asrwt>
<pdfrwt beam="1">  1        2 0.29753007E+00 0.18727227E+04</pdfrwt>
<pdfrwt beam="2">  1       -1 0.69747616E-01 0.18727227E+04</pdfrwt>
<totfact> 0.16153409E+01</totfact>
</mgrwt>
</event>
<event>
12    7  0.1606355E-007  0.1472394E+04  0.7818608E-02  0.8903021E-01
         -1   -1    0    0    0  501 -0.00000000000E+00  0.00000000000E+00  0.50486155336E+03  0.50486155336E+03  0.00000000000E+00 0.  1.
          2   -1    0    0  501    0  0.00000000000E+00 -0.00000000000E+00 -0.10735337734E+04  0.10735337734E+04  0.00000000000E+00 0. -1.
         24    2    1    2    0    0 -0.34573749518E+03 -0.14801014922E+03 -0.36783380849E+03  0.53199400613E+03  0.79211691366E+02 0.  0.
        254    2    1    2    0    0  0.34573749518E+03  0.14801014922E+03 -0.20083841153E+03  0.10464013206E+04  0.95560359793E+03 0.  0.
         23    2    4    4    0    0  0.33922021792E+03 -0.86538692282E+01  0.33191271850E+03  0.48343176007E+03  0.91624059340E+02 0.  0.
         23    2    4    4    0    0  0.65172772588E+01  0.15666401845E+03 -0.53275113003E+03  0.56296956053E+03  0.92330222345E+02 0.  0.
          2    1    3    3  502    0 -0.20472587186E+03 -0.79525719022E+02 -0.16029202274E+03  0.27190173804E+03  0.00000000000E+00 0. -1.
         -1    1    3    3    0  502 -0.14101162332E+03 -0.68484430196E+02 -0.20754178574E+03  0.26009226809E+03  0.00000000000E+00 0.  1.
         13    1    5    5    0    0  0.19641161137E+03 -0.34128566347E+02  0.14343290114E+03  0.24559168807E+03  0.00000000000E+00 0. -1.
        -13    1    5    5    0    0  0.14280860655E+03  0.25474697119E+02  0.18847981736E+03  0.23784007200E+03  0.00000000000E+00 0.  1.
          3    1    6    6  503    0 -0.19037398052E+01 -0.11743720178E+02 -0.20765231756E+02  0.23931862417E+02  0.00000000000E+00 0. -1.
         -3    1    6    6    0  503  0.84210170639E+01  0.16840773862E+03 -0.51198589827E+03  0.53903769811E+03  0.00000000000E+00 0.  1.
<mgrwt>
<rscale>  0 0.14723939E+04</rscale>
<asrwt>0</asrwt>
<pdfrwt beam="1">  1        2 0.16515904E+00 0.14723939E+04</pdfrwt>
<pdfrwt beam="2">  1       -1 0.77671009E-01 0.14723939E+04</pdfrwt>
<totfact> 0.41510146E+01</totfact>
</mgrwt>
</event>
<event>
12    7  0.1606355E-007  0.1250986E+04  0.7818608E-02  0.9069363E-01
         -1   -1    0    0    0  501 -0.00000000000E+00  0.00000000000E+00  0.43258850491E+03  0.43258850491E+03  0.00000000000E+00 0.  1.
          2   -1    0    0  501    0  0.00000000000E+00 -0.00000000000E+00 -0.90442016186E+03  0.90442016186E+03  0.00000000000E+00 0. -1.
         24    2    1    2    0    0  0.80108477832E+02 -0.21078957610E+03  0.89043846553E+02  0.25649002594E+03  0.83718057716E+02 0.  0.
        254    2    1    2    0    0 -0.80108477832E+02  0.21078957610E+03 -0.56087550350E+03  0.10805186408E+04  0.89559454507E+03 0.  0.
         23    2    4    4    0    0 -0.36039245543E+03 -0.10125147242E+03 -0.14453987953E+02  0.38545226139E+03  0.90719046741E+02 0.  0.
         23    2    4    4    0    0  0.28028397760E+03  0.31204104851E+03 -0.54642151555E+03  0.69506637945E+03  0.92801266860E+02 0.  0.
          4    1    3    3  502    0  0.53094227498E+02 -0.10009892503E+03  0.23739546925E+01  0.11333325834E+03  0.00000000000E+00 0. -1.
         -3    1    3    3    0  502  0.27014250334E+02 -0.11069065107E+03  0.86669891860E+02  0.14315676760E+03  0.00000000000E+00 0.  1.
         13    1    5    5    0    0 -0.86853968093E+02 -0.25155000538E+02  0.35542564437E+02  0.97157911219E+02  0.00000000000E+00 0. -1.
        -13    1    5    5    0    0 -0.27353848734E+03 -0.76096471879E+02 -0.49996552390E+02  0.28829435017E+03  0.00000000000E+00 0.  1.
          4    1    6    6  503    0  0.17225359591E+03  0.25180599481E+03 -0.40766874904E+03  0.50918696887E+03  0.00000000000E+00 0. -1.
         -4    1    6    6    0  503  0.10803038169E+03  0.60235053704E+02 -0.13875276651E+03  0.18587941058E+03  0.00000000000E+00 0.  1.
<mgrwt>
<rscale>  0 0.12509864E+04</rscale>
<asrwt>0</asrwt>
<pdfrwt beam="1">  1        2 0.13914156E+00 0.12509864E+04</pdfrwt>
<pdfrwt beam="2">  1       -1 0.66552078E-01 0.12509864E+04</pdfrwt>
<totfact> 0.74776545E+01</totfact>
</mgrwt>
</event>
<event>
12    7  0.1606355E-007  0.1293838E+04  0.7818608E-02  0.9034466E-01
         -3   -1    0    0    0  501 -0.00000000000E+00  0.00000000000E+00  0.87470195412E+03  0.87470195412E+03  0.00000000000E+00 0.  1.
          4   -1    0    0  501    0  0.00000000000E+00 -0.00000000000E+00 -0.47845343105E+03  0.47845343105E+03  0.00000000000E+00 0. -1.
         24    2    1    2    0    0  0.30158174960E+03  0.14070317978E+03  0.86316588347E+02  0.35265401135E+03  0.78519817934E+02 0.  0.
        254    2    1    2    0    0 -0.30158174960E+03 -0.14070317978E+03  0.30993193472E+03  0.10005013738E+04  0.89117689510E+03 0.  0.
         23    2    4    4    0    0  0.47038162531E+02  0.21859667864E+03  0.41578541878E+03  0.48077051653E+03  0.90915776676E+02 0.  0.
         23    2    4    4    0    0 -0.34861991213E+03 -0.35929985842E+03 -0.10585348406E+03  0.51973085728E+03  0.91010837418E+02 0.  0.
          2    1    3    3  502    0  0.77610939603E+02  0.14153229459E+01  0.11290223487E+02  0.78440615955E+02  0.00000000000E+00 0. -1.
         -1    1    3    3    0  502  0.22397081000E+03  0.13928785683E+03  0.75026364859E+02  0.27421339540E+03  0.00000000000E+00 0.  1.
         13    1    5    5    0    0  0.69064005949E+02  0.16054941376E+03  0.26219837137E+03  0.31510940501E+03  0.00000000000E+00 0.  1.
        -13    1    5    5    0    0 -0.22025843417E+02  0.58047264881E+02  0.15358704741E+03  0.16566111153E+03  0.00000000000E+00 0. -1.
          2    1    6    6  503    0 -0.16240248178E+03 -0.16898045193E+03 -0.96036528746E+02  0.25328239985E+03  0.00000000000E+00 0. -1.
         -2    1    6    6    0  503 -0.18621743035E+03 -0.19031940650E+03 -0.98169553175E+01  0.26644845743E+03  0.00000000000E+00 0.  1.
<mgrwt>
<rscale>  0 0.12938379E+04</rscale>
<asrwt>0</asrwt>
<pdfrwt beam="1">  1        4 0.73608221E-01 0.12938379E+04</pdfrwt>
<pdfrwt beam="2">  1       -3 0.13456953E+00 0.12938379E+04</pdfrwt>
<totfact> 0.15985799E+00</totfact>
</mgrwt>
</event>
<event>
12    7  0.1606355E-007  0.1192698E+04  0.7818608E-02  0.9119272E-01
         -1   -1    0    0    0  501 -0.00000000000E+00  0.00000000000E+00  0.31656533227E+03  0.31656533227E+03  0.00000000000E+00 0.  1.
          2   -1    0    0  501    0  0.00000000000E+00 -0.00000000000E+00 -0.11234087419E+04  0.11234087419E+04  0.00000000000E+00 0. -1.
         24    2    1    2    0    0 -0.38766360623E+02 -0.26870162590E+02 -0.46200122056E+03  0.47103055120E+03  0.78738910429E+02 0.  0.
        254    2    1    2    0    0  0.38766360623E+02  0.26870162590E+02 -0.34484218908E+03  0.96894352298E+03  0.90427350896E+03 0.  0.
         23    2    4    4    0    0  0.42132060450E+02  0.45501493417E+03 -0.14683627620E+03  0.48850772514E+03  0.90913171089E+02 0.  0.
         23    2    4    4    0    0 -0.33656998268E+01 -0.42814477157E+03 -0.19800591288E+03  0.48043579785E+03  0.91065586012E+02 0.  0.
          2    1    3    3  502    0  0.77158369589E+01 -0.12895636126E+02 -0.33076476116E+03  0.33110596310E+03  0.00000000000E+00 0. -1.
         -1    1    3    3    0  502 -0.46482197582E+02 -0.13974526465E+02 -0.13123645939E+03  0.13992458810E+03  0.00000000000E+00 0.  1.
         13    1    5    5    0    0  0.53733362889E+02  0.13765971950E+03 -0.35398748999E+02  0.15195573069E+03  0.00000000000E+00 0.  1.
        -13    1    5    5    0    0 -0.11601302439E+02  0.31735521467E+03 -0.11143752720E+03  0.33655199444E+03  0.00000000000E+00 0. -1.
          2    1    6    6  503    0  0.28614697502E+02 -0.34473130962E+03 -0.13599853135E+03  0.37169083560E+03  0.00000000000E+00 0. -1.
         -2    1    6    6    0  503 -0.31980397328E+02 -0.83413461959E+02 -0.62007381526E+02  0.10874496224E+03  0.00000000000E+00 0.  1.
<mgrwt>
<rscale>  0 0.11926982E+04</rscale>
<asrwt>0</asrwt>
<pdfrwt beam="1">  1        2 0.17283212E+00 0.11926982E+04</pdfrwt>
<pdfrwt beam="2">  1       -1 0.48702358E-01 0.11926982E+04</pdfrwt>
<totfact> 0.10007052E+02</totfact>
</mgrwt>
</event>
<event>
12    7  0.1606355E-007  0.2241989E+04  0.7818608E-02  0.8501152E-01
         -1   -1    0    0    0  501 -0.00000000000E+00  0.00000000000E+00  0.61287553056E+03  0.61287553056E+03  0.00000000000E+00 0.  1.
          2   -1    0    0  501    0  0.00000000000E+00 -0.00000000000E+00 -0.20503817990E+04  0.20503817990E+04  0.00000000000E+00 0. -1.
         24    2    1    2    0    0 -0.35743342340E+03 -0.40654642649E+03 -0.15134385847E+04  0.16092880394E+04  0.79202240671E+02 0.  0.
        254    2    1    2    0    0  0.35743342340E+03  0.40654642649E+03  0.75932316263E+02  0.10539692902E+04  0.90113644859E+03 0.  0.
         23    2    4    4    0    0  0.57556984990E+03  0.62385191842E+02 -0.11069901645E+03  0.59602564693E+03  0.88429267145E+02 0.  0.
         23    2    4    4    0    0 -0.21813642650E+03  0.34416123465E+03  0.18663133272E+03  0.45794364326E+03  0.94077999830E+02 0.  0.
          4    1    3    3  502    0 -0.34444292815E+03 -0.37424312494E+03 -0.14541013626E+04  0.15404900584E+04  0.00000000000E+00 0. -1.
         -3    1    3    3    0  502 -0.12990495248E+02 -0.32303301553E+02 -0.59337222090E+02  0.68797980954E+02  0.00000000000E+00 0.  1.
         13    1    5    5    0    0  0.36263536721E+03 -0.32793680371E+01 -0.61467965255E+02  0.36782261290E+03  0.00000000000E+00 0. -1.
        -13    1    5    5    0    0  0.21293448268E+03  0.65664559879E+02 -0.49231051199E+02  0.22820303403E+03  0.00000000000E+00 0.  1.
          4    1    6    6  503    0 -0.11739910812E+03  0.11756477869E+03  0.44005371047E+02  0.17187350133E+03  0.00000000000E+00 0.  1.
         -4    1    6    6    0  503 -0.10073731838E+03  0.22659645596E+03  0.14262596167E+03  0.28607014194E+03  0.00000000000E+00 0. -1.
<mgrwt>
<rscale>  0 0.22419891E+04</rscale>
<asrwt>0</asrwt>
<pdfrwt beam="1">  1        2 0.31544336E+00 0.22419891E+04</pdfrwt>
<pdfrwt beam="2">  1       -1 0.94288543E-01 0.22419891E+04</pdfrwt>
<totfact> 0.70703202E+00</totfact>
</mgrwt>
</event>
<event>
12    7  0.1606355E-007  0.1182794E+04  0.7818608E-02  0.9128052E-01
         -1   -1    0    0    0  501 -0.00000000000E+00  0.00000000000E+00  0.26430989677E+03  0.26430989677E+03  0.00000000000E+00 0.  1.
          2   -1    0    0  501    0  0.00000000000E+00 -0.00000000000E+00 -0.13232580697E+04  0.13232580697E+04  0.00000000000E+00 0. -1.
         24    2    1    2    0    0  0.11385276849E+03 -0.54259172755E+02  0.46783011413E+02  0.15542779880E+03  0.77862954998E+02 0.  0.
        254    2    1    2    0    0 -0.11385276849E+03  0.54259172755E+02 -0.11057311844E+04  0.14321401677E+04  0.90137533645E+03 0.  0.
         23    2    4    4    0    0 -0.17528926428E+03  0.27239623049E+03 -0.11379315453E+04  0.11864444048E+04  0.88521699804E+02 0.  0.
         23    2    4    4    0    0  0.61436495794E+02 -0.21813705773E+03  0.32200360926E+02  0.24569576291E+03  0.89282280980E+02 0.  0.
          4    1    3    3  502    0  0.66505401332E+02 -0.31877026616E+02  0.66659867116E+02  0.99411524061E+02  0.00000000000E+00 0. -1.
         -3    1    3    3    0  502  0.47347367157E+02 -0.22382146139E+02 -0.19876855704E+02  0.56016274735E+02  0.00000000000E+00 0.  1.
         13    1    5    5    0    0 -0.15951600865E+03  0.26114485896E+03 -0.11159365383E+04  0.11571328152E+04  0.00000000000E+00 0. -1.
        -13    1    5    5    0    0 -0.15773255635E+02  0.11251371530E+02 -0.21995006961E+02  0.29311589616E+02  0.00000000000E+00 0.  1.
          3    1    6    6  503    0  0.66299018495E+02 -0.22519418859E+03  0.33122696282E+02  0.23707613848E+03  0.00000000000E+00 0. -1.
         -3    1    6    6    0  503 -0.48625227011E+01  0.70571308524E+01 -0.92233535527E+00  0.86196244346E+01  0.00000000000E+00 0.  1.
<mgrwt>
<rscale>  0 0.11827936E+04</rscale>
<asrwt>0</asrwt>
<pdfrwt beam="1">  1        2 0.20357817E+00 0.11827936E+04</pdfrwt>
<pdfrwt beam="2">  1       -1 0.40663061E-01 0.11827936E+04</pdfrwt>
<totfact> 0.10654934E+02</totfact>
</mgrwt>
</event>
<event>
12    7  0.1606355E-007  0.1796506E+04  0.7818608E-02  0.8708160E-01
         -1   -1    0    0    0  501 -0.00000000000E+00  0.00000000000E+00  0.86877545331E+03  0.86877545331E+03  0.00000000000E+00 0.  1.
          2   -1    0    0  501    0  0.00000000000E+00 -0.00000000000E+00 -0.92873088123E+03  0.92873088123E+03  0.00000000000E+00 0. -1.
         24    2    1    2    0    0 -0.63496978449E+03  0.22202594576E+02  0.20055189764E+03  0.67107398318E+03  0.80247397627E+02 0.  0.
        254    2    1    2    0    0  0.63496978449E+03 -0.22202594576E+02 -0.26050732555E+03  0.11264323514E+04  0.89292003736E+03 0.  0.
         23    2    4    4    0    0  0.79816650050E+03  0.17363202006E+03 -0.15893196474E+03  0.83719383368E+03  0.91740420806E+02 0.  0.
         23    2    4    4    0    0 -0.16319671601E+03 -0.19583461464E+03 -0.10157536081E+03  0.28923851769E+03  0.91416638450E+02 0.  0.
          4    1    3    3  502    0 -0.12369894267E+03 -0.13238263757E+02  0.11963577959E+02  0.12497922725E+03  0.00000000000E+00 0. -1.
         -3    1    3    3    0  502 -0.51127084182E+03  0.35440858333E+02  0.18858831968E+03  0.54609475593E+03  0.00000000000E+00 0.  1.
         13    1    5    5    0    0  0.13296174827E+03  0.19848390782E+02  0.68360306466E+01  0.13460875319E+03  0.00000000000E+00 0.  1.
        -13    1    5    5    0    0  0.66520475223E+03  0.15378362928E+03 -0.16576799539E+03  0.70258508049E+03  0.00000000000E+00 0. -1.
          2    1    6    6  503    0 -0.16068926884E+03 -0.15330954008E+03 -0.10658923533E+03  0.24634553231E+03  0.00000000000E+00 0. -1.
         -2    1    6    6    0  503 -0.25074471732E+01 -0.42525074557E+02  0.50138745214E+01  0.42892985384E+02  0.00000000000E+00 0.  1.
<mgrwt>
<rscale>  0 0.17965062E+04</rscale>
<asrwt>0</asrwt>
<pdfrwt beam="1">  1        2 0.14288167E+00 0.17965062E+04</pdfrwt>
<pdfrwt beam="2">  1       -1 0.13365776E+00 0.17965062E+04</pdfrwt>
<totfact> 0.14283977E+01</totfact>
</mgrwt>
</event>
<event>
12    7  0.1606355E-007  0.2090052E+04  0.7818608E-02  0.8565638E-01
         -1   -1    0    0    0  501 -0.00000000000E+00  0.00000000000E+00  0.10444089182E+04  0.10444089182E+04  0.00000000000E+00 0.  1.
          2   -1    0    0  501    0  0.00000000000E+00 -0.00000000000E+00 -0.10456433676E+04  0.10456433676E+04  0.00000000000E+00 0. -1.
         24    2    1    2    0    0  0.46797940180E+03 -0.67466546866E+03 -0.21589193344E+03  0.85282809407E+03  0.80797376188E+02 0.  0.
        254    2    1    2    0    0 -0.46797940180E+03  0.67466546866E+03  0.21465748409E+03  0.12372241918E+04  0.90025976814E+03 0.  0.
         23    2    4    4    0    0 -0.44704024729E+02  0.46768288583E+02  0.43034841998E+03  0.44437528676E+03  0.89910568120E+02 0.  0.
         23    2    4    4    0    0 -0.42327537707E+03  0.62789718007E+03 -0.21569093588E+03  0.79284890502E+03  0.93112259031E+02 0.  0.
          2    1    3    3  502    0  0.44436368407E+03 -0.66127249574E+03 -0.20021653272E+03  0.82147857995E+03  0.00000000000E+00 0. -1.
         -1    1    3    3    0  502  0.23615717731E+02 -0.13392972914E+02 -0.15675400726E+02  0.31349514117E+02  0.00000000000E+00 0.  1.
         13    1    5    5    0    0  0.20119262758E+02  0.35178758510E+02  0.22823001635E+03  0.23180006503E+03  0.00000000000E+00 0. -1.
        -13    1    5    5    0    0 -0.64823287488E+02  0.11589530073E+02  0.20211840363E+03  0.21257522173E+03  0.00000000000E+00 0.  1.
          1    1    6    6  503    0 -0.19162265040E+03  0.25029821795E+03 -0.46471585421E+02  0.31863465962E+03  0.00000000000E+00 0. -1.
         -1    1    6    6    0  503 -0.23165272667E+03  0.37759896212E+03 -0.16921935046E+03  0.47421424540E+03  0.00000000000E+00 0.  1.
<mgrwt>
<rscale>  0 0.20900519E+04</rscale>
<asrwt>0</asrwt>
<pdfrwt beam="1">  1        2 0.16086821E+00 0.20900519E+04</pdfrwt>
<pdfrwt beam="2">  1       -1 0.16067830E+00 0.20900519E+04</pdfrwt>
<totfact> 0.71564280E+00</totfact>
</mgrwt>
</event>
<event>
12    7  0.1606355E-007  0.1104888E+04  0.7818608E-02  0.9200440E-01
         -1   -1    0    0    0  501 -0.00000000000E+00  0.00000000000E+00  0.75271639123E+03  0.75271639123E+03  0.00000000000E+00 0.  1.
          2   -1    0    0  501    0  0.00000000000E+00 -0.00000000000E+00 -0.40545761165E+03  0.40545761165E+03  0.00000000000E+00 0. -1.
         24    2    1    2    0    0  0.18655912665E+03  0.12060577259E+02 -0.10333634914E+02  0.20544770595E+03  0.84570743214E+02 0.  0.
        254    2    1    2    0    0 -0.18655912665E+03 -0.12060577259E+02  0.35759241450E+03  0.95272629693E+03  0.86305579002E+03 0.  0.
         23    2    4    4    0    0  0.77831406853E+02 -0.35497890736E+03 -0.17520931591E+02  0.37430476310E+03  0.87916551741E+02 0.  0.
         23    2    4    4    0    0 -0.26439053350E+03  0.34291833011E+03  0.37511334609E+03  0.57842153383E+03  0.79787925494E+02 0.  0.
          2    1    3    3  502    0  0.75843997358E+02  0.25386548753E+02 -0.40885042150E+02  0.89824136313E+02  0.00000000000E+00 0. -1.
         -1    1    3    3    0  502  0.11071512929E+03 -0.13325971494E+02  0.30551407236E+02  0.11562356963E+03  0.00000000000E+00 0.  1.
         13    1    5    5    0    0  0.62856145282E+02 -0.34637186194E+03 -0.29533666394E+02  0.35326562131E+03  0.00000000000E+00 0. -1.
        -13    1    5    5    0    0  0.14975261571E+02 -0.86070454196E+01  0.12012734803E+02  0.21039141794E+02  0.00000000000E+00 0.  1.
          4    1    6    6  503    0 -0.13136603462E+03  0.19066034959E+03  0.24957129415E+03  0.34043242329E+03  0.00000000000E+00 0. -1.
         -4    1    6    6    0  503 -0.13302449888E+03  0.15225798052E+03  0.12554205193E+03  0.23798911054E+03  0.00000000000E+00 0.  1.
<mgrwt>
<rscale>  0 0.11048884E+04</rscale>
<asrwt>0</asrwt>
<pdfrwt beam="1">  1        2 0.62378094E-01 0.11048884E+04</pdfrwt>
<pdfrwt beam="2">  1       -1 0.11580252E+00 0.11048884E+04</pdfrwt>
<totfact> 0.60079523E+01</totfact>
</mgrwt>
</event>
<event>
12    7  0.1606355E-007  0.1159529E+04  0.7818608E-02  0.9149037E-01
         -1   -1    0    0    0  501 -0.00000000000E+00  0.00000000000E+00  0.88394053867E+02  0.88394053867E+02  0.00000000000E+00 0.  1.
          2   -1    0    0  501    0  0.00000000000E+00 -0.00000000000E+00 -0.38025953956E+04  0.38025953956E+04  0.00000000000E+00 0. -1.
         24    2    1    2    0    0  0.22511766960E+03 -0.12846997011E+03 -0.16358998936E+04  0.16583226927E+04  0.81750797032E+02 0.  0.
        254    2    1    2    0    0 -0.22511766960E+03  0.12846997011E+03 -0.20783014482E+04  0.22326667568E+04  0.77348654749E+03 0.  0.
         23    2    4    4    0    0 -0.37257824023E+03 -0.42870458960E+02 -0.18788227756E+04  0.19180416728E+04  0.90864817838E+02 0.  0.
         23    2    4    4    0    0  0.14746057063E+03  0.17134042907E+03 -0.19947867254E+03  0.31462508399E+03  0.89972441090E+02 0.  0.
          2    1    3    3  502    0  0.14718809900E+03 -0.11508233365E+03 -0.12926686132E+04  0.13061012302E+04  0.00000000000E+00 0. -1.
         -1    1    3    3    0  502  0.77929570606E+02 -0.13387636456E+02 -0.34323128042E+03  0.35222146250E+03  0.00000000000E+00 0.  1.
         13    1    5    5    0    0 -0.36506745296E+03 -0.50182928504E+02 -0.17279969733E+04  0.17668520343E+04  0.00000000000E+00 0. -1.
        -13    1    5    5    0    0 -0.75107872780E+01  0.73124695440E+01 -0.15082580235E+03  0.15118963850E+03  0.00000000000E+00 0.  1.
          3    1    6    6  503    0  0.14152088599E+03  0.11408598774E+03 -0.17414721775E+03  0.25173602686E+03  0.00000000000E+00 0. -1.
         -3    1    6    6    0  503  0.59396846375E+01  0.57254441322E+02 -0.25331454794E+02  0.62889057130E+02  0.00000000000E+00 0.  1.
<mgrwt>
<rscale>  0 0.11595289E+04</rscale>
<asrwt>0</asrwt>
<pdfrwt beam="1">  1        2 0.58501482E+00 0.11595289E+04</pdfrwt>
<pdfrwt beam="2">  1       -1 0.13599082E-01 0.11595289E+04</pdfrwt>
<totfact> 0.22051216E+01</totfact>
</mgrwt>
</event>
<event>
12    7  0.1606355E-007  0.1561483E+04  0.7818608E-02  0.8844566E-01
         -1   -1    0    0    0  501 -0.00000000000E+00  0.00000000000E+00  0.85740475902E+03  0.85740475902E+03  0.00000000000E+00 0.  1.
          2   -1    0    0  501    0  0.00000000000E+00 -0.00000000000E+00 -0.71093335582E+03  0.71093335582E+03  0.00000000000E+00 0. -1.
         24    2    1    2    0    0 -0.30693977413E+03 -0.37792699713E+03 -0.12092126936E+03  0.50807799928E+03  0.80501303518E+02 0.  0.
        254    2    1    2    0    0  0.30693977413E+03  0.37792699713E+03  0.26739267256E+03  0.10602601156E+04  0.90311230265E+03 0.  0.
         23    2    4    4    0    0 -0.19461622286E+03  0.44602554225E+03  0.22455308986E+03  0.54409551454E+03  0.93816737503E+02 0.  0.
         23    2    4    4    0    0  0.50155599699E+03 -0.68098545121E+02  0.42839582701E+02  0.51616460102E+03  0.91623335111E+02 0.  0.
          2    1    3    3  502    0 -0.33307638973E+02 -0.77707676983E+02 -0.41482947452E+02  0.94173864768E+02  0.00000000000E+00 0. -1.
         -1    1    3    3    0  502 -0.27363213516E+03 -0.30021932014E+03 -0.79438321913E+02  0.41390413451E+03  0.00000000000E+00 0.  1.
         13    1    5    5    0    0 -0.11567881440E+03  0.17118830045E+03  0.12410765553E+03  0.24101811649E+03  0.00000000000E+00 0.  1.
        -13    1    5    5    0    0 -0.78937408461E+02  0.27483724179E+03  0.10044543433E+03  0.30307739805E+03  0.00000000000E+00 0. -1.
          2    1    6    6  503    0  0.26900740952E+03 -0.46329168225E+02  0.67821672364E+02  0.28126705717E+03  0.00000000000E+00 0. -1.
         -2    1    6    6    0  503  0.23254858747E+03 -0.21769376896E+02 -0.24982089663E+02  0.23489754385E+03  0.00000000000E+00 0.  1.
<mgrwt>
<rscale>  0 0.15614835E+04</rscale>
<asrwt>0</asrwt>
<pdfrwt beam="1">  1        2 0.10937436E+00 0.15614835E+04</pdfrwt>
<pdfrwt beam="2">  1       -1 0.13190843E+00 0.15614835E+04</pdfrwt>
<totfact> 0.21570103E+01</totfact>
</mgrwt>
</event>
<event>
12    7  0.1606355E-007  0.1600585E+04  0.7818608E-02  0.8820189E-01
         -1   -1    0    0    0  501 -0.00000000000E+00  0.00000000000E+00  0.16877357519E+03  0.16877357519E+03  0.00000000000E+00 0.  1.
          2   -1    0    0  501    0  0.00000000000E+00 -0.00000000000E+00 -0.37948345450E+04  0.37948345450E+04  0.00000000000E+00 0. -1.
         24    2    1    2    0    0 -0.44021273316E+03  0.12916499185E+03 -0.52286685768E+03  0.70031791976E+03  0.81145500959E+02 0.  0.
        254    2    1    2    0    0  0.44021273316E+03 -0.12916499185E+03 -0.31031941121E+04  0.32632902004E+04  0.89932107118E+03 0.  0.
         23    2    4    4    0    0  0.16125372647E+03 -0.46054976165E+03 -0.10298299611E+04  0.11432195462E+04  0.91062257428E+02 0.  0.
         23    2    4    4    0    0  0.27895900669E+03  0.33138476980E+03 -0.20733641510E+04  0.21200706542E+04  0.90701064811E+02 0.  0.
          2    1    3    3  502    0 -0.31403848811E+03  0.88429105742E+02 -0.31325383662E+03  0.45229176968E+03  0.00000000000E+00 0. -1.
         -1    1    3    3    0  502 -0.12617424505E+03  0.40735886110E+02 -0.20961302105E+03  0.24802615008E+03  0.00000000000E+00 0.  1.
         13    1    5    5    0    0 -0.37208453304E+01 -0.21280233833E+02 -0.18914747527E+02  0.28713423969E+02  0.00000000000E+00 0.  1.
        -13    1    5    5    0    0  0.16497457180E+03 -0.43926952782E+03 -0.10109152136E+04  0.11145061222E+04  0.00000000000E+00 0. -1.
          3    1    6    6  503    0  0.20385493132E+03  0.25909655409E+03 -0.17338355582E+04  0.17649004505E+04  0.00000000000E+00 0. -1.
         -3    1    6    6    0  503  0.75104075363E+02  0.72288215707E+02 -0.33952859280E+03  0.35517020370E+03  0.00000000000E+00 0.  1.
<mgrwt>
<rscale>  0 0.16005846E+04</rscale>
<asrwt>0</asrwt>
<pdfrwt beam="1">  1        2 0.58382067E+00 0.16005846E+04</pdfrwt>
<pdfrwt beam="2">  1       -1 0.25965167E-01 0.16005846E+04</pdfrwt>
<totfact> 0.72185198E+00</totfact>
</mgrwt>
</event>
<event>
12    7  0.1606355E-007  0.1535010E+04  0.7818608E-02  0.8861500E-01
          2   -1    0    0  501    0  0.00000000000E+00  0.00000000000E+00  0.36248608432E+04  0.36248608432E+04  0.00000000000E+00 0. -1.
         -1   -1    0    0    0  501 -0.00000000000E+00 -0.00000000000E+00 -0.16250669086E+03  0.16250669086E+03  0.00000000000E+00 0.  1.
         24    2    1    2    0    0  0.17488911035E+03  0.14680438106E+03  0.42592050349E+02  0.24534055221E+03  0.78994788355E+02 0.  0.
        254    2    1    2    0    0 -0.17488911035E+03 -0.14680438106E+03  0.34197621020E+04  0.35420269818E+04  0.89389293473E+03 0.  0.
         23    2    4    4    0    0 -0.94578845782E+02  0.35958689333E+03  0.10910258655E+04  0.11560801538E+04  0.89084178436E+02 0.  0.
         23    2    4    4    0    0 -0.80310264565E+02 -0.50639127439E+03  0.23287362365E+04  0.23859468281E+04  0.82752316523E+02 0.  0.
          2    1    3    3  502    0  0.40291557126E+02  0.22853976470E+02  0.41753902434E+02  0.62362666593E+02  0.00000000000E+00 0. -1.
         -1    1    3    3    0  502  0.13459755322E+03  0.12395040459E+03  0.83814791453E+00  0.18297788561E+03  0.00000000000E+00 0.  1.
         13    1    5    5    0    0 -0.10937424320E+03  0.30745001773E+03  0.89237262473E+03  0.95016690104E+03  0.00000000000E+00 0.  1.
        -13    1    5    5    0    0  0.14795397422E+02  0.52136875600E+02  0.19865324076E+03  0.20591325272E+03  0.00000000000E+00 0. -1.
          3    1    6    6  503    0  0.15353477094E+02 -0.12796185921E+03  0.55427132326E+03  0.56905770047E+03  0.00000000000E+00 0. -1.
         -3    1    6    6    0  503 -0.95663741659E+02 -0.37842941518E+03  0.17744649132E+04  0.18168891276E+04  0.00000000000E+00 0.  1.
<mgrwt>
<rscale>  0 0.15350103E+04</rscale>
<asrwt>0</asrwt>
<pdfrwt beam="1">  1        2 0.55767084E+00 0.15350103E+04</pdfrwt>
<pdfrwt beam="2">  1       -1 0.25001032E-01 0.15350103E+04</pdfrwt>
<totfact> 0.10338586E+01</totfact>
</mgrwt>
</event>
<event>
12    7  0.1606355E-007  0.2940313E+04  0.7818608E-02  0.8260983E-01
         -1   -1    0    0    0  501 -0.00000000000E+00  0.00000000000E+00  0.42029653073E+03  0.42029653073E+03  0.00000000000E+00 0.  1.
          2   -1    0    0  501    0  0.00000000000E+00 -0.00000000000E+00 -0.51424651741E+04  0.51424651741E+04  0.00000000000E+00 0. -1.
         24    2    1    2    0    0 -0.67932785869E+03  0.88500126786E+03 -0.77841162395E+03  0.13620471236E+04  0.67335926216E+02 0.  0.
        254    2    1    2    0    0  0.67932785869E+03 -0.88500126786E+03 -0.39437570194E+04  0.42007145812E+04  0.92090715106E+03 0.  0.
         23    2    4    4    0    0  0.21833292254E+03  0.16988611347E+03 -0.84325922786E+03  0.89220410515E+03  0.91714138823E+02 0.  0.
         23    2    4    4    0    0  0.46099493615E+03 -0.10548873813E+04 -0.31004977915E+04  0.33085104760E+04  0.88607540805E+02 0.  0.
          4    1    3    3  502    0 -0.56910869357E+03  0.70964219410E+03 -0.65511885179E+03  0.11210073411E+04  0.00000000000E+00 0. -1.
         -3    1    3    3    0  502 -0.11021916513E+03  0.17535907376E+03 -0.12329277216E+03  0.24103978257E+03  0.00000000000E+00 0.  1.
         13    1    5    5    0    0  0.11338905527E+03  0.32006300295E+02 -0.36308001184E+03  0.38171792741E+03  0.00000000000E+00 0. -1.
        -13    1    5    5    0    0  0.10494386727E+03  0.13787981318E+03 -0.48017921603E+03  0.51048617774E+03  0.00000000000E+00 0.  1.
          3    1    6    6  503    0  0.20836374561E+03 -0.37932793246E+03 -0.12141082515E+04  0.12889390898E+04  0.00000000000E+00 0. -1.
         -3    1    6    6    0  503  0.25263119054E+03 -0.67555944888E+03 -0.18863895400E+04  0.20195713862E+04  0.00000000000E+00 0.  1.
<mgrwt>
<rscale>  0 0.29403131E+04</rscale>
<asrwt>0</asrwt>
<pdfrwt beam="1">  1        2 0.79114849E+00 0.29403131E+04</pdfrwt>
<pdfrwt beam="2">  1       -1 0.64661005E-01 0.29403131E+04</pdfrwt>
<totfact> 0.52766116E-02</totfact>
</mgrwt>
</event>
<event>
12    7  0.1606355E-007  0.2277136E+04  0.7818608E-02  0.8486991E-01
          2   -1    0    0  501    0  0.00000000000E+00  0.00000000000E+00  0.67392473222E+03  0.67392473222E+03  0.00000000000E+00 0. -1.
         -1   -1    0    0    0  501 -0.00000000000E+00 -0.00000000000E+00 -0.19235640147E+04  0.19235640147E+04  0.00000000000E+00 0.  1.
         24    2    1    2    0    0  0.22375103121E+03 -0.38328308504E+03  0.43647306965E+03  0.62764386523E+03  0.80359403833E+02 0.  0.
        254    2    1    2    0    0 -0.22375103121E+03  0.38328308504E+03 -0.16861123521E+04  0.19698448817E+04  0.91670253992E+03 0.  0.
         23    2    4    4    0    0  0.23646845540E+03  0.32762665696E+03 -0.12854813788E+04  0.13504639434E+04  0.89632195999E+02 0.  0.
         23    2    4    4    0    0 -0.46021948661E+03  0.55656428081E+02 -0.40063097334E+03  0.61938093826E+03  0.90708081465E+02 0.  0.
          4    1    3    3  502    0  0.21912863741E+03 -0.35200841504E+03  0.42565403498E+03  0.59422945188E+03  0.00000000000E+00 0. -1.
         -3    1    3    3    0  502  0.46223937984E+01 -0.31274669996E+02  0.10819034671E+02  0.33414413343E+02  0.00000000000E+00 0.  1.
         13    1    5    5    0    0  0.85604189835E+00  0.48864087083E+02 -0.15403038863E+03  0.16159762509E+03  0.00000000000E+00 0.  1.
        -13    1    5    5    0    0  0.23561241350E+03  0.27876256987E+03 -0.11314509901E+04  0.11888663183E+04  0.00000000000E+00 0. -1.
          2    1    6    6  503    0 -0.33219041032E+03  0.74137069078E+02 -0.31857699762E+03  0.46619532079E+03  0.00000000000E+00 0. -1.
         -2    1    6    6    0  503 -0.12802907629E+03 -0.18480640997E+02 -0.82053975718E+02  0.15318561746E+03  0.00000000000E+00 0.  1.
<mgrwt>
<rscale>  0 0.22771362E+04</rscale>
<asrwt>0</asrwt>
<pdfrwt beam="1">  1        2 0.10368073E+00 0.22771362E+04</pdfrwt>
<pdfrwt beam="2">  1       -1 0.29593292E+00 0.22771362E+04</pdfrwt>
<totfact> 0.15638552E+00</totfact>
</mgrwt>
</event>
<event>
12    7  0.1606355E-007  0.1315228E+04  0.7818608E-02  0.9017575E-01
          2   -1    0    0  501    0  0.00000000000E+00  0.00000000000E+00  0.46853309392E+03  0.46853309392E+03  0.00000000000E+00 0. -1.
         -1   -1    0    0    0  501 -0.00000000000E+00 -0.00000000000E+00 -0.92300062501E+03  0.92300062501E+03  0.00000000000E+00 0.  1.
         24    2    1    2    0    0 -0.32767523625E+03 -0.99558109983E+02 -0.79807366354E+02  0.36092103211E+03  0.81313578099E+02 0.  0.
        254    2    1    2    0    0  0.32767523625E+03  0.99558109983E+02 -0.37466016473E+03  0.10306126868E+04  0.89694447625E+03 0.  0.
         23    2    4    4    0    0  0.42735706461E+03 -0.37650290451E+02 -0.59444867086E+03  0.73866906521E+03  0.90615454337E+02 0.  0.
         23    2    4    4    0    0 -0.99681828368E+02  0.13720840043E+03  0.21978850613E+03  0.29194362161E+03  0.90340902784E+02 0.  0.
          2    1    3    3  502    0 -0.78016443221E+02  0.43460649088E+01 -0.39374768547E+02  0.87497577630E+02  0.00000000000E+00 0. -1.
         -1    1    3    3    0  502 -0.24965879303E+03 -0.10390417489E+03 -0.40432597807E+02  0.27342345448E+03  0.00000000000E+00 0.  1.
         13    1    5    5    0    0  0.11283822814E+03 -0.25490613963E+02 -0.10201956490E+03  0.15424081416E+03  0.00000000000E+00 0.  1.
        -13    1    5    5    0    0  0.31451883647E+03 -0.12159676488E+02 -0.49242910596E+03  0.58442825105E+03  0.00000000000E+00 0. -1.
          3    1    6    6  503    0 -0.30344628840E+02  0.85117183494E+02  0.16846450772E+03  0.19117013833E+03  0.00000000000E+00 0. -1.
         -3    1    6    6    0  503 -0.69337199528E+02  0.52091216940E+02  0.51323998404E+02  0.10077348328E+03  0.00000000000E+00 0.  1.
<mgrwt>
<rscale>  0 0.13152283E+04</rscale>
<asrwt>0</asrwt>
<pdfrwt beam="1">  1        2 0.72082015E-01 0.13152283E+04</pdfrwt>
<pdfrwt beam="2">  1       -1 0.14200009E+00 0.13152283E+04</pdfrwt>
<totfact> 0.30032596E+01</totfact>
</mgrwt>
</event>
<event>
12    7  0.1606355E-007  0.1311775E+04  0.7818608E-02  0.9020279E-01
          2   -1    0    0  501    0  0.00000000000E+00  0.00000000000E+00  0.13508067006E+04  0.13508067006E+04  0.00000000000E+00 0. -1.
         -3   -1    0    0    0  501 -0.00000000000E+00 -0.00000000000E+00 -0.31846796417E+03  0.31846796417E+03  0.00000000000E+00 0.  1.
         24    2    1    2    0    0  0.15891204264E+03  0.21685195730E+03  0.60819936104E+03  0.66967969724E+03  0.79288242799E+02 0.  0.
        254    2    1    2    0    0 -0.15891204264E+03 -0.21685195730E+03  0.42413937542E+03  0.99959496755E+03  0.86430207722E+03 0.  0.
         23    2    4    4    0    0  0.18224513514E+03 -0.40879160058E+03  0.67051909540E+02  0.46166234473E+03  0.91171815682E+02 0.  0.
         23    2    4    4    0    0 -0.34115717777E+03  0.19193964329E+03  0.35708746588E+03  0.53793262282E+03  0.92903185088E+02 0.  0.
          2    1    3    3  502    0  0.90936247433E+02  0.61446443126E+02  0.26586043363E+03  0.28762273318E+03  0.00000000000E+00 0. -1.
         -1    1    3    3    0  502  0.67975795203E+02  0.15540551417E+03  0.34233892740E+03  0.38205696406E+03  0.00000000000E+00 0.  1.
         13    1    5    5    0    0  0.11184825660E+03 -0.14491402863E+03  0.38549959723E+02  0.18707273343E+03  0.00000000000E+00 0. -1.
        -13    1    5    5    0    0  0.70396878539E+02 -0.26387757195E+03  0.28501949818E+02  0.27458961130E+03  0.00000000000E+00 0.  1.
          2    1    6    6  503    0 -0.12370122725E+03  0.54056711922E+02  0.69209045968E+02  0.15170370388E+03  0.00000000000E+00 0. -1.
         -2    1    6    6    0  503 -0.21745595053E+03  0.13788293137E+03  0.28787841991E+03  0.38622891895E+03  0.00000000000E+00 0.  1.
<mgrwt>
<rscale>  0 0.13117754E+04</rscale>
<asrwt>0</asrwt>
<pdfrwt beam="1">  1        2 0.20781641E+00 0.13117754E+04</pdfrwt>
<pdfrwt beam="2">  1       -3 0.48995072E-01 0.13117754E+04</pdfrwt>
<totfact> 0.40018822E+01</totfact>
</mgrwt>
</event>
<event>
12    7  0.1606355E-007  0.2788920E+04  0.7818608E-02  0.8306716E-01
          2   -1    0    0  501    0  0.00000000000E+00  0.00000000000E+00  0.25370245657E+04  0.25370245657E+04  0.00000000000E+00 0. -1.
         -1   -1    0    0    0  501 -0.00000000000E+00 -0.00000000000E+00 -0.76645657935E+03  0.76645657935E+03  0.00000000000E+00 0.  1.
         24    2    1    2    0    0  0.52630881962E+03  0.10279696200E+04  0.13662501900E+04  0.17907254416E+04  0.79595932330E+02 0.  0.
        254    2    1    2    0    0 -0.52630881962E+03 -0.10279696200E+04  0.40431779641E+03  0.15127557035E+04  0.88951358883E+03 0.  0.
         23    2    4    4    0    0 -0.49196146167E+03 -0.90810533447E+03  0.64627582714E+03  0.12220886655E+04  0.95639339234E+02 0.  0.
         23    2    4    4    0    0 -0.34347357945E+02 -0.11986428550E+03 -0.24195803072E+03  0.29066703802E+03  0.10196298557E+03 0.  0.
          2    1    3    3  502    0  0.39014578534E+03  0.69201666872E+03  0.96658130998E+03  0.12511515625E+04  0.00000000000E+00 0. -1.
         -1    1    3    3    0  502  0.13616303428E+03  0.33595295125E+03  0.39966887997E+03  0.53957387907E+03  0.00000000000E+00 0.  1.
         13    1    5    5    0    0 -0.48357714905E+02 -0.14915358904E+03  0.12067781130E+03  0.19785953566E+03  0.00000000000E+00 0. -1.
        -13    1    5    5    0    0 -0.44360374677E+03 -0.75895174544E+03  0.52559801584E+03  0.10242291298E+04  0.00000000000E+00 0.  1.
          4    1    6    6  503    0 -0.24804175645E+02 -0.45200630345E+02 -0.18345428635E+02  0.54725669158E+02  0.00000000000E+00 0. -1.
         -4    1    6    6    0  503 -0.95431822997E+01 -0.74663655150E+02 -0.22361260209E+03  0.23594136887E+03  0.00000000000E+00 0.  1.
<mgrwt>
<rscale>  0 0.27889203E+04</rscale>
<asrwt>0</asrwt>
<pdfrwt beam="1">  1        2 0.39031147E+00 0.27889203E+04</pdfrwt>
<pdfrwt beam="2">  1       -1 0.11791640E+00 0.27889203E+04</pdfrwt>
<totfact> 0.21188504E+00</totfact>
</mgrwt>
</event>
<event>
12    7  0.1606355E-007  0.1280641E+04  0.7818608E-02  0.9045059E-01
         -1   -1    0    0    0  501 -0.00000000000E+00  0.00000000000E+00  0.18335852275E+03  0.18335852275E+03  0.00000000000E+00 0.  1.
          2   -1    0    0  501    0  0.00000000000E+00 -0.00000000000E+00 -0.22361144637E+04  0.22361144637E+04  0.00000000000E+00 0. -1.
         24    2    1    2    0    0  0.25659630326E+03  0.54897284150E+01 -0.86088303230E+03  0.90188236186E+03  0.80002495980E+02 0.  0.
        254    2    1    2    0    0 -0.25659630326E+03 -0.54897284150E+01 -0.11918729086E+04  0.15175906246E+04  0.90368604809E+03 0.  0.
         23    2    4    4    0    0 -0.42352046297E+03 -0.37821124509E+02 -0.12448197662E+04  0.13185522325E+04  0.90574386425E+02 0.  0.
         23    2    4    4    0    0  0.16692415972E+03  0.32331396094E+02  0.52946857600E+02  0.19903839205E+03  0.88903979162E+02 0.  0.
          2    1    3    3  502    0  0.23272454614E+03  0.22608942375E+02 -0.81057981337E+03  0.84362996183E+03  0.00000000000E+00 0. -1.
         -1    1    3    3    0  502  0.23871757111E+02 -0.17119213960E+02 -0.50303218931E+02  0.58252400027E+02  0.00000000000E+00 0.  1.
         13    1    5    5    0    0 -0.17311328954E+02 -0.22312318126E+02 -0.80649350708E+02  0.85450801166E+02  0.00000000000E+00 0. -1.
        -13    1    5    5    0    0 -0.40620913402E+03 -0.15508806384E+02 -0.11641704155E+04  0.12331014313E+04  0.00000000000E+00 0.  1.
          4    1    6    6  503    0  0.91911995350E+01  0.49589248200E+01 -0.20421151335E+02  0.22936706523E+02  0.00000000000E+00 0. -1.
         -4    1    6    6    0  503  0.15773296018E+03  0.27372471274E+02  0.73368008936E+02  0.17610168553E+03  0.00000000000E+00 0.  1.
<mgrwt>
<rscale>  0 0.12806415E+04</rscale>
<asrwt>0</asrwt>
<pdfrwt beam="1">  1        2 0.34401761E+00 0.12806415E+04</pdfrwt>
<pdfrwt beam="2">  1       -1 0.28209004E-01 0.12806415E+04</pdfrwt>
<totfact> 0.62762288E+01</totfact>
</mgrwt>
</event>
<event>
12    7  0.1606355E-007  0.2070955E+04  0.7818608E-02  0.8574147E-01
          2   -1    0    0  501    0  0.00000000000E+00  0.00000000000E+00  0.19918846833E+04  0.19918846833E+04  0.00000000000E+00 0. -1.
         -1   -1    0    0    0  501 -0.00000000000E+00 -0.00000000000E+00 -0.53829085470E+03  0.53829085470E+03  0.00000000000E+00 0.  1.
         24    2    1    2    0    0 -0.53578106081E+02  0.12625457088E+02  0.14440886990E+04  0.14474145674E+04  0.81158756688E+02 0.  0.
        254    2    1    2    0    0  0.53578106081E+02 -0.12625457088E+02  0.95051296696E+01  0.10827609707E+04  0.10813190817E+04 0.  0.
         23    2    4    4    0    0 -0.34362281188E+03 -0.37069616301E+03  0.12409499244E+03  0.52842561196E+03  0.91333335183E+02 0.  0.
         23    2    4    4    0    0  0.39720091796E+03  0.35807070593E+03 -0.11458986277E+03  0.55433535869E+03  0.90408260567E+02 0.  0.
          4    1    3    3  502    0 -0.68933116192E+02 -0.77272205485E+01  0.11986174632E+04  0.12006228832E+04  0.00000000000E+00 0. -1.
         -3    1    3    3    0  502  0.15355010111E+02  0.20352677636E+02  0.24547123575E+03  0.24679168423E+03  0.00000000000E+00 0.  1.
         13    1    5    5    0    0 -0.27131257263E+03 -0.25347829262E+03  0.58507429502E+02  0.37587880521E+03  0.00000000000E+00 0.  1.
        -13    1    5    5    0    0 -0.72310239242E+02 -0.11721787040E+03  0.65587562935E+02  0.15254680675E+03  0.00000000000E+00 0. -1.
          2    1    6    6  503    0  0.19052305058E+03  0.23169060075E+03 -0.69672775958E+02  0.30795107239E+03  0.00000000000E+00 0. -1.
         -2    1    6    6    0  503  0.20667786738E+03  0.12638010518E+03 -0.44917086809E+02  0.24638428630E+03  0.00000000000E+00 0.  1.
<mgrwt>
<rscale>  0 0.20709547E+04</rscale>
<asrwt>0</asrwt>
<pdfrwt beam="1">  1        2 0.30644379E+00 0.20709547E+04</pdfrwt>
<pdfrwt beam="2">  1       -1 0.82813979E-01 0.20709547E+04</pdfrwt>
<totfact> 0.10283006E+01</totfact>
</mgrwt>
</event>
<event>
12    7  0.1606355E-007  0.2462930E+04  0.7818608E-02  0.8416312E-01
         -1   -1    0    0    0  501 -0.00000000000E+00  0.00000000000E+00  0.98338491255E+03  0.98338491255E+03  0.00000000000E+00 0.  1.
          2   -1    0    0  501    0  0.00000000000E+00 -0.00000000000E+00 -0.15421282447E+04  0.15421282447E+04  0.00000000000E+00 0. -1.
         24    2    1    2    0    0 -0.37047654899E+03 -0.99526228902E+03 -0.34770904197E+03  0.11202862936E+04  0.79623517352E+02 0.  0.
        254    2    1    2    0    0  0.37047654899E+03  0.99526228902E+03 -0.21103429016E+03  0.14052268636E+04  0.89572717347E+03 0.  0.
         23    2    4    4    0    0  0.56914372066E+03  0.60456575960E+03 -0.39150449335E+03  0.92256540030E+03  0.91797696465E+02 0.  0.
         23    2    4    4    0    0 -0.19866717167E+03  0.39069652941E+03  0.18047020318E+03  0.48266146331E+03  0.90995443460E+02 0.  0.
          4    1    3    3  502    0 -0.18362690549E+02 -0.10520489540E+03 -0.20634752826E+02  0.10877063686E+03  0.00000000000E+00 0. -1.
         -3    1    3    3    0  502 -0.35211385844E+03 -0.89005739362E+03 -0.32707428915E+03  0.10115156568E+04  0.00000000000E+00 0.  1.
         13    1    5    5    0    0  0.14530175350E+03  0.13437640837E+03 -0.53803135017E+02  0.20509606538E+03  0.00000000000E+00 0. -1.
        -13    1    5    5    0    0  0.42384196716E+03  0.47018935124E+03 -0.33770135833E+03  0.71746933493E+03  0.00000000000E+00 0.  1.
          1    1    6    6  503    0  0.99193162170E+01  0.16946210584E+02  0.80700673256E+01  0.21229528351E+02  0.00000000000E+00 0. -1.
         -1    1    6    6    0  503 -0.20858648789E+03  0.37375031883E+03  0.17240013585E+03  0.46143193496E+03  0.00000000000E+00 0.  1.
<mgrwt>
<rscale>  0 0.24629297E+04</rscale>
<asrwt>0</asrwt>
<pdfrwt beam="1">  1        2 0.23725050E+00 0.24629297E+04</pdfrwt>
<pdfrwt beam="2">  1       -1 0.15128999E+00 0.24629297E+04</pdfrwt>
<totfact> 0.41745986E+00</totfact>
</mgrwt>
</event>
<event>
12    7  0.1606355E-007  0.1568060E+04  0.7818608E-02  0.8840414E-01
          2   -1    0    0  501    0  0.00000000000E+00  0.00000000000E+00  0.19179539295E+04  0.19179539295E+04  0.00000000000E+00 0. -1.
         -1   -1    0    0    0  501 -0.00000000000E+00 -0.00000000000E+00 -0.32049943014E+03  0.32049943014E+03  0.00000000000E+00 0.  1.
         24    2    1    2    0    0 -0.37508759600E+03 -0.36173590367E+03  0.50594985131E+03  0.73067154066E+03  0.79699934855E+02 0.  0.
        254    2    1    2    0    0  0.37508759600E+03  0.36173590367E+03  0.10915046480E+04  0.15077818190E+04  0.90026665398E+03 0.  0.
         23    2    4    4    0    0 -0.10740536147E+02  0.47893859430E+03  0.95569087352E+03  0.10728094558E+04  0.89875171806E+02 0.  0.
         23    2    4    4    0    0  0.38582813215E+03 -0.11720269063E+03  0.13581377452E+03  0.43497236317E+03  0.90309230587E+02 0.  0.
          4    1    3    3  502    0 -0.16605825406E+03 -0.20774048429E+03  0.22779170493E+03  0.35017211966E+03  0.00000000000E+00 0. -1.
         -3    1    3    3    0  502 -0.20902934194E+03 -0.15399541937E+03  0.27815814638E+03  0.38049942100E+03  0.00000000000E+00 0.  1.
         13    1    5    5    0    0  0.26358796973E+02  0.16562614539E+03  0.40120432624E+03  0.43484677487E+03  0.00000000000E+00 0. -1.
        -13    1    5    5    0    0 -0.37099333120E+02  0.31331244891E+03  0.55448654728E+03  0.63796268094E+03  0.00000000000E+00 0.  1.
          1    1    6    6  503    0  0.35530751869E+03 -0.13064072295E+03  0.13398267192E+03  0.40157413725E+03  0.00000000000E+00 0. -1.
         -1    1    6    6    0  503  0.30520613455E+02  0.13438032319E+02  0.18311025994E+01  0.33398225926E+02  0.00000000000E+00 0.  1.
<mgrwt>
<rscale>  0 0.15680601E+04</rscale>
<asrwt>0</asrwt>
<pdfrwt beam="1">  1        2 0.29506983E+00 0.15680601E+04</pdfrwt>
<pdfrwt beam="2">  1       -1 0.49307606E-01 0.15680601E+04</pdfrwt>
<totfact> 0.33498179E+01</totfact>
</mgrwt>
</event>
<event>
12    7  0.1606355E-007  0.1730511E+04  0.7818608E-02  0.8744152E-01
          2   -1    0    0  501    0  0.00000000000E+00  0.00000000000E+00  0.67204009893E+03  0.67204009893E+03  0.00000000000E+00 0. -1.
         -1   -1    0    0    0  501 -0.00000000000E+00 -0.00000000000E+00 -0.11140215071E+04  0.11140215071E+04  0.00000000000E+00 0.  1.
         24    2    1    2    0    0  0.62941516558E+02  0.37433055441E+03 -0.67361740916E+03  0.77724674399E+03  0.79164945789E+02 0.  0.
        254    2    1    2    0    0 -0.62941516558E+02 -0.37433055441E+03  0.23163600097E+03  0.10088148621E+04  0.90552039762E+03 0.  0.
         23    2    4    4    0    0  0.78793896419E+02 -0.64619868292E+03  0.10962965525E+03  0.66650997682E+03  0.91845914285E+02 0.  0.
         23    2    4    4    0    0 -0.14173541298E+03  0.27186812851E+03  0.12200634571E+03  0.34230488524E+03  0.91026806369E+02 0.  0.
          4    1    3    3  502    0  0.12068296249E+02  0.20604869937E+03 -0.29770986781E+03  0.36226078408E+03  0.00000000000E+00 0. -1.
         -3    1    3    3    0  502  0.50873220308E+02  0.16828185504E+03 -0.37590754135E+03  0.41498595991E+03  0.00000000000E+00 0.  1.
         13    1    5    5    0    0  0.74263844298E+02 -0.62468554231E+03  0.12269217698E+03  0.64093721661E+03  0.00000000000E+00 0.  1.
        -13    1    5    5    0    0  0.45300521209E+01 -0.21513140613E+02 -0.13062521726E+02  0.25572760216E+02  0.00000000000E+00 0. -1.
          2    1    6    6  503    0 -0.11845263089E+03  0.12956674157E+03  0.70740339776E+02  0.18926902007E+03  0.00000000000E+00 0. -1.
         -2    1    6    6    0  503 -0.23282782090E+02  0.14230138694E+03  0.51266005938E+02  0.15303586518E+03  0.00000000000E+00 0.  1.
<mgrwt>
<rscale>  0 0.17305111E+04</rscale>
<asrwt>0</asrwt>
<pdfrwt beam="1">  1        2 0.10339078E+00 0.17305111E+04</pdfrwt>
<pdfrwt beam="2">  1       -1 0.17138793E+00 0.17305111E+04</pdfrwt>
<totfact> 0.11238583E+01</totfact>
</mgrwt>
</event>
<event>
12    7  0.1606355E-007  0.1089629E+04  0.7818608E-02  0.9215360E-01
         -1   -1    0    0    0  501 -0.00000000000E+00  0.00000000000E+00  0.23609468178E+03  0.23609468178E+03  0.00000000000E+00 0.  1.
          2   -1    0    0  501    0  0.00000000000E+00 -0.00000000000E+00 -0.12572185770E+04  0.12572185770E+04  0.00000000000E+00 0. -1.
         24    2    1    2    0    0  0.62387755105E+02 -0.14058378715E+03 -0.22630181491E+03  0.28518316373E+03  0.80379675587E+02 0.  0.
        254    2    1    2    0    0 -0.62387755105E+02  0.14058378715E+03 -0.79482208029E+03  0.12081300950E+04  0.89676092354E+03 0.  0.
         23    2    4    4    0    0 -0.15416915892E+03 -0.23331434739E+03 -0.75671352104E+03  0.81190410714E+03  0.91483397408E+02 0.  0.
         23    2    4    4    0    0  0.91781403812E+02  0.37389813454E+03 -0.38108559251E+02  0.39622598789E+03  0.85551914604E+02 0.  0.
          2    1    3    3  502    0  0.24043586634E+02 -0.97309814054E+02 -0.19543706920E+03  0.21964275992E+03  0.00000000000E+00 0. -1.
         -1    1    3    3    0  502  0.38344168471E+02 -0.43273973099E+02 -0.30864745707E+02  0.65540403806E+02  0.00000000000E+00 0.  1.
         13    1    5    5    0    0 -0.10965076092E+03 -0.22013410063E+03 -0.59965500251E+03  0.64812686541E+03  0.00000000000E+00 0. -1.
        -13    1    5    5    0    0 -0.44518398000E+02 -0.13180246762E+02 -0.15705851854E+03  0.16377724173E+03  0.00000000000E+00 0.  1.
          1    1    6    6  503    0  0.67526585439E+02  0.30283218920E+03  0.36778375694E+01  0.31029131642E+03  0.00000000000E+00 0. -1.
         -1    1    6    6    0  503  0.24254818373E+02  0.71065945346E+02 -0.41786396820E+02  0.85934671474E+02  0.00000000000E+00 0.  1.
<mgrwt>
<rscale>  0 0.10896286E+04</rscale>
<asrwt>0</asrwt>
<pdfrwt beam="1">  1        2 0.19341824E+00 0.10896286E+04</pdfrwt>
<pdfrwt beam="2">  1       -1 0.36322259E-01 0.10896286E+04</pdfrwt>
<totfact> 0.14381720E+02</totfact>
</mgrwt>
</event>
<event>
12    7  0.1606355E-007  0.1243209E+04  0.7818608E-02  0.9075854E-01
         -3   -1    0    0    0  501 -0.00000000000E+00  0.00000000000E+00  0.12393494044E+04  0.12393494044E+04  0.00000000000E+00 0.  1.
          4   -1    0    0  501    0  0.00000000000E+00 -0.00000000000E+00 -0.31177034913E+03  0.31177034913E+03  0.00000000000E+00 0. -1.
         24    2    1    2    0    0 -0.23421313022E+02 -0.27654856378E+03  0.29449493293E+03  0.41204423410E+03  0.77624218551E+02 0.  0.
        254    2    1    2    0    0  0.23421313022E+02  0.27654856378E+03  0.63308412237E+03  0.11390755194E+04  0.90535620999E+03 0.  0.
         23    2    4    4    0    0 -0.31878238664E+03  0.28724399222E+03  0.65029457717E+03  0.78436217857E+03  0.90607223658E+02 0.  0.
         23    2    4    4    0    0  0.34220369966E+03 -0.10695428442E+02 -0.17210454804E+02  0.35471334087E+03  0.91145982829E+02 0.  0.
          2    1    3    3  502    0  0.29839134867E+01 -0.12594334842E+03  0.82223927467E+02  0.15043737899E+03  0.00000000000E+00 0. -1.
         -1    1    3    3    0  502 -0.26405226509E+02 -0.15060521536E+03  0.21227100546E+03  0.26160685511E+03  0.00000000000E+00 0.  1.
         13    1    5    5    0    0 -0.97284627727E+02  0.88245176844E+02  0.12946997668E+03  0.18442880710E+03  0.00000000000E+00 0. -1.
        -13    1    5    5    0    0 -0.22149775891E+03  0.19899881538E+03  0.52082460050E+03  0.59993337147E+03  0.00000000000E+00 0.  1.
          4    1    6    6  503    0  0.12365902773E+03  0.69853997961E+01  0.36209949277E+02  0.12904073533E+03  0.00000000000E+00 0. -1.
         -4    1    6    6    0  503  0.21854467193E+03 -0.17680828238E+02 -0.53420404081E+02  0.22567260553E+03  0.00000000000E+00 0.  1.
<mgrwt>
<rscale>  0 0.12432094E+04</rscale>
<asrwt>0</asrwt>
<pdfrwt beam="1">  1        4 0.47964670E-01 0.12432094E+04</pdfrwt>
<pdfrwt beam="2">  1       -3 0.19066914E+00 0.12432094E+04</pdfrwt>
<totfact> 0.15937055E+00</totfact>
</mgrwt>
</event>
<event>
12    7  0.1606355E-007  0.2117081E+04  0.7818608E-02  0.8553756E-01
          2   -1    0    0  501    0  0.00000000000E+00  0.00000000000E+00  0.16601065465E+04  0.16601065465E+04  0.00000000000E+00 0. -1.
         -1   -1    0    0    0  501 -0.00000000000E+00 -0.00000000000E+00 -0.67496142311E+03  0.67496142311E+03  0.00000000000E+00 0.  1.
         24    2    1    2    0    0  0.16113527990E+03 -0.84870875551E+03  0.43916571656E+03  0.97239383469E+03  0.80075670750E+02 0.  0.
        254    2    1    2    0    0 -0.16113527990E+03  0.84870875551E+03  0.54597940685E+03  0.13626741349E+04  0.90139678011E+03 0.  0.
         23    2    4    4    0    0 -0.26887395724E+03  0.93818742172E+03  0.64045211751E+03  0.11708071596E+04  0.90120181210E+02 0.  0.
         23    2    4    4    0    0  0.10773867734E+03 -0.89478666208E+02 -0.94472710654E+02  0.19186697530E+03  0.90960369678E+02 0.  0.
          2    1    3    3  502    0  0.12246121986E+03 -0.58667899946E+03  0.34347089166E+03  0.69076859526E+03  0.00000000000E+00 0. -1.
         -1    1    3    3    0  502  0.38674060045E+02 -0.26202975605E+03  0.95694824893E+02  0.28162523944E+03  0.00000000000E+00 0.  1.
         13    1    5    5    0    0 -0.21914655111E+03  0.74001067342E+03  0.46174279740E+03  0.89935944904E+03  0.00000000000E+00 0. -1.
        -13    1    5    5    0    0 -0.49727406134E+02  0.19817674830E+03  0.17870932010E+03  0.27144771058E+03  0.00000000000E+00 0.  1.
          1    1    6    6  503    0  0.90993242489E+02 -0.10838703463E+03 -0.83616346178E+02  0.16437521955E+03  0.00000000000E+00 0. -1.
         -1    1    6    6    0  503  0.16745434851E+02  0.18908368420E+02 -0.10856364476E+02  0.27491755752E+02  0.00000000000E+00 0.  1.
<mgrwt>
<rscale>  0 0.21170809E+04</rscale>
<asrwt>0</asrwt>
<pdfrwt beam="1">  1        2 0.25540101E+00 0.21170809E+04</pdfrwt>
<pdfrwt beam="2">  1       -1 0.10384022E+00 0.21170809E+04</pdfrwt>
<totfact> 0.94516929E+00</totfact>
</mgrwt>
</event>
<event>
12    7  0.1606355E-007  0.1325402E+04  0.7818608E-02  0.9009660E-01
         -1   -1    0    0    0  501 -0.00000000000E+00  0.00000000000E+00  0.34253339821E+03  0.34253339821E+03  0.00000000000E+00 0.  1.
          2   -1    0    0  501    0  0.00000000000E+00 -0.00000000000E+00 -0.12821304373E+04  0.12821304373E+04  0.00000000000E+00 0. -1.
         24    2    1    2    0    0 -0.12975004998E+03  0.13971951368E+03  0.10724685008E+03  0.23254471289E+03  0.78857711562E+02 0.  0.
        254    2    1    2    0    0  0.12975004998E+03 -0.13971951368E+03 -0.10468438891E+04  0.13921191226E+04  0.89763962997E+03 0.  0.
         23    2    4    4    0    0  0.30866676291E+03  0.17010600221E+03 -0.94155609852E+03  0.10094822494E+04  0.91188281722E+02 0.  0.
         23    2    4    4    0    0 -0.17891671293E+03 -0.30982551588E+03 -0.10528779061E+03  0.38263687317E+03  0.85571124799E+02 0.  0.
          4    1    3    3  502    0 -0.19280580824E+02 -0.27619009511E+01  0.31399724467E+02  0.36950123009E+02  0.00000000000E+00 0. -1.
         -3    1    3    3    0  502 -0.11046946915E+03  0.14248141463E+03  0.75847125608E+02  0.19559458988E+03  0.00000000000E+00 0.  1.
         13    1    5    5    0    0  0.13737965948E+03  0.25840616350E+02 -0.38220831070E+03  0.40696941048E+03  0.00000000000E+00 0. -1.
        -13    1    5    5    0    0  0.17128710342E+03  0.14426538586E+03 -0.55934778782E+03  0.60251283894E+03  0.00000000000E+00 0.  1.
          3    1    6    6  503    0  0.58434262067E+01  0.50308880069E+00  0.14267684563E+01  0.60360911526E+01  0.00000000000E+00 0. -1.
         -3    1    6    6    0  503 -0.18476013914E+03 -0.31032860469E+03 -0.10671455907E+03  0.37660078202E+03  0.00000000000E+00 0.  1.
<mgrwt>
<rscale>  0 0.13254018E+04</rscale>
<asrwt>0</asrwt>
<pdfrwt beam="1">  1        2 0.19725084E+00 0.13254018E+04</pdfrwt>
<pdfrwt beam="2">  1       -1 0.52697446E-01 0.13254018E+04</pdfrwt>
<totfact> 0.68538098E+01</totfact>
</mgrwt>
</event>
<event>
12    7  0.1606355E-007  0.2496347E+04  0.7818608E-02  0.8404288E-01
          2   -1    0    0  501    0  0.00000000000E+00  0.00000000000E+00  0.18788881473E+04  0.18788881473E+04  0.00000000000E+00 0. -1.
         -1   -1    0    0    0  501 -0.00000000000E+00 -0.00000000000E+00 -0.82918054102E+03  0.82918054102E+03  0.00000000000E+00 0.  1.
         24    2    1    2    0    0 -0.60457891020E+03  0.62294959082E+03 -0.24846007769E+03  0.90742478585E+03  0.90030441623E+02 0.  0.
        254    2    1    2    0    0  0.60457891020E+03 -0.62294959082E+03  0.12981676840E+04  0.18006439025E+04  0.89638009597E+03 0.  0.
         23    2    4    4    0    0  0.84769889843E+02  0.17759680194E+03  0.42790067945E+02  0.22083603987E+03  0.90614614202E+02 0.  0.
         23    2    4    4    0    0  0.51980902035E+03 -0.80054639276E+03  0.12553776160E+04  0.15798078626E+04  0.93509247193E+02 0.  0.
          4    1    3    3  502    0 -0.26971012911E+03  0.22955692817E+03 -0.71350790047E+02  0.36129056485E+03  0.00000000000E+00 0. -1.
         -3    1    3    3    0  502 -0.33486878109E+03  0.39339266265E+03 -0.17710928764E+03  0.54613422100E+03  0.00000000000E+00 0.  1.
         13    1    5    5    0    0  0.10628993797E+02  0.12396980477E+03  0.33547350200E+02  0.12886781099E+03  0.00000000000E+00 0. -1.
        -13    1    5    5    0    0  0.74140896046E+02  0.53626997174E+02  0.92427177448E+01  0.91968228882E+02  0.00000000000E+00 0.  1.
          3    1    6    6  503    0  0.30860681534E+03 -0.39501402212E+03  0.68359578801E+03  0.84768947471E+03  0.00000000000E+00 0. -1.
         -3    1    6    6    0  503  0.21120220502E+03 -0.40553237065E+03  0.57178182802E+03  0.73211838790E+03  0.00000000000E+00 0.  1.
<mgrwt>
<rscale>  0 0.24963473E+04</rscale>
<asrwt>0</asrwt>
<pdfrwt beam="1">  1        2 0.28905971E+00 0.24963473E+04</pdfrwt>
<pdfrwt beam="2">  1       -1 0.12756624E+00 0.24963473E+04</pdfrwt>
<totfact> 0.42130277E+00</totfact>
</mgrwt>
</event>
<event>
12    7  0.1606355E-007  0.1248430E+04  0.7818608E-02  0.9071491E-01
          2   -1    0    0  501    0  0.00000000000E+00  0.00000000000E+00  0.14068686229E+04  0.14068686229E+04  0.00000000000E+00 0. -1.
         -1   -1    0    0    0  501 -0.00000000000E+00 -0.00000000000E+00 -0.27695874515E+03  0.27695874515E+03  0.00000000000E+00 0.  1.
         24    2    1    2    0    0  0.21043392641E+03  0.44241046786E+02  0.53013113793E+03  0.57760586811E+03  0.79685681692E+02 0.  0.
        254    2    1    2    0    0 -0.21043392641E+03 -0.44241046786E+02  0.59977873985E+03  0.11062215000E+04  0.90429628033E+03 0.  0.
         23    2    4    4    0    0  0.58519766794E+02  0.35357025340E+03  0.55462920947E+02  0.37388168354E+03  0.90966425074E+02 0.  0.
         23    2    4    4    0    0 -0.26895369321E+03 -0.39781130019E+03  0.54431581891E+03  0.73233981643E+03  0.97221275321E+02 0.  0.
          2    1    3    3  502    0  0.32585753031E+02  0.12090771664E+02  0.18271942593E+03  0.18599571681E+03  0.00000000000E+00 0. -1.
         -1    1    3    3    0  502  0.17784817338E+03  0.32150275121E+02  0.34741171200E+03  0.39161015130E+03  0.00000000000E+00 0.  1.
         13    1    5    5    0    0 -0.13447622485E+02  0.18917744611E+03  0.39439266211E+02  0.19371215859E+03  0.00000000000E+00 0. -1.
        -13    1    5    5    0    0  0.71967389280E+02  0.16439280730E+03  0.16023654736E+02  0.18016952495E+03  0.00000000000E+00 0.  1.
          1    1    6    6  503    0 -0.19889795832E+03 -0.34127740078E+03  0.48035387278E+03  0.62190875955E+03  0.00000000000E+00 0. -1.
         -1    1    6    6    0  503 -0.70055734885E+02 -0.56533899403E+02  0.63961946127E+02  0.11043105688E+03  0.00000000000E+00 0.  1.
<mgrwt>
<rscale>  0 0.12484303E+04</rscale>
<asrwt>0</asrwt>
<pdfrwt beam="1">  1        2 0.21644132E+00 0.12484303E+04</pdfrwt>
<pdfrwt beam="2">  1       -1 0.42609038E-01 0.12484303E+04</pdfrwt>
<totfact> 0.87105678E+01</totfact>
</mgrwt>
</event>
<event>
12    7  0.1606355E-007  0.1333579E+04  0.7818608E-02  0.9003353E-01
         -1   -1    0    0    0  501 -0.00000000000E+00  0.00000000000E+00  0.19758986099E+03  0.19758986099E+03  0.00000000000E+00 0.  1.
          2   -1    0    0  501    0  0.00000000000E+00 -0.00000000000E+00 -0.22501565421E+04  0.22501565421E+04  0.00000000000E+00 0. -1.
         24    2    1    2    0    0 -0.16088043402E+03  0.32561891110E+03 -0.65787008561E+03  0.75539945370E+03  0.76974643794E+02 0.  0.
        254    2    1    2    0    0  0.16088043402E+03 -0.32561891110E+03 -0.13946965955E+04  0.16923469494E+04  0.88710169333E+03 0.  0.
         23    2    4    4    0    0  0.25257399945E+02 -0.54239738230E+03 -0.12876436967E+04  0.14004118963E+04  0.91073228191E+02 0.  0.
         23    2    4    4    0    0  0.13562303407E+03  0.21677847120E+03 -0.10705289875E+03  0.29193505311E+03  0.91538184166E+02 0.  0.
          4    1    3    3  502    0 -0.14915612400E+03  0.32322000279E+03 -0.64994909889E+03  0.74104827824E+03  0.00000000000E+00 0. -1.
         -3    1    3    3    0  502 -0.11724310019E+02  0.23989083146E+01 -0.79209867254E+01  0.14351175465E+02  0.00000000000E+00 0.  1.
         13    1    5    5    0    0  0.27340452298E+02 -0.49742309488E+03 -0.11017610079E+04  0.12091544790E+04  0.00000000000E+00 0. -1.
        -13    1    5    5    0    0 -0.20830523531E+01 -0.44974287417E+02 -0.18588268886E+03  0.19125741725E+03  0.00000000000E+00 0.  1.
          4    1    6    6  503    0  0.13384801369E+03  0.22511658623E+03 -0.10812305750E+03  0.28334319072E+03  0.00000000000E+00 0. -1.
         -4    1    6    6    0  503  0.17750203852E+01 -0.83381150333E+01  0.10701587481E+01  0.85918623954E+01  0.00000000000E+00 0.  1.
<mgrwt>
<rscale>  0 0.13335788E+04</rscale>
<asrwt>0</asrwt>
<pdfrwt beam="1">  1        2 0.34617795E+00 0.13335788E+04</pdfrwt>
<pdfrwt beam="2">  1       -1 0.30398438E-01 0.13335788E+04</pdfrwt>
<totfact> 0.53847250E+01</totfact>
</mgrwt>
</event>
<event>
12    7  0.1606355E-007  0.1514599E+04  0.7818608E-02  0.8874802E-01
          2   -1    0    0  501    0  0.00000000000E+00  0.00000000000E+00  0.20739416646E+04  0.20739416646E+04  0.00000000000E+00 0. -1.
         -1   -1    0    0    0  501 -0.00000000000E+00 -0.00000000000E+00 -0.27652787417E+03  0.27652787417E+03  0.00000000000E+00 0.  1.
         24    2    1    2    0    0  0.27467284008E+03  0.20784401046E+03  0.11620230306E+04  0.12142920735E+04  0.74588299365E+02 0.  0.
        254    2    1    2    0    0 -0.27467284008E+03 -0.20784401046E+03  0.63539075981E+03  0.11361774652E+04  0.87666043203E+03 0.  0.
         23    2    4    4    0    0 -0.25000701721E+03  0.26068881660E+03  0.52665700551E+03  0.64599549912E+03  0.97367426153E+02 0.  0.
         23    2    4    4    0    0 -0.24665822876E+02 -0.46853282706E+03  0.10873375430E+03  0.49018196611E+03  0.91235506918E+02 0.  0.
          4    1    3    3  502    0  0.17689386234E+02  0.23839705338E+02  0.18640140219E+03  0.18875044020E+03  0.00000000000E+00 0. -1.
         -3    1    3    3    0  502  0.25698345385E+03  0.18400430513E+03  0.97562162841E+03  0.10255416333E+04  0.00000000000E+00 0.  1.
         13    1    5    5    0    0 -0.20022930466E+03  0.19771795008E+03  0.46980609067E+03  0.54763302042E+03  0.00000000000E+00 0. -1.
        -13    1    5    5    0    0 -0.49777712553E+02  0.62970866523E+02  0.56850914845E+02  0.98362478701E+02  0.00000000000E+00 0.  1.
          3    1    6    6  503    0 -0.35783170226E+02 -0.46406775529E+03  0.10219183349E+03  0.47653172780E+03  0.00000000000E+00 0. -1.
         -3    1    6    6    0  503  0.11117347350E+02 -0.44650717772E+01  0.65419208097E+01  0.13650238312E+02  0.00000000000E+00 0.  1.
<mgrwt>
<rscale>  0 0.15145992E+04</rscale>
<asrwt>0</asrwt>
<pdfrwt beam="1">  1        2 0.31906794E+00 0.15145992E+04</pdfrwt>
<pdfrwt beam="2">  1       -1 0.42542751E-01 0.15145992E+04</pdfrwt>
<totfact> 0.36338077E+01</totfact>
</mgrwt>
</event>
<event>
12    7  0.1606355E-007  0.1625856E+04  0.7818608E-02  0.8804819E-01
         -1   -1    0    0    0  501 -0.00000000000E+00  0.00000000000E+00  0.22664599037E+03  0.22664599037E+03  0.00000000000E+00 0.  1.
          2   -1    0    0  501    0  0.00000000000E+00 -0.00000000000E+00 -0.29157895462E+04  0.29157895462E+04  0.00000000000E+00 0. -1.
         24    2    1    2    0    0 -0.24066118874E+02  0.53012944762E+03 -0.53426264292E+03  0.75730627312E+03  0.80372945552E+02 0.  0.
        254    2    1    2    0    0  0.24066118874E+02 -0.53012944762E+03 -0.21548809129E+04  0.23851292635E+04  0.87390700034E+03 0.  0.
         23    2    4    4    0    0  0.29820782356E+03  0.50615627698E+02 -0.11238135212E+04  0.11672642692E+04  0.89773025019E+02 0.  0.
         23    2    4    4    0    0 -0.27414170469E+03 -0.58074507532E+03 -0.10310673918E+04  0.12178649943E+04  0.87616557368E+02 0.  0.
          4    1    3    3  502    0 -0.27642943870E+02  0.30605876162E+03 -0.36068761427E+03  0.47384771077E+03  0.00000000000E+00 0. -1.
         -3    1    3    3    0  502  0.35768249956E+01  0.22407068600E+03 -0.17357502865E+03  0.28345856235E+03  0.00000000000E+00 0.  1.
         13    1    5    5    0    0  0.25211828982E+03  0.15941645194E+02 -0.82025246723E+03  0.85827261294E+03  0.00000000000E+00 0.  1.
        -13    1    5    5    0    0  0.46089533743E+02  0.34673982504E+02 -0.30356105393E+03  0.30899165627E+03  0.00000000000E+00 0. -1.
          1    1    6    6  503    0 -0.81765964740E+02 -0.27310614202E+03 -0.43768859022E+03  0.52234465614E+03  0.00000000000E+00 0. -1.
         -1    1    6    6    0  503 -0.19237573995E+03 -0.30763893330E+03 -0.59337880157E+03  0.69552033813E+03  0.00000000000E+00 0.  1.
<mgrwt>
<rscale>  0 0.16258561E+04</rscale>
<asrwt>0</asrwt>
<pdfrwt beam="1">  1        2 0.44858300E+00 0.16258561E+04</pdfrwt>
<pdfrwt beam="2">  1       -1 0.34868615E-01 0.16258561E+04</pdfrwt>
<totfact> 0.16807278E+01</totfact>
</mgrwt>
</event>
<event>
12    7  0.1606355E-007  0.2290075E+04  0.7818608E-02  0.8481845E-01
         -1   -1    0    0    0  501 -0.00000000000E+00  0.00000000000E+00  0.48044610255E+03  0.48044610255E+03  0.00000000000E+00 0.  1.
          2   -1    0    0  501    0  0.00000000000E+00 -0.00000000000E+00 -0.27289444190E+04  0.27289444190E+04  0.00000000000E+00 0. -1.
         24    2    1    2    0    0  0.84018396586E+03  0.37063239993E+03 -0.51913990302E+03  0.10583092965E+04  0.85057955403E+02 0.  0.
        254    2    1    2    0    0 -0.84018396586E+03 -0.37063239993E+03 -0.17293584134E+04  0.21510812251E+04  0.89061352020E+03 0.  0.
         23    2    4    4    0    0 -0.67821752410E+03 -0.63437861417E+03 -0.10895217884E+04  0.14344962869E+04  0.91140735759E+02 0.  0.
         23    2    4    4    0    0 -0.16196644176E+03  0.26374621424E+03 -0.63983662506E+03  0.71658493816E+03  0.91147534463E+02 0.  0.
          4    1    3    3  502    0  0.33438197321E+03  0.14748406901E+03 -0.15926985841E+03  0.39865993330E+03  0.00000000000E+00 0. -1.
         -3    1    3    3    0  502  0.50580199265E+03  0.22314833092E+03 -0.35987004460E+03  0.65964936320E+03  0.00000000000E+00 0.  1.
         13    1    5    5    0    0 -0.16413348948E+03 -0.12570359811E+03 -0.29350948080E+03  0.35901115897E+03  0.00000000000E+00 0.  1.
        -13    1    5    5    0    0 -0.51408403461E+03 -0.50867501607E+03 -0.79601230758E+03  0.10754851279E+04  0.00000000000E+00 0. -1.
          4    1    6    6  503    0 -0.86274309981E+02  0.12369480609E+03 -0.41120975006E+03  0.43799214623E+03  0.00000000000E+00 0. -1.
         -4    1    6    6    0  503 -0.75692131780E+02  0.14005140816E+03 -0.22862687501E+03  0.27859279193E+03  0.00000000000E+00 0.  1.
<mgrwt>
<rscale>  0 0.22900749E+04</rscale>
<asrwt>0</asrwt>
<pdfrwt beam="1">  1        2 0.41983760E+00 0.22900749E+04</pdfrwt>
<pdfrwt beam="2">  1       -1 0.73914785E-01 0.22900749E+04</pdfrwt>
<totfact> 0.48569269E+00</totfact>
</mgrwt>
</event>
<event>
12    7  0.1606355E-007  0.1759747E+04  0.7818608E-02  0.8728003E-01
          2   -1    0    0  501    0  0.00000000000E+00  0.00000000000E+00  0.51275563694E+03  0.51275563694E+03  0.00000000000E+00 0. -1.
         -1   -1    0    0    0  501 -0.00000000000E+00 -0.00000000000E+00 -0.15098366600E+04  0.15098366600E+04  0.00000000000E+00 0.  1.
         24    2    1    2    0    0 -0.18601791082E+03 -0.43333058785E+03 -0.87652599401E+03  0.99865362786E+03  0.81444390570E+02 0.  0.
        254    2    1    2    0    0  0.18601791082E+03  0.43333058785E+03 -0.12055502905E+03  0.10239386691E+04  0.90085449517E+03 0.  0.
         23    2    4    4    0    0  0.14120526717E+03 -0.37536339528E+02 -0.42216210595E+03  0.45522805451E+03  0.87543324389E+02 0.  0.
         23    2    4    4    0    0  0.44812643651E+02  0.47086692738E+03  0.30160707690E+03  0.56871061456E+03  0.93493839075E+02 0.  0.
          2    1    3    3  502    0 -0.36313478418E+02 -0.33702602334E+02 -0.12427267540E+03  0.13378427401E+03  0.00000000000E+00 0. -1.
         -1    1    3    3    0  502 -0.14970443241E+03 -0.39962798552E+03 -0.75225331860E+03  0.86486935386E+03  0.00000000000E+00 0.  1.
         13    1    5    5    0    0  0.14845402596E+02  0.11858411156E+02 -0.10335517382E+02  0.21629396962E+02  0.00000000000E+00 0. -1.
        -13    1    5    5    0    0  0.12635986458E+03 -0.49394750684E+02 -0.41182658857E+03  0.43359865754E+03  0.00000000000E+00 0.  1.
          2    1    6    6  503    0  0.17889000693E+02  0.39292824686E+03  0.28192469899E+03  0.48393611090E+03  0.00000000000E+00 0. -1.
         -2    1    6    6    0  503  0.26923642958E+02  0.77938680523E+02  0.19682377907E+02  0.84774503666E+02  0.00000000000E+00 0.  1.
<mgrwt>
<rscale>  0 0.17597469E+04</rscale>
<asrwt>0</asrwt>
<pdfrwt beam="1">  1        2 0.78885484E-01 0.17597469E+04</pdfrwt>
<pdfrwt beam="2">  1       -1 0.23228256E+00 0.17597469E+04</pdfrwt>
<totfact> 0.58991974E+00</totfact>
</mgrwt>
</event>
<event>
12    7  0.1606355E-007  0.1354119E+04  0.7818608E-02  0.8987716E-01
         -1   -1    0    0    0  501 -0.00000000000E+00  0.00000000000E+00  0.46414203017E+03  0.46414203017E+03  0.00000000000E+00 0.  1.
          2   -1    0    0  501    0  0.00000000000E+00 -0.00000000000E+00 -0.98764927045E+03  0.98764927045E+03  0.00000000000E+00 0. -1.
         24    2    1    2    0    0  0.14876117869E+02 -0.29024181798E+03  0.10096435097E+03  0.31784908759E+03  0.79828757493E+02 0.  0.
        254    2    1    2    0    0 -0.14876117869E+02  0.29024181798E+03 -0.62447159125E+03  0.11339422130E+04  0.90077664404E+03 0.  0.
         23    2    4    4    0    0  0.37217674815E+03 -0.29416313348E+02 -0.45720654440E+03  0.59718531723E+03  0.90618030902E+02 0.  0.
         23    2    4    4    0    0 -0.38705286602E+03  0.31965813133E+03 -0.16726504685E+03  0.53675689580E+03  0.90217111896E+02 0.  0.
          2    1    3    3  502    0 -0.41436914532E+01 -0.58021523248E+00 -0.69845108627E+01  0.81418806530E+01  0.00000000000E+00 0. -1.
         -1    1    3    3    0  502  0.19019809322E+02 -0.28966160275E+03  0.10794886183E+03  0.30970720693E+03  0.00000000000E+00 0.  1.
         13    1    5    5    0    0  0.33398140003E+03 -0.27742892199E+02 -0.44494306782E+03  0.55703462840E+03  0.00000000000E+00 0. -1.
        -13    1    5    5    0    0  0.38195348113E+02 -0.16734211491E+01 -0.12263476578E+02  0.40150688831E+02  0.00000000000E+00 0.  1.
          1    1    6    6  503    0 -0.25068054147E+03  0.25668630190E+03 -0.10218771729E+03  0.37305619017E+03  0.00000000000E+00 0. -1.
         -1    1    6    6    0  503 -0.13637232455E+03  0.62971829427E+02 -0.65077329564E+02  0.16370070564E+03  0.00000000000E+00 0.  1.
<mgrwt>
<rscale>  0 0.13541190E+04</rscale>
<asrwt>0</asrwt>
<pdfrwt beam="1">  1        2 0.15194604E+00 0.13541190E+04</pdfrwt>
<pdfrwt beam="2">  1       -1 0.71406467E-01 0.13541190E+04</pdfrwt>
<totfact> 0.56611780E+01</totfact>
</mgrwt>
</event>
<event>
12    7  0.1606355E-007  0.2076904E+04  0.7818608E-02  0.8571486E-01
          2   -1    0    0  501    0  0.00000000000E+00  0.00000000000E+00  0.15185211142E+04  0.15185211142E+04  0.00000000000E+00 0. -1.
         -1   -1    0    0    0  501 -0.00000000000E+00 -0.00000000000E+00 -0.71015300636E+03  0.71015300636E+03  0.00000000000E+00 0.  1.
         24    2    1    2    0    0  0.17672142638E+03 -0.37581233128E+01 -0.55578419094E+03  0.58870644247E+03  0.80216098546E+02 0.  0.
        254    2    1    2    0    0 -0.17672142638E+03  0.37581233128E+01  0.13641522988E+04  0.16399676781E+04  0.89293779451E+03 0.  0.
         23    2    4    4    0    0  0.20618673365E+03 -0.32586000178E+03  0.60881609839E+03  0.72655287988E+03  0.92327329164E+02 0.  0.
         23    2    4    4    0    0 -0.38290816002E+03  0.32961812509E+03  0.75533620038E+03  0.91341479820E+03  0.92342030307E+02 0.  0.
          2    1    3    3  502    0  0.29323603480E+01 -0.17904069836E+02 -0.33673183584E+02  0.38249676425E+02  0.00000000000E+00 0. -1.
         -1    1    3    3    0  502  0.17378906603E+03  0.14145946523E+02 -0.52211100736E+03  0.55045676604E+03  0.00000000000E+00 0.  1.
         13    1    5    5    0    0  0.22138060639E+02 -0.51251759155E+02  0.40101494336E+02  0.68738390971E+02  0.00000000000E+00 0. -1.
        -13    1    5    5    0    0  0.18404867301E+03 -0.27460824262E+03  0.56871460406E+03  0.65781448891E+03  0.00000000000E+00 0.  1.
          4    1    6    6  503    0 -0.15001031236E+03  0.17235113119E+03  0.39659681096E+03  0.45770846256E+03  0.00000000000E+00 0. -1.
         -4    1    6    6    0  503 -0.23289784767E+03  0.15726699390E+03  0.35873938942E+03  0.45570633564E+03  0.00000000000E+00 0.  1.
<mgrwt>
<rscale>  0 0.20769038E+04</rscale>
<asrwt>0</asrwt>
<pdfrwt beam="1">  1        2 0.23361863E+00 0.20769038E+04</pdfrwt>
<pdfrwt beam="2">  1       -1 0.10925431E+00 0.20769038E+04</pdfrwt>
<totfact> 0.10109289E+01</totfact>
</mgrwt>
</event>
<event>
12    7  0.1606355E-007  0.1994810E+04  0.7818608E-02  0.8609051E-01
          2   -1    0    0  501    0  0.00000000000E+00  0.00000000000E+00  0.98302009670E+03  0.98302009670E+03  0.00000000000E+00 0. -1.
         -1   -1    0    0    0  501 -0.00000000000E+00 -0.00000000000E+00 -0.10120003894E+04  0.10120003894E+04  0.00000000000E+00 0.  1.
         24    2    1    2    0    0 -0.55133759046E+03  0.54082481144E+03 -0.87589423760E+02  0.78086588654E+03  0.74933372282E+02 0.  0.
        254    2    1    2    0    0  0.55133759046E+03 -0.54082481144E+03  0.58609131063E+02  0.12141545996E+04  0.93502499756E+03 0.  0.
         23    2    4    4    0    0  0.27937815354E+03 -0.72766926893E+03  0.24739609687E+03  0.82278305946E+03  0.90622384450E+02 0.  0.
         23    2    4    4    0    0  0.27195943692E+03  0.18684445749E+03 -0.18878696581E+03  0.39137154010E+03  0.93050402033E+02 0.  0.
          2    1    3    3  502    0 -0.28576637826E+03  0.30888354784E+03 -0.16175743943E+02  0.42110939643E+03  0.00000000000E+00 0. -1.
         -1    1    3    3    0  502 -0.26557121220E+03  0.23194126360E+03 -0.71413679817E+02  0.35975649011E+03  0.00000000000E+00 0.  1.
         13    1    5    5    0    0  0.13316674816E+02 -0.35373638711E+02 -0.75152492829E+01  0.38537087534E+02  0.00000000000E+00 0. -1.
        -13    1    5    5    0    0  0.26606147872E+03 -0.69229563022E+03  0.25491134615E+03  0.78424597192E+03  0.00000000000E+00 0.  1.
          1    1    6    6  503    0  0.13141788492E+03  0.42209444607E+02 -0.51118789218E+02  0.14719180787E+03  0.00000000000E+00 0. -1.
         -1    1    6    6    0  503  0.14054155199E+03  0.14463501288E+03 -0.13766817659E+03  0.24417973223E+03  0.00000000000E+00 0.  1.
<mgrwt>
<rscale>  0 0.19948100E+04</rscale>
<asrwt>0</asrwt>
<pdfrwt beam="1">  1        2 0.15123386E+00 0.19948100E+04</pdfrwt>
<pdfrwt beam="2">  1       -1 0.15569237E+00 0.19948100E+04</pdfrwt>
<totfact> 0.86346449E+00</totfact>
</mgrwt>
</event>
<event>
12    7  0.1606355E-007  0.1882316E+04  0.7818608E-02  0.8663709E-01
          2   -1    0    0  501    0  0.00000000000E+00  0.00000000000E+00  0.16086430313E+04  0.16086430313E+04  0.00000000000E+00 0. -1.
         -1   -1    0    0    0  501 -0.00000000000E+00 -0.00000000000E+00 -0.55063702393E+03  0.55063702393E+03  0.00000000000E+00 0.  1.
         24    2    1    2    0    0 -0.24928285538E+03  0.28952786352E+03 -0.29692223270E+03  0.49022263732E+03  0.78658096371E+02 0.  0.
        254    2    1    2    0    0  0.24928285538E+03 -0.28952786352E+03  0.13549282401E+04  0.16690574179E+04  0.89663470979E+03 0.  0.
         23    2    4    4    0    0  0.23697068019E+03 -0.21486089267E+03  0.24669590480E+02  0.33321903285E+03  0.90033486516E+02 0.  0.
         23    2    4    4    0    0  0.12312175190E+02 -0.74666970856E+02  0.13302586496E+04  0.13358383851E+04  0.95652339145E+02 0.  0.
          2    1    3    3  502    0 -0.16186722765E+02  0.20323177521E+02  0.90359254558E+00  0.25997269432E+02  0.00000000000E+00 0. -1.
         -1    1    3    3    0  502 -0.23309613261E+03  0.26920468600E+03 -0.29782582525E+03  0.46422536789E+03  0.00000000000E+00 0.  1.
         13    1    5    5    0    0  0.17298089976E+03 -0.19175112516E+03 -0.66272607346E+01  0.25833080781E+03  0.00000000000E+00 0. -1.
        -13    1    5    5    0    0  0.63989780430E+02 -0.23109767511E+02  0.31296851214E+02  0.74888225041E+02  0.00000000000E+00 0.  1.
          3    1    6    6  503    0  0.37670990667E+02 -0.31440553148E+02  0.27176913925E+03  0.27616313470E+03  0.00000000000E+00 0. -1.
         -3    1    6    6    0  503 -0.25358815477E+02 -0.43226417708E+02  0.10584895104E+04  0.10596752504E+04  0.00000000000E+00 0.  1.
<mgrwt>
<rscale>  0 0.18823160E+04</rscale>
<asrwt>0</asrwt>
<pdfrwt beam="1">  1        2 0.24748354E+00 0.18823160E+04</pdfrwt>
<pdfrwt beam="2">  1       -1 0.84713389E-01 0.18823160E+04</pdfrwt>
<totfact> 0.16250575E+01</totfact>
</mgrwt>
</event>
<event>
12    7  0.1606355E-007  0.2229641E+04  0.7818608E-02  0.8506191E-01
          2   -1    0    0  501    0  0.00000000000E+00  0.00000000000E+00  0.25263951487E+04  0.25263951487E+04  0.00000000000E+00 0. -1.
         -1   -1    0    0    0  501 -0.00000000000E+00 -0.00000000000E+00 -0.49193621380E+03  0.49193621380E+03  0.00000000000E+00 0.  1.
         24    2    1    2    0    0 -0.50528794823E+03 -0.46571188347E+03  0.36414858160E+01  0.69177425261E+03  0.79592004156E+02 0.  0.
        254    2    1    2    0    0  0.50528794823E+03  0.46571188347E+03  0.20308174491E+04  0.23265571099E+04  0.90357346413E+03 0.  0.
         23    2    4    4    0    0  0.25134539474E+03  0.32024868482E+03  0.19706792844E+04  0.20147307485E+04  0.99143428420E+02 0.  0.
         23    2    4    4    0    0  0.25394255349E+03  0.14546319865E+03  0.60138164698E+02  0.31182636141E+03  0.89290078857E+02 0.  0.
          2    1    3    3  502    0 -0.36613010827E+02 -0.61124001790E+02 -0.12868912214E+02  0.72403487887E+02  0.00000000000E+00 0. -1.
         -1    1    3    3    0  502 -0.46867493741E+03 -0.40458788168E+03  0.16510398030E+02  0.61937076472E+03  0.00000000000E+00 0.  1.
         13    1    5    5    0    0  0.57181995532E+02  0.18782715283E+02  0.30757728634E+03  0.31341084550E+03  0.00000000000E+00 0. -1.
        -13    1    5    5    0    0  0.19416339921E+03  0.30146596954E+03  0.16631019981E+04  0.17013199030E+04  0.00000000000E+00 0.  1.
          3    1    6    6  503    0  0.10826685812E+03  0.99433514705E+02  0.60731342225E+02  0.15905040818E+03  0.00000000000E+00 0. -1.
         -3    1    6    6    0  503  0.14567569537E+03  0.46029683942E+02 -0.59317752780E+00  0.15277595323E+03  0.00000000000E+00 0.  1.
<mgrwt>
<rscale>  0 0.22296415E+04</rscale>
<asrwt>0</asrwt>
<pdfrwt beam="1">  1        2 0.38867617E+00 0.22296415E+04</pdfrwt>
<pdfrwt beam="2">  1       -1 0.75682496E-01 0.22296415E+04</pdfrwt>
<totfact> 0.61167913E+00</totfact>
</mgrwt>
</event>
<event>
12    7  0.1606355E-007  0.2236615E+04  0.7818608E-02  0.8503341E-01
         -1   -1    0    0    0  501 -0.00000000000E+00  0.00000000000E+00  0.41062085769E+03  0.41062085769E+03  0.00000000000E+00 0.  1.
          2   -1    0    0  501    0  0.00000000000E+00 -0.00000000000E+00 -0.30456593048E+04  0.30456593048E+04  0.00000000000E+00 0. -1.
         24    2    1    2    0    0  0.16485001592E+03  0.50890432301E+03 -0.22861301015E+04  0.23492391231E+04  0.79840334145E+02 0.  0.
        254    2    1    2    0    0 -0.16485001592E+03 -0.50890432301E+03 -0.34890834566E+03  0.11070410394E+04  0.90423652412E+03 0.  0.
         23    2    4    4    0    0  0.22848502581E+02 -0.63396081328E+03 -0.50711069754E+03  0.81684329443E+03  0.87426204579E+02 0.  0.
         23    2    4    4    0    0 -0.18769851850E+03  0.12505649027E+03  0.15820235188E+03  0.29019774499E+03  0.91196970628E+02 0.  0.
          4    1    3    3  502    0  0.16389884279E+03  0.47186417796E+03 -0.20360961570E+04  0.20964747062E+04  0.00000000000E+00 0. -1.
         -3    1    3    3    0  502  0.95117312887E+00  0.37040145056E+02 -0.25003394450E+03  0.25276441695E+03  0.00000000000E+00 0.  1.
         13    1    5    5    0    0  0.54071567138E+02 -0.32333020747E+03 -0.24619772616E+03  0.40997497216E+03  0.00000000000E+00 0.  1.
        -13    1    5    5    0    0 -0.31223064558E+02 -0.31063060581E+03 -0.26091297138E+03  0.40686832226E+03  0.00000000000E+00 0. -1.
          3    1    6    6  503    0 -0.21587410024E+02 -0.12484592173E+01  0.51431888975E+02  0.55792599201E+02  0.00000000000E+00 0. -1.
         -3    1    6    6    0  503 -0.16611110848E+03  0.12630494949E+03  0.10677046290E+03  0.23440514579E+03  0.00000000000E+00 0.  1.
<mgrwt>
<rscale>  0 0.22366146E+04</rscale>
<asrwt>0</asrwt>
<pdfrwt beam="1">  1        2 0.46856296E+00 0.22366146E+04</pdfrwt>
<pdfrwt beam="2">  1       -1 0.63172440E-01 0.22366146E+04</pdfrwt>
<totfact> 0.42993766E+00</totfact>
</mgrwt>
</event>
<event>
12    7  0.1606355E-007  0.1406713E+04  0.7818608E-02  0.8948973E-01
         -1   -1    0    0    0  501 -0.00000000000E+00  0.00000000000E+00  0.19882790362E+03  0.19882790362E+03  0.00000000000E+00 0.  1.
          2   -1    0    0  501    0  0.00000000000E+00 -0.00000000000E+00 -0.24881350705E+04  0.24881350705E+04  0.00000000000E+00 0. -1.
         24    2    1    2    0    0  0.15669689859E+03  0.30862440484E+03 -0.25183013176E+03  0.43271515845E+03  0.63411763838E+02 0.  0.
        254    2    1    2    0    0 -0.15669689859E+03 -0.30862440484E+03 -0.20374770351E+04  0.22542478156E+04  0.90028751212E+03 0.  0.
         23    2    4    4    0    0 -0.10850587717E+03 -0.48275909398E+03 -0.52190896119E+03  0.72493217266E+03  0.91147259919E+02 0.  0.
         23    2    4    4    0    0 -0.48191021425E+02  0.17413468913E+03 -0.15155680739E+04  0.15293156430E+04  0.95992107561E+02 0.  0.
          2    1    3    3  502    0  0.67434615458E+02  0.84061827147E+02 -0.10198925698E+03  0.14837663793E+03  0.00000000000E+00 0. -1.
         -1    1    3    3    0  502  0.89262283135E+02  0.22456257770E+03 -0.14984087478E+03  0.28433852051E+03  0.00000000000E+00 0.  1.
         13    1    5    5    0    0 -0.40579869560E+02 -0.80372568943E+02 -0.13718655810E+03  0.16409334958E+03  0.00000000000E+00 0. -1.
        -13    1    5    5    0    0 -0.67926007608E+02 -0.40238652503E+03 -0.38472240309E+03  0.56083882308E+03  0.00000000000E+00 0.  1.
          3    1    6    6  503    0  0.16557144768E+02  0.34459032016E+01 -0.59791018325E+02  0.62136777870E+02  0.00000000000E+00 0. -1.
         -3    1    6    6    0  503 -0.64748166194E+02  0.17068878593E+03 -0.14557770556E+04  0.14671788651E+04  0.00000000000E+00 0.  1.
<mgrwt>
<rscale>  0 0.14067134E+04</rscale>
<asrwt>0</asrwt>
<pdfrwt beam="1">  1        2 0.38279000E+00 0.14067134E+04</pdfrwt>
<pdfrwt beam="2">  1       -1 0.30588909E-01 0.14067134E+04</pdfrwt>
<totfact> 0.38775375E+01</totfact>
</mgrwt>
</event>
<event>
12    7  0.1606355E-007  0.2656865E+04  0.7818608E-02  0.8349138E-01
         -1   -1    0    0    0  501 -0.00000000000E+00  0.00000000000E+00  0.59646479548E+03  0.59646479548E+03  0.00000000000E+00 0.  1.
          2   -1    0    0  501    0  0.00000000000E+00 -0.00000000000E+00 -0.29586547674E+04  0.29586547674E+04  0.00000000000E+00 0. -1.
         24    2    1    2    0    0  0.29386688342E+03 -0.75883923527E+03  0.40223194532E+02  0.81912922097E+03  0.84617049732E+02 0.  0.
        254    2    1    2    0    0 -0.29386688342E+03  0.75883923527E+03 -0.24024131664E+04  0.27359903419E+04  0.10256019689E+04 0.  0.
         23    2    4    4    0    0  0.21173360363E+03  0.74319168369E+03 -0.16565025726E+04  0.18301895578E+04  0.91804392899E+02 0.  0.
         23    2    4    4    0    0 -0.50560048705E+03  0.15647551586E+02 -0.74591059377E+03  0.90580078412E+03  0.90640764771E+02 0.  0.
          4    1    3    3  502    0  0.75594547223E+02 -0.24367954426E+03  0.47851406533E+02  0.25958430801E+03  0.00000000000E+00 0. -1.
         -3    1    3    3    0  502  0.21827233620E+03 -0.51515969102E+03 -0.76282120004E+01  0.55954491295E+03  0.00000000000E+00 0.  1.
         13    1    5    5    0    0  0.19933680391E+03  0.64109604013E+03 -0.14933786972E+04  0.16373512840E+04  0.00000000000E+00 0. -1.
        -13    1    5    5    0    0  0.12396799717E+02  0.10209564356E+03 -0.16312387548E+03  0.19283827376E+03  0.00000000000E+00 0.  1.
          2    1    6    6  503    0 -0.51306889376E+02 -0.26292909078E+02 -0.86361536548E+02  0.10383654925E+03  0.00000000000E+00 0.  1.
         -2    1    6    6    0  503 -0.45429359767E+03  0.41940460664E+02 -0.65954905722E+03  0.80196423487E+03  0.00000000000E+00 0. -1.
<mgrwt>
<rscale>  0 0.26568654E+04</rscale>
<asrwt>0</asrwt>
<pdfrwt beam="1">  1        2 0.45517765E+00 0.26568654E+04</pdfrwt>
<pdfrwt beam="2">  1       -1 0.91763816E-01 0.26568654E+04</pdfrwt>
<totfact> 0.21396028E+00</totfact>
</mgrwt>
</event>
<event>
12    7  0.1606355E-007  0.1529748E+04  0.7818608E-02  0.8864908E-01
          2   -1    0    0  501    0  0.00000000000E+00  0.00000000000E+00  0.21307362585E+04  0.21307362585E+04  0.00000000000E+00 0. -1.
         -1   -1    0    0    0  501 -0.00000000000E+00 -0.00000000000E+00 -0.27456818738E+03  0.27456818738E+03  0.00000000000E+00 0.  1.
         24    2    1    2    0    0 -0.22077166252E+03 -0.43312556117E+03  0.40634304184E+03  0.63862548583E+03  0.79937255324E+02 0.  0.
        254    2    1    2    0    0  0.22077166252E+03  0.43312556117E+03  0.14498250292E+04  0.17666789600E+04  0.88477344764E+03 0.  0.
         23    2    4    4    0    0  0.42560913068E+02 -0.10568972435E+03 -0.54997735714E+02  0.15583079301E+03  0.90976568211E+02 0.  0.
         23    2    4    4    0    0  0.17821074945E+03  0.53881528552E+03  0.15048227649E+04  0.16108481670E+04  0.90880581485E+02 0.  0.
          4    1    3    3  502    0 -0.72115725700E+02 -0.12849366847E+03  0.17228053562E+03  0.22669778050E+03  0.00000000000E+00 0. -1.
         -3    1    3    3    0  502 -0.14865593682E+03 -0.30463189269E+03  0.23406250623E+03  0.41192770533E+03  0.00000000000E+00 0.  1.
         13    1    5    5    0    0  0.63068190621E+02 -0.37436902793E+02 -0.37834374956E+02  0.82526106701E+02  0.00000000000E+00 0. -1.
        -13    1    5    5    0    0 -0.20507277553E+02 -0.68252821554E+02 -0.17163360758E+02  0.73304686312E+02  0.00000000000E+00 0.  1.
          2    1    6    6  503    0  0.60728938076E+02  0.81181718190E+02  0.23302825439E+03  0.25412721742E+03  0.00000000000E+00 0. -1.
         -2    1    6    6    0  503  0.11748181137E+03  0.45763356733E+03  0.12717945106E+04  0.13567209496E+04  0.00000000000E+00 0.  1.
<mgrwt>
<rscale>  0 0.15297482E+04</rscale>
<asrwt>0</asrwt>
<pdfrwt beam="1">  1        2 0.32780557E+00 0.15297482E+04</pdfrwt>
<pdfrwt beam="2">  1       -1 0.42241261E-01 0.15297482E+04</pdfrwt>
<totfact> 0.34187537E+01</totfact>
</mgrwt>
</event>
<event>
12    7  0.1606355E-007  0.3084831E+04  0.7818608E-02  0.8219913E-01
          2   -1    0    0  501    0  0.00000000000E+00  0.00000000000E+00  0.21550909511E+04  0.21550909511E+04  0.00000000000E+00 0. -1.
         -1   -1    0    0    0  501 -0.00000000000E+00 -0.00000000000E+00 -0.11039187271E+04  0.11039187271E+04  0.00000000000E+00 0.  1.
         24    2    1    2    0    0 -0.12657785294E+04  0.14064870016E+02 -0.18478035333E+03  0.12818154008E+04  0.80708343622E+02 0.  0.
        254    2    1    2    0    0  0.12657785294E+04 -0.14064870016E+02  0.12359525774E+04  0.19771942774E+04  0.88279404785E+03 0.  0.
         23    2    4    4    0    0  0.10525328625E+04  0.52333850651E+02  0.44038642056E+03  0.11457772433E+04  0.91110006573E+02 0.  0.
         23    2    4    4    0    0  0.21324566691E+03 -0.66398720668E+02  0.79556615686E+03  0.83141703411E+03  0.91903591402E+02 0.  0.
          4    1    3    3  502    0 -0.47365203240E+03  0.33924909389E+02 -0.96113122595E+02  0.48449445777E+03  0.00000000000E+00 0. -1.
         -3    1    3    3    0  502 -0.79212649698E+03 -0.19860039373E+02 -0.88667230733E+02  0.79732094303E+03  0.00000000000E+00 0.  1.
         13    1    5    5    0    0  0.23889175076E+03  0.49943307493E+02  0.96356805148E+02  0.26238947472E+03  0.00000000000E+00 0. -1.
        -13    1    5    5    0    0  0.81364111172E+03  0.23905431583E+01  0.34402961541E+03  0.88338776857E+03  0.00000000000E+00 0.  1.
          4    1    6    6  503    0  0.12712799585E+03 -0.63055898725E+02  0.35148535099E+03  0.37905082199E+03  0.00000000000E+00 0. -1.
         -4    1    6    6    0  503  0.86117671061E+02 -0.33428219428E+01  0.44408080587E+03  0.45236621212E+03  0.00000000000E+00 0.  1.
<mgrwt>
<rscale>  0 0.30848308E+04</rscale>
<asrwt>0</asrwt>
<pdfrwt beam="1">  1        2 0.33155245E+00 0.30848308E+04</pdfrwt>
<pdfrwt beam="2">  1       -1 0.16983365E+00 0.30848308E+04</pdfrwt>
<totfact> 0.13054083E+00</totfact>
</mgrwt>
</event>
<event>
12    7  0.1606355E-007  0.2880198E+04  0.7818608E-02  0.8278794E-01
          2   -1    0    0  501    0  0.00000000000E+00  0.00000000000E+00  0.10659932417E+04  0.10659932417E+04  0.00000000000E+00 0. -1.
         -1   -1    0    0    0  501 -0.00000000000E+00 -0.00000000000E+00 -0.19454955765E+04  0.19454955765E+04  0.00000000000E+00 0.  1.
         24    2    1    2    0    0 -0.81972110378E+02 -0.59717568583E+03  0.80507982351E+03  0.10090119826E+04  0.81323011128E+02 0.  0.
        254    2    1    2    0    0  0.81972110378E+02  0.59717568583E+03 -0.16845821583E+04  0.20024768357E+04  0.89930984806E+03 0.  0.
         23    2    4    4    0    0 -0.10845971987E+03  0.12829850294E+03  0.48418479291E+02  0.19473406478E+03  0.85749578183E+02 0.  0.
         23    2    4    4    0    0  0.19043183025E+03  0.46887718289E+03 -0.17330006376E+04  0.18077427709E+04  0.92372189111E+02 0.  0.
          2    1    3    3  502    0 -0.96422239227E+02 -0.49969379316E+03  0.65495276495E+03  0.82943008111E+03  0.00000000000E+00 0. -1.
         -1    1    3    3    0  502  0.14450128849E+02 -0.97481892672E+02  0.15012705855E+03  0.17958190146E+03  0.00000000000E+00 0.  1.
         13    1    5    5    0    0 -0.51170984524E+02  0.71565273238E+02  0.68667866710E+02  0.11160346728E+03  0.00000000000E+00 0. -1.
        -13    1    5    5    0    0 -0.57288735344E+02  0.56733229701E+02 -0.20249387418E+02  0.83130597499E+02  0.00000000000E+00 0.  1.
          2    1    6    6  503    0  0.13126611402E+03  0.40668534642E+03 -0.14874195305E+04  0.15475918788E+04  0.00000000000E+00 0. -1.
         -2    1    6    6    0  503  0.59165716223E+02  0.62191836468E+02 -0.24558110707E+03  0.26015089208E+03  0.00000000000E+00 0.  1.
<mgrwt>
<rscale>  0 0.28801980E+04</rscale>
<asrwt>0</asrwt>
<pdfrwt beam="1">  1        2 0.16399896E+00 0.28801980E+04</pdfrwt>
<pdfrwt beam="2">  1       -1 0.29930701E+00 0.28801980E+04</pdfrwt>
<totfact> 0.75185398E-01</totfact>
</mgrwt>
</event>
<event>
12    7  0.1606355E-007  0.1599981E+04  0.7818608E-02  0.8820560E-01
          2   -1    0    0  501    0  0.00000000000E+00  0.00000000000E+00  0.17459707328E+04  0.17459707328E+04  0.00000000000E+00 0. -1.
         -1   -1    0    0    0  501 -0.00000000000E+00 -0.00000000000E+00 -0.36654967831E+03  0.36654967831E+03  0.00000000000E+00 0.  1.
         24    2    1    2    0    0  0.44762257146E+03 -0.18065306897E+03  0.75563979354E+03  0.90092739636E+03  0.87619507681E+02 0.  0.
        254    2    1    2    0    0 -0.44762257146E+03  0.18065306897E+03  0.62378126098E+03  0.12115930148E+04  0.91970270963E+03 0.  0.
         23    2    4    4    0    0 -0.40861833210E+03 -0.43607822345E+02 -0.11186481127E+03  0.43622982613E+03  0.94404140323E+02 0.  0.
         23    2    4    4    0    0 -0.39004239362E+02  0.22426089132E+03  0.73564607225E+03  0.77536318865E+03  0.90546411470E+02 0.  0.
          2    1    3    3  502    0  0.31800381275E+02 -0.47318310305E+01  0.98595347601E+02  0.10370485544E+03  0.00000000000E+00 0. -1.
         -1    1    3    3    0  502  0.41582219018E+03 -0.17592123794E+03  0.65704444594E+03  0.79722254092E+03  0.00000000000E+00 0.  1.
         13    1    5    5    0    0 -0.13905547594E+03 -0.33866930734E+02  0.27590975602E+01  0.14314680228E+03  0.00000000000E+00 0.  1.
        -13    1    5    5    0    0 -0.26956285616E+03 -0.97408916104E+01 -0.11462390883E+03  0.29308302384E+03  0.00000000000E+00 0. -1.
          2    1    6    6  503    0 -0.21840214751E+02  0.19604016861E+01  0.71924459213E+02  0.75192858625E+02  0.00000000000E+00 0. -1.
         -2    1    6    6    0  503 -0.17164024611E+02  0.22230048963E+03  0.66372161304E+03  0.70017033002E+03  0.00000000000E+00 0.  1.
<mgrwt>
<rscale>  0 0.15999813E+04</rscale>
<asrwt>0</asrwt>
<pdfrwt beam="1">  1        2 0.26861088E+00 0.15999813E+04</pdfrwt>
<pdfrwt beam="2">  1       -1 0.56392260E-01 0.15999813E+04</pdfrwt>
<totfact> 0.32140998E+01</totfact>
</mgrwt>
</event>
<event>
12    7  0.1606355E-007  0.2381658E+04  0.7818608E-02  0.8446403E-01
          2   -1    0    0  501    0  0.00000000000E+00  0.00000000000E+00  0.36470435806E+04  0.36470435806E+04  0.00000000000E+00 0. -1.
         -1   -1    0    0    0  501 -0.00000000000E+00 -0.00000000000E+00 -0.38882834883E+03  0.38882834883E+03  0.00000000000E+00 0.  1.
         24    2    1    2    0    0 -0.84344524940E+03  0.18259467171E+03  0.47337957652E+03  0.98739349209E+03  0.78211136564E+02 0.  0.
        254    2    1    2    0    0  0.84344524940E+03 -0.18259467171E+03  0.27848356552E+04  0.30484784373E+04  0.89060117520E+03 0.  0.
         23    2    4    4    0    0  0.14877437852E+02  0.16940771631E+03  0.12658533008E+04  0.12803779604E+04  0.89793261627E+02 0.  0.
         23    2    4    4    0    0  0.82856781155E+03 -0.35200238802E+03  0.15189823544E+04  0.17681004769E+04  0.91878201300E+02 0.  0.
          4    1    3    3  502    0 -0.25950300662E+03  0.57389783323E+02  0.18767577334E+03  0.32535763949E+03  0.00000000000E+00 0. -1.
         -3    1    3    3    0  502 -0.58394224278E+03  0.12520488839E+03  0.28570380318E+03  0.66203585260E+03  0.00000000000E+00 0.  1.
         13    1    5    5    0    0  0.23273458590E+02  0.54611184849E+01  0.90005768955E+02  0.93126345011E+02  0.00000000000E+00 0. -1.
        -13    1    5    5    0    0 -0.83960207382E+01  0.16394659783E+03  0.11758475319E+04  0.11872516154E+04  0.00000000000E+00 0.  1.
          4    1    6    6  503    0  0.19275361174E+03 -0.54452432789E+02  0.28365119911E+03  0.34724202659E+03  0.00000000000E+00 0. -1.
         -4    1    6    6    0  503  0.63581419981E+03 -0.29754995524E+03  0.12353311553E+04  0.14208584503E+04  0.00000000000E+00 0.  1.
<mgrwt>
<rscale>  0 0.23816582E+04</rscale>
<asrwt>0</asrwt>
<pdfrwt beam="1">  1        2 0.56108361E+00 0.23816582E+04</pdfrwt>
<pdfrwt beam="2">  1       -1 0.59819748E-01 0.23816582E+04</pdfrwt>
<totfact> 0.18579300E+00</totfact>
</mgrwt>
</event>
<event>
12    7  0.1606355E-007  0.1456922E+04  0.7818608E-02  0.8913616E-01
          2   -1    0    0  501    0  0.00000000000E+00  0.00000000000E+00  0.15653767103E+04  0.15653767103E+04  0.00000000000E+00 0. -1.
         -1   -1    0    0    0  501 -0.00000000000E+00 -0.00000000000E+00 -0.33899545655E+03  0.33899545655E+03  0.00000000000E+00 0.  1.
         24    2    1    2    0    0 -0.65704117509E+02  0.21826571185E+03  0.88792797118E+03  0.92012383699E+03  0.79087555104E+02 0.  0.
        254    2    1    2    0    0  0.65704117509E+02 -0.21826571185E+03  0.33845328254E+03  0.98424832982E+03  0.89567694972E+03 0.  0.
         23    2    4    4    0    0 -0.14275052425E+03 -0.17230565636E+03  0.59280435600E+03  0.64010503478E+03  0.90832261184E+02 0.  0.
         23    2    4    4    0    0  0.20845464175E+03 -0.45960055497E+02 -0.25435107347E+03  0.34414329504E+03  0.90412800949E+02 0.  0.
          4    1    3    3  502    0 -0.13806563406E+02  0.15636133239E+03  0.50781142549E+03  0.53151851456E+03  0.00000000000E+00 0. -1.
         -3    1    3    3    0  502 -0.51897554103E+02  0.61904379466E+02  0.38011654569E+03  0.38860532243E+03  0.00000000000E+00 0.  1.
         13    1    5    5    0    0 -0.36498030657E+01 -0.18814363251E+02  0.10071393735E+02  0.21650272487E+02  0.00000000000E+00 0. -1.
        -13    1    5    5    0    0 -0.13910072118E+03 -0.15349129310E+03  0.58273296227E+03  0.61845476230E+03  0.00000000000E+00 0.  1.
          3    1    6    6  503    0 -0.27350410290E+01  0.58741910895E+01  0.30667638297E+01  0.71687942343E+01  0.00000000000E+00 0. -1.
         -3    1    6    6    0  503  0.21118968278E+03 -0.51834246586E+02 -0.25741783730E+03  0.33697450080E+03  0.00000000000E+00 0.  1.
<mgrwt>
<rscale>  0 0.14569222E+04</rscale>
<asrwt>0</asrwt>
<pdfrwt beam="1">  1        2 0.24082718E+00 0.14569222E+04</pdfrwt>
<pdfrwt beam="2">  1       -1 0.52153148E-01 0.14569222E+04</pdfrwt>
<totfact> 0.47682461E+01</totfact>
</mgrwt>
</event>
<event>
12    7  0.1606355E-007  0.1254950E+04  0.7818608E-02  0.9066073E-01
         -1   -1    0    0    0  501 -0.00000000000E+00  0.00000000000E+00  0.17151192683E+03  0.17151192683E+03  0.00000000000E+00 0.  1.
          2   -1    0    0  501    0  0.00000000000E+00 -0.00000000000E+00 -0.22956128789E+04  0.22956128789E+04  0.00000000000E+00 0. -1.
         24    2    1    2    0    0 -0.18747225017E+03  0.52821400952E+02 -0.79939852335E+02  0.22494509602E+03  0.79208403910E+02 0.  0.
        254    2    1    2    0    0  0.18747225017E+03 -0.52821400952E+02 -0.20441610997E+04  0.22421797097E+04  0.90046615928E+03 0.  0.
         23    2    4    4    0    0  0.12450150191E+03 -0.46445282058E+03 -0.12236997123E+04  0.13178193956E+04  0.89386391398E+02 0.  0.
         23    2    4    4    0    0  0.62970748252E+02  0.41163141963E+03 -0.82046138747E+03  0.92436031417E+03  0.88765766567E+02 0.  0.
          4    1    3    3  502    0 -0.22264821839E+02  0.37274028562E+02 -0.83003294490E+01  0.44203743798E+02  0.00000000000E+00 0. -1.
         -3    1    3    3    0  502 -0.16520742833E+03  0.15547372389E+02 -0.71639522886E+02  0.18074135222E+03  0.00000000000E+00 0.  1.
         13    1    5    5    0    0  0.15122529553E+02 -0.19905145408E+03 -0.43878566031E+03  0.48206122844E+03  0.00000000000E+00 0.  1.
        -13    1    5    5    0    0  0.10937897236E+03 -0.26540136650E+03 -0.78491405196E+03  0.83575816711E+03  0.00000000000E+00 0. -1.
          2    1    6    6  503    0  0.15383230358E+02  0.10185061322E+03 -0.12819193509E+03  0.16444866498E+03  0.00000000000E+00 0. -1.
         -2    1    6    6    0  503  0.47587517895E+02  0.30978080641E+03 -0.69226945238E+03  0.75991164919E+03  0.00000000000E+00 0.  1.
<mgrwt>
<rscale>  0 0.12549502E+04</rscale>
<asrwt>0</asrwt>
<pdfrwt beam="1">  1        2 0.35317121E+00 0.12549502E+04</pdfrwt>
<pdfrwt beam="2">  1       -1 0.26386450E-01 0.12549502E+04</pdfrwt>
<totfact> 0.65383996E+01</totfact>
</mgrwt>
</event>
<event>
12    7  0.1606355E-007  0.2808469E+04  0.7818608E-02  0.8300644E-01
         -1   -1    0    0    0  501 -0.00000000000E+00  0.00000000000E+00  0.77227477561E+03  0.77227477561E+03  0.00000000000E+00 0.  1.
          2   -1    0    0  501    0  0.00000000000E+00 -0.00000000000E+00 -0.25533326614E+04  0.25533326614E+04  0.00000000000E+00 0. -1.
         24    2    1    2    0    0  0.10491512217E+04 -0.15342813023E+03 -0.15998193266E+04  0.19209475888E+04  0.79745119845E+02 0.  0.
        254    2    1    2    0    0 -0.10491512217E+04  0.15342813023E+03 -0.18123855922E+03  0.14046598482E+04  0.90330692281E+03 0.  0.
         23    2    4    4    0    0 -0.48306760131E+03  0.14465805873E+03  0.35270512186E+03  0.62155961758E+03  0.87493964508E+02 0.  0.
         23    2    4    4    0    0 -0.56608362036E+03  0.87700714916E+01 -0.53394368108E+03  0.78310023065E+03  0.87307143379E+02 0.  0.
          2    1    3    3  502    0  0.86516607900E+03 -0.10821542979E+03 -0.13568248253E+04  0.16128225352E+04  0.00000000000E+00 0. -1.
         -1    1    3    3    0  502  0.18398514266E+03 -0.45212700441E+02 -0.24299450129E+03  0.30812505360E+03  0.00000000000E+00 0.  1.
         13    1    5    5    0    0 -0.40959088064E+03  0.87861853675E+02  0.29074709875E+03  0.50991986652E+03  0.00000000000E+00 0. -1.
        -13    1    5    5    0    0 -0.73476720662E+02  0.56796205060E+02  0.61958023109E+02  0.11163975106E+03  0.00000000000E+00 0.  1.
          1    1    6    6  503    0 -0.52329275052E+03 -0.15739855404E+02 -0.48843485479E+03  0.71599696450E+03  0.00000000000E+00 0. -1.
         -1    1    6    6    0  503 -0.42790869838E+02  0.24509926896E+02 -0.45508826287E+02  0.67103266149E+02  0.00000000000E+00 0.  1.
<mgrwt>
<rscale>  0 0.28084689E+04</rscale>
<asrwt>0</asrwt>
<pdfrwt beam="1">  1        2 0.39282040E+00 0.28084689E+04</pdfrwt>
<pdfrwt beam="2">  1       -1 0.11881151E+00 0.28084689E+04</pdfrwt>
<totfact> 0.20317786E+00</totfact>
</mgrwt>
</event>
<event>
12    7  0.1606355E-007  0.3113233E+04  0.7818608E-02  0.8212116E-01
          2   -1    0    0  501    0  0.00000000000E+00  0.00000000000E+00  0.24332449423E+04  0.24332449423E+04  0.00000000000E+00 0. -1.
         -1   -1    0    0    0  501 -0.00000000000E+00 -0.00000000000E+00 -0.99581195080E+03  0.99581195080E+03  0.00000000000E+00 0.  1.
         24    2    1    2    0    0  0.12404070157E+04  0.38798473755E+03  0.11001852762E+02  0.13022314768E+04  0.80895347454E+02 0.  0.
        254    2    1    2    0    0 -0.12404070157E+04 -0.38798473755E+03  0.14264311387E+04  0.21268254163E+04  0.89416935559E+03 0.  0.
         23    2    4    4    0    0 -0.51833530936E+03  0.27310986340E+03  0.58028337410E+03  0.82952583916E+03  0.90132309228E+02 0.  0.
         23    2    4    4    0    0 -0.72207170637E+03 -0.66109460096E+03  0.84614776463E+03  0.12972995771E+04  0.92663545124E+02 0.  0.
          4    1    3    3  502    0  0.34614719727E+03  0.81345215439E+02  0.28298229176E+02  0.35670115787E+03  0.00000000000E+00 0. -1.
         -3    1    3    3    0  502  0.89425981846E+03  0.30663952211E+03 -0.17296376415E+02  0.94553031896E+03  0.00000000000E+00 0.  1.
         13    1    5    5    0    0 -0.50396374564E+03  0.24372848283E+03  0.54237383253E+03  0.77945648017E+03  0.00000000000E+00 0.  1.
        -13    1    5    5    0    0 -0.14371563713E+02  0.29381380569E+02  0.37909541569E+02  0.50069358990E+02  0.00000000000E+00 0. -1.
          2    1    6    6  503    0 -0.62440828279E+03 -0.53097899927E+03  0.72752918630E+03  0.10959576261E+04  0.00000000000E+00 0. -1.
         -2    1    6    6    0  503 -0.97663423578E+02 -0.13011560168E+03  0.11861857833E+03  0.20134195100E+03  0.00000000000E+00 0.  1.
<mgrwt>
<rscale>  0 0.31132327E+04</rscale>
<asrwt>0</asrwt>
<pdfrwt beam="1">  1        2 0.37434537E+00 0.31132327E+04</pdfrwt>
<pdfrwt beam="2">  1       -1 0.15320184E+00 0.31132327E+04</pdfrwt>
<totfact> 0.12080800E+00</totfact>
</mgrwt>
</event>
<event>
12    7  0.1606355E-007  0.1546500E+04  0.7818608E-02  0.8854106E-01
          2   -1    0    0  501    0  0.00000000000E+00  0.00000000000E+00  0.16717953892E+04  0.16717953892E+04  0.00000000000E+00 0. -1.
         -1   -1    0    0    0  501 -0.00000000000E+00 -0.00000000000E+00 -0.35764894969E+03  0.35764894969E+03  0.00000000000E+00 0.  1.
         24    2    1    2    0    0  0.56376439699E+02  0.21263880840E+03 -0.16354848439E+03  0.28589959925E+03  0.81221353816E+02 0.  0.
        254    2    1    2    0    0 -0.56376439699E+02 -0.21263880840E+03  0.14776949239E+04  0.17435447396E+04  0.89887285261E+03 0.  0.
         23    2    4    4    0    0 -0.18356856432E+03 -0.14233887097E+03  0.15408032744E+04  0.15609795347E+04  0.92868752078E+02 0.  0.
         23    2    4    4    0    0  0.12719212462E+03 -0.70299937425E+02 -0.63108350585E+02  0.18256520492E+03  0.90705415317E+02 0.  0.
          4    1    3    3  502    0  0.38156732555E+02  0.24248411702E+02 -0.30021048971E+02  0.54269559522E+02  0.00000000000E+00 0. -1.
         -3    1    3    3    0  502  0.18219707144E+02  0.18839039669E+03 -0.13352743542E+03  0.23163003973E+03  0.00000000000E+00 0.  1.
         13    1    5    5    0    0 -0.13093458443E+03 -0.71898151181E+02  0.71048171197E+03  0.72601478813E+03  0.00000000000E+00 0.  1.
        -13    1    5    5    0    0 -0.52633979886E+02 -0.70440719790E+02  0.83032156248E+03  0.83496474654E+03  0.00000000000E+00 0. -1.
          3    1    6    6  503    0  0.24485640528E+02 -0.27634087297E+02  0.21589183323E+02  0.42770108830E+02  0.00000000000E+00 0. -1.
         -3    1    6    6    0  503  0.10270648409E+03 -0.42665850128E+02 -0.84697533907E+02  0.13979509609E+03  0.00000000000E+00 0.  1.
<mgrwt>
<rscale>  0 0.15465004E+04</rscale>
<asrwt>0</asrwt>
<pdfrwt beam="1">  1        2 0.25719929E+00 0.15465004E+04</pdfrwt>
<pdfrwt beam="2">  1       -1 0.55022916E-01 0.15465004E+04</pdfrwt>
<totfact> 0.37233100E+01</totfact>
</mgrwt>
</event>
<event>
12    7  0.1606355E-007  0.2247470E+04  0.7818608E-02  0.8498926E-01
          2   -1    0    0  501    0  0.00000000000E+00  0.00000000000E+00  0.26406865907E+04  0.26406865907E+04  0.00000000000E+00 0. -1.
         -1   -1    0    0    0  501 -0.00000000000E+00 -0.00000000000E+00 -0.47820147784E+03  0.47820147784E+03  0.00000000000E+00 0.  1.
         24    2    1    2    0    0 -0.81536770513E+03 -0.37126983749E+03  0.49720798833E+03  0.10278244323E+04  0.80879498109E+02 0.  0.
        254    2    1    2    0    0  0.81536770513E+03  0.37126983749E+03  0.16652771245E+04  0.20910636362E+04  0.89259926191E+03 0.  0.
         23    2    4    4    0    0  0.23048338922E+03  0.28816760840E+03  0.69616560103E+02  0.38709037867E+03  0.93964528303E+02 0.  0.
         23    2    4    4    0    0  0.58488431592E+03  0.83102229089E+02  0.15956605644E+04  0.17039732575E+04  0.91632865567E+02 0.  0.
          2    1    3    3  502    0 -0.30768174641E+02 -0.96044219897E+00  0.79929369443E+01  0.31803931533E+02  0.00000000000E+00 0. -1.
         -1    1    3    3    0  502 -0.78459953049E+03 -0.37030939529E+03  0.48921505138E+03  0.99602050079E+03  0.00000000000E+00 0.  1.
         13    1    5    5    0    0 -0.51391284238E+01 -0.29332550702E+01 -0.94166342449E+00  0.59917740502E+01  0.00000000000E+00 0. -1.
        -13    1    5    5    0    0  0.23562251764E+03  0.29110086347E+03  0.70558223528E+02  0.38109860462E+03  0.00000000000E+00 0.  1.
          2    1    6    6  503    0  0.18240986792E+03  0.68042313242E+02  0.49186857519E+03  0.52899698635E+03  0.00000000000E+00 0. -1.
         -2    1    6    6    0  503  0.40247444800E+03  0.15059915847E+02  0.11037919892E+04  0.11749762712E+04  0.00000000000E+00 0.  1.
<mgrwt>
<rscale>  0 0.22474699E+04</rscale>
<asrwt>0</asrwt>
<pdfrwt beam="1">  1        2 0.40625947E+00 0.22474699E+04</pdfrwt>
<pdfrwt beam="2">  1       -1 0.73569460E-01 0.22474699E+04</pdfrwt>
<totfact> 0.55542918E+00</totfact>
</mgrwt>
</event>
<event>
12    7  0.1606355E-007  0.1696728E+04  0.7818608E-02  0.8763233E-01
         -1   -1    0    0    0  501 -0.00000000000E+00  0.00000000000E+00  0.22819547816E+03  0.22819547816E+03  0.00000000000E+00 0.  1.
          2   -1    0    0  501    0  0.00000000000E+00 -0.00000000000E+00 -0.31539678134E+04  0.31539678134E+04  0.00000000000E+00 0. -1.
         24    2    1    2    0    0 -0.15290659914E+03  0.23770214965E+03  0.10297105833E+02  0.30355141218E+03  0.11024830810E+03 0.  0.
        254    2    1    2    0    0  0.15290659914E+03 -0.23770214965E+03 -0.29360694411E+04  0.30786118794E+04  0.88173953128E+03 0.  0.
         23    2    4    4    0    0  0.19801025402E+03  0.89415491833E+02 -0.25564213496E+04  0.25675231279E+04  0.98395655538E+02 0.  0.
         23    2    4    4    0    0 -0.45103654882E+02 -0.32711764148E+03 -0.37964809150E+03  0.51108875145E+03  0.89659062138E+02 0.  0.
          4    1    3    3  502    0 -0.83102670101E+02  0.47128078637E+02  0.28724510691E+02  0.99760749237E+02  0.00000000000E+00 0. -1.
         -3    1    3    3    0  502 -0.69803929036E+02  0.19057407101E+03 -0.18427404858E+02  0.20379066294E+03  0.00000000000E+00 0.  1.
         13    1    5    5    0    0  0.19931299780E+03  0.58843246594E+02 -0.22509320272E+04  0.22605050741E+04  0.00000000000E+00 0. -1.
        -13    1    5    5    0    0 -0.13027437836E+01  0.30572245239E+02 -0.30548932234E+03  0.30701805384E+03  0.00000000000E+00 0.  1.
          4    1    6    6  503    0 -0.25686593752E+02 -0.93666201128E+02 -0.57824289434E+02  0.11303453800E+03  0.00000000000E+00 0. -1.
         -4    1    6    6    0  503 -0.19417061130E+02 -0.23345144035E+03 -0.32182380207E+03  0.39805421345E+03  0.00000000000E+00 0.  1.
<mgrwt>
<rscale>  0 0.16967277E+04</rscale>
<asrwt>0</asrwt>
<pdfrwt beam="1">  1        2 0.48522580E+00 0.16967277E+04</pdfrwt>
<pdfrwt beam="2">  1       -1 0.35106998E-01 0.16967277E+04</pdfrwt>
<totfact> 0.11691415E+01</totfact>
</mgrwt>
</event>
<event>
12    7  0.1606355E-007  0.3593920E+04  0.7818608E-02  0.8091886E-01
          2   -1    0    0  501    0  0.00000000000E+00  0.00000000000E+00  0.25086524944E+04  0.25086524944E+04  0.00000000000E+00 0. -1.
         -1   -1    0    0    0  501 -0.00000000000E+00 -0.00000000000E+00 -0.12871713403E+04  0.12871713403E+04  0.00000000000E+00 0.  1.
         24    2    1    2    0    0  0.13906453996E+04 -0.79970975894E+03  0.24272804371E+02  0.16064001316E+04  0.80634284747E+02 0.  0.
        254    2    1    2    0    0 -0.13906453996E+04  0.79970975894E+03  0.11972083497E+04  0.21894237031E+04  0.88703889058E+03 0.  0.
         23    2    4    4    0    0 -0.19309762577E+03 -0.61829329458E+02 -0.80138857253E+02  0.23591010365E+03  0.90120927105E+02 0.  0.
         23    2    4    4    0    0 -0.11975477738E+04  0.86153908839E+03  0.12773472070E+04  0.19535135995E+04  0.90715075551E+02 0.  0.
          2    1    3    3  502    0  0.63132434335E+03 -0.35171388846E+03  0.49837981277E+02  0.72440107001E+03  0.00000000000E+00 0. -1.
         -1    1    3    3    0  502  0.75932105620E+03 -0.44799587047E+03 -0.25565176906E+02  0.88199906157E+03  0.00000000000E+00 0.  1.
         13    1    5    5    0    0 -0.80278467184E+02  0.11072160469E+02 -0.58282225051E+02  0.99820052032E+02  0.00000000000E+00 0. -1.
        -13    1    5    5    0    0 -0.11281915858E+03 -0.72901489926E+02 -0.21856632203E+02  0.13609005161E+03  0.00000000000E+00 0.  1.
          2    1    6    6  503    0 -0.32773737495E+03  0.21673026371E+03  0.38998519399E+03  0.55359935484E+03  0.00000000000E+00 0. -1.
         -2    1    6    6    0  503 -0.86981039883E+03  0.64480882469E+03  0.88736201297E+03  0.13999142446E+04  0.00000000000E+00 0.  1.
<mgrwt>
<rscale>  0 0.35939202E+04</rscale>
<asrwt>0</asrwt>
<pdfrwt beam="1">  1        2 0.38594654E+00 0.35939202E+04</pdfrwt>
<pdfrwt beam="2">  1       -1 0.19802636E+00 0.35939202E+04</pdfrwt>
<totfact> 0.49519574E-01</totfact>
</mgrwt>
</event>
<event>
12    7  0.1606355E-007  0.1389058E+04  0.7818608E-02  0.8961777E-01
          2   -1    0    0  501    0  0.00000000000E+00  0.00000000000E+00  0.22678066036E+04  0.22678066036E+04  0.00000000000E+00 0. -1.
         -1   -1    0    0    0  501 -0.00000000000E+00 -0.00000000000E+00 -0.21270356309E+03  0.21270356309E+03  0.00000000000E+00 0.  1.
         24    2    1    2    0    0 -0.14483634346E+03 -0.43457188913E+02  0.12529043824E+04  0.12645279134E+04  0.79970985050E+02 0.  0.
        254    2    1    2    0    0  0.14483634346E+03  0.43457188913E+02  0.80219865801E+03  0.12159822533E+04  0.90123474174E+03 0.  0.
         23    2    4    4    0    0  0.19104638843E+03 -0.16184733740E+03  0.91980310769E+03  0.95788972727E+03  0.93923849652E+02 0.  0.
         23    2    4    4    0    0 -0.46210044969E+02  0.20530452631E+03 -0.11760444968E+03  0.25809252601E+03  0.92171734375E+02 0.  0.
          4    1    3    3  502    0 -0.12591575516E+03 -0.53456343683E+02  0.83966540267E+03  0.85073518002E+03  0.00000000000E+00 0. -1.
         -3    1    3    3    0  502 -0.18920588295E+02  0.99991547702E+01  0.41323897978E+03  0.41379273334E+03  0.00000000000E+00 0.  1.
         13    1    5    5    0    0  0.18713661795E+03 -0.12243119857E+03  0.83265745707E+03  0.86216469017E+03  0.00000000000E+00 0. -1.
        -13    1    5    5    0    0  0.39097704796E+01 -0.39416138829E+02  0.87145650620E+02  0.95725037098E+02  0.00000000000E+00 0.  1.
          4    1    6    6  503    0 -0.59079797550E+02  0.14637965418E+03 -0.11912741166E+03  0.19775936348E+03  0.00000000000E+00 0. -1.
         -4    1    6    6    0  503  0.12869752581E+02  0.58924872130E+02  0.15229619819E+01  0.60333162524E+02  0.00000000000E+00 0.  1.
<mgrwt>
<rscale>  0 0.13890580E+04</rscale>
<asrwt>0</asrwt>
<pdfrwt beam="1">  1        2 0.34889331E+00 0.13890580E+04</pdfrwt>
<pdfrwt beam="2">  1       -1 0.32723627E-01 0.13890580E+04</pdfrwt>
<totfact> 0.45995773E+01</totfact>
</mgrwt>
</event>
<event>
12    7  0.1606355E-007  0.2537662E+04  0.7818608E-02  0.8389690E-01
          2   -1    0    0  501    0  0.00000000000E+00  0.00000000000E+00  0.21064359773E+04  0.21064359773E+04  0.00000000000E+00 0. -1.
         -1   -1    0    0    0  501 -0.00000000000E+00 -0.00000000000E+00 -0.76429218241E+03  0.76429218241E+03  0.00000000000E+00 0.  1.
         24    2    1    2    0    0 -0.78255324889E+03 -0.44966252066E+03  0.13300536180E+04  0.16093922262E+04  0.80713946341E+02 0.  0.
        254    2    1    2    0    0  0.78255324889E+03  0.44966252066E+03  0.12090176871E+02  0.12613359335E+04  0.88104267485E+03 0.  0.
         23    2    4    4    0    0  0.88950878722E+03  0.29399948100E+03 -0.20056815142E+03  0.96239920643E+03  0.91230870803E+02 0.  0.
         23    2    4    4    0    0 -0.10695553834E+03  0.15566303966E+03  0.21265832829E+03  0.29893672706E+03  0.92027893062E+02 0.  0.
          4    1    3    3  502    0 -0.38263021677E+03 -0.21918592444E+03  0.57830328792E+03  0.72724345654E+03  0.00000000000E+00 0. -1.
         -3    1    3    3    0  502 -0.39992303212E+03 -0.23047659622E+03  0.75175033006E+03  0.88214876964E+03  0.00000000000E+00 0.  1.
         13    1    5    5    0    0  0.35689240265E+03  0.97354212014E+02 -0.12026107987E+03  0.38898940474E+03  0.00000000000E+00 0.  1.
        -13    1    5    5    0    0  0.53261638457E+03  0.19664526899E+03 -0.80307071548E+02  0.57340980169E+03  0.00000000000E+00 0. -1.
          1    1    6    6  503    0 -0.12032258723E+03  0.11951372709E+03  0.15610590788E+03  0.23049969726E+03  0.00000000000E+00 0. -1.
         -1    1    6    6    0  503  0.13367048890E+02  0.36149312564E+02  0.56552420406E+02  0.68437029806E+02  0.00000000000E+00 0.  1.
<mgrwt>
<rscale>  0 0.25376623E+04</rscale>
<asrwt>0</asrwt>
<pdfrwt beam="1">  1        2 0.32406707E+00 0.25376623E+04</pdfrwt>
<pdfrwt beam="2">  1       -1 0.11758341E+00 0.25376623E+04</pdfrwt>
<totfact> 0.38345846E+00</totfact>
</mgrwt>
</event>
<event>
12    7  0.1606355E-007  0.1284222E+04  0.7818608E-02  0.9042172E-01
          2   -1    0    0  501    0  0.00000000000E+00  0.00000000000E+00  0.36162562800E+03  0.36162562800E+03  0.00000000000E+00 0. -1.
         -1   -1    0    0    0  501 -0.00000000000E+00 -0.00000000000E+00 -0.11401476940E+04  0.11401476940E+04  0.00000000000E+00 0.  1.
         24    2    1    2    0    0 -0.14498994203E+02  0.47901712566E+02  0.17153470876E+03  0.19536208770E+03  0.78977174574E+02 0.  0.
        254    2    1    2    0    0  0.14498994203E+02 -0.47901712566E+02 -0.95005677472E+03  0.13064112343E+04  0.89531985507E+03 0.  0.
         23    2    4    4    0    0 -0.26772252829E+03 -0.29455623906E+03 -0.18176981248E+03  0.44659200068E+03  0.89249202927E+02 0.  0.
         23    2    4    4    0    0  0.28222152249E+03  0.24665452649E+03 -0.76828696225E+03  0.85981923357E+03  0.92394885491E+02 0.  0.
          4    1    3    3  502    0  0.32165370936E+02  0.28274638277E+02  0.81792029342E+02  0.92325523670E+02  0.00000000000E+00 0. -1.
         -3    1    3    3    0  502 -0.46664365139E+02  0.19627074289E+02  0.89742679417E+02  0.10303656403E+03  0.00000000000E+00 0.  1.
         13    1    5    5    0    0 -0.50887736250E+02 -0.18292785534E+02 -0.76917107714E+01  0.54620052342E+02  0.00000000000E+00 0. -1.
        -13    1    5    5    0    0 -0.21683479204E+03 -0.27626345352E+03 -0.17407810170E+03  0.39197194834E+03  0.00000000000E+00 0.  1.
          2    1    6    6  503    0  0.24140662466E+03  0.24610485441E+03 -0.67299213379E+03  0.75615022974E+03  0.00000000000E+00 0.  1.
         -2    1    6    6    0  503  0.40814897829E+02  0.54967207769E+00 -0.95294828459E+02  0.10366900383E+03  0.00000000000E+00 0. -1.
<mgrwt>
<rscale>  0 0.12842221E+04</rscale>
<asrwt>0</asrwt>
<pdfrwt beam="1">  1        2 0.55634713E-01 0.12842221E+04</pdfrwt>
<pdfrwt beam="2">  1       -1 0.17540733E+00 0.12842221E+04</pdfrwt>
<totfact> 0.22479500E+01</totfact>
</mgrwt>
</event>
<event>
12    7  0.1606355E-007  0.2037089E+04  0.7818608E-02  0.8589474E-01
         -1   -1    0    0    0  501 -0.00000000000E+00  0.00000000000E+00  0.53901222533E+03  0.53901222533E+03  0.00000000000E+00 0.  1.
          2   -1    0    0  501    0  0.00000000000E+00 -0.00000000000E+00 -0.19246927285E+04  0.19246927285E+04  0.00000000000E+00 0. -1.
         24    2    1    2    0    0 -0.66763680419E+03  0.36890693136E+03 -0.91263107622E+03  0.11920779332E+04  0.79517867755E+02 0.  0.
        254    2    1    2    0    0  0.66763680419E+03 -0.36890693136E+03 -0.47304942696E+03  0.12716270206E+04  0.90079314658E+03 0.  0.
         23    2    4    4    0    0  0.66781392983E+03 -0.40173920196E+02  0.15719731139E+02  0.67565716768E+03  0.93145636226E+02 0.  0.
         23    2    4    4    0    0 -0.17712564464E+00 -0.32873301116E+03 -0.48876915810E+03  0.59596985294E+03  0.90660640329E+02 0.  0.
          4    1    3    3  502    0 -0.30951426869E+03  0.20228063056E+03 -0.48613965273E+03  0.61077679882E+03  0.00000000000E+00 0. -1.
         -3    1    3    3    0  502 -0.35812253550E+03  0.16662630079E+03 -0.42649142349E+03  0.58130113440E+03  0.00000000000E+00 0.  1.
         13    1    5    5    0    0  0.63004742308E+03 -0.31707366027E+02 -0.67943192014E+01  0.63088134792E+03  0.00000000000E+00 0.  1.
        -13    1    5    5    0    0  0.37766506756E+02 -0.84665541692E+01  0.22514050340E+02  0.44775819756E+02  0.00000000000E+00 0. -1.
          1    1    6    6  503    0 -0.14814130570E+01 -0.32356536165E+03 -0.49262878255E+03  0.58938939187E+03  0.00000000000E+00 0. -1.
         -1    1    6    6    0  503  0.13042874124E+01 -0.51676495066E+01  0.38596244498E+01  0.65804610759E+01  0.00000000000E+00 0.  1.
<mgrwt>
<rscale>  0 0.20370890E+04</rscale>
<asrwt>0</asrwt>
<pdfrwt beam="1">  1        2 0.29610657E+00 0.20370890E+04</pdfrwt>
<pdfrwt beam="2">  1       -1 0.82924958E-01 0.20370890E+04</pdfrwt>
<totfact> 0.11206285E+01</totfact>
</mgrwt>
</event>
<event>
12    7  0.1606355E-007  0.2529863E+04  0.7818608E-02  0.8392423E-01
          2   -1    0    0  501    0  0.00000000000E+00  0.00000000000E+00  0.19848153107E+04  0.19848153107E+04  0.00000000000E+00 0. -1.
         -1   -1    0    0    0  501 -0.00000000000E+00 -0.00000000000E+00 -0.80614646853E+03  0.80614646853E+03  0.00000000000E+00 0.  1.
         24    2    1    2    0    0 -0.76007846759E+03  0.11054349749E+03 -0.35728203901E+03  0.85081746864E+03  0.79377375970E+02 0.  0.
        254    2    1    2    0    0  0.76007846759E+03 -0.11054349749E+03  0.15359508812E+04  0.19401443106E+04  0.90281542679E+03 0.  0.
         23    2    4    4    0    0 -0.87603186152E+02 -0.16243702320E+03  0.28665446282E+02  0.20767743618E+03  0.90819078169E+02 0.  0.
         23    2    4    4    0    0  0.84768165374E+03  0.51893525708E+02  0.15072854349E+04  0.17324668744E+04  0.90966832484E+02 0.  0.
          2    1    3    3  502    0 -0.81585431749E+02 -0.90287398707E+01 -0.24201093799E+02  0.85576829565E+02  0.00000000000E+00 0. -1.
         -1    1    3    3    0  502 -0.67849303584E+03  0.11957223736E+03 -0.33308094521E+03  0.76524063907E+03  0.00000000000E+00 0.  1.
         13    1    5    5    0    0 -0.62302384503E+02 -0.77479786066E+02 -0.26976412359E+02  0.10301665490E+03  0.00000000000E+00 0. -1.
        -13    1    5    5    0    0 -0.25300801650E+02 -0.84957237131E+02  0.55641858641E+02  0.10466078128E+03  0.00000000000E+00 0.  1.
          2    1    6    6  503    0  0.56682984567E+03  0.13886761477E+02  0.10789033830E+04  0.12188196856E+04  0.00000000000E+00 0. -1.
         -2    1    6    6    0  503  0.28085180807E+03  0.38006764231E+02  0.42838205188E+03  0.51364718883E+03  0.00000000000E+00 0.  1.
<mgrwt>
<rscale>  0 0.25298631E+04</rscale>
<asrwt>0</asrwt>
<pdfrwt beam="1">  1        2 0.30535620E+00 0.25298631E+04</pdfrwt>
<pdfrwt beam="2">  1       -1 0.12402253E+00 0.25298631E+04</pdfrwt>
<totfact> 0.39355575E+00</totfact>
</mgrwt>
</event>
<event>
12    7  0.1606355E-007  0.1562302E+04  0.7818608E-02  0.8844048E-01
         -1   -1    0    0    0  501 -0.00000000000E+00  0.00000000000E+00  0.15836189781E+04  0.15836189781E+04  0.00000000000E+00 0.  1.
          2   -1    0    0  501    0  0.00000000000E+00 -0.00000000000E+00 -0.38531817383E+03  0.38531817383E+03  0.00000000000E+00 0. -1.
         24    2    1    2    0    0  0.26501326989E+03 -0.76784162744E+02  0.96376816177E+03  0.10056945209E+04  0.80278009806E+02 0.  0.
        254    2    1    2    0    0 -0.26501326989E+03  0.76784162744E+02  0.23453264246E+03  0.96324263099E+03  0.89258218944E+03 0.  0.
         23    2    4    4    0    0 -0.10403445221E+03 -0.32618400292E+02 -0.32885408187E+03  0.35825432183E+03  0.91181273633E+02 0.  0.
         23    2    4    4    0    0 -0.16097881767E+03  0.10940256304E+03  0.56338672433E+03  0.60498830916E+03  0.10355265585E+03 0.  0.
          4    1    3    3  502    0 -0.40526883837E+01  0.36255423125E+01  0.93155694686E+01  0.10786504286E+02  0.00000000000E+00 0. -1.
         -3    1    3    3    0  502  0.26906595827E+03 -0.80409705057E+02  0.95445259230E+03  0.99490801661E+03  0.00000000000E+00 0.  1.
         13    1    5    5    0    0 -0.10976750483E+03 -0.23155616802E+02 -0.32856257181E+03  0.34718647914E+03  0.00000000000E+00 0.  1.
        -13    1    5    5    0    0  0.57330526142E+01 -0.94627834892E+01 -0.29151006251E+00  0.11067842688E+02  0.00000000000E+00 0. -1.
          4    1    6    6  503    0 -0.21552048210E+02  0.24447103304E+02  0.24520732725E+03  0.24736366948E+03  0.00000000000E+00 0. -1.
         -4    1    6    6    0  503 -0.13942676946E+03  0.84955459732E+02  0.31817939708E+03  0.35762463968E+03  0.00000000000E+00 0.  1.
<mgrwt>
<rscale>  0 0.15623024E+04</rscale>
<asrwt>0</asrwt>
<pdfrwt beam="1">  1        2 0.59279720E-01 0.15623024E+04</pdfrwt>
<pdfrwt beam="2">  1       -1 0.24363369E+00 0.15623024E+04</pdfrwt>
<totfact> 0.70054758E+00</totfact>
</mgrwt>
</event>
<event>
12    7  0.1606355E-007  0.3523593E+04  0.7818608E-02  0.8108221E-01
          2   -1    0    0  501    0  0.00000000000E+00  0.00000000000E+00  0.33863140298E+04  0.33863140298E+04  0.00000000000E+00 0. -1.
         -1   -1    0    0    0  501 -0.00000000000E+00 -0.00000000000E+00 -0.91660954383E+03  0.91660954383E+03  0.00000000000E+00 0.  1.
         24    2    1    2    0    0 -0.81737751677E+02  0.10215756106E+04  0.27265972485E+04  0.29139553867E+04  0.80657621996E+02 0.  0.
        254    2    1    2    0    0  0.81737751677E+02 -0.10215756106E+04 -0.25689276249E+03  0.13889681870E+04  0.90163237777E+03 0.  0.
         23    2    4    4    0    0  0.44874417616E+03 -0.62743019631E+03 -0.31880554053E+03  0.83966824135E+03  0.91464725368E+02 0.  0.
         23    2    4    4    0    0 -0.36700642448E+03 -0.39414541434E+03  0.61912778042E+02  0.54929994560E+03  0.88616673949E+02 0.  0.
          2    1    3    3  502    0 -0.82778507626E+02  0.72408726027E+03  0.18579543065E+04  0.19957827655E+04  0.00000000000E+00 0. -1.
         -1    1    3    3    0  502  0.10407559490E+01  0.29748835038E+03  0.86864294198E+03  0.91817262126E+03  0.00000000000E+00 0.  1.
         13    1    5    5    0    0  0.16937369718E+03 -0.18842729991E+03 -0.69796289395E+02  0.26279995940E+03  0.00000000000E+00 0.  1.
        -13    1    5    5    0    0  0.27937047898E+03 -0.43900289640E+03 -0.24900925113E+03  0.57686828195E+03  0.00000000000E+00 0. -1.
          2    1    6    6  503    0 -0.58898987058E+02 -0.28882299696E+02  0.24335144706E+02  0.69967686685E+02  0.00000000000E+00 0. -1.
         -2    1    6    6    0  503 -0.30810743742E+03 -0.36526311464E+03  0.37577633336E+02  0.47933225892E+03  0.00000000000E+00 0.  1.
<mgrwt>
<rscale>  0 0.35235935E+04</rscale>
<asrwt>0</asrwt>
<pdfrwt beam="1">  1        2 0.52097138E+00 0.35235935E+04</pdfrwt>
<pdfrwt beam="2">  1       -1 0.14101685E+00 0.35235935E+04</pdfrwt>
<totfact> 0.37248406E-01</totfact>
</mgrwt>
</event>
<event>
12    7  0.1606355E-007  0.2686826E+04  0.7818608E-02  0.8339292E-01
         -1   -1    0    0    0  501 -0.00000000000E+00  0.00000000000E+00  0.13717040909E+04  0.13717040909E+04  0.00000000000E+00 0.  1.
          2   -1    0    0  501    0  0.00000000000E+00 -0.00000000000E+00 -0.13157049905E+04  0.13157049905E+04  0.00000000000E+00 0. -1.
         24    2    1    2    0    0  0.90975902981E+03  0.70674998873E+03 -0.28968921991E+03  0.11906614915E+04  0.81227485618E+02 0.  0.
        254    2    1    2    0    0 -0.90975902981E+03 -0.70674998873E+03  0.34568832030E+03  0.14967475899E+04  0.89083999357E+03 0.  0.
         23    2    4    4    0    0  0.34398240534E+02 -0.43286006291E+03  0.23746853087E+03  0.50357334310E+03  0.92971693066E+02 0.  0.
         23    2    4    4    0    0 -0.94415727034E+03 -0.27388992582E+03  0.10821978943E+03  0.99317424679E+03  0.90746454774E+02 0.  0.
          4    1    3    3  502    0  0.71707207654E+03  0.57775194795E+03 -0.26015953010E+03  0.95690786256E+03  0.00000000000E+00 0. -1.
         -3    1    3    3    0  502  0.19268695327E+03  0.12899804078E+03 -0.29529689809E+02  0.23375362898E+03  0.00000000000E+00 0.  1.
         13    1    5    5    0    0 -0.72285385189E+01 -0.70716169656E+02  0.78464449665E+02  0.10587586260E+03  0.00000000000E+00 0. -1.
        -13    1    5    5    0    0  0.41626779053E+02 -0.36214389325E+03  0.15900408120E+03  0.39769748050E+03  0.00000000000E+00 0.  1.
          1    1    6    6  503    0 -0.22423140412E+03 -0.10310221795E+03  0.41522107026E+02  0.25026760740E+03  0.00000000000E+00 0. -1.
         -1    1    6    6    0  503 -0.71992586622E+03 -0.17078770787E+03  0.66697682404E+02  0.74290663939E+03  0.00000000000E+00 0.  1.
<mgrwt>
<rscale>  0 0.26868256E+04</rscale>
<asrwt>0</asrwt>
<pdfrwt beam="1">  1        2 0.20241615E+00 0.26868256E+04</pdfrwt>
<pdfrwt beam="2">  1       -1 0.21103140E+00 0.26868256E+04</pdfrwt>
<totfact> 0.20487909E+00</totfact>
</mgrwt>
</event>
<event>
12    7  0.1606355E-007  0.1136172E+04  0.7818608E-02  0.9170636E-01
         -1   -1    0    0    0  501 -0.00000000000E+00  0.00000000000E+00  0.86325528492E+02  0.86325528492E+02  0.00000000000E+00 0.  1.
          2   -1    0    0  501    0  0.00000000000E+00 -0.00000000000E+00 -0.37384277432E+04  0.37384277432E+04  0.00000000000E+00 0. -1.
         24    2    1    2    0    0  0.89712686882E+02 -0.98463244813E+02 -0.10014820064E+04  0.10134638925E+04  0.79996722453E+02 0.  0.
        254    2    1    2    0    0 -0.89712686882E+02  0.98463244813E+02 -0.26506202084E+04  0.28112893792E+04  0.92726323545E+03 0.  0.
         23    2    4    4    0    0  0.11655048872E+03 -0.34018478328E+03 -0.63184341530E+03  0.73280319531E+03  0.92003904281E+02 0.  0.
         23    2    4    4    0    0 -0.20626317560E+03  0.43864802810E+03 -0.20187767931E+04  0.20784861839E+04  0.98430108217E+02 0.  0.
          2    1    3    3  502    0  0.59796368168E+02 -0.13878232614E+02 -0.52800061586E+03  0.53155701607E+03  0.00000000000E+00 0. -1.
         -1    1    3    3    0  502  0.29916318714E+02 -0.84585012198E+02 -0.47348139052E+03  0.48190687646E+03  0.00000000000E+00 0.  1.
         13    1    5    5    0    0  0.10410450571E+03 -0.34297320386E+03 -0.60993315478E+03  0.70745093115E+03  0.00000000000E+00 0.  1.
        -13    1    5    5    0    0  0.12445983010E+02  0.27884205781E+01 -0.21910260511E+02  0.25352264160E+02  0.00000000000E+00 0. -1.
          2    1    6    6  503    0 -0.90020941384E+02  0.16460628039E+03 -0.98483462469E+03  0.10025458770E+04  0.00000000000E+00 0. -1.
         -2    1    6    6    0  503 -0.11624223422E+03  0.27404174771E+03 -0.10339421684E+04  0.10759403069E+04  0.00000000000E+00 0.  1.
<mgrwt>
<rscale>  0 0.11361721E+04</rscale>
<asrwt>0</asrwt>
<pdfrwt beam="1">  1        2 0.57514256E+00 0.11361721E+04</pdfrwt>
<pdfrwt beam="2">  1       -1 0.13280854E-01 0.11361721E+04</pdfrwt>
<totfact> 0.25641652E+01</totfact>
</mgrwt>
</event>
<event>
12    7  0.1606355E-007  0.1556989E+04  0.7818608E-02  0.8847416E-01
         -1   -1    0    0    0  501 -0.00000000000E+00  0.00000000000E+00  0.29522371144E+03  0.29522371144E+03  0.00000000000E+00 0.  1.
          2   -1    0    0  501    0  0.00000000000E+00 -0.00000000000E+00 -0.20528628121E+04  0.20528628121E+04  0.00000000000E+00 0. -1.
         24    2    1    2    0    0  0.33666840937E+03 -0.18523593790E+03 -0.10187411088E+04  0.10916513500E+04  0.78811501824E+02 0.  0.
        254    2    1    2    0    0 -0.33666840937E+03  0.18523593790E+03 -0.73889799187E+03  0.12564351735E+04  0.94074498786E+03 0.  0.
         23    2    4    4    0    0 -0.35698721127E+03  0.51086245169E+03 -0.65217031285E+03  0.90672669001E+03  0.91688929874E+02 0.  0.
         23    2    4    4    0    0  0.20318801903E+02 -0.32562651379E+03 -0.86727679024E+02  0.34970848346E+03  0.91262549294E+02 0.  0.
          2    1    3    3  502    0  0.15749771490E+03 -0.99709560351E+02 -0.59880235668E+03  0.62714574780E+03  0.00000000000E+00 0. -1.
         -1    1    3    3    0  502  0.17917069447E+03 -0.85526377550E+02 -0.41993875208E+03  0.46450560224E+03  0.00000000000E+00 0.  1.
         13    1    5    5    0    0 -0.31352323106E+03  0.48959540587E+03 -0.60761943602E+03  0.84095294571E+03  0.00000000000E+00 0.  1.
        -13    1    5    5    0    0 -0.43463980211E+02  0.21267045818E+02 -0.44550876828E+02  0.65773744304E+02  0.00000000000E+00 0. -1.
          2    1    6    6  503    0  0.15540039811E+02 -0.60477214126E+02 -0.53908399284E+02  0.82493040792E+02  0.00000000000E+00 0. -1.
         -2    1    6    6    0  503  0.47787620918E+01 -0.26514929966E+03 -0.32819279740E+02  0.26721544267E+03  0.00000000000E+00 0.  1.
<mgrwt>
<rscale>  0 0.15569891E+04</rscale>
<asrwt>0</asrwt>
<pdfrwt beam="1">  1        2 0.31582504E+00 0.15569891E+04</pdfrwt>
<pdfrwt beam="2">  1       -1 0.45419034E-01 0.15569891E+04</pdfrwt>
<totfact> 0.32942089E+01</totfact>
</mgrwt>
</event>
<event>
12    7  0.1606355E-007  0.1445771E+04  0.7818608E-02  0.8921338E-01
          2   -1    0    0  501    0  0.00000000000E+00  0.00000000000E+00  0.41146584910E+03  0.41146584910E+03  0.00000000000E+00 0. -1.
         -1   -1    0    0    0  501 -0.00000000000E+00 -0.00000000000E+00 -0.12700041273E+04  0.12700041273E+04  0.00000000000E+00 0.  1.
         24    2    1    2    0    0 -0.31611249452E+03 -0.10647070442E+03  0.58026964459E+02  0.34807857572E+03  0.80798800592E+02 0.  0.
        254    2    1    2    0    0  0.31611249452E+03  0.10647070442E+03 -0.91656524263E+03  0.13333914007E+04  0.90916316646E+03 0.  0.
         23    2    4    4    0    0 -0.21696423837E+03 -0.11315364902E+03 -0.17945471504E+02  0.26174955735E+03  0.91178735490E+02 0.  0.
         23    2    4    4    0    0  0.53307673289E+03  0.21962435343E+03 -0.89861977112E+03  0.10716418433E+04  0.92157948611E+02 0.  0.
          2    1    3    3  502    0 -0.17389926776E+03 -0.61037933494E+02  0.72579902227E+02  0.19807682060E+03  0.00000000000E+00 0. -1.
         -1    1    3    3    0  502 -0.14221322676E+03 -0.45432770923E+02 -0.14552937768E+02  0.15000175512E+03  0.00000000000E+00 0.  1.
         13    1    5    5    0    0 -0.16797481956E+03 -0.91470436425E+02  0.25258486691E+02  0.19292581967E+03  0.00000000000E+00 0.  1.
        -13    1    5    5    0    0 -0.48989418812E+02 -0.21683212593E+02 -0.43203958196E+02  0.68823737675E+02  0.00000000000E+00 0. -1.
          2    1    6    6  503    0  0.11943358740E+02  0.21325317117E+02 -0.57637062554E+02  0.62605462605E+02  0.00000000000E+00 0. -1.
         -2    1    6    6    0  503  0.52113337415E+03  0.19829903632E+03 -0.84098270857E+03  0.10090363807E+04  0.00000000000E+00 0.  1.
<mgrwt>
<rscale>  0 0.14457708E+04</rscale>
<asrwt>0</asrwt>
<pdfrwt beam="1">  1        2 0.63302438E-01 0.14457708E+04</pdfrwt>
<pdfrwt beam="2">  1       -1 0.19538525E+00 0.14457708E+04</pdfrwt>
<totfact> 0.13846092E+01</totfact>
</mgrwt>
</event>
<event>
12    7  0.1606355E-007  0.1266148E+04  0.7818608E-02  0.9056850E-01
         -1   -1    0    0    0  501 -0.00000000000E+00  0.00000000000E+00  0.47939726750E+03  0.47939726750E+03  0.00000000000E+00 0.  1.
          2   -1    0    0  501    0  0.00000000000E+00 -0.00000000000E+00 -0.83601341467E+03  0.83601341467E+03  0.00000000000E+00 0. -1.
         24    2    1    2    0    0 -0.18131503151E+03 -0.19790218417E+03 -0.26158103498E+03  0.38121867640E+03  0.69732533443E+02 0.  0.
        254    2    1    2    0    0  0.18131503151E+03  0.19790218417E+03 -0.95035112193E+02  0.93419200578E+03  0.88974300557E+03 0.  0.
         23    2    4    4    0    0 -0.31933926462E+03  0.91564786991E+02  0.12982875759E+03  0.36799216491E+03  0.90559654298E+02 0.  0.
         23    2    4    4    0    0  0.50065429614E+03  0.10633739717E+03 -0.22486386979E+03  0.56619984087E+03  0.89755966870E+02 0.  0.
          2    1    3    3  502    0 -0.15347783512E+03 -0.12619761581E+03 -0.20678802149E+03  0.28677965399E+03  0.00000000000E+00 0. -1.
         -1    1    3    3    0  502 -0.27837196395E+02 -0.71704568354E+02 -0.54793013494E+02  0.94439022410E+02  0.00000000000E+00 0.  1.
         13    1    5    5    0    0 -0.69257941931E+02 -0.11145448038E+02  0.53293212772E+01  0.70351156336E+02  0.00000000000E+00 0. -1.
        -13    1    5    5    0    0 -0.25008132269E+03  0.10271023503E+03  0.12449943632E+03  0.29764100857E+03  0.00000000000E+00 0.  1.
          4    1    6    6  503    0  0.40033232986E+02 -0.15806327596E+02 -0.20851232603E+02  0.47825449674E+02  0.00000000000E+00 0. -1.
         -4    1    6    6    0  503  0.46062106315E+03  0.12214372477E+03 -0.20401263718E+03  0.51837439120E+03  0.00000000000E+00 0.  1.
<mgrwt>
<rscale>  0 0.12661478E+04</rscale>
<asrwt>0</asrwt>
<pdfrwt beam="1">  1        2 0.12861745E+00 0.12661478E+04</pdfrwt>
<pdfrwt beam="2">  1       -1 0.73753426E-01 0.12661478E+04</pdfrwt>
<totfact> 0.67436270E+01</totfact>
</mgrwt>
</event>
<event>
12    7  0.1606355E-007  0.2274661E+04  0.7818608E-02  0.8487979E-01
          2   -1    0    0  501    0  0.00000000000E+00  0.00000000000E+00  0.18216430861E+04  0.18216430861E+04  0.00000000000E+00 0. -1.
         -1   -1    0    0    0  501 -0.00000000000E+00 -0.00000000000E+00 -0.71008458228E+03  0.71008458228E+03  0.00000000000E+00 0.  1.
         24    2    1    2    0    0  0.12880530992E+03  0.30138875855E+03 -0.53603122311E+03  0.63337904714E+03  0.80084664998E+02 0.  0.
        254    2    1    2    0    0 -0.12880530992E+03 -0.30138875855E+03  0.16475897269E+04  0.18983486212E+04  0.88416604087E+03 0.  0.
         23    2    4    4    0    0 -0.20219358719E+02 -0.12926975286E+03 -0.64763122057E+02  0.17165952400E+03  0.90295286312E+02 0.  0.
         23    2    4    4    0    0 -0.10858595120E+03 -0.17211900568E+03  0.17123528490E+04  0.17266890972E+04  0.88809335947E+02 0.  0.
          2    1    3    3  502    0  0.78145786030E+02  0.92130800060E+02 -0.16668939042E+03  0.20586452116E+03  0.00000000000E+00 0. -1.
         -1    1    3    3    0  502  0.50659523891E+02  0.20925795849E+03 -0.36934183269E+03  0.42751452598E+03  0.00000000000E+00 0.  1.
         13    1    5    5    0    0 -0.53930679099E+02 -0.67878740613E+02 -0.50008184932E+02  0.10008426517E+03  0.00000000000E+00 0. -1.
        -13    1    5    5    0    0  0.33711320380E+02 -0.61391012250E+02 -0.14754937124E+02  0.71575258829E+02  0.00000000000E+00 0.  1.
          4    1    6    6  503    0 -0.19353751265E+01  0.48593755132E+00 -0.33634616794E+00  0.20235960389E+01  0.00000000000E+00 0.  1.
         -4    1    6    6    0  503 -0.10665057608E+03 -0.17260494323E+03  0.17126891952E+04  0.17246655012E+04  0.00000000000E+00 0. -1.
<mgrwt>
<rscale>  0 0.22746610E+04</rscale>
<asrwt>0</asrwt>
<pdfrwt beam="1">  1        2 0.28025278E+00 0.22746610E+04</pdfrwt>
<pdfrwt beam="2">  1       -1 0.10924378E+00 0.22746610E+04</pdfrwt>
<totfact> 0.67338297E+00</totfact>
</mgrwt>
</event>
<event>
12    7  0.1606355E-007  0.1962808E+04  0.7818608E-02  0.8624209E-01
         -1   -1    0    0    0  501 -0.00000000000E+00  0.00000000000E+00  0.39821504418E+03  0.39821504418E+03  0.00000000000E+00 0.  1.
          2   -1    0    0  501    0  0.00000000000E+00 -0.00000000000E+00 -0.24186770673E+04  0.24186770673E+04  0.00000000000E+00 0. -1.
         24    2    1    2    0    0 -0.49335484344E+03 -0.59219302169E+03 -0.86719849985E+03  0.11629829418E+04  0.80028171822E+02 0.  0.
        254    2    1    2    0    0  0.49335484344E+03  0.59219302169E+03 -0.11532635232E+04  0.16539091696E+04  0.90072593553E+03 0.  0.
         23    2    4    4    0    0  0.43689732167E+03  0.37793809298E+03 -0.12616976001E+04  0.13905233885E+04  0.89207555853E+02 0.  0.
         23    2    4    4    0    0  0.56457521768E+02  0.21425492871E+03  0.10843407690E+03  0.26338578113E+03  0.92311940876E+02 0.  0.
          4    1    3    3  502    0 -0.17170989193E+01 -0.14897539505E+02 -0.29307943829E+02  0.32921735731E+02  0.00000000000E+00 0. -1.
         -3    1    3    3    0  502 -0.49163774452E+03 -0.57729548218E+03 -0.83789055602E+03  0.11300612061E+04  0.00000000000E+00 0.  1.
         13    1    5    5    0    0  0.93489934063E+02  0.82868135432E+02 -0.36894792844E+03  0.38952544146E+03  0.00000000000E+00 0. -1.
        -13    1    5    5    0    0  0.34340738761E+03  0.29506995755E+03 -0.89274967168E+03  0.10009979470E+04  0.00000000000E+00 0.  1.
          1    1    6    6  503    0 -0.18988333473E+02  0.78667595904E+02  0.15130790535E+02  0.82329145967E+02  0.00000000000E+00 0. -1.
         -1    1    6    6    0  503  0.75445855242E+02  0.13558733280E+03  0.93303286366E+02  0.18105663516E+03  0.00000000000E+00 0.  1.
<mgrwt>
<rscale>  0 0.19628078E+04</rscale>
<asrwt>0</asrwt>
<pdfrwt beam="1">  1        2 0.37210417E+00 0.19628078E+04</pdfrwt>
<pdfrwt beam="2">  1       -1 0.61263853E-01 0.19628078E+04</pdfrwt>
<totfact> 0.11123306E+01</totfact>
</mgrwt>
</event>
<event>
12    7  0.1606355E-007  0.2013470E+04  0.7818608E-02  0.8600349E-01
         -1   -1    0    0    0  501 -0.00000000000E+00  0.00000000000E+00  0.96961502817E+03  0.96961502817E+03  0.00000000000E+00 0.  1.
          2   -1    0    0  501    0  0.00000000000E+00 -0.00000000000E+00 -0.10452759572E+04  0.10452759572E+04  0.00000000000E+00 0. -1.
         24    2    1    2    0    0  0.68427080073E+03 -0.39459109298E+03 -0.18820583480E+03  0.81586905654E+03  0.79323525971E+02 0.  0.
        254    2    1    2    0    0 -0.68427080073E+03  0.39459109298E+03  0.11254490573E+03  0.11990219289E+04  0.89501875441E+03 0.  0.
         23    2    4    4    0    0  0.17330605746E+03  0.26879836988E+02  0.17043336405E+03  0.25974952045E+03  0.87548652792E+02 0.  0.
         23    2    4    4    0    0 -0.85757685819E+03  0.36771125599E+03 -0.57888458326E+02  0.93927240843E+03  0.90730084030E+02 0.  0.
          2    1    3    3  502    0  0.65845517928E+03 -0.39291716734E+03 -0.17368308068E+03  0.78620158739E+03  0.00000000000E+00 0. -1.
         -1    1    3    3    0  502  0.25815621455E+02 -0.16739256411E+01 -0.14522754128E+02  0.29667469147E+02  0.00000000000E+00 0.  1.
         13    1    5    5    0    0  0.19261114218E+02  0.27166307600E+02  0.49560328434E+01  0.33668398404E+02  0.00000000000E+00 0.  1.
        -13    1    5    5    0    0  0.15404494324E+03 -0.28647061181E+00  0.16547733121E+03  0.22608112205E+03  0.00000000000E+00 0. -1.
          4    1    6    6  503    0 -0.80503329805E+03  0.36153588191E+03 -0.39892254998E+02  0.88339017251E+03  0.00000000000E+00 0. -1.
         -4    1    6    6    0  503 -0.52543560142E+02  0.61753740752E+01 -0.17996203328E+02  0.55882235921E+02  0.00000000000E+00 0.  1.
<mgrwt>
<rscale>  0 0.20134699E+04</rscale>
<asrwt>0</asrwt>
<pdfrwt beam="1">  1        2 0.16081169E+00 0.20134699E+04</pdfrwt>
<pdfrwt beam="2">  1       -1 0.14917154E+00 0.20134699E+04</pdfrwt>
<totfact> 0.88360063E+00</totfact>
</mgrwt>
</event>
<event>
12    7  0.1606355E-007  0.1369252E+04  0.7818608E-02  0.8976381E-01
         -3   -1    0    0    0  501 -0.00000000000E+00  0.00000000000E+00  0.37090211908E+03  0.37090211908E+03  0.00000000000E+00 0.  1.
          4   -1    0    0  501    0  0.00000000000E+00 -0.00000000000E+00 -0.12637098357E+04  0.12637098357E+04  0.00000000000E+00 0. -1.
         24    2    1    2    0    0  0.86461575063E+02 -0.80059633840E+02  0.18424560538E+03  0.23345448299E+03  0.81666416568E+02 0.  0.
        254    2    1    2    0    0 -0.86461575063E+02  0.80059633840E+02 -0.10770533220E+04  0.14011574718E+04  0.88843303257E+03 0.  0.
         23    2    4    4    0    0 -0.31041598840E+03 -0.11300796223E+03 -0.10338061335E+04  0.10892047143E+04  0.92102673886E+02 0.  0.
         23    2    4    4    0    0  0.22395441334E+03  0.19306759607E+03 -0.43247188466E+02  0.31195275749E+03  0.89518309230E+02 0.  0.
          4    1    3    3  502    0 -0.13076933297E+02 -0.10189720829E+02  0.48227032550E+02  0.50996894646E+02  0.00000000000E+00 0. -1.
         -3    1    3    3    0  502  0.99538508360E+02 -0.69869913011E+02  0.13601857283E+03  0.18245758835E+03  0.00000000000E+00 0.  1.
         13    1    5    5    0    0 -0.27459700550E+02  0.13818518675E+02 -0.13360352328E+03  0.13709444936E+03  0.00000000000E+00 0. -1.
        -13    1    5    5    0    0 -0.28295628785E+03 -0.12682648091E+03 -0.90020261021E+03  0.95211026490E+03  0.00000000000E+00 0.  1.
          2    1    6    6  503    0  0.25053904800E+02 -0.39217892550E+01  0.95129916648E+01  0.27084600552E+02  0.00000000000E+00 0. -1.
         -2    1    6    6    0  503  0.19890050854E+03  0.19698938533E+03 -0.52760180131E+02  0.28486815694E+03  0.00000000000E+00 0.  1.
<mgrwt>
<rscale>  0 0.13692518E+04</rscale>
<asrwt>0</asrwt>
<pdfrwt beam="1">  1        4 0.19441690E+00 0.13692518E+04</pdfrwt>
<pdfrwt beam="2">  1       -3 0.57061864E-01 0.13692518E+04</pdfrwt>
<totfact> 0.96474804E-01</totfact>
</mgrwt>
</event>
<event>
12    7  0.1606355E-007  0.1930224E+04  0.7818608E-02  0.8639956E-01
          2   -1    0    0  501    0  0.00000000000E+00  0.00000000000E+00  0.18861234828E+04  0.18861234828E+04  0.00000000000E+00 0. -1.
         -1   -1    0    0    0  501 -0.00000000000E+00 -0.00000000000E+00 -0.49383913676E+03  0.49383913676E+03  0.00000000000E+00 0.  1.
         24    2    1    2    0    0 -0.48229671574E+03  0.31097134900E+03  0.11694402443E+04  0.13049731482E+04  0.77789013765E+02 0.  0.
        254    2    1    2    0    0  0.48229671574E+03 -0.31097134900E+03  0.22284410179E+03  0.10749894714E+04  0.88126588950E+03 0.  0.
         23    2    4    4    0    0  0.35043474605E+03  0.18515022677E+03 -0.15062010390E+03  0.43358638585E+03  0.90695207077E+02 0.  0.
         23    2    4    4    0    0  0.13186196968E+03 -0.49612157577E+03  0.37346420568E+03  0.64140308554E+03  0.91641738410E+02 0.  0.
          4    1    3    3  502    0 -0.19420401719E+03  0.17122919469E+03  0.52362346119E+03  0.58413711277E+03  0.00000000000E+00 0. -1.
         -3    1    3    3    0  502 -0.28809269855E+03  0.13974215430E+03  0.64581678310E+03  0.72083603543E+03  0.00000000000E+00 0.  1.
         13    1    5    5    0    0  0.87007587065E+02  0.71998112293E+02 -0.79757540566E+02  0.13825814138E+03  0.00000000000E+00 0.  1.
        -13    1    5    5    0    0  0.26342715899E+03  0.11315211448E+03 -0.70862563331E+02  0.29532824447E+03  0.00000000000E+00 0. -1.
          1    1    6    6  503    0  0.24278765156E+02 -0.26833796654E+03  0.18624535852E+03  0.32753939655E+03  0.00000000000E+00 0. -1.
         -1    1    6    6    0  503  0.10758320453E+03 -0.22778360923E+03  0.18721884716E+03  0.31386368898E+03  0.00000000000E+00 0.  1.
<mgrwt>
<rscale>  0 0.19302244E+04</rscale>
<asrwt>0</asrwt>
<pdfrwt beam="1">  1        2 0.29017284E+00 0.19302244E+04</pdfrwt>
<pdfrwt beam="2">  1       -1 0.75975252E-01 0.19302244E+04</pdfrwt>
<totfact> 0.14308823E+01</totfact>
</mgrwt>
</event>
<event>
12    7  0.1606355E-007  0.2398590E+04  0.7818608E-02  0.8440032E-01
         -3   -1    0    0    0  501 -0.00000000000E+00  0.00000000000E+00  0.36193501453E+03  0.36193501453E+03  0.00000000000E+00 0.  1.
          2   -1    0    0  501    0  0.00000000000E+00 -0.00000000000E+00 -0.39739411164E+04  0.39739411164E+04  0.00000000000E+00 0. -1.
         24    2    1    2    0    0  0.52087603069E+03 -0.62181399252E+03 -0.40632750766E+03  0.91072756655E+03  0.79738173744E+02 0.  0.
        254    2    1    2    0    0 -0.52087603069E+03  0.62181399252E+03 -0.32056785942E+04  0.34251485643E+04  0.89291822584E+03 0.  0.
         23    2    4    4    0    0 -0.68795823497E+03  0.71153368714E+03 -0.26846266556E+04  0.28627751387E+04  0.93244269374E+02 0.  0.
         23    2    4    4    0    0  0.16708220428E+03 -0.89719694616E+02 -0.52105193856E+03  0.56237342563E+03  0.93822495145E+02 0.  0.
          4    1    3    3  502    0  0.22413437237E+03 -0.28908147084E+03 -0.14173789473E+03  0.39229318687E+03  0.00000000000E+00 0. -1.
         -3    1    3    3    0  502  0.29674165832E+03 -0.33273252168E+03 -0.26458961293E+03  0.51843437968E+03  0.00000000000E+00 0.  1.
         13    1    5    5    0    0 -0.12786769014E+02  0.74626005746E+01 -0.17882540521E+02  0.23215880872E+02  0.00000000000E+00 0. -1.
        -13    1    5    5    0    0 -0.67517146596E+03  0.70407108656E+03 -0.26667441151E+04  0.28395592578E+04  0.00000000000E+00 0.  1.
          3    1    6    6  503    0  0.12615346637E+03 -0.32675826964E+02 -0.24463771334E+03  0.27718228215E+03  0.00000000000E+00 0. -1.
         -3    1    6    6    0  503  0.40928737910E+02 -0.57043867652E+02 -0.27641422521E+03  0.28519114349E+03  0.00000000000E+00 0.  1.
<mgrwt>
<rscale>  0 0.23985899E+04</rscale>
<asrwt>0</asrwt>
<pdfrwt beam="1">  1        2 0.61137555E+00 0.23985899E+04</pdfrwt>
<pdfrwt beam="2">  1       -3 0.55682311E-01 0.23985899E+04</pdfrwt>
<totfact> 0.66590475E-01</totfact>
</mgrwt>
</event>
<event>
12    7  0.1606355E-007  0.3814702E+04  0.7818608E-02  0.8043007E-01
         -3   -1    0    0    0  501 -0.00000000000E+00  0.00000000000E+00  0.86247211958E+03  0.86247211958E+03  0.00000000000E+00 0.  1.
          2   -1    0    0  501    0  0.00000000000E+00 -0.00000000000E+00 -0.42180943346E+04  0.42180943346E+04  0.00000000000E+00 0. -1.
         24    2    1    2    0    0  0.86742263840E+02 -0.16276407318E+04 -0.56729371701E+03  0.17280597081E+04  0.87347703330E+02 0.  0.
        254    2    1    2    0    0 -0.86742263840E+02  0.16276407318E+04 -0.27883284980E+04  0.33525067461E+04  0.89876976887E+03 0.  0.
         23    2    4    4    0    0  0.54218791880E+02  0.10529286463E+04 -0.96058759645E+03  0.14290970901E+04  0.89395475473E+02 0.  0.
         23    2    4    4    0    0 -0.14096105572E+03  0.57471208555E+03 -0.18277409015E+04  0.19234096559E+04  0.93294698965E+02 0.  0.
          2    1    3    3  502    0  0.37085005735E+02 -0.12798814648E+04 -0.46404646771E+03  0.13619144561E+04  0.00000000000E+00 0. -1.
         -3    1    3    3    0  502  0.49657258105E+02 -0.34775926704E+03 -0.10324724931E+03  0.36614525203E+03  0.00000000000E+00 0.  1.
         13    1    5    5    0    0 -0.14722399876E+02  0.34911396446E+03 -0.28234383836E+03  0.44923863625E+03  0.00000000000E+00 0.  1.
        -13    1    5    5    0    0  0.68941191756E+02  0.70381468179E+03 -0.67824375809E+03  0.97985845387E+03  0.00000000000E+00 0. -1.
          3    1    6    6  503    0 -0.43423945028E+02  0.54033065121E+02 -0.21087637631E+03  0.22197760520E+03  0.00000000000E+00 0. -1.
         -3    1    6    6    0  503 -0.97537110692E+02  0.52067902043E+03 -0.16168645252E+04  0.17014320507E+04  0.00000000000E+00 0.  1.
<mgrwt>
<rscale>  0 0.38147025E+04</rscale>
<asrwt>0</asrwt>
<pdfrwt beam="1">  1        2 0.64893759E+00 0.38147025E+04</pdfrwt>
<pdfrwt beam="2">  1       -3 0.13268802E+00 0.38147025E+04</pdfrwt>
<totfact> 0.50410069E-02</totfact>
</mgrwt>
</event>
<event>
12    7  0.1606355E-007  0.2506850E+04  0.7818608E-02  0.8400549E-01
         -1   -1    0    0    0  501 -0.00000000000E+00  0.00000000000E+00  0.43801333184E+03  0.43801333184E+03  0.00000000000E+00 0.  1.
          2   -1    0    0  501    0  0.00000000000E+00 -0.00000000000E+00 -0.35868171771E+04  0.35868171771E+04  0.00000000000E+00 0. -1.
         24    2    1    2    0    0 -0.37128653070E+03 -0.31267581889E+03 -0.29428442363E+04  0.29837984180E+04  0.84267100345E+02 0.  0.
        254    2    1    2    0    0  0.37128653070E+03  0.31267581889E+03 -0.20595960893E+03  0.10410320910E+04  0.89761272179E+03 0.  0.
         23    2    4    4    0    0  0.17874930841E+03  0.24628878821E+03  0.33063759814E+03  0.45860964625E+03  0.91608426869E+02 0.  0.
         23    2    4    4    0    0  0.19253722229E+03  0.66387030685E+02 -0.53659720707E+03  0.58242244473E+03  0.99002634707E+02 0.  0.
          2    1    3    3  502    0 -0.33843427782E+03 -0.31069450240E+03 -0.27718399295E+04  0.28096557492E+04  0.00000000000E+00 0. -1.
         -1    1    3    3    0  502 -0.32852252879E+02 -0.19813164954E+01 -0.17100430685E+03  0.17414266880E+03  0.00000000000E+00 0.  1.
         13    1    5    5    0    0  0.15668919173E+03  0.24713272139E+03  0.28787713938E+03  0.41048670157E+03  0.00000000000E+00 0. -1.
        -13    1    5    5    0    0  0.22060116686E+02 -0.84393318454E+00  0.42760458755E+02  0.48122944676E+02  0.00000000000E+00 0.  1.
          4    1    6    6  503    0  0.67349915265E+02 -0.23331894520E+02 -0.19811355222E+03  0.21054540594E+03  0.00000000000E+00 0. -1.
         -4    1    6    6    0  503  0.12518730702E+03  0.89718925205E+02 -0.33848365485E+03  0.37187703879E+03  0.00000000000E+00 0.  1.
<mgrwt>
<rscale>  0 0.25068496E+04</rscale>
<asrwt>0</asrwt>
<pdfrwt beam="1">  1        2 0.55181802E+00 0.25068496E+04</pdfrwt>
<pdfrwt beam="2">  1       -1 0.67386668E-01 0.25068496E+04</pdfrwt>
<totfact> 0.15978140E+00</totfact>
</mgrwt>
</event>
<event>
12    7  0.1606355E-007  0.1360695E+04  0.7818608E-02  0.8982771E-01
          2   -1    0    0  501    0  0.00000000000E+00  0.00000000000E+00  0.81475522643E+03  0.81475522643E+03  0.00000000000E+00 0. -1.
         -1   -1    0    0    0  501 -0.00000000000E+00 -0.00000000000E+00 -0.56811293595E+03  0.56811293595E+03  0.00000000000E+00 0.  1.
         24    2    1    2    0    0  0.17115460545E+03 -0.14299052780E+03  0.46317888986E+03  0.52012605258E+03  0.79096375071E+02 0.  0.
        254    2    1    2    0    0 -0.17115460545E+03  0.14299052780E+03 -0.21653659938E+03  0.86274210980E+03  0.80479541447E+03 0.  0.
         23    2    4    4    0    0 -0.10076408178E+03  0.14560780484E+03  0.28498997464E+03  0.34834878551E+03  0.93661933111E+02 0.  0.
         23    2    4    4    0    0 -0.70390523663E+02 -0.26172770358E+01 -0.50152657402E+03  0.51439332429E+03  0.90055047959E+02 0.  0.
          4    1    3    3  502    0  0.54196013280E+02 -0.30483303917E+02  0.21324521171E+03  0.22212600026E+03  0.00000000000E+00 0. -1.
         -3    1    3    3    0  502  0.11695859217E+03 -0.11250722388E+03  0.24993367815E+03  0.29800005231E+03  0.00000000000E+00 0.  1.
         13    1    5    5    0    0 -0.77615223991E+02  0.80564801357E+02  0.96945998827E+02  0.14803154023E+03  0.00000000000E+00 0. -1.
        -13    1    5    5    0    0 -0.23148857791E+02  0.65043003479E+02  0.18804397581E+03  0.20031724529E+03  0.00000000000E+00 0.  1.
          3    1    6    6  503    0 -0.14406990307E+01  0.24645545577E+01 -0.32202444272E+03  0.32203709623E+03  0.00000000000E+00 0. -1.
         -3    1    6    6    0  503 -0.68949824633E+02 -0.50818315935E+01 -0.17950213130E+03  0.19235622805E+03  0.00000000000E+00 0.  1.
<mgrwt>
<rscale>  0 0.13606954E+04</rscale>
<asrwt>0</asrwt>
<pdfrwt beam="1">  1        2 0.12534696E+00 0.13606954E+04</pdfrwt>
<pdfrwt beam="2">  1       -1 0.87401990E-01 0.13606954E+04</pdfrwt>
<totfact> 0.48276387E+01</totfact>
</mgrwt>
</event>
<event>
12    7  0.1606355E-007  0.1740893E+04  0.7818608E-02  0.8738379E-01
          2   -1    0    0  501    0  0.00000000000E+00  0.00000000000E+00  0.70284569924E+03  0.70284569924E+03  0.00000000000E+00 0. -1.
         -1   -1    0    0    0  501 -0.00000000000E+00 -0.00000000000E+00 -0.10780129135E+04  0.10780129135E+04  0.00000000000E+00 0.  1.
         24    2    1    2    0    0  0.25048662971E+03 -0.52751534125E+03 -0.38964513978E+03  0.70630221636E+03  0.77611203839E+02 0.  0.
        254    2    1    2    0    0 -0.25048662971E+03  0.52751534125E+03  0.14477925561E+02  0.10745563963E+04  0.90191233036E+03 0.  0.
         23    2    4    4    0    0 -0.27260826631E+03  0.10766540791E+03 -0.38170863215E+03  0.48976342570E+03  0.90882486636E+02 0.  0.
         23    2    4    4    0    0  0.22121636597E+02  0.41984993334E+03  0.39618655771E+03  0.58479297063E+03  0.90860864263E+02 0.  0.
          4    1    3    3  502    0  0.49888141299E+02 -0.88612225776E+02 -0.10435214431E+03  0.14570629094E+03  0.00000000000E+00 0. -1.
         -3    1    3    3    0  502  0.20059848841E+03 -0.43890311547E+03 -0.28529299547E+03  0.56059592541E+03  0.00000000000E+00 0.  1.
         13    1    5    5    0    0 -0.11001413541E+03  0.84257856273E+01 -0.18866452019E+03  0.21855984314E+03  0.00000000000E+00 0.  1.
        -13    1    5    5    0    0 -0.16259413090E+03  0.99239622279E+02 -0.19304411196E+03  0.27120358256E+03  0.00000000000E+00 0. -1.
          1    1    6    6  503    0  0.10171722220E+02  0.36900476364E+03  0.38077245784E+03  0.53033540723E+03  0.00000000000E+00 0. -1.
         -1    1    6    6    0  503  0.11949914377E+02  0.50845169706E+02  0.15414099872E+02  0.54457563395E+02  0.00000000000E+00 0.  1.
<mgrwt>
<rscale>  0 0.17408926E+04</rscale>
<asrwt>0</asrwt>
<pdfrwt beam="1">  1        2 0.10813011E+00 0.17408926E+04</pdfrwt>
<pdfrwt beam="2">  1       -1 0.16584814E+00 0.17408926E+04</pdfrwt>
<totfact> 0.11660227E+01</totfact>
</mgrwt>
</event>
<event>
12    7  0.1606355E-007  0.2010924E+04  0.7818608E-02  0.8601531E-01
         -1   -1    0    0    0  501 -0.00000000000E+00  0.00000000000E+00  0.58870169089E+03  0.58870169089E+03  0.00000000000E+00 0.  1.
          2   -1    0    0  501    0  0.00000000000E+00 -0.00000000000E+00 -0.17172591301E+04  0.17172591301E+04  0.00000000000E+00 0. -1.
         24    2    1    2    0    0  0.29153137543E+03 -0.33009862056E+03 -0.12183020015E+04  0.12977716392E+04  0.77432672172E+02 0.  0.
        254    2    1    2    0    0 -0.29153137543E+03  0.33009862056E+03  0.89744562291E+02  0.10081891817E+04  0.90246091188E+03 0.  0.
         23    2    4    4    0    0 -0.28798268926E+03  0.37178859507E+03  0.43570856866E+03  0.64758332936E+03  0.91440816491E+02 0.  0.
         23    2    4    4    0    0 -0.35486861729E+01 -0.41689974511E+02 -0.34596400637E+03  0.36060585233E+03  0.92708359297E+02 0.  0.
          4    1    3    3  502    0  0.18020586443E+03 -0.25630779367E+03 -0.87494057274E+03  0.92934861301E+03  0.00000000000E+00 0. -1.
         -3    1    3    3    0  502  0.11132551100E+03 -0.73790826892E+02 -0.34336142872E+03  0.36842302624E+03  0.00000000000E+00 0.  1.
         13    1    5    5    0    0 -0.26922932399E+03  0.37086519559E+03  0.40503743368E+03  0.61162140649E+03  0.00000000000E+00 0.  1.
        -13    1    5    5    0    0 -0.18753365268E+02  0.92339948516E+00  0.30671134977E+02  0.35961922867E+02  0.00000000000E+00 0. -1.
          1    1    6    6  503    0 -0.41020188178E+02 -0.47026129734E+02 -0.18459639539E+03  0.19485877427E+03  0.00000000000E+00 0. -1.
         -1    1    6    6    0  503  0.37471502005E+02  0.53361552228E+01 -0.16136761098E+03  0.16574707807E+03  0.00000000000E+00 0.  1.
<mgrwt>
<rscale>  0 0.20109235E+04</rscale>
<asrwt>0</asrwt>
<pdfrwt beam="1">  1        2 0.26419371E+00 0.20109235E+04</pdfrwt>
<pdfrwt beam="2">  1       -1 0.90569493E-01 0.20109235E+04</pdfrwt>
<totfact> 0.12079434E+01</totfact>
</mgrwt>
</event>
<event>
12    7  0.1606355E-007  0.2433569E+04  0.7818608E-02  0.8427042E-01
          2   -1    0    0  501    0  0.00000000000E+00  0.00000000000E+00  0.17594245602E+04  0.17594245602E+04  0.00000000000E+00 0. -1.
         -1   -1    0    0    0  501 -0.00000000000E+00 -0.00000000000E+00 -0.84150493153E+03  0.84150493153E+03  0.00000000000E+00 0.  1.
         24    2    1    2    0    0 -0.70978697768E+02 -0.17353942013E+03 -0.70735133623E+03  0.73614084612E+03  0.80022038087E+02 0.  0.
        254    2    1    2    0    0  0.70978697768E+02  0.17353942013E+03  0.16252709649E+04  0.18647886456E+04  0.89486148515E+03 0.  0.
         23    2    4    4    0    0 -0.16272784919E+03  0.28006544557E+01  0.15377159448E+04  0.15490660853E+04  0.92451140405E+02 0.  0.
         23    2    4    4    0    0  0.23370654696E+03  0.17073876567E+03  0.87555020140E+02  0.31572256029E+03  0.90798553561E+02 0.  0.
          2    1    3    3  502    0  0.60066900830E+01 -0.51450158984E+01 -0.40715731022E+01  0.88954607455E+01  0.00000000000E+00 0. -1.
         -1    1    3    3    0  502 -0.76985387851E+02 -0.16839440423E+03 -0.70327976313E+03  0.72724538537E+03  0.00000000000E+00 0.  1.
         13    1    5    5    0    0 -0.15981964682E+03  0.18246521116E+02  0.11690070935E+04  0.11800223895E+04  0.00000000000E+00 0.  1.
        -13    1    5    5    0    0 -0.29082023746E+01 -0.15445866660E+02  0.36870885124E+03  0.36904369581E+03  0.00000000000E+00 0. -1.
          1    1    6    6  503    0  0.41337241940E+02  0.60697971029E+02 -0.89940264159E+01  0.73985834924E+02  0.00000000000E+00 0. -1.
         -1    1    6    6    0  503  0.19236930502E+03  0.11004079465E+03  0.96549046556E+02  0.24173672537E+03  0.00000000000E+00 0.  1.
<mgrwt>
<rscale>  0 0.24335689E+04</rscale>
<asrwt>0</asrwt>
<pdfrwt beam="1">  1        2 0.27068070E+00 0.24335689E+04</pdfrwt>
<pdfrwt beam="2">  1       -1 0.12946230E+00 0.24335689E+04</pdfrwt>
<totfact> 0.47549839E+00</totfact>
</mgrwt>
</event>
<event>
12    7  0.1606355E-007  0.1235528E+04  0.7818608E-02  0.9082315E-01
         -1   -1    0    0    0  501 -0.00000000000E+00  0.00000000000E+00  0.63991280454E+03  0.63991280454E+03  0.00000000000E+00 0.  1.
          2   -1    0    0  501    0  0.00000000000E+00 -0.00000000000E+00 -0.59638137184E+03  0.59638137184E+03  0.00000000000E+00 0. -1.
         24    2    1    2    0    0 -0.10478194964E+03  0.24659319044E+03  0.81443003171E+02  0.29112455710E+03  0.79580691389E+02 0.  0.
        254    2    1    2    0    0  0.10478194964E+03 -0.24659319044E+03 -0.37911570473E+02  0.94516961927E+03  0.90560524705E+03 0.  0.
         23    2    4    4    0    0  0.25360780234E+03 -0.53439995668E+03  0.40978543578E+02  0.59962251626E+03  0.89261917253E+02 0.  0.
         23    2    4    4    0    0 -0.14882585271E+03  0.28780676624E+03 -0.78890114051E+02  0.34554710301E+03  0.90538837960E+02 0.  0.
          4    1    3    3  502    0 -0.11417006847E+02  0.52023906649E+02 -0.14120741799E+02  0.55101998669E+02  0.00000000000E+00 0. -1.
         -3    1    3    3    0  502 -0.93364942791E+02  0.19456928379E+03  0.95563744970E+02  0.23602255843E+03  0.00000000000E+00 0.  1.
         13    1    5    5    0    0  0.23052846489E+03 -0.39850698309E+03  0.31734057217E+02  0.46147398527E+03  0.00000000000E+00 0. -1.
        -13    1    5    5    0    0  0.23079337459E+02 -0.13589297359E+03  0.92444863607E+01  0.13814853099E+03  0.00000000000E+00 0.  1.
          4    1    6    6  503    0 -0.72172103160E+02  0.93239048557E+02  0.99680938987E+01  0.11832876044E+03  0.00000000000E+00 0. -1.
         -4    1    6    6    0  503 -0.76653749547E+02  0.19456771768E+03 -0.88858207950E+02  0.22721834257E+03  0.00000000000E+00 0.  1.
<mgrwt>
<rscale>  0 0.12355275E+04</rscale>
<asrwt>0</asrwt>
<pdfrwt beam="1">  1        2 0.91750980E-01 0.12355275E+04</pdfrwt>
<pdfrwt beam="2">  1       -1 0.98448124E-01 0.12355275E+04</pdfrwt>
<totfact> 0.55553476E+01</totfact>
</mgrwt>
</event>
<event>
12    7  0.1606355E-007  0.1756168E+04  0.7818608E-02  0.8729963E-01
         -1   -1    0    0    0  501 -0.00000000000E+00  0.00000000000E+00  0.10248520157E+04  0.10248520157E+04  0.00000000000E+00 0.  1.
          2   -1    0    0  501    0  0.00000000000E+00 -0.00000000000E+00 -0.75233424997E+03  0.75233424997E+03  0.00000000000E+00 0. -1.
         24    2    1    2    0    0  0.58679734938E+03 -0.20542642424E+03 -0.68061679922E+02  0.63047025036E+03  0.79556265001E+02 0.  0.
        254    2    1    2    0    0 -0.58679734938E+03  0.20542642424E+03  0.34057944570E+03  0.11467160154E+04  0.90135016282E+03 0.  0.
         23    2    4    4    0    0 -0.53198217110E+02  0.46388193166E+03  0.25838752092E+03  0.54151504306E+03  0.91967027062E+02 0.  0.
         23    2    4    4    0    0 -0.53359913227E+03 -0.25845550743E+03  0.82191924775E+02  0.60520097229E+03  0.89361183338E+02 0.  0.
          4    1    3    3  502    0  0.29346955843E+02  0.61325981855E+01  0.23970932734E+01  0.30076546243E+02  0.00000000000E+00 0. -1.
         -3    1    3    3    0  502  0.55745039354E+03 -0.21155902242E+03 -0.70458773195E+02  0.60039370412E+03  0.00000000000E+00 0.  1.
         13    1    5    5    0    0 -0.64116193300E+02  0.17855096876E+03  0.89467619423E+02  0.20975173328E+03  0.00000000000E+00 0.  1.
        -13    1    5    5    0    0  0.10917976190E+02  0.28533096290E+03  0.16891990150E+03  0.33176330978E+03  0.00000000000E+00 0. -1.
          1    1    6    6  503    0 -0.37032035816E+03 -0.17833761529E+03  0.98290891988E+02  0.42261397533E+03  0.00000000000E+00 0. -1.
         -1    1    6    6    0  503 -0.16327877411E+03 -0.80117892134E+02 -0.16098967213E+02  0.18258699696E+03  0.00000000000E+00 0.  1.
<mgrwt>
<rscale>  0 0.17561677E+04</rscale>
<asrwt>0</asrwt>
<pdfrwt beam="1">  1        2 0.11574373E+00 0.17561677E+04</pdfrwt>
<pdfrwt beam="2">  1       -1 0.15766954E+00 0.17561677E+04</pdfrwt>
<totfact> 0.12298028E+01</totfact>
</mgrwt>
</event>
<event>
12    7  0.1606355E-007  0.2532538E+04  0.7818608E-02  0.8391485E-01
         -1   -1    0    0    0  501 -0.00000000000E+00  0.00000000000E+00  0.13754868377E+04  0.13754868377E+04  0.00000000000E+00 0.  1.
          2   -1    0    0  501    0  0.00000000000E+00 -0.00000000000E+00 -0.11657230052E+04  0.11657230052E+04  0.00000000000E+00 0. -1.
         24    2    1    2    0    0 -0.24846003343E+03 -0.10455767825E+04 -0.15569643724E+03  0.10887477617E+04  0.78530959651E+02 0.  0.
        254    2    1    2    0    0  0.24846003343E+03  0.10455767825E+04  0.36546026977E+03  0.14524620812E+04  0.90615765309E+03 0.  0.
         23    2    4    4    0    0  0.98911391940E+02  0.87190561781E+03 -0.13665468633E+03  0.89274737581E+03  0.91216796143E+02 0.  0.
         23    2    4    4    0    0  0.14954864149E+03  0.17367116472E+03  0.50211495609E+03  0.55971470542E+03  0.92922831957E+02 0.  0.
          4    1    3    3  502    0 -0.23989137786E+03 -0.10354879385E+04 -0.15987144995E+03  0.10748683754E+04  0.00000000000E+00 0. -1.
         -3    1    3    3    0  502 -0.85686555729E+01 -0.10088844028E+02  0.41750127078E+01  0.13879386271E+02  0.00000000000E+00 0.  1.
         13    1    5    5    0    0  0.22230745067E+02  0.57440181767E+03 -0.97337584037E+02  0.58301480208E+03  0.00000000000E+00 0.  1.
        -13    1    5    5    0    0  0.76680646873E+02  0.29750380014E+03 -0.39317102289E+02  0.30973257374E+03  0.00000000000E+00 0. -1.
          3    1    6    6  503    0  0.10559679750E+01  0.54528613676E+02  0.82068886859E+02  0.98538251294E+02  0.00000000000E+00 0. -1.
         -3    1    6    6    0  503  0.14849267352E+03  0.11914255105E+03  0.42004606923E+03  0.46117645412E+03  0.00000000000E+00 0.  1.
<mgrwt>
<rscale>  0 0.25325376E+04</rscale>
<asrwt>0</asrwt>
<pdfrwt beam="1">  1        2 0.17934200E+00 0.25325376E+04</pdfrwt>
<pdfrwt beam="2">  1       -1 0.21161336E+00 0.25325376E+04</pdfrwt>
<totfact> 0.25241103E+00</totfact>
</mgrwt>
</event>
<event>
12    7  0.1606355E-007  0.1469188E+04  0.7818608E-02  0.8905205E-01
         -1   -1    0    0    0  501 -0.00000000000E+00  0.00000000000E+00  0.26306921742E+03  0.26306921742E+03  0.00000000000E+00 0.  1.
          2   -1    0    0  501    0  0.00000000000E+00 -0.00000000000E+00 -0.20512795276E+04  0.20512795276E+04  0.00000000000E+00 0. -1.
         24    2    1    2    0    0 -0.17137981271E+03  0.16994752515E+03  0.50452719925E+02  0.25883136822E+03  0.78708314172E+02 0.  0.
        254    2    1    2    0    0  0.17137981271E+03 -0.16994752515E+03 -0.18386630301E+04  0.20555173768E+04  0.88668864127E+03 0.  0.
         23    2    4    4    0    0 -0.26624911100E+03  0.18702036965E+03 -0.55264371182E+03  0.64763441240E+03  0.90277639190E+02 0.  0.
         23    2    4    4    0    0  0.43762892371E+03 -0.35696789479E+03 -0.12860193183E+04  0.14078829644E+04  0.96662307437E+02 0.  0.
          4    1    3    3  502    0 -0.39007164973E+02  0.75968876197E+02  0.44698494340E+02  0.96388715450E+02  0.00000000000E+00 0. -1.
         -3    1    3    3    0  502 -0.13237264774E+03  0.93978648952E+02  0.57542255852E+01  0.16244265277E+03  0.00000000000E+00 0.  1.
         13    1    5    5    0    0 -0.16828223524E+03  0.80382002384E+02 -0.37186481270E+03  0.41600915366E+03  0.00000000000E+00 0.  1.
        -13    1    5    5    0    0 -0.97966875757E+02  0.10663836726E+03 -0.18077889912E+03  0.23162525873E+03  0.00000000000E+00 0. -1.
          2    1    6    6  503    0  0.39153838192E+02 -0.26487686763E+02 -0.18941251185E+03  0.19522223295E+03  0.00000000000E+00 0. -1.
         -2    1    6    6    0  503  0.39847508552E+03 -0.33048020803E+03 -0.10966068064E+04  0.12126607315E+04  0.00000000000E+00 0.  1.
<mgrwt>
<rscale>  0 0.14691882E+04</rscale>
<asrwt>0</asrwt>
<pdfrwt beam="1">  1        2 0.31558148E+00 0.14691882E+04</pdfrwt>
<pdfrwt beam="2">  1       -1 0.40472185E-01 0.14691882E+04</pdfrwt>
<totfact> 0.41161009E+01</totfact>
</mgrwt>
</event>
<event>
12    7  0.1606355E-007  0.1640597E+04  0.7818608E-02  0.8795988E-01
          2   -1    0    0  501    0  0.00000000000E+00  0.00000000000E+00  0.31548518297E+04  0.31548518297E+04  0.00000000000E+00 0. -1.
         -1   -1    0    0    0  501 -0.00000000000E+00 -0.00000000000E+00 -0.21328736302E+03  0.21328736302E+03  0.00000000000E+00 0.  1.
         24    2    1    2    0    0  0.81809018822E+02  0.19659917012E+03  0.21356790532E+04  0.21477497965E+04  0.79750992775E+02 0.  0.
        254    2    1    2    0    0 -0.81809018822E+02 -0.19659917012E+03  0.80588541344E+03  0.12203893962E+04  0.89137816299E+03 0.  0.
         23    2    4    4    0    0  0.20291835178E+03 -0.29462377634E+03  0.82669395690E+03  0.90534361133E+03  0.90802693427E+02 0.  0.
         23    2    4    4    0    0 -0.28472737060E+03  0.98024606214E+02 -0.20808543463E+02  0.31504578485E+03  0.90234982535E+02 0.  0.
          2    1    3    3  502    0  0.80589815758E+02  0.19899504105E+03  0.21335383785E+04  0.21443133533E+04  0.00000000000E+00 0. -1.
         -1    1    3    3    0  502  0.12192030646E+01 -0.23958709242E+01  0.21406747517E+01  0.34364432181E+01  0.00000000000E+00 0.  1.
         13    1    5    5    0    0  0.24141184247E+02 -0.91709626848E+02  0.27582707381E+03  0.29167452251E+03  0.00000000000E+00 0. -1.
        -13    1    5    5    0    0  0.17877716753E+03 -0.20291414949E+03  0.55086688309E+03  0.61366908883E+03  0.00000000000E+00 0.  1.
          3    1    6    6  503    0 -0.11325367692E+03  0.81753768256E+02 -0.28799640314E+02  0.14261659525E+03  0.00000000000E+00 0. -1.
         -3    1    6    6    0  503 -0.17147369369E+03  0.16270837957E+02  0.79910968515E+01  0.17242918959E+03  0.00000000000E+00 0.  1.
<mgrwt>
<rscale>  0 0.16405975E+04</rscale>
<asrwt>0</asrwt>
<pdfrwt beam="1">  1        2 0.48536179E+00 0.16405975E+04</pdfrwt>
<pdfrwt beam="2">  1       -1 0.32813443E-01 0.16405975E+04</pdfrwt>
<totfact> 0.13242834E+01</totfact>
</mgrwt>
</event>
<event>
12    7  0.1606355E-007  0.1612535E+04  0.7818608E-02  0.8812884E-01
         -1   -1    0    0    0  501 -0.00000000000E+00  0.00000000000E+00  0.56052205068E+03  0.56052205068E+03  0.00000000000E+00 0.  1.
          2   -1    0    0  501    0  0.00000000000E+00 -0.00000000000E+00 -0.11597527030E+04  0.11597527030E+04  0.00000000000E+00 0. -1.
         24    2    1    2    0    0 -0.49733663734E+03 -0.22799761639E+02 -0.41435047349E+03  0.65268730756E+03  0.80317162542E+02 0.  0.
        254    2    1    2    0    0  0.49733663734E+03  0.22799761639E+02 -0.18488017886E+03  0.10675874462E+04  0.92612024850E+03 0.  0.
         23    2    4    4    0    0  0.37411086764E+03  0.38112998906E+03  0.14054322175E+03  0.55968779145E+03  0.90989103049E+02 0.  0.
         23    2    4    4    0    0  0.12322576970E+03 -0.35833022742E+03 -0.32542340061E+03  0.50789965471E+03  0.92068058429E+02 0.  0.
          4    1    3    3  502    0 -0.16314603168E+03 -0.22468390431E+02 -0.93349393086E+02  0.18930284047E+03  0.00000000000E+00 0. -1.
         -3    1    3    3    0  502 -0.33419060566E+03 -0.33137120797E+00 -0.32100108040E+03  0.46338446708E+03  0.00000000000E+00 0.  1.
         13    1    5    5    0    0  0.18236312471E+03  0.14431593782E+03  0.25370646891E+02  0.23393817321E+03  0.00000000000E+00 0. -1.
        -13    1    5    5    0    0  0.19174774293E+03  0.23681405124E+03  0.11517257485E+03  0.32574961824E+03  0.00000000000E+00 0.  1.
          4    1    6    6  503    0 -0.11289586699E+02 -0.18812955318E+02 -0.34977635691E+02  0.41289430296E+02  0.00000000000E+00 0. -1.
         -4    1    6    6    0  503  0.13451535640E+03 -0.33951727211E+03 -0.29044576492E+03  0.46661022441E+03  0.00000000000E+00 0.  1.
<mgrwt>
<rscale>  0 0.16125346E+04</rscale>
<asrwt>0</asrwt>
<pdfrwt beam="1">  1        2 0.17842349E+00 0.16125346E+04</pdfrwt>
<pdfrwt beam="2">  1       -1 0.86234163E-01 0.16125346E+04</pdfrwt>
<totfact> 0.29035344E+01</totfact>
</mgrwt>
</event>
<event>
12    7  0.1606355E-007  0.1241369E+04  0.7818608E-02  0.9077398E-01
          2   -1    0    0  501    0  0.00000000000E+00  0.00000000000E+00  0.40723602362E+03  0.40723602362E+03  0.00000000000E+00 0. -1.
         -1   -1    0    0    0  501 -0.00000000000E+00 -0.00000000000E+00 -0.94600924333E+03  0.94600924333E+03  0.00000000000E+00 0.  1.
         24    2    1    2    0    0 -0.12706606456E+03 -0.27723988323E+03 -0.73170737286E+02  0.32447529759E+03  0.83201708701E+02 0.  0.
        254    2    1    2    0    0  0.12706606456E+03  0.27723988323E+03 -0.46560248243E+03  0.10287699694E+04  0.86520184963E+03 0.  0.
         23    2    4    4    0    0 -0.26723110975E+03  0.27985523894E+02 -0.47473958915E+03  0.55315082073E+03  0.91665137341E+02 0.  0.
         23    2    4    4    0    0  0.39429717431E+03  0.24925435934E+03  0.91371067211E+01  0.47561914863E+03  0.92369315826E+02 0.  0.
          4    1    3    3  502    0 -0.55874972294E+02 -0.14619795820E+03  0.39949986581E+01  0.15656249719E+03  0.00000000000E+00 0. -1.
         -3    1    3    3    0  502 -0.71191092262E+02 -0.13104192503E+03 -0.77165735944E+02  0.16791280040E+03  0.00000000000E+00 0.  1.
         13    1    5    5    0    0 -0.82255232263E+02 -0.25982297524E+02 -0.10226928741E+03  0.13379091959E+03  0.00000000000E+00 0. -1.
        -13    1    5    5    0    0 -0.18497587749E+03  0.53967821418E+02 -0.37247030175E+03  0.41935990114E+03  0.00000000000E+00 0.  1.
          2    1    6    6  503    0  0.10055600520E+03  0.95355805612E+02  0.35204125628E+02  0.14298101380E+03  0.00000000000E+00 0.  1.
         -2    1    6    6    0  503  0.29374116911E+03  0.15389855373E+03 -0.26067018907E+02  0.33263813483E+03  0.00000000000E+00 0. -1.
<mgrwt>
<rscale>  0 0.12413687E+04</rscale>
<asrwt>0</asrwt>
<pdfrwt beam="1">  1        2 0.62651697E-01 0.12413687E+04</pdfrwt>
<pdfrwt beam="2">  1       -1 0.14553988E+00 0.12413687E+04</pdfrwt>
<totfact> 0.33203412E+01</totfact>
</mgrwt>
</event>
<event>
12    7  0.1606355E-007  0.1696839E+04  0.7818608E-02  0.8763169E-01
         -1   -1    0    0    0  501 -0.00000000000E+00  0.00000000000E+00  0.14698673821E+04  0.14698673821E+04  0.00000000000E+00 0.  1.
          2   -1    0    0  501    0  0.00000000000E+00 -0.00000000000E+00 -0.48971487697E+03  0.48971487697E+03  0.00000000000E+00 0. -1.
         24    2    1    2    0    0  0.41690081009E+03 -0.32140157730E+03  0.77510084352E+01  0.53332653015E+03  0.85275144556E+02 0.  0.
        254    2    1    2    0    0 -0.41690081009E+03  0.32140157730E+03  0.97240149671E+03  0.14262557289E+04  0.90085263732E+03 0.  0.
         23    2    4    4    0    0  0.20618350155E+03 -0.36225836893E+02  0.19788852917E+02  0.22955981124E+03  0.92098646393E+02 0.  0.
         23    2    4    4    0    0 -0.62308431164E+03  0.35762741419E+03  0.95261264379E+03  0.11966959177E+04  0.92080635909E+02 0.  0.
          2    1    3    3  502    0  0.32793535219E+03 -0.26152935831E+03 -0.27747329804E+02  0.42036783272E+03  0.00000000000E+00 0. -1.
         -1    1    3    3    0  502  0.88965457901E+02 -0.59872218991E+02  0.35498338239E+02  0.11295869743E+03  0.00000000000E+00 0.  1.
         13    1    5    5    0    0  0.18890285428E+03 -0.26626733191E+02  0.46474982604E+02  0.19634967605E+03  0.00000000000E+00 0. -1.
        -13    1    5    5    0    0  0.17280647270E+02 -0.95991037024E+01 -0.26686129688E+02  0.33210135195E+02  0.00000000000E+00 0.  1.
          2    1    6    6  503    0 -0.52070947723E+03  0.25748225620E+03  0.75296213118E+03  0.95099287217E+03  0.00000000000E+00 0. -1.
         -2    1    6    6    0  503 -0.10237483442E+03  0.10014515799E+03  0.19965051261E+03  0.24570304552E+03  0.00000000000E+00 0.  1.
<mgrwt>
<rscale>  0 0.16968393E+04</rscale>
<asrwt>0</asrwt>
<pdfrwt beam="1">  1        2 0.75340751E-01 0.16968393E+04</pdfrwt>
<pdfrwt beam="2">  1       -1 0.22613344E+00 0.16968393E+04</pdfrwt>
<totfact> 0.68726046E+00</totfact>
</mgrwt>
</event>
<event>
12    7  0.1606355E-007  0.1171519E+04  0.7818608E-02  0.9138158E-01
          2   -1    0    0  501    0  0.00000000000E+00  0.00000000000E+00  0.66213744623E+03  0.66213744623E+03  0.00000000000E+00 0. -1.
         -1   -1    0    0    0  501 -0.00000000000E+00 -0.00000000000E+00 -0.51819187199E+03  0.51819187199E+03  0.00000000000E+00 0.  1.
         24    2    1    2    0    0  0.11835653465E+03  0.20777959889E+03  0.22720145930E+02  0.25280190632E+03  0.78816037716E+02 0.  0.
        254    2    1    2    0    0 -0.11835653465E+03 -0.20777959889E+03  0.12122542831E+03  0.92752741189E+03  0.88793629520E+03 0.  0.
         23    2    4    4    0    0  0.22318052749E+03  0.24032220254E+03  0.10496884050E+03  0.35628843267E+03  0.91425821815E+02 0.  0.
         23    2    4    4    0    0 -0.34153706215E+03 -0.44810180143E+03  0.16256587814E+02  0.57123897922E+03  0.92773409269E+02 0.  0.
          4    1    3    3  502    0  0.60304437809E+02  0.14386898237E+03  0.47337877449E+02  0.16302080833E+03  0.00000000000E+00 0. -1.
         -1    1    3    3    0  502  0.58052096845E+02  0.63910616515E+02 -0.24617731519E+02  0.89781097991E+02  0.00000000000E+00 0.  1.
         13    1    5    5    0    0  0.21866353792E+03  0.19219060638E+03  0.80177832259E+02  0.30195936280E+03  0.00000000000E+00 0. -1.
        -13    1    5    5    0    0  0.45169895743E+01  0.48131596164E+02  0.24791008238E+02  0.54329069875E+02  0.00000000000E+00 0.  1.
          4    1    6    6  503    0 -0.34656434891E+03 -0.44036567703E+03  0.10732392383E+02  0.56048546965E+03  0.00000000000E+00 0. -1.
         -4    1    6    6    0  503  0.50272867622E+01 -0.77361243981E+01  0.55241954311E+01  0.10753509569E+02  0.00000000000E+00 0.  1.
<mgrwt>
<rscale>  0 0.11715191E+04</rscale>
<asrwt>0</asrwt>
<pdfrwt beam="1">  1        2 0.10186730E+00 0.11715191E+04</pdfrwt>
<pdfrwt beam="2">  1       -1 0.79721827E-01 0.11715191E+04</pdfrwt>
<totfact> 0.78022608E+01</totfact>
</mgrwt>
</event>
<event>
12    7  0.1606355E-007  0.1517082E+04  0.7818608E-02  0.8873173E-01
         -1   -1    0    0    0  501 -0.00000000000E+00  0.00000000000E+00  0.44384858152E+03  0.44384858152E+03  0.00000000000E+00 0.  1.
          2   -1    0    0  501    0  0.00000000000E+00 -0.00000000000E+00 -0.12963523219E+04  0.12963523219E+04  0.00000000000E+00 0. -1.
         24    2    1    2    0    0  0.38770038798E+03  0.29622301878E+03 -0.27669796850E+03  0.56766516460E+03  0.87305816699E+02 0.  0.
        254    2    1    2    0    0 -0.38770038798E+03 -0.29622301878E+03 -0.57580577187E+03  0.11725357388E+04  0.89734503074E+03 0.  0.
         23    2    4    4    0    0  0.10343329931E+03  0.22536367368E+03 -0.28933023714E+02  0.26667121658E+03  0.93750653710E+02 0.  0.
         23    2    4    4    0    0 -0.49113368729E+03 -0.52158669246E+03 -0.54687274815E+03  0.90586452224E+03  0.90861176766E+02 0.  0.
          4    1    3    3  502    0  0.50862583606E+02  0.49630441411E+02 -0.77405475172E+02  0.10507992535E+03  0.00000000000E+00 0. -1.
         -3    1    3    3    0  502  0.33683780437E+03  0.24659257737E+03 -0.19929249333E+03  0.46258523925E+03  0.00000000000E+00 0.  1.
         13    1    5    5    0    0 -0.16991550633E+01  0.19349134666E+02 -0.29572430554E+02  0.35380853425E+02  0.00000000000E+00 0. -1.
        -13    1    5    5    0    0  0.10513245437E+03  0.20601453901E+03  0.63940684024E+00  0.23129036315E+03  0.00000000000E+00 0.  1.
          1    1    6    6  503    0 -0.14740151325E+03 -0.13043526189E+03 -0.10588474397E+03  0.22349975986E+03  0.00000000000E+00 0. -1.
         -1    1    6    6    0  503 -0.34373217404E+03 -0.39115143057E+03 -0.44098800418E+03  0.68236476238E+03  0.00000000000E+00 0.  1.
<mgrwt>
<rscale>  0 0.15170816E+04</rscale>
<asrwt>0</asrwt>
<pdfrwt beam="1">  1        2 0.19943882E+00 0.15170816E+04</pdfrwt>
<pdfrwt beam="2">  1       -1 0.68284397E-01 0.15170816E+04</pdfrwt>
<totfact> 0.39674034E+01</totfact>
</mgrwt>
</event>
<event>
12    7  0.1606355E-007  0.1790157E+04  0.7818608E-02  0.8711552E-01
         -1   -1    0    0    0  501 -0.00000000000E+00  0.00000000000E+00  0.43102802713E+03  0.43102802713E+03  0.00000000000E+00 0.  1.
          2   -1    0    0  501    0  0.00000000000E+00 -0.00000000000E+00 -0.18587310884E+04  0.18587310884E+04  0.00000000000E+00 0. -1.
         24    2    1    2    0    0 -0.48986885454E+03 -0.46565459505E+03 -0.58478370987E+03  0.89734374768E+03  0.80300172133E+02 0.  0.
        254    2    1    2    0    0  0.48986885454E+03  0.46565459505E+03 -0.84291935138E+03  0.13924153678E+04  0.87835176726E+03 0.  0.
         23    2    4    4    0    0  0.66513951497E+03  0.52809950285E+03 -0.81816519764E+03  0.11827812678E+04  0.90981193337E+02 0.  0.
         23    2    4    4    0    0 -0.17527066043E+03 -0.62444907802E+02 -0.24754153741E+02  0.20963410002E+03  0.93351576559E+02 0.  0.
          2    1    3    3  502    0 -0.26445183079E+03 -0.30120214623E+03 -0.36573964574E+03  0.54260758580E+03  0.00000000000E+00 0. -1.
         -1    1    3    3    0  502 -0.22541702375E+03 -0.16445244881E+03 -0.21904406413E+03  0.35473616188E+03  0.00000000000E+00 0.  1.
         13    1    5    5    0    0  0.11875607882E+03  0.99661113517E+02 -0.10374581619E+03  0.18654366293E+03  0.00000000000E+00 0. -1.
        -13    1    5    5    0    0  0.54638343615E+03  0.42843838933E+03 -0.71441938145E+03  0.99623760486E+03  0.00000000000E+00 0.  1.
          3    1    6    6  503    0 -0.10546102692E+02 -0.59627525574E+00  0.24699590476E+02  0.26863462097E+02  0.00000000000E+00 0. -1.
         -3    1    6    6    0  503 -0.16472455773E+03 -0.61848632546E+02 -0.49453744217E+02  0.18277063792E+03  0.00000000000E+00 0.  1.
<mgrwt>
<rscale>  0 0.17901566E+04</rscale>
<asrwt>0</asrwt>
<pdfrwt beam="1">  1        2 0.28595862E+00 0.17901566E+04</pdfrwt>
<pdfrwt beam="2">  1       -1 0.66312006E-01 0.17901566E+04</pdfrwt>
<totfact> 0.19849748E+01</totfact>
</mgrwt>
</event>
<event>
12    7  0.1606355E-007  0.2228046E+04  0.7818608E-02  0.8506845E-01
         -1   -1    0    0    0  501 -0.00000000000E+00  0.00000000000E+00  0.13399742822E+04  0.13399742822E+04  0.00000000000E+00 0.  1.
          2   -1    0    0  501    0  0.00000000000E+00 -0.00000000000E+00 -0.92617218114E+03  0.92617218114E+03  0.00000000000E+00 0. -1.
         24    2    1    2    0    0  0.55668112903E+02 -0.87347424483E+03  0.49220700864E+03  0.10072058499E+04  0.78356170958E+02 0.  0.
        254    2    1    2    0    0 -0.55668112903E+02  0.87347424483E+03 -0.78404907537E+02  0.12589406135E+04  0.90151425036E+03 0.  0.
         23    2    4    4    0    0  0.15586210978E+03 -0.60828374625E+02  0.18116937220E+03  0.26227292505E+03  0.89284138390E+02 0.  0.
         23    2    4    4    0    0 -0.21153022268E+03  0.93430261946E+03 -0.25957427974E+03  0.99666768844E+03  0.91111221300E+02 0.  0.
          2    1    3    3  502    0  0.19818057774E+02 -0.67445757186E+03  0.35117470684E+03  0.76066381955E+03  0.00000000000E+00 0. -1.
         -1    1    3    3    0  502  0.35850055130E+02 -0.19901667298E+03  0.14103230180E+03  0.24654203035E+03  0.00000000000E+00 0.  1.
         13    1    5    5    0    0  0.89128510059E+02  0.43942939245E+01  0.53187736324E+02  0.10388520790E+03  0.00000000000E+00 0. -1.
        -13    1    5    5    0    0  0.66733599720E+02 -0.65222668549E+02  0.12798163588E+03  0.15838771716E+03  0.00000000000E+00 0.  1.
          1    1    6    6  503    0  0.21836977772E+01  0.38681902390E+02  0.39206936627E+01  0.38941365504E+02  0.00000000000E+00 0. -1.
         -1    1    6    6    0  503 -0.21371392046E+03  0.89562071707E+03 -0.26349497340E+03  0.95772632294E+03  0.00000000000E+00 0.  1.
<mgrwt>
<rscale>  0 0.22280457E+04</rscale>
<asrwt>0</asrwt>
<pdfrwt beam="1">  1        2 0.14248803E+00 0.22280457E+04</pdfrwt>
<pdfrwt beam="2">  1       -1 0.20614989E+00 0.22280457E+04</pdfrwt>
<totfact> 0.39992107E+00</totfact>
</mgrwt>
</event>
<event>
12    7  0.1606355E-007  0.2459630E+04  0.7818608E-02  0.8417510E-01
         -1   -1    0    0    0  501 -0.00000000000E+00  0.00000000000E+00  0.11202343245E+04  0.11202343245E+04  0.00000000000E+00 0.  1.
          2   -1    0    0  501    0  0.00000000000E+00 -0.00000000000E+00 -0.13501152045E+04  0.13501152045E+04  0.00000000000E+00 0. -1.
         24    2    1    2    0    0 -0.21405086136E+03  0.44465218990E+03  0.84771442064E+03  0.98397157282E+03  0.77762304064E+02 0.  0.
        254    2    1    2    0    0  0.21405086136E+03 -0.44465218990E+03 -0.10775953007E+04  0.14863779562E+04  0.89698074421E+03 0.  0.
         23    2    4    4    0    0  0.45846661265E+03 -0.37656034993E+03 -0.10573339250E+04  0.12158936547E+04  0.91940298432E+02 0.  0.
         23    2    4    4    0    0 -0.24441575129E+03 -0.68091839973E+02 -0.20261375671E+02  0.27048430155E+03  0.91518718784E+02 0.  0.
          4    1    3    3  502    0 -0.90778241817E+02  0.14284822975E+03  0.35330394254E+03  0.39175244957E+03  0.00000000000E+00 0. -1.
         -3    1    3    3    0  502 -0.12327261954E+03  0.30180396016E+03  0.49441047809E+03  0.59221912325E+03  0.00000000000E+00 0.  1.
         13    1    5    5    0    0  0.25158209065E+02 -0.32521805738E+02 -0.37527639642E+02  0.55668007589E+02  0.00000000000E+00 0.  1.
        -13    1    5    5    0    0  0.43330840358E+03 -0.34403854419E+03 -0.10198062854E+04  0.11602256471E+04  0.00000000000E+00 0. -1.
          1    1    6    6  503    0 -0.20255680283E+03 -0.76296159079E+02 -0.45136593062E+02  0.22110557274E+03  0.00000000000E+00 0. -1.
         -1    1    6    6    0  503 -0.41858948462E+02  0.82043191052E+01  0.24875217391E+02  0.49378728807E+02  0.00000000000E+00 0.  1.
<mgrwt>
<rscale>  0 0.24596304E+04</rscale>
<asrwt>0</asrwt>
<pdfrwt beam="1">  1        2 0.20771003E+00 0.24596304E+04</pdfrwt>
<pdfrwt beam="2">  1       -1 0.17234374E+00 0.24596304E+04</pdfrwt>
<totfact> 0.37280995E+00</totfact>
</mgrwt>
</event>
<event>
12    7  0.1606355E-007  0.1980568E+04  0.7818608E-02  0.8615760E-01
         -1   -1    0    0    0  501 -0.00000000000E+00  0.00000000000E+00  0.70387466171E+03  0.70387466171E+03  0.00000000000E+00 0.  1.
          2   -1    0    0  501    0  0.00000000000E+00 -0.00000000000E+00 -0.13932337852E+04  0.13932337852E+04  0.00000000000E+00 0. -1.
         24    2    1    2    0    0  0.21774770991E+03 -0.36643097003E+03  0.41957915181E+03  0.60398469918E+03  0.84054335061E+02 0.  0.
        254    2    1    2    0    0 -0.21774770991E+03  0.36643097003E+03 -0.11089382753E+04  0.14931237478E+04  0.90442728103E+03 0.  0.
         23    2    4    4    0    0 -0.26334458125E+03  0.24040973317E+03  0.35088804744E+01  0.36893140474E+03  0.94608989462E+02 0.  0.
         23    2    4    4    0    0  0.45596871340E+02  0.12602123687E+03 -0.11124471558E+04  0.11241923430E+04  0.91155487078E+02 0.  0.
          2    1    3    3  502    0  0.31492147713E+02 -0.57786463381E+02  0.27372999088E+02  0.71276305998E+02  0.00000000000E+00 0. -1.
         -1    1    3    3    0  502  0.18625556219E+03 -0.30864450665E+03  0.39220615273E+03  0.53270839319E+03  0.00000000000E+00 0.  1.
         13    1    5    5    0    0 -0.11821150264E+03  0.16869483773E+03  0.15705733531E+02  0.20658794181E+03  0.00000000000E+00 0.  1.
        -13    1    5    5    0    0 -0.14513307860E+03  0.71714895435E+02 -0.12196853056E+02  0.16234346293E+03  0.00000000000E+00 0. -1.
          4    1    6    6  503    0  0.46939866335E+02  0.96808578715E+02 -0.10469463478E+04  0.10524599314E+04  0.00000000000E+00 0. -1.
         -4    1    6    6    0  503 -0.13429949949E+01  0.29212658151E+02 -0.65500808012E+02  0.71732411656E+02  0.00000000000E+00 0.  1.
<mgrwt>
<rscale>  0 0.19805676E+04</rscale>
<asrwt>0</asrwt>
<pdfrwt beam="1">  1        2 0.21434366E+00 0.19805676E+04</pdfrwt>
<pdfrwt beam="2">  1       -1 0.10828841E+00 0.19805676E+04</pdfrwt>
<totfact> 0.12263072E+01</totfact>
</mgrwt>
</event>
<event>
12    7  0.1606355E-007  0.1425348E+04  0.7818608E-02  0.8935672E-01
          2   -1    0    0  501    0  0.00000000000E+00  0.00000000000E+00  0.66512816252E+03  0.66512816252E+03  0.00000000000E+00 0. -1.
         -1   -1    0    0    0  501 -0.00000000000E+00 -0.00000000000E+00 -0.76361851125E+03  0.76361851125E+03  0.00000000000E+00 0.  1.
         24    2    1    2    0    0 -0.17871021833E+03  0.36291393486E+03 -0.14661918972E+03  0.43705277748E+03  0.76642529035E+02 0.  0.
        254    2    1    2    0    0  0.17871021833E+03 -0.36291393486E+03  0.48128840989E+02  0.99169389630E+03  0.90415514840E+03 0.  0.
         23    2    4    4    0    0  0.21151968603E+03 -0.64951993798E+03  0.40703334271E+02  0.69038567985E+03  0.91427009769E+02 0.  0.
         23    2    4    4    0    0 -0.32809467701E+02  0.28660600312E+03  0.74255067181E+01  0.30130821645E+03  0.86672030966E+02 0.  0.
          4    1    3    3  502    0 -0.74037306642E+01 -0.13079855520E+01 -0.88918074274E+01  0.11644324509E+02  0.00000000000E+00 0. -1.
         -3    1    3    3    0  502 -0.17130648767E+03  0.36422192041E+03 -0.13772738229E+03  0.42540845297E+03  0.00000000000E+00 0.  1.
         13    1    5    5    0    0  0.92640669253E+01 -0.50337643471E+02  0.26936186462E+02  0.57838217705E+02  0.00000000000E+00 0. -1.
        -13    1    5    5    0    0  0.20225561911E+03 -0.59918229451E+03  0.13767147809E+02  0.63254746215E+03  0.00000000000E+00 0.  1.
          3    1    6    6  503    0 -0.29203813996E+02  0.31877151580E+02 -0.14532444290E+02  0.45609291616E+02  0.00000000000E+00 0. -1.
         -3    1    6    6    0  503 -0.36056537051E+01  0.25472885154E+03  0.21957951008E+02  0.25569892483E+03  0.00000000000E+00 0.  1.
<mgrwt>
<rscale>  0 0.14253479E+04</rscale>
<asrwt>0</asrwt>
<pdfrwt beam="1">  1        2 0.10232741E+00 0.14253479E+04</pdfrwt>
<pdfrwt beam="2">  1       -1 0.11747977E+00 0.14253479E+04</pdfrwt>
<totfact> 0.31628536E+01</totfact>
</mgrwt>
</event>
<event>
12    7  0.1606355E-007  0.1746547E+04  0.7818608E-02  0.8735253E-01
         -1   -1    0    0    0  501 -0.00000000000E+00  0.00000000000E+00  0.82538513394E+03  0.82538513394E+03  0.00000000000E+00 0.  1.
          2   -1    0    0  501    0  0.00000000000E+00 -0.00000000000E+00 -0.92394032444E+03  0.92394032444E+03  0.00000000000E+00 0. -1.
         24    2    1    2    0    0 -0.22113071749E+02  0.40526710049E+03 -0.53265032769E+03  0.67433736859E+03  0.79272343322E+02 0.  0.
        254    2    1    2    0    0  0.22113071749E+02 -0.40526710049E+03  0.43409513719E+03  0.10749880898E+04  0.89578479245E+03 0.  0.
         23    2    4    4    0    0  0.10543799106E+03  0.15878084807E+03  0.45126563347E+03  0.49846667832E+03  0.92194521344E+02 0.  0.
         23    2    4    4    0    0 -0.83324919311E+02 -0.56404794856E+03 -0.17170496284E+02  0.57652141148E+03  0.83600128559E+02 0.  0.
          2    1    3    3  502    0 -0.19186934137E+02  0.16548378645E+03 -0.28141383784E+03  0.32702717035E+03  0.00000000000E+00 0. -1.
         -1    1    3    3    0  502 -0.29261376113E+01  0.23978331404E+03 -0.25123648985E+03  0.34731019824E+03  0.00000000000E+00 0.  1.
         13    1    5    5    0    0  0.41632419910E+02  0.11537902472E+03  0.35183998728E+03  0.37260831228E+03  0.00000000000E+00 0. -1.
        -13    1    5    5    0    0  0.63805571149E+02  0.43401823357E+02  0.99425646191E+02  0.12585836603E+03  0.00000000000E+00 0.  1.
          4    1    6    6  503    0 -0.58810113649E+02 -0.40857780692E+03 -0.49805800874E+02  0.41578248108E+03  0.00000000000E+00 0. -1.
         -4    1    6    6    0  503 -0.24514805662E+02 -0.15547014164E+03  0.32635304591E+02  0.16073893039E+03  0.00000000000E+00 0.  1.
<mgrwt>
<rscale>  0 0.17465470E+04</rscale>
<asrwt>0</asrwt>
<pdfrwt beam="1">  1        2 0.14214467E+00 0.17465470E+04</pdfrwt>
<pdfrwt beam="2">  1       -1 0.12698233E+00 0.17465470E+04</pdfrwt>
<totfact> 0.16448923E+01</totfact>
</mgrwt>
</event>
<event>
12    7  0.1606355E-007  0.1457335E+04  0.7818608E-02  0.8913331E-01
         -1   -1    0    0    0  501 -0.00000000000E+00  0.00000000000E+00  0.36287508874E+03  0.36287508874E+03  0.00000000000E+00 0.  1.
          2   -1    0    0  501    0  0.00000000000E+00 -0.00000000000E+00 -0.14631922617E+04  0.14631922617E+04  0.00000000000E+00 0. -1.
         24    2    1    2    0    0 -0.37133546810E+03 -0.22780352749E+03 -0.25393552698E+03  0.51057516765E+03  0.80120365401E+02 0.  0.
        254    2    1    2    0    0  0.37133546810E+03  0.22780352749E+03 -0.84638164597E+03  0.13154921828E+04  0.90795006212E+03 0.  0.
         23    2    4    4    0    0  0.59212540845E+03 -0.19393644611E+02 -0.30212874168E+03  0.67155583162E+03  0.93364048979E+02 0.  0.
         23    2    4    4    0    0 -0.22078994035E+03  0.24719717210E+03 -0.54425290429E+03  0.64393635117E+03  0.92672330665E+02 0.  0.
          2    1    3    3  502    0 -0.30302600510E+03 -0.21684472068E+03 -0.22708466004E+03  0.43636433800E+03  0.00000000000E+00 0. -1.
         -1    1    3    3    0  502 -0.68309463004E+02 -0.10958806818E+02 -0.26850866944E+02  0.74210829657E+02  0.00000000000E+00 0.  1.
         13    1    5    5    0    0  0.63791720876E+01  0.29133652552E+01  0.60923166284E+01  0.92896639086E+01  0.00000000000E+00 0.  1.
        -13    1    5    5    0    0  0.58574623636E+03 -0.22307009866E+02 -0.30822105831E+03  0.66226616771E+03  0.00000000000E+00 0. -1.
          3    1    6    6  503    0 -0.22733468004E+03  0.23055520951E+03 -0.52996300684E+03  0.62104552973E+03  0.00000000000E+00 0. -1.
         -3    1    6    6    0  503  0.65447396980E+01  0.16641962599E+02 -0.14289897453E+02  0.22890821437E+02  0.00000000000E+00 0.  1.
<mgrwt>
<rscale>  0 0.14573346E+04</rscale>
<asrwt>0</asrwt>
<pdfrwt beam="1">  1        2 0.22510650E+00 0.14573346E+04</pdfrwt>
<pdfrwt beam="2">  1       -1 0.55826937E-01 0.14573346E+04</pdfrwt>
<totfact> 0.47737476E+01</totfact>
</mgrwt>
</event>
<event>
12    7  0.1606355E-007  0.2296964E+04  0.7818608E-02  0.8479119E-01
         -1   -1    0    0    0  501 -0.00000000000E+00  0.00000000000E+00  0.63418487623E+03  0.63418487623E+03  0.00000000000E+00 0.  1.
          2   -1    0    0  501    0  0.00000000000E+00 -0.00000000000E+00 -0.20798516796E+04  0.20798516796E+04  0.00000000000E+00 0. -1.
         24    2    1    2    0    0  0.13299597278E+03 -0.79725416386E+03 -0.12592319944E+04  0.14984238554E+04  0.79414761158E+02 0.  0.
        254    2    1    2    0    0 -0.13299597278E+03  0.79725416386E+03 -0.18643480899E+03  0.12156127004E+04  0.88862487519E+03 0.  0.
         23    2    4    4    0    0 -0.28307870737E+03  0.88963695721E+02 -0.34981704437E+03  0.46783646546E+03  0.91928777638E+02 0.  0.
         23    2    4    4    0    0  0.15008273459E+03  0.70829046814E+03  0.16338223539E+03  0.74777623494E+03  0.90968831055E+02 0.  0.
          2    1    3    3  502    0  0.80959990502E+02 -0.35392427342E+03 -0.62623468303E+03  0.72386931805E+03  0.00000000000E+00 0. -1.
         -1    1    3    3    0  502  0.52035982273E+02 -0.44332989044E+03 -0.63299731135E+03  0.77455453739E+03  0.00000000000E+00 0.  1.
         13    1    5    5    0    0 -0.15017443430E+03  0.14855835086E+00 -0.15471425730E+03  0.21561281084E+03  0.00000000000E+00 0. -1.
        -13    1    5    5    0    0 -0.13290427307E+03  0.88815137371E+02 -0.19510278707E+03  0.25222365462E+03  0.00000000000E+00 0.  1.
          2    1    6    6  503    0  0.27627677743E+02  0.32964993875E+02  0.41645292875E+01  0.43212529466E+02  0.00000000000E+00 0. -1.
         -2    1    6    6    0  503  0.12245505685E+03  0.67532547427E+03  0.15921770610E+03  0.70456370548E+03  0.00000000000E+00 0.  1.
<mgrwt>
<rscale>  0 0.22969636E+04</rscale>
<asrwt>0</asrwt>
<pdfrwt beam="1">  1        2 0.31997718E+00 0.22969636E+04</pdfrwt>
<pdfrwt beam="2">  1       -1 0.97566903E-01 0.22969636E+04</pdfrwt>
<totfact> 0.62734284E+00</totfact>
</mgrwt>
</event>
<event>
12    7  0.1606355E-007  0.1798074E+04  0.7818608E-02  0.8707324E-01
          2   -1    0    0  501    0  0.00000000000E+00  0.00000000000E+00  0.10679752737E+04  0.10679752737E+04  0.00000000000E+00 0. -1.
         -1   -1    0    0    0  501 -0.00000000000E+00 -0.00000000000E+00 -0.75682270749E+03  0.75682270749E+03  0.00000000000E+00 0.  1.
         24    2    1    2    0    0 -0.61765096394E+03  0.13050311417E+03 -0.10595600406E+03  0.64589394943E+03  0.86188996085E+02 0.  0.
        254    2    1    2    0    0  0.61765096394E+03 -0.13050311417E+03  0.41710857025E+03  0.11789040317E+04  0.90405275323E+03 0.  0.
         23    2    4    4    0    0  0.18233977101E+03 -0.20468267607E+03 -0.24467758295E+03  0.37829248562E+03  0.89973857869E+02 0.  0.
         23    2    4    4    0    0  0.43531119293E+03  0.74179561893E+02  0.66178615320E+03  0.80061154612E+03  0.89551622707E+02 0.  0.
          2    1    3    3  502    0 -0.83259439601E+02  0.48439308207E+02 -0.10806008488E+02  0.96929204483E+02  0.00000000000E+00 0. -1.
         -1    1    3    3    0  502 -0.53439152434E+03  0.82063805967E+02 -0.95149995570E+02  0.54896474494E+03  0.00000000000E+00 0.  1.
         13    1    5    5    0    0  0.11220951981E+03 -0.77008270765E+02 -0.15902609232E+03  0.20930969433E+03  0.00000000000E+00 0.  1.
        -13    1    5    5    0    0  0.70130251202E+02 -0.12767440530E+03 -0.85651490628E+02  0.16898279128E+03  0.00000000000E+00 0. -1.
          2    1    6    6  503    0  0.75136353864E+01  0.14829601582E+02  0.42139908166E+02  0.45300592270E+02  0.00000000000E+00 0. -1.
         -2    1    6    6    0  503  0.42779755754E+03  0.59349960311E+02  0.61964624503E+03  0.75531095385E+03  0.00000000000E+00 0.  1.
<mgrwt>
<rscale>  0 0.17980745E+04</rscale>
<asrwt>0</asrwt>
<pdfrwt beam="1">  1        2 0.16430389E+00 0.17980745E+04</pdfrwt>
<pdfrwt beam="2">  1       -1 0.11643426E+00 0.17980745E+04</pdfrwt>
<totfact> 0.16367727E+01</totfact>
</mgrwt>
</event>
<event>
12    7  0.1606355E-007  0.1451387E+04  0.7818608E-02  0.8917439E-01
          2   -1    0    0  501    0  0.00000000000E+00  0.00000000000E+00  0.42560952828E+03  0.42560952828E+03  0.00000000000E+00 0. -1.
         -1   -1    0    0    0  501 -0.00000000000E+00 -0.00000000000E+00 -0.12373572991E+04  0.12373572991E+04  0.00000000000E+00 0.  1.
         24    2    1    2    0    0 -0.29875892334E+03  0.17653489473E+03  0.65709469813E+02  0.36212018923E+03  0.79948944254E+02 0.  0.
        254    2    1    2    0    0  0.29875892334E+03 -0.17653489473E+03 -0.87745724067E+03  0.13008466382E+04  0.89546038637E+03 0.  0.
         23    2    4    4    0    0  0.13324364680E+03 -0.31876244943E+02 -0.10133279342E+04  0.10264652590E+04  0.89596100284E+02 0.  0.
         23    2    4    4    0    0  0.16551527654E+03 -0.14465864979E+03  0.13587069357E+03  0.27438137921E+03  0.92210976361E+02 0.  0.
          2    1    3    3  502    0 -0.23953582099E+03  0.12658335454E+03  0.81770848276E+02  0.28299686714E+03  0.00000000000E+00 0. -1.
         -1    1    3    3    0  502 -0.59223102357E+02  0.49951540188E+02 -0.16061378463E+02  0.79123322087E+02  0.00000000000E+00 0.  1.
         13    1    5    5    0    0  0.11427414665E+03 -0.30484528850E+01 -0.91786757507E+03  0.92495878775E+03  0.00000000000E+00 0.  1.
        -13    1    5    5    0    0  0.18969500157E+02 -0.28827792058E+02 -0.95460359161E+02  0.10150647123E+03  0.00000000000E+00 0. -1.
          1    1    6    6  503    0  0.27183422917E+02 -0.34658574531E+02 -0.10062906615E+02  0.45182046872E+02  0.00000000000E+00 0. -1.
         -1    1    6    6    0  503  0.13833185362E+03 -0.11000007526E+03  0.14593360018E+03  0.22919933234E+03  0.00000000000E+00 0.  1.
<mgrwt>
<rscale>  0 0.14513870E+04</rscale>
<asrwt>0</asrwt>
<pdfrwt beam="1">  1        2 0.65478389E-01 0.14513870E+04</pdfrwt>
<pdfrwt beam="2">  1       -1 0.19036266E+00 0.14513870E+04</pdfrwt>
<totfact> 0.14439832E+01</totfact>
</mgrwt>
</event>
<event>
12    7  0.1606355E-007  0.1677956E+04  0.7818608E-02  0.8774038E-01
          2   -1    0    0  501    0  0.00000000000E+00  0.00000000000E+00  0.11623642530E+04  0.11623642530E+04  0.00000000000E+00 0. -1.
         -1   -1    0    0    0  501 -0.00000000000E+00 -0.00000000000E+00 -0.60556238713E+03  0.60556238713E+03  0.00000000000E+00 0.  1.
         24    2    1    2    0    0  0.23982050781E+02 -0.56703399381E+03  0.40259113245E+03  0.70025253499E+03  0.78557647192E+02 0.  0.
        254    2    1    2    0    0 -0.23982050781E+02  0.56703399381E+03  0.15421073345E+03  0.10676741052E+04  0.89109166512E+03 0.  0.
         23    2    4    4    0    0 -0.26549808526E+03  0.64917034062E+03 -0.77148348979E+02  0.71142475253E+03  0.90895249302E+02 0.  0.
         23    2    4    4    0    0  0.24151603448E+03 -0.82136346801E+02  0.23135908243E+03  0.35624935265E+03  0.91160308594E+02 0.  0.
          2    1    3    3  502    0  0.43405259634E+02 -0.41748576366E+03  0.26704593820E+03  0.49748559028E+03  0.00000000000E+00 0. -1.
         -1    1    3    3    0  502 -0.19423208852E+02 -0.14954823015E+03  0.13554519426E+03  0.20276694472E+03  0.00000000000E+00 0.  1.
         13    1    5    5    0    0 -0.21211275615E+03  0.40574316537E+03 -0.57510103083E+02  0.46143986555E+03  0.00000000000E+00 0.  1.
        -13    1    5    5    0    0 -0.53385329107E+02  0.24342717525E+03 -0.19638245896E+02  0.24998488697E+03  0.00000000000E+00 0. -1.
          3    1    6    6  503    0  0.68312560671E+02 -0.63662817496E+02  0.10819390477E+03  0.14291774315E+03  0.00000000000E+00 0. -1.
         -3    1    6    6    0  503  0.17320347381E+03 -0.18473529305E+02  0.12316517766E+03  0.21333160950E+03  0.00000000000E+00 0.  1.
<mgrwt>
<rscale>  0 0.16779560E+04</rscale>
<asrwt>0</asrwt>
<pdfrwt beam="1">  1        2 0.17882527E+00 0.16779560E+04</pdfrwt>
<pdfrwt beam="2">  1       -1 0.93163444E-01 0.16779560E+04</pdfrwt>
<totfact> 0.24268483E+01</totfact>
</mgrwt>
</event>
<event>
12    7  0.1606355E-007  0.2303812E+04  0.7818608E-02  0.8476420E-01
         -1   -1    0    0    0  501 -0.00000000000E+00  0.00000000000E+00  0.10185321295E+04  0.10185321295E+04  0.00000000000E+00 0.  1.
          2   -1    0    0  501    0  0.00000000000E+00 -0.00000000000E+00 -0.13027447665E+04  0.13027447665E+04  0.00000000000E+00 0. -1.
         24    2    1    2    0    0 -0.14317771430E+03  0.94968500996E+03 -0.26696024950E+03  0.99956570235E+03  0.73907661802E+02 0.  0.
        254    2    1    2    0    0  0.14317771430E+03 -0.94968500996E+03 -0.17252387423E+02  0.13217111937E+04  0.90786637704E+03 0.  0.
         23    2    4    4    0    0  0.31441947967E+03 -0.91353255408E+03 -0.26343919368E+03  0.10055891186E+04  0.91694766314E+02 0.  0.
         23    2    4    4    0    0 -0.17124176537E+03 -0.36152455884E+02  0.24618680626E+03  0.31612207504E+03  0.93244198083E+02 0.  0.
          4    1    3    3  502    0 -0.16072961534E+02  0.22360434761E+03 -0.89474195950E+02  0.24137704137E+03  0.00000000000E+00 0. -1.
         -3    1    3    3    0  502 -0.12710475277E+03  0.72608066235E+03 -0.17748605355E+03  0.75818866097E+03  0.00000000000E+00 0.  1.
         13    1    5    5    0    0  0.10828396424E+03 -0.33755930538E+03 -0.14210422272E+03  0.38192317509E+03  0.00000000000E+00 0. -1.
        -13    1    5    5    0    0  0.20613551543E+03 -0.57597324870E+03 -0.12133497096E+03  0.62366594353E+03  0.00000000000E+00 0.  1.
          4    1    6    6  503    0 -0.26455769020E+01 -0.20060740382E+02  0.40545972746E+01  0.20636669811E+02  0.00000000000E+00 0. -1.
         -4    1    6    6    0  503 -0.16859618846E+03 -0.16091715501E+02  0.24213220899E+03  0.29548540522E+03  0.00000000000E+00 0.  1.
<mgrwt>
<rscale>  0 0.23038120E+04</rscale>
<asrwt>0</asrwt>
<pdfrwt beam="1">  1        2 0.20042227E+00 0.23038120E+04</pdfrwt>
<pdfrwt beam="2">  1       -1 0.15669725E+00 0.23038120E+04</pdfrwt>
<totfact> 0.52687255E+00</totfact>
</mgrwt>
</event>
<event>
12    7  0.1606355E-007  0.1423504E+04  0.7818608E-02  0.8936979E-01
          2   -1    0    0  501    0  0.00000000000E+00  0.00000000000E+00  0.76129809831E+03  0.76129809831E+03  0.00000000000E+00 0. -1.
         -1   -1    0    0    0  501 -0.00000000000E+00 -0.00000000000E+00 -0.66543054531E+03  0.66543054531E+03  0.00000000000E+00 0.  1.
         24    2    1    2    0    0  0.39560445460E+03 -0.62126136924E+01 -0.12571665137E+03  0.42325052199E+03  0.82430861120E+02 0.  0.
        254    2    1    2    0    0 -0.39560445460E+03  0.62126136924E+01  0.22158420438E+03  0.10034781216E+04  0.89516886669E+03 0.  0.
         23    2    4    4    0    0  0.69892380646E+02 -0.93165715916E+02 -0.27366685628E+03  0.31068436801E+03  0.89813321996E+02 0.  0.
         23    2    4    4    0    0 -0.46549683524E+03  0.99378329609E+02  0.49525106066E+03  0.69279375362E+03  0.90145526505E+02 0.  0.
          2    1    3    3  502    0  0.31959843563E+03  0.16718714406E+02 -0.73930866058E+02  0.32846377034E+03  0.00000000000E+00 0. -1.
         -1    1    3    3    0  502  0.76006018965E+02 -0.22931328099E+02 -0.51785785316E+02  0.94786751649E+02  0.00000000000E+00 0.  1.
         13    1    5    5    0    0  0.74286729412E+02 -0.95531330632E+02 -0.27855013569E+03  0.30370204377E+03  0.00000000000E+00 0. -1.
        -13    1    5    5    0    0 -0.43943487665E+01  0.23656147159E+01  0.48832794079E+01  0.69823242435E+01  0.00000000000E+00 0.  1.
          4    1    6    6  503    0 -0.40308615459E+03  0.74550822455E+02  0.37766109063E+03  0.55737256169E+03  0.00000000000E+00 0. -1.
         -4    1    6    6    0  503 -0.62410680653E+02  0.24827507153E+02  0.11758997003E+03  0.13542119192E+03  0.00000000000E+00 0.  1.
<mgrwt>
<rscale>  0 0.14235041E+04</rscale>
<asrwt>0</asrwt>
<pdfrwt beam="1">  1        2 0.11712278E+00 0.14235041E+04</pdfrwt>
<pdfrwt beam="2">  1       -1 0.10237393E+00 0.14235041E+04</pdfrwt>
<totfact> 0.36860140E+01</totfact>
</mgrwt>
</event>
<event>
12    7  0.1606355E-007  0.1633778E+04  0.7818608E-02  0.8800061E-01
         -1   -1    0    0    0  501 -0.00000000000E+00  0.00000000000E+00  0.26924218973E+03  0.26924218973E+03  0.00000000000E+00 0.  1.
          2   -1    0    0  501    0  0.00000000000E+00 -0.00000000000E+00 -0.24784675753E+04  0.24784675753E+04  0.00000000000E+00 0. -1.
         24    2    1    2    0    0  0.32308009077E+03 -0.16729485244E+02 -0.15534361346E+04  0.15891646550E+04  0.87291785717E+02 0.  0.
        254    2    1    2    0    0 -0.32308009077E+03  0.16729485244E+02 -0.65578925103E+03  0.11585451100E+04  0.89861371539E+03 0.  0.
         23    2    4    4    0    0 -0.29245045412E+03  0.25597631799E+03 -0.77696798619E+03  0.87353815341E+03  0.91315444590E+02 0.  0.
         23    2    4    4    0    0 -0.30629636655E+02 -0.23924683275E+03  0.12117873516E+03  0.28500695663E+03  0.91473809636E+02 0.  0.
          4    1    3    3  502    0  0.30384800485E+03  0.57073271910E+01 -0.13646248764E+04  0.13980548047E+04  0.00000000000E+00 0. -1.
         -3    1    3    3    0  502  0.19232085924E+02 -0.22436812435E+02 -0.18881125817E+03  0.19110985033E+03  0.00000000000E+00 0.  1.
         13    1    5    5    0    0 -0.10570043077E+02  0.29404481249E+02 -0.11559869440E+03  0.11974726500E+03  0.00000000000E+00 0.  1.
        -13    1    5    5    0    0 -0.28188041104E+03  0.22657183674E+03 -0.66136929179E+03  0.75379088841E+03  0.00000000000E+00 0. -1.
          1    1    6    6  503    0 -0.17660792004E+01 -0.22481937536E+03  0.97893217994E+02  0.24521409564E+03  0.00000000000E+00 0. -1.
         -1    1    6    6    0  503 -0.28863557454E+02 -0.14427457388E+02  0.23285517163E+02  0.39792860982E+02  0.00000000000E+00 0.  1.
<mgrwt>
<rscale>  0 0.16337785E+04</rscale>
<asrwt>0</asrwt>
<pdfrwt beam="1">  1        2 0.38130269E+00 0.16337785E+04</pdfrwt>
<pdfrwt beam="2">  1       -1 0.41421877E-01 0.16337785E+04</pdfrwt>
<totfact> 0.22330065E+01</totfact>
</mgrwt>
</event>
<event>
12    7  0.1606355E-007  0.1921771E+04  0.7818608E-02  0.8644095E-01
         -1   -1    0    0    0  501 -0.00000000000E+00  0.00000000000E+00  0.96864236663E+03  0.96864236663E+03  0.00000000000E+00 0.  1.
          2   -1    0    0  501    0  0.00000000000E+00 -0.00000000000E+00 -0.95319099931E+03  0.95319099931E+03  0.00000000000E+00 0. -1.
         24    2    1    2    0    0 -0.22869498168E+03 -0.46699970584E+03  0.53465111363E+03  0.75035267948E+03  0.82384527682E+02 0.  0.
        254    2    1    2    0    0  0.22869498168E+03  0.46699970584E+03 -0.51919974631E+03  0.11714806865E+04  0.91236423773E+03 0.  0.
         23    2    4    4    0    0  0.21178091959E+03 -0.21470535906E+03 -0.65787561066E+01  0.31456536967E+03  0.89210664433E+02 0.  0.
         23    2    4    4    0    0  0.16914062084E+02  0.68170506490E+03 -0.51262099020E+03  0.85691531680E+03  0.80719883240E+02 0.  0.
          2    1    3    3  502    0 -0.13546232864E+03 -0.18738734265E+03  0.25144325702E+03  0.34159591650E+03  0.00000000000E+00 0. -1.
         -1    1    3    3    0  502 -0.93232653037E+02 -0.27961236319E+03  0.28320785661E+03  0.40875676298E+03  0.00000000000E+00 0.  1.
         13    1    5    5    0    0  0.17883506878E+03 -0.12522572082E+03  0.59049934334E+01  0.21839947786E+03  0.00000000000E+00 0. -1.
        -13    1    5    5    0    0  0.32945850815E+02 -0.89479638240E+02 -0.12483749540E+02  0.96165891812E+02  0.00000000000E+00 0.  1.
          4    1    6    6  503    0 -0.16798002181E+02  0.36401068962E+03 -0.31157675964E+03  0.47944346089E+03  0.00000000000E+00 0. -1.
         -4    1    6    6    0  503  0.33712064265E+02  0.31769437528E+03 -0.20104423056E+03  0.37747185591E+03  0.00000000000E+00 0.  1.
<mgrwt>
<rscale>  0 0.19217713E+04</rscale>
<asrwt>0</asrwt>
<pdfrwt beam="1">  1        2 0.14664477E+00 0.19217713E+04</pdfrwt>
<pdfrwt beam="2">  1       -1 0.14902190E+00 0.19217713E+04</pdfrwt>
<totfact> 0.10234908E+01</totfact>
</mgrwt>
</event>
<event>
12    7  0.1606355E-007  0.1602281E+04  0.7818608E-02  0.8819148E-01
          2   -1    0    0  501    0  0.00000000000E+00  0.00000000000E+00  0.20279600850E+04  0.20279600850E+04  0.00000000000E+00 0. -1.
         -1   -1    0    0    0  501 -0.00000000000E+00 -0.00000000000E+00 -0.31648850513E+03  0.31648850513E+03  0.00000000000E+00 0.  1.
         24    2    1    2    0    0  0.28723703711E+03 -0.30512694108E+03  0.11123384959E+04  0.11912342431E+04  0.78323220075E+02 0.  0.
        254    2    1    2    0    0 -0.28723703711E+03  0.30512694108E+03  0.59913308402E+03  0.11532143471E+04  0.89181573897E+03 0.  0.
         23    2    4    4    0    0 -0.23799528446E+03  0.57664699623E+03  0.58762158196E+03  0.86234578010E+03  0.95799828725E+02 0.  0.
         23    2    4    4    0    0 -0.49241752656E+02 -0.27152005515E+03  0.11511502058E+02  0.29086856698E+03  0.91236604619E+02 0.  0.
          2    1    3    3  502    0  0.19388259570E+03 -0.25504299609E+03  0.83498800776E+03  0.89433906538E+03  0.00000000000E+00 0. -1.
         -3    1    3    3    0  502  0.93354441417E+02 -0.50083944994E+02  0.27735048810E+03  0.29689517767E+03  0.00000000000E+00 0.  1.
         13    1    5    5    0    0 -0.23479973293E+03  0.47921975171E+03  0.49884776640E+03  0.73050090969E+03  0.00000000000E+00 0. -1.
        -13    1    5    5    0    0 -0.31955515249E+01  0.97427244518E+02  0.88773815561E+02  0.13184487041E+03  0.00000000000E+00 0.  1.
          3    1    6    6  503    0  0.15285783519E+02 -0.12108980544E+03  0.31274339827E+02  0.12599397006E+03  0.00000000000E+00 0. -1.
         -3    1    6    6    0  503 -0.64527536175E+02 -0.15043024971E+03 -0.19762837769E+02  0.16487459692E+03  0.00000000000E+00 0.  1.
<mgrwt>
<rscale>  0 0.16022809E+04</rscale>
<asrwt>0</asrwt>
<pdfrwt beam="1">  1        2 0.31199385E+00 0.16022809E+04</pdfrwt>
<pdfrwt beam="2">  1       -1 0.48690540E-01 0.16022809E+04</pdfrwt>
<totfact> 0.29725878E+01</totfact>
</mgrwt>
</event>
<event>
12    7  0.1606355E-007  0.1712104E+04  0.7818608E-02  0.8754491E-01
         -1   -1    0    0    0  501 -0.00000000000E+00  0.00000000000E+00  0.22983587616E+03  0.22983587616E+03  0.00000000000E+00 0.  1.
          2   -1    0    0  501    0  0.00000000000E+00 -0.00000000000E+00 -0.31884721147E+04  0.31884721147E+04  0.00000000000E+00 0. -1.
         24    2    1    2    0    0 -0.42594962209E+03  0.18158254275E+03 -0.18867678891E+04  0.19443373526E+04  0.78417939847E+02 0.  0.
        254    2    1    2    0    0  0.42594962209E+03 -0.18158254275E+03 -0.10718683495E+04  0.14739706383E+04  0.89960123575E+03 0.  0.
         23    2    4    4    0    0  0.28204016920E+03  0.83718741464E+02 -0.11129813619E+04  0.11548839374E+04  0.92053854788E+02 0.  0.
         23    2    4    4    0    0  0.14390945289E+03 -0.26530128421E+03  0.41113012401E+02  0.31908670086E+03  0.95033366978E+02 0.  0.
          4    1    3    3  502    0 -0.40477393966E+03  0.18324085993E+03 -0.17304200495E+04  0.17865533025E+04  0.00000000000E+00 0. -1.
         -3    1    3    3    0  502 -0.21175682438E+02 -0.16583171763E+01 -0.15634783958E+03  0.15778405016E+03  0.00000000000E+00 0.  1.
         13    1    5    5    0    0  0.22604220694E+03  0.43645712725E+02 -0.71983888907E+03  0.75575661014E+03  0.00000000000E+00 0. -1.
        -13    1    5    5    0    0  0.55997962265E+02  0.40073028739E+02 -0.39314247284E+03  0.39912732725E+03  0.00000000000E+00 0.  1.
          3    1    6    6  503    0  0.96774548109E+02 -0.24760313524E+03  0.30036908873E+02  0.26753474847E+03  0.00000000000E+00 0. -1.
         -3    1    6    6    0  503  0.47134904782E+02 -0.17698148971E+02  0.11076103528E+02  0.51551952389E+02  0.00000000000E+00 0.  1.
<mgrwt>
<rscale>  0 0.17121043E+04</rscale>
<asrwt>0</asrwt>
<pdfrwt beam="1">  1        2 0.49053413E+00 0.17121043E+04</pdfrwt>
<pdfrwt beam="2">  1       -1 0.35359368E-01 0.17121043E+04</pdfrwt>
<totfact> 0.10949787E+01</totfact>
</mgrwt>
</event>
<event>
12    7  0.1606355E-007  0.1634660E+04  0.7818608E-02  0.8799533E-01
          2   -1    0    0  501    0  0.00000000000E+00  0.00000000000E+00  0.16396701758E+04  0.16396701758E+04  0.00000000000E+00 0. -1.
         -1   -1    0    0    0  501 -0.00000000000E+00 -0.00000000000E+00 -0.40741635942E+03  0.40741635942E+03  0.00000000000E+00 0.  1.
         24    2    1    2    0    0  0.56512683555E+02 -0.25835347410E+03  0.10517027153E+04  0.10882436459E+04  0.90859400134E+02 0.  0.
        254    2    1    2    0    0 -0.56512683555E+02  0.25835347410E+03  0.18055110112E+03  0.95884288932E+03  0.90379244592E+03 0.  0.
         23    2    4    4    0    0  0.27305398776E+03  0.34697453089E+03 -0.14985095255E+03  0.47539177072E+03  0.92694241292E+02 0.  0.
         23    2    4    4    0    0 -0.32956667131E+03 -0.88621056789E+02  0.33040205367E+03  0.48345111860E+03  0.89953234871E+02 0.  0.
          2    1    3    3  502    0 -0.50026958032E+00 -0.65125351751E+02  0.42483342149E+03  0.42979646081E+03  0.00000000000E+00 0. -1.
         -1    1    3    3    0  502  0.57012953135E+02 -0.19322812235E+03  0.62686929378E+03  0.65844718510E+03  0.00000000000E+00 0.  1.
         13    1    5    5    0    0  0.21574271943E+03  0.30645410268E+03 -0.95872145559E+02  0.38684687711E+03  0.00000000000E+00 0.  1.
        -13    1    5    5    0    0  0.57311268326E+02  0.40520428211E+02 -0.53978806991E+02  0.88544893606E+02  0.00000000000E+00 0. -1.
          4    1    6    6  503    0 -0.17955819561E+01  0.10295315889E+02  0.78539372108E+01  0.13072948157E+02  0.00000000000E+00 0. -1.
         -4    1    6    6    0  503 -0.32777108935E+03 -0.98916372678E+02  0.32254811646E+03  0.47037817045E+03  0.00000000000E+00 0.  1.
<mgrwt>
<rscale>  0 0.16346602E+04</rscale>
<asrwt>0</asrwt>
<pdfrwt beam="1">  1        2 0.25225695E+00 0.16346602E+04</pdfrwt>
<pdfrwt beam="2">  1       -1 0.62679441E-01 0.16346602E+04</pdfrwt>
<totfact> 0.29807109E+01</totfact>
</mgrwt>
</event>
<event>
12    7  0.1606355E-007  0.1095252E+04  0.7818608E-02  0.9209832E-01
          2   -1    0    0  501    0  0.00000000000E+00  0.00000000000E+00  0.12181054132E+04  0.12181054132E+04  0.00000000000E+00 0. -1.
         -1   -1    0    0    0  501 -0.00000000000E+00 -0.00000000000E+00 -0.24619710573E+03  0.24619710573E+03  0.00000000000E+00 0.  1.
         24    2    1    2    0    0  0.36627764984E+02  0.93078225393E+01 -0.22183206094E+02  0.91569777123E+02  0.80403362627E+02 0.  0.
        254    2    1    2    0    0 -0.36627764984E+02 -0.93078225393E+01  0.99409151361E+03  0.13727327418E+04  0.94591173709E+03 0.  0.
         23    2    4    4    0    0 -0.11338022719E+03  0.27501178014E+03  0.10165973413E+04  0.10632189063E+04  0.92074606520E+02 0.  0.
         23    2    4    4    0    0  0.76752462205E+02 -0.28431960268E+03 -0.22505827724E+02  0.30951383555E+03  0.92540397617E+02 0.  0.
          4    1    3    3  502    0 -0.17002938331E+02 -0.61670173659E+01 -0.30176479053E+02  0.35181698412E+02  0.00000000000E+00 0. -1.
         -1    1    3    3    0  502  0.53630703315E+02  0.15474839905E+02  0.79932729595E+01  0.56388078711E+02  0.00000000000E+00 0.  1.
         13    1    5    5    0    0 -0.81848215594E+02  0.21791038250E+03  0.90000878250E+03  0.92962351184E+03  0.00000000000E+00 0. -1.
        -13    1    5    5    0    0 -0.31532011595E+02  0.57101397642E+02  0.11658855883E+03  0.13359539445E+03  0.00000000000E+00 0.  1.
          2    1    6    6  503    0  0.70800016654E+02 -0.20448669242E+03  0.22689293981E+02  0.21758275161E+03  0.00000000000E+00 0. -1.
         -2    1    6    6    0  503  0.59524455508E+01 -0.79832910260E+02 -0.45195121706E+02  0.91931083941E+02  0.00000000000E+00 0.  1.
<mgrwt>
<rscale>  0 0.10952516E+04</rscale>
<asrwt>0</asrwt>
<pdfrwt beam="1">  1        2 0.18740083E+00 0.10952516E+04</pdfrwt>
<pdfrwt beam="2">  1       -1 0.37876478E-01 0.10952516E+04</pdfrwt>
<totfact> 0.14058995E+02</totfact>
</mgrwt>
</event>
<event>
12    7  0.1606355E-007  0.1790193E+04  0.7818608E-02  0.8711532E-01
          2   -1    0    0  501    0  0.00000000000E+00  0.00000000000E+00  0.87909942486E+03  0.87909942486E+03  0.00000000000E+00 0. -1.
         -1   -1    0    0    0  501 -0.00000000000E+00 -0.00000000000E+00 -0.91138453593E+03  0.91138453593E+03  0.00000000000E+00 0.  1.
         24    2    1    2    0    0 -0.19724316574E+03 -0.62012294476E+03  0.10880443893E+03  0.66563933163E+03  0.88204199609E+02 0.  0.
        254    2    1    2    0    0  0.19724316574E+03  0.62012294476E+03 -0.14108955000E+03  0.11248446292E+04  0.90659353935E+03 0.  0.
         23    2    4    4    0    0 -0.22144055267E+02 -0.20591169610E+03 -0.13942269119E+03  0.26553766346E+03  0.90452076402E+02 0.  0.
         23    2    4    4    0    0  0.21938722101E+03  0.82603464085E+03 -0.16668588045E+01  0.85930696570E+03  0.89116228890E+02 0.  0.
          4    1    3    3  502    0 -0.16607203975E+03 -0.38778500211E+03  0.58549441710E+02  0.42589337559E+03  0.00000000000E+00 0. -1.
         -3    1    3    3    0  502 -0.31171125997E+02 -0.23233794265E+03  0.50254997216E+02  0.23974595604E+03  0.00000000000E+00 0.  1.
         13    1    5    5    0    0 -0.12736966969E+02 -0.21348915963E+03 -0.13079292289E+03  0.25069232195E+03  0.00000000000E+00 0. -1.
        -13    1    5    5    0    0 -0.94070882980E+01  0.75774635291E+01 -0.86297683025E+01  0.14845341516E+02  0.00000000000E+00 0.  1.
          3    1    6    6  503    0  0.16673182118E+03  0.68834687044E+03 -0.31308205117E+02  0.70894366345E+03  0.00000000000E+00 0. -1.
         -3    1    6    6    0  503  0.52655399828E+02  0.13768777042E+03  0.29641346312E+02  0.15036330225E+03  0.00000000000E+00 0.  1.
<mgrwt>
<rscale>  0 0.17901929E+04</rscale>
<asrwt>0</asrwt>
<pdfrwt beam="1">  1        2 0.13524607E+00 0.17901929E+04</pdfrwt>
<pdfrwt beam="2">  1       -1 0.14021300E+00 0.17901929E+04</pdfrwt>
<totfact> 0.13641298E+01</totfact>
</mgrwt>
</event>
<event>
12    7  0.1606355E-007  0.1389400E+04  0.7818608E-02  0.8961527E-01
          2   -1    0    0  501    0  0.00000000000E+00  0.00000000000E+00  0.67160590134E+03  0.67160590134E+03  0.00000000000E+00 0. -1.
         -3   -1    0    0    0  501 -0.00000000000E+00 -0.00000000000E+00 -0.71858863133E+03  0.71858863133E+03  0.00000000000E+00 0.  1.
         24    2    1    2    0    0 -0.13483650589E+03 -0.53302031889E+02  0.35480431454E+03  0.39244945861E+03  0.84311837964E+02 0.  0.
        254    2    1    2    0    0  0.13483650589E+03  0.53302031889E+02 -0.40178704453E+03  0.99774507405E+03  0.90168753663E+03 0.  0.
         23    2    4    4    0    0  0.14205638852E+03 -0.29212370508E+03  0.12614943868E+03  0.36047848723E+03  0.92275577936E+02 0.  0.
         23    2    4    4    0    0 -0.72198826306E+01  0.34542573697E+03 -0.52793648321E+03  0.63726658682E+03  0.89558393836E+02 0.  0.
          4    1    3    3  502    0 -0.10796969429E+03 -0.63041212059E+02  0.33529686660E+03  0.35784862450E+03  0.00000000000E+00 0. -1.
         -3    1    3    3    0  502 -0.26866811599E+02  0.97391801706E+01  0.19507447938E+02  0.34600834107E+02  0.00000000000E+00 0.  1.
         13    1    5    5    0    0  0.85057899530E+02 -0.24383019815E+03  0.71620242819E+02  0.26798781872E+03  0.00000000000E+00 0. -1.
        -13    1    5    5    0    0  0.56998488990E+02 -0.48293506934E+02  0.54529195864E+02  0.92490668506E+02  0.00000000000E+00 0.  1.
          3    1    6    6  503    0  0.81786844582E+01  0.30353700059E+03 -0.40293962658E+03  0.50454132069E+03  0.00000000000E+00 0. -1.
         -3    1    6    6    0  503 -0.15398567089E+02  0.41888736378E+02 -0.12499685663E+03  0.13272526614E+03  0.00000000000E+00 0.  1.
<mgrwt>
<rscale>  0 0.13894004E+04</rscale>
<asrwt>0</asrwt>
<pdfrwt beam="1">  1        2 0.10332398E+00 0.13894004E+04</pdfrwt>
<pdfrwt beam="2">  1       -3 0.11055210E+00 0.13894004E+04</pdfrwt>
<totfact> 0.18278499E+01</totfact>
</mgrwt>
</event>
<event>
12    7  0.1606355E-007  0.1585981E+04  0.7818608E-02  0.8829207E-01
          2   -1    0    0  501    0  0.00000000000E+00  0.00000000000E+00  0.27037459291E+04  0.27037459291E+04  0.00000000000E+00 0. -1.
         -1   -1    0    0    0  501 -0.00000000000E+00 -0.00000000000E+00 -0.23257892606E+03  0.23257892606E+03  0.00000000000E+00 0.  1.
         24    2    1    2    0    0 -0.35417637376E+03 -0.39414552812E+03  0.76067180379E+03  0.93050884998E+03  0.80209262204E+02 0.  0.
        254    2    1    2    0    0  0.35417637376E+03  0.39414552812E+03  0.17104951993E+04  0.20058160052E+04  0.90372142770E+03 0.  0.
         23    2    4    4    0    0 -0.14234617835E+03 -0.16571462769E+03  0.73830385816E+03  0.77536551733E+03  0.91516808109E+02 0.  0.
         23    2    4    4    0    0  0.49652255211E+03  0.55986015581E+03  0.97219134114E+03  0.12304504879E+04  0.94203824490E+02 0.  0.
          2    1    3    3  502    0 -0.22123042793E+02 -0.20939250194E+02  0.84510570858E+02  0.89832721254E+02  0.00000000000E+00 0. -1.
         -1    1    3    3    0  502 -0.33205333097E+03 -0.37320627793E+03  0.67616123293E+03  0.84067612873E+03  0.00000000000E+00 0.  1.
         13    1    5    5    0    0 -0.25758406039E+02 -0.87828398768E+02  0.21649673659E+03  0.23504927157E+03  0.00000000000E+00 0.  1.
        -13    1    5    5    0    0 -0.11658777231E+03 -0.77886228919E+02  0.52180712157E+03  0.54031624576E+03  0.00000000000E+00 0. -1.
          1    1    6    6  503    0  0.47746868009E+03  0.49987943143E+03  0.88872914507E+03  0.11259197484E+04  0.00000000000E+00 0. -1.
         -1    1    6    6    0  503  0.19053872026E+02  0.59980724379E+02  0.83462196070E+02  0.10453073954E+03  0.00000000000E+00 0.  1.
<mgrwt>
<rscale>  0 0.15859815E+04</rscale>
<asrwt>0</asrwt>
<pdfrwt beam="1">  1        2 0.41596089E+00 0.15859815E+04</pdfrwt>
<pdfrwt beam="2">  1       -1 0.35781375E-01 0.15859815E+04</pdfrwt>
<totfact> 0.21615177E+01</totfact>
</mgrwt>
</event>
<event>
12    7  0.1606355E-007  0.1885882E+04  0.7818608E-02  0.8661916E-01
         -1   -1    0    0    0  501 -0.00000000000E+00  0.00000000000E+00  0.61083342844E+03  0.61083342844E+03  0.00000000000E+00 0.  1.
          2   -1    0    0  501    0  0.00000000000E+00 -0.00000000000E+00 -0.14556140354E+04  0.14556140354E+04  0.00000000000E+00 0. -1.
         24    2    1    2    0    0  0.48195089422E+03 -0.37314525420E+03  0.10606663994E+03  0.62371765867E+03  0.79117257711E+02 0.  0.
        254    2    1    2    0    0 -0.48195089422E+03  0.37314525420E+03 -0.95084724694E+03  0.14427298052E+04  0.89768856439E+03 0.  0.
         23    2    4    4    0    0 -0.45471759573E+03 -0.19864131872E+03 -0.41685890634E+03  0.65451121154E+03  0.91581181812E+02 0.  0.
         23    2    4    4    0    0 -0.27233298481E+02  0.57178657291E+03 -0.53398834060E+03  0.78821859366E+03  0.91997097723E+02 0.  0.
          4    1    3    3  502    0  0.16892992892E+03 -0.10430172865E+03  0.36310996249E+01  0.19856826626E+03  0.00000000000E+00 0. -1.
         -3    1    3    3    0  502  0.31302096530E+03 -0.26884352554E+03  0.10243554032E+03  0.42514939241E+03  0.00000000000E+00 0.  1.
         13    1    5    5    0    0 -0.36158283200E+02  0.86905775008E+01 -0.24965346103E+02  0.44790803602E+02  0.00000000000E+00 0. -1.
        -13    1    5    5    0    0 -0.41855931253E+03 -0.20733189622E+03 -0.39189356024E+03  0.60972040793E+03  0.00000000000E+00 0.  1.
          4    1    6    6  503    0  0.12571000282E+02  0.69613694343E+02 -0.34078998293E+02  0.78520536249E+02  0.00000000000E+00 0. -1.
         -4    1    6    6    0  503 -0.39804298763E+02  0.50217287857E+03 -0.49990934231E+03  0.70969805741E+03  0.00000000000E+00 0.  1.
<mgrwt>
<rscale>  0 0.18858820E+04</rscale>
<asrwt>0</asrwt>
<pdfrwt beam="1">  1        2 0.22394062E+00 0.18858820E+04</pdfrwt>
<pdfrwt beam="2">  1       -1 0.93974374E-01 0.18858820E+04</pdfrwt>
<totfact> 0.15768563E+01</totfact>
</mgrwt>
</event>
<event>
12    7  0.1606355E-007  0.1765634E+04  0.7818608E-02  0.8724791E-01
          2   -1    0    0  501    0  0.00000000000E+00  0.00000000000E+00  0.17742119396E+04  0.17742119396E+04  0.00000000000E+00 0. -1.
         -1   -1    0    0    0  501 -0.00000000000E+00 -0.00000000000E+00 -0.43927452580E+03  0.43927452580E+03  0.00000000000E+00 0.  1.
         24    2    1    2    0    0  0.40041665021E+03 -0.34102222851E+03  0.97659621282E+03  0.11121617815E+04  0.80833230971E+02 0.  0.
        254    2    1    2    0    0 -0.40041665021E+03  0.34102222851E+03  0.35834120097E+03  0.11013246839E+04  0.89882033185E+03 0.  0.
         23    2    4    4    0    0 -0.44236809162E+03 -0.59760183667E+02  0.48901945716E+03  0.66830853814E+03  0.90749460829E+02 0.  0.
         23    2    4    4    0    0  0.41951441411E+02  0.40078241218E+03 -0.13067825619E+03  0.43301614576E+03  0.89664432731E+02 0.  0.
          2    1    3    3  502    0  0.38565630319E+03 -0.30076796263E+03  0.90555469596E+03  0.10291848517E+04  0.00000000000E+00 0. -1.
         -1    1    3    3    0  502  0.14760347022E+02 -0.40254265887E+02  0.71041516867E+02  0.82976929837E+02  0.00000000000E+00 0.  1.
         13    1    5    5    0    0 -0.16838537977E+03 -0.18008094057E+01  0.12862796030E+03  0.21190099388E+03  0.00000000000E+00 0.  1.
        -13    1    5    5    0    0 -0.27398271185E+03 -0.57959374261E+02  0.36039149685E+03  0.45640754426E+03  0.00000000000E+00 0. -1.
          3    1    6    6  503    0  0.50248460334E+02  0.20460599450E+03 -0.31465556598E+02  0.21302253872E+03  0.00000000000E+00 0. -1.
         -3    1    6    6    0  503 -0.82970189229E+01  0.19617641768E+03 -0.99212699590E+02  0.21999360703E+03  0.00000000000E+00 0.  1.
<mgrwt>
<rscale>  0 0.17656343E+04</rscale>
<asrwt>0</asrwt>
<pdfrwt beam="1">  1        2 0.27295568E+00 0.17656343E+04</pdfrwt>
<pdfrwt beam="2">  1       -1 0.67580697E-01 0.17656343E+04</pdfrwt>
<totfact> 0.21321314E+01</totfact>
</mgrwt>
</event>
<event>
12    7  0.1606355E-007  0.1526628E+04  0.7818608E-02  0.8866936E-01
          2   -1    0    0  501    0  0.00000000000E+00  0.00000000000E+00  0.20060271668E+04  0.20060271668E+04  0.00000000000E+00 0. -1.
         -1   -1    0    0    0  501 -0.00000000000E+00 -0.00000000000E+00 -0.29044889317E+03  0.29044889317E+03  0.00000000000E+00 0.  1.
         24    2    1    2    0    0  0.21786397649E+03 -0.49704682476E+02  0.12553666519E+04  0.12777275559E+04  0.81896328569E+02 0.  0.
        254    2    1    2    0    0 -0.21786397649E+03  0.49704682476E+02  0.46021162169E+03  0.10187485040E+04  0.88097588505E+03 0.  0.
         23    2    4    4    0    0 -0.29023546383E+03 -0.92574049059E+02  0.66924347664E+03  0.74101795717E+03  0.91728963800E+02 0.  0.
         23    2    4    4    0    0  0.72371487345E+02  0.14227873153E+03 -0.20903185495E+03  0.27773054687E+03  0.89213623705E+02 0.  0.
          4    1    3    3  502    0  0.11693453927E+03 -0.58329359613E+02  0.84493795868E+03  0.85498313123E+03  0.00000000000E+00 0. -1.
         -3    1    3    3    0  502  0.10092943722E+03  0.86246771370E+01  0.41042869323E+03  0.42274442465E+03  0.00000000000E+00 0.  1.
         13    1    5    5    0    0 -0.34046849448E+02 -0.46593360764E+02  0.11253479426E+03  0.12646821396E+03  0.00000000000E+00 0. -1.
        -13    1    5    5    0    0 -0.25618861438E+03 -0.45980688295E+02  0.55670868238E+03  0.61454974321E+03  0.00000000000E+00 0.  1.
          4    1    6    6  503    0 -0.46468979349E+01  0.30772713768E+02 -0.97092670431E+02  0.10195852208E+03  0.00000000000E+00 0. -1.
         -4    1    6    6    0  503  0.77018385280E+02  0.11150601777E+03 -0.11193918452E+03  0.17577202479E+03  0.00000000000E+00 0.  1.
<mgrwt>
<rscale>  0 0.15266281E+04</rscale>
<asrwt>0</asrwt>
<pdfrwt beam="1">  1        2 0.30861956E+00 0.15266281E+04</pdfrwt>
<pdfrwt beam="2">  1       -1 0.44684446E-01 0.15266281E+04</pdfrwt>
<totfact> 0.36147139E+01</totfact>
</mgrwt>
</event>
<event>
12    7  0.1606355E-007  0.1409218E+04  0.7818608E-02  0.8947173E-01
          2   -1    0    0  501    0  0.00000000000E+00  0.00000000000E+00  0.42252717748E+03  0.42252717748E+03  0.00000000000E+00 0. -1.
         -1   -1    0    0    0  501 -0.00000000000E+00 -0.00000000000E+00 -0.11750097159E+04  0.11750097159E+04  0.00000000000E+00 0.  1.
         24    2    1    2    0    0 -0.36709780236E+03 -0.78612169432E+02 -0.43539423952E+03  0.58176242323E+03  0.89099402897E+02 0.  0.
        254    2    1    2    0    0  0.36709780236E+03  0.78612169432E+02 -0.31708829895E+03  0.10157744702E+04  0.88899500295E+03 0.  0.
         23    2    4    4    0    0 -0.99584903338E+00  0.19093989025E+03 -0.52590016442E+03  0.56688763774E+03  0.91277475239E+02 0.  0.
         23    2    4    4    0    0  0.36809365139E+03 -0.11232772082E+03  0.20881186547E+03  0.44888683244E+03  0.98926943333E+02 0.  0.
          4    1    3    3  502    0 -0.36428046839E+03 -0.88994509770E+02 -0.42530468889E+03  0.56701354553E+03  0.00000000000E+00 0. -1.
         -3    1    3    3    0  502 -0.28173339701E+01  0.10382340339E+02 -0.10089550626E+02  0.14748877701E+02  0.00000000000E+00 0.  1.
         13    1    5    5    0    0  0.35221648771E+02  0.80071206146E+02 -0.15379916951E+03  0.17693543212E+03  0.00000000000E+00 0. -1.
        -13    1    5    5    0    0 -0.36217497804E+02  0.11086868411E+03 -0.37210099491E+03  0.38995220563E+03  0.00000000000E+00 0.  1.
          4    1    6    6  503    0  0.52897759548E+01 -0.23056683874E+02  0.10319654551E+02  0.25808674335E+02  0.00000000000E+00 0. -1.
         -4    1    6    6    0  503  0.36280387544E+03 -0.89271036950E+02  0.19849221092E+03  0.42307815811E+03  0.00000000000E+00 0.  1.
<mgrwt>
<rscale>  0 0.14092176E+04</rscale>
<asrwt>0</asrwt>
<pdfrwt beam="1">  1        2 0.65004181E-01 0.14092176E+04</pdfrwt>
<pdfrwt beam="2">  1       -1 0.18077073E+00 0.14092176E+04</pdfrwt>
<totfact> 0.17084634E+01</totfact>
</mgrwt>
</event>
<event>
12    7  0.1606355E-007  0.2137970E+04  0.7818608E-02  0.8544699E-01
         -1   -1    0    0    0  501 -0.00000000000E+00  0.00000000000E+00  0.78274876363E+03  0.78274876363E+03  0.00000000000E+00 0.  1.
          2   -1    0    0  501    0  0.00000000000E+00 -0.00000000000E+00 -0.14598924382E+04  0.14598924382E+04  0.00000000000E+00 0. -1.
         24    2    1    2    0    0  0.85041373113E+03 -0.19027693217E+03 -0.34050619973E+03  0.93903790720E+03  0.80242719806E+02 0.  0.
        254    2    1    2    0    0 -0.85041373113E+03  0.19027693217E+03 -0.33663747485E+03  0.13036032946E+04  0.90920181219E+03 0.  0.
         23    2    4    4    0    0  0.12100939971E+03  0.66449691477E+02 -0.27153282523E+03  0.31802477526E+03  0.91382964401E+02 0.  0.
         23    2    4    4    0    0 -0.97142313085E+03  0.12382724069E+03 -0.65104649616E+02  0.98557851937E+03  0.90168274709E+02 0.  0.
          4    1    3    3  502    0  0.52561303712E+03 -0.11030291478E+03 -0.16832185802E+03  0.56282150429E+03  0.00000000000E+00 0. -1.
         -3    1    3    3    0  502  0.32480069401E+03 -0.79974017395E+02 -0.17218434171E+03  0.37621640291E+03  0.00000000000E+00 0.  1.
         13    1    5    5    0    0  0.34099954173E+01 -0.12589283881E+02 -0.15704360799E+01  0.13137138458E+02  0.00000000000E+00 0. -1.
        -13    1    5    5    0    0  0.11759940430E+03  0.79038975358E+02 -0.26996238915E+03  0.30488763680E+03  0.00000000000E+00 0.  1.
          4    1    6    6  503    0 -0.41426236790E+03  0.66439075689E+02 -0.70533010529E+02  0.42544372813E+03  0.00000000000E+00 0. -1.
         -4    1    6    6    0  503 -0.55716076295E+03  0.57388165005E+02  0.54283609132E+01  0.56013479124E+03  0.00000000000E+00 0.  1.
<mgrwt>
<rscale>  0 0.21379701E+04</rscale>
<asrwt>0</asrwt>
<pdfrwt beam="1">  1        2 0.22459884E+00 0.21379701E+04</pdfrwt>
<pdfrwt beam="2">  1       -1 0.12042289E+00 0.21379701E+04</pdfrwt>
<totfact> 0.85935319E+00</totfact>
</mgrwt>
</event>
<event>
12    7  0.1606355E-007  0.1926540E+04  0.7818608E-02  0.8641757E-01
         -1   -1    0    0    0  501 -0.00000000000E+00  0.00000000000E+00  0.39163720232E+03  0.39163720232E+03  0.00000000000E+00 0.  1.
          2   -1    0    0  501    0  0.00000000000E+00 -0.00000000000E+00 -0.23692575883E+04  0.23692575883E+04  0.00000000000E+00 0. -1.
         24    2    1    2    0    0  0.44951915439E+03  0.59668023823E+03 -0.86316933707E+03  0.11443632458E+04  0.80069701262E+02 0.  0.
        254    2    1    2    0    0 -0.44951915439E+03 -0.59668023823E+03 -0.11144510489E+04  0.16165315448E+04  0.90170855494E+03 0.  0.
         23    2    4    4    0    0 -0.60072301864E+03 -0.12526431796E+03 -0.83653920468E+03  0.10414359601E+04  0.90728846299E+02 0.  0.
         23    2    4    4    0    0  0.15120386425E+03 -0.47141592027E+03 -0.27791184419E+03  0.57509558466E+03  0.91675296084E+02 0.  0.
          2    1    3    3  502    0  0.27643207951E+03  0.35102971952E+03 -0.57318088412E+03  0.72675503747E+03  0.00000000000E+00 0. -1.
         -1    1    3    3    0  502  0.17308707488E+03  0.24565051871E+03 -0.28998845295E+03  0.41760820834E+03  0.00000000000E+00 0.  1.
         13    1    5    5    0    0 -0.15740331201E+03 -0.70604071178E+02 -0.26186560462E+03  0.31358305500E+03  0.00000000000E+00 0. -1.
        -13    1    5    5    0    0 -0.44331970663E+03 -0.54660246780E+02 -0.57467360006E+03  0.72785290510E+03  0.00000000000E+00 0.  1.
          3    1    6    6  503    0  0.11314480438E+03 -0.32143843000E+03 -0.14208380319E+03  0.36920484581E+03  0.00000000000E+00 0. -1.
         -3    1    6    6    0  503  0.38059059874E+02 -0.14997749027E+03 -0.13582804099E+03  0.20589073885E+03  0.00000000000E+00 0.  1.
<mgrwt>
<rscale>  0 0.19265403E+04</rscale>
<asrwt>0</asrwt>
<pdfrwt beam="1">  1        2 0.36450117E+00 0.19265403E+04</pdfrwt>
<pdfrwt beam="2">  1       -1 0.60251878E-01 0.19265403E+04</pdfrwt>
<totfact> 0.12308866E+01</totfact>
</mgrwt>
</event>
<event>
12    7  0.1606355E-007  0.2109372E+04  0.7818608E-02  0.8557126E-01
          2   -1    0    0  501    0  0.00000000000E+00  0.00000000000E+00  0.52000309922E+03  0.52000309922E+03  0.00000000000E+00 0. -1.
         -1   -1    0    0    0  501 -0.00000000000E+00 -0.00000000000E+00 -0.21391452042E+04  0.21391452042E+04  0.00000000000E+00 0.  1.
         24    2    1    2    0    0 -0.10427922525E+03  0.70764036296E+03 -0.57180826175E+02  0.72192590252E+03  0.79235861463E+02 0.  0.
        254    2    1    2    0    0  0.10427922525E+03 -0.70764036296E+03 -0.15619612789E+04  0.19372224009E+04  0.89525334626E+03 0.  0.
         23    2    4    4    0    0  0.44269052058E+03 -0.64056889935E+03 -0.98350124465E+03  0.12577191783E+04  0.90991326352E+02 0.  0.
         23    2    4    4    0    0 -0.33841129533E+03 -0.67071463611E+02 -0.57846003421E+03  0.67950322262E+03  0.89932376490E+02 0.  0.
          2    1    3    3  502    0 -0.75596581973E+02  0.65771740760E+03 -0.50693734486E+02  0.66398560691E+03  0.00000000000E+00 0. -1.
         -1    1    3    3    0  502 -0.28682643275E+02  0.49922955357E+02 -0.64870916881E+01  0.57940295610E+02  0.00000000000E+00 0.  1.
         13    1    5    5    0    0  0.39599576427E+03 -0.56947568906E+03 -0.82502308296E+03  0.10778581971E+04  0.00000000000E+00 0. -1.
        -13    1    5    5    0    0  0.46694756317E+02 -0.71093210289E+02 -0.15847816169E+03  0.17986098117E+03  0.00000000000E+00 0.  1.
          1    1    6    6  503    0 -0.25599783765E+03 -0.40240293539E+02 -0.49728054580E+03  0.56075138461E+03  0.00000000000E+00 0. -1.
         -1    1    6    6    0  503 -0.82413457684E+02 -0.26831170072E+02 -0.81179488407E+02  0.11875183802E+03  0.00000000000E+00 0.  1.
<mgrwt>
<rscale>  0 0.21093716E+04</rscale>
<asrwt>0</asrwt>
<pdfrwt beam="1">  1        2 0.80000477E-01 0.21093716E+04</pdfrwt>
<pdfrwt beam="2">  1       -1 0.32909926E+00 0.21093716E+04</pdfrwt>
<totfact> 0.13212431E+00</totfact>
</mgrwt>
</event>
<event>
12    7  0.1606355E-007  0.3376210E+04  0.7818608E-02  0.8143770E-01
          2   -1    0    0  501    0  0.00000000000E+00  0.00000000000E+00  0.20800159821E+04  0.20800159821E+04  0.00000000000E+00 0. -1.
         -1   -1    0    0    0  501 -0.00000000000E+00 -0.00000000000E+00 -0.13700365097E+04  0.13700365097E+04  0.00000000000E+00 0.  1.
         24    2    1    2    0    0 -0.18086702374E+02  0.55247121826E+03  0.18285467656E+04  0.19120049415E+04  0.81412816802E+02 0.  0.
        254    2    1    2    0    0  0.18086702374E+02 -0.55247121826E+03 -0.11185672931E+04  0.15380475503E+04  0.89935860583E+03 0.  0.
         23    2    4    4    0    0  0.98553021486E+02 -0.70699764124E+03 -0.46793306119E+03  0.85841020745E+03  0.91369424474E+02 0.  0.
         23    2    4    4    0    0 -0.80466319112E+02  0.15452642299E+03 -0.65063423194E+03  0.67963734284E+03  0.90712568580E+02 0.  0.
          2    1    3    3  502    0 -0.32553940512E+02  0.51108605836E+03  0.16249037078E+04  0.17036962106E+04  0.00000000000E+00 0. -1.
         -1    1    3    3    0  502  0.14467238138E+02  0.41385159896E+02  0.20364305773E+03  0.20830873098E+03  0.00000000000E+00 0.  1.
         13    1    5    5    0    0  0.11346642039E+03 -0.57912132993E+03 -0.39915689323E+03  0.71244815163E+03  0.00000000000E+00 0. -1.
        -13    1    5    5    0    0 -0.14913398902E+02 -0.12787631131E+03 -0.68776167957E+02  0.14596205582E+03  0.00000000000E+00 0.  1.
          3    1    6    6  503    0 -0.91896051179E+02  0.99861986361E+02 -0.38563407893E+03  0.40881651553E+03  0.00000000000E+00 0. -1.
         -3    1    6    6    0  503  0.11429732067E+02  0.54664436627E+02 -0.26500015301E+03  0.27082082731E+03  0.00000000000E+00 0.  1.
<mgrwt>
<rscale>  0 0.33762096E+04</rscale>
<asrwt>0</asrwt>
<pdfrwt beam="1">  1        2 0.32000246E+00 0.33762096E+04</pdfrwt>
<pdfrwt beam="2">  1       -1 0.21077485E+00 0.33762096E+04</pdfrwt>
<totfact> 0.72286479E-01</totfact>
</mgrwt>
</event>
<event>
12    7  0.1606355E-007  0.1267694E+04  0.7818608E-02  0.9055584E-01
         -1   -1    0    0    0  501 -0.00000000000E+00  0.00000000000E+00  0.34499559694E+03  0.34499559694E+03  0.00000000000E+00 0.  1.
          2   -1    0    0  501    0  0.00000000000E+00 -0.00000000000E+00 -0.11645420966E+04  0.11645420966E+04  0.00000000000E+00 0. -1.
         24    2    1    2    0    0 -0.18248541231E+03 -0.20076188068E+03 -0.38682643154E+02  0.28555257428E+03  0.80235075578E+02 0.  0.
        254    2    1    2    0    0  0.18248541231E+03  0.20076188068E+03 -0.78086385648E+03  0.12239851193E+04  0.90265439197E+03 0.  0.
         23    2    4    4    0    0 -0.30729746718E+03  0.19462607137E+03 -0.11502912327E+03  0.39203956702E+03  0.90289987911E+02 0.  0.
         23    2    4    4    0    0  0.48978287949E+03  0.61358093117E+01 -0.66583473321E+03  0.83194555223E+03  0.94194441094E+02 0.  0.
          4    1    3    3  502    0 -0.19953929859E+02 -0.17012313630E+02  0.20398350487E+02  0.33221541723E+02  0.00000000000E+00 0. -1.
         -3    1    3    3    0  502 -0.16253148245E+03 -0.18374956705E+03 -0.59080993640E+02  0.25233103255E+03  0.00000000000E+00 0.  1.
         13    1    5    5    0    0  0.70804770993E+00  0.42182151115E+01  0.84383526785E+01  0.94604686043E+01  0.00000000000E+00 0.  1.
        -13    1    5    5    0    0 -0.30800551489E+03  0.19040785626E+03 -0.12346747595E+03  0.38257909841E+03  0.00000000000E+00 0. -1.
          1    1    6    6  503    0  0.38049545243E+03  0.35250156515E+02 -0.55303747597E+03  0.67221262461E+03  0.00000000000E+00 0. -1.
         -1    1    6    6    0  503  0.10928742706E+03 -0.29114347203E+02 -0.11279725724E+03  0.15973292762E+03  0.00000000000E+00 0.  1.
<mgrwt>
<rscale>  0 0.12676938E+04</rscale>
<asrwt>0</asrwt>
<pdfrwt beam="1">  1        2 0.17916032E+00 0.12676938E+04</pdfrwt>
<pdfrwt beam="2">  1       -1 0.53076247E-01 0.12676938E+04</pdfrwt>
<totfact> 0.79747239E+01</totfact>
</mgrwt>
</event>
<event>
12    7  0.1606355E-007  0.1909213E+04  0.7818608E-02  0.8650284E-01
          2   -1    0    0  501    0  0.00000000000E+00  0.00000000000E+00  0.24623719274E+04  0.24623719274E+04  0.00000000000E+00 0. -1.
         -1   -1    0    0    0  501 -0.00000000000E+00 -0.00000000000E+00 -0.37007957294E+03  0.37007957294E+03  0.00000000000E+00 0.  1.
         24    2    1    2    0    0 -0.11091614271E+03 -0.30815022756E+03 -0.16797149829E+03  0.37644534241E+03  0.78979225892E+02 0.  0.
        254    2    1    2    0    0  0.11091614271E+03  0.30815022756E+03  0.22602638528E+04  0.24560061580E+04  0.90327991804E+03 0.  0.
         23    2    4    4    0    0 -0.30036412513E+02  0.22424119595E+03  0.63955025980E+02  0.25164616366E+03  0.89717591900E+02 0.  0.
         23    2    4    4    0    0  0.14095255522E+03  0.83909031608E+02  0.21963088268E+04  0.22043599943E+04  0.92315618565E+02 0.  0.
          4    1    3    3  502    0  0.45882248252E+01  0.26278713405E+01 -0.18022558764E+01  0.55862009517E+01  0.00000000000E+00 0. -1.
         -3    1    3    3    0  502 -0.11550436753E+03 -0.31077809890E+03 -0.16616924242E+03  0.37085914146E+03  0.00000000000E+00 0.  1.
         13    1    5    5    0    0 -0.31529200275E+02  0.18455317362E+03  0.13890849748E+02  0.18774163116E+03  0.00000000000E+00 0. -1.
        -13    1    5    5    0    0  0.14927877620E+01  0.39688022328E+02  0.50064176231E+02  0.63904532494E+02  0.00000000000E+00 0.  1.
          4    1    6    6  503    0  0.11294428022E+03  0.10405571566E+03  0.17573063083E+04  0.17640038162E+04  0.00000000000E+00 0. -1.
         -4    1    6    6    0  503  0.28008275005E+02 -0.20146684050E+02  0.43900251852E+03  0.44035617813E+03  0.00000000000E+00 0.  1.
<mgrwt>
<rscale>  0 0.19092130E+04</rscale>
<asrwt>0</asrwt>
<pdfrwt beam="1">  1        2 0.37882644E+00 0.19092130E+04</pdfrwt>
<pdfrwt beam="2">  1       -1 0.56935320E-01 0.19092130E+04</pdfrwt>
<totfact> 0.12187879E+01</totfact>
</mgrwt>
</event>
<event>
12    7  0.1606355E-007  0.1903032E+04  0.7818608E-02  0.8653349E-01
          2   -1    0    0  501    0  0.00000000000E+00  0.00000000000E+00  0.83540867416E+03  0.83540867416E+03  0.00000000000E+00 0. -1.
         -1   -1    0    0    0  501 -0.00000000000E+00 -0.00000000000E+00 -0.10837604974E+04  0.10837604974E+04  0.00000000000E+00 0.  1.
         24    2    1    2    0    0 -0.43188982992E+02  0.45467421461E+03  0.48391523877E+03  0.67036204317E+03  0.81347285913E+02 0.  0.
        254    2    1    2    0    0  0.43188982992E+02 -0.45467421461E+03 -0.73226706203E+03  0.12488071284E+04  0.90261302016E+03 0.  0.
         23    2    4    4    0    0 -0.12029475645E+03 -0.60317438758E+03 -0.18111973498E+03  0.64770922233E+03  0.91829777462E+02 0.  0.
         23    2    4    4    0    0  0.16348373944E+03  0.14850017297E+03 -0.55114732705E+03  0.60109790608E+03  0.93680745907E+02 0.  0.
          4    1    3    3  502    0 -0.37661079064E+02  0.39281530716E+03  0.37171487910E+03  0.54212007319E+03  0.00000000000E+00 0. -1.
         -3    1    3    3    0  502 -0.55279039281E+01  0.61858907446E+02  0.11220035967E+03  0.12824196997E+03  0.00000000000E+00 0.  1.
         13    1    5    5    0    0 -0.22788433664E+02 -0.19241932344E+02 -0.73923784778E+01  0.30728031645E+02  0.00000000000E+00 0. -1.
        -13    1    5    5    0    0 -0.97506322784E+02 -0.58393245524E+03 -0.17372735650E+03  0.61698119068E+03  0.00000000000E+00 0.  1.
          3    1    6    6  503    0  0.38811629840E+02  0.62046935551E+00 -0.46016494300E+02  0.60201705464E+02  0.00000000000E+00 0. -1.
         -3    1    6    6    0  503  0.12467210960E+03  0.14787970362E+03 -0.50513083275E+03  0.54089620062E+03  0.00000000000E+00 0.  1.
<mgrwt>
<rscale>  0 0.19030322E+04</rscale>
<asrwt>0</asrwt>
<pdfrwt beam="1">  1        2 0.12852441E+00 0.19030322E+04</pdfrwt>
<pdfrwt beam="2">  1       -1 0.16673238E+00 0.19030322E+04</pdfrwt>
<totfact> 0.90336456E+00</totfact>
</mgrwt>
</event>
<event>
12    7  0.1606355E-007  0.3063864E+04  0.7818608E-02  0.8225726E-01
         -1   -1    0    0    0  501 -0.00000000000E+00  0.00000000000E+00  0.18367238277E+04  0.18367238277E+04  0.00000000000E+00 0.  1.
          2   -1    0    0  501    0  0.00000000000E+00 -0.00000000000E+00 -0.12777182755E+04  0.12777182755E+04  0.00000000000E+00 0. -1.
         24    2    1    2    0    0  0.77524099831E+03  0.54152732209E+03 -0.79107202363E+03  0.12354948378E+04  0.80013133467E+02 0.  0.
        254    2    1    2    0    0 -0.77524099831E+03 -0.54152732209E+03  0.13500775758E+04  0.18789472655E+04  0.90193287987E+03 0.  0.
         23    2    4    4    0    0 -0.29911775508E+03 -0.85792425761E+02  0.11349034673E+04  0.11798296460E+04  0.84618803584E+02 0.  0.
         23    2    4    4    0    0 -0.47612324322E+03 -0.45573489632E+03  0.21517410854E+03  0.69911761946E+03  0.89877196139E+02 0.  0.
          4    1    3    3  502    0  0.59815037432E+03  0.43426578068E+03 -0.65603919028E+03  0.98831070911E+03  0.00000000000E+00 0. -1.
         -3    1    3    3    0  502  0.17709062399E+03  0.10726154141E+03 -0.13503283335E+03  0.24718412865E+03  0.00000000000E+00 0.  1.
         13    1    5    5    0    0 -0.44928857954E+02  0.25762756186E+01  0.87344018959E+02  0.98255875758E+02  0.00000000000E+00 0. -1.
        -13    1    5    5    0    0 -0.25418889713E+03 -0.88368701379E+02  0.10475594483E+04  0.10815737703E+04  0.00000000000E+00 0.  1.
          3    1    6    6  503    0 -0.40635701741E+02 -0.78744558156E+02  0.38703504475E+02  0.96695020316E+02  0.00000000000E+00 0. -1.
         -3    1    6    6    0  503 -0.43548754148E+03 -0.37699033817E+03  0.17647060406E+03  0.60242259914E+03  0.00000000000E+00 0.  1.
<mgrwt>
<rscale>  0 0.30638640E+04</rscale>
<asrwt>0</asrwt>
<pdfrwt beam="1">  1        2 0.19657204E+00 0.30638640E+04</pdfrwt>
<pdfrwt beam="2">  1       -1 0.28257290E+00 0.30638640E+04</pdfrwt>
<totfact> 0.70769616E-01</totfact>
</mgrwt>
</event>
<event>
12    7  0.1606355E-007  0.1374449E+04  0.7818608E-02  0.8972524E-01
         -1   -1    0    0    0  501 -0.00000000000E+00  0.00000000000E+00  0.31006160204E+03  0.31006160204E+03  0.00000000000E+00 0.  1.
          2   -1    0    0  501    0  0.00000000000E+00 -0.00000000000E+00 -0.15231728706E+04  0.15231728706E+04  0.00000000000E+00 0. -1.
         24    2    1    2    0    0 -0.18894083565E+03  0.19629814978E+03 -0.72887939266E+03  0.78212977587E+03  0.78931706369E+02 0.  0.
        254    2    1    2    0    0  0.18894083565E+03 -0.19629814978E+03 -0.48423187590E+03  0.10511046968E+04  0.89224938831E+03 0.  0.
         23    2    4    4    0    0 -0.22890086614E+03 -0.30766349870E+03 -0.67231769564E+00  0.39600230711E+03  0.98817712324E+02 0.  0.
         23    2    4    4    0    0  0.41784170179E+03  0.11136534892E+03 -0.48355955820E+03  0.65510238966E+03  0.91298225133E+02 0.  0.
          2    1    3    3  502    0 -0.10365990864E+03  0.15324296522E+03 -0.53297776033E+03  0.56417557201E+03  0.00000000000E+00 0. -1.
         -1    1    3    3    0  502 -0.85280927005E+02  0.43055184567E+02 -0.19590163233E+03  0.21795420386E+03  0.00000000000E+00 0.  1.
         13    1    5    5    0    0 -0.97834451244E+02 -0.14032290900E+03  0.48551499573E+02  0.17781829701E+03  0.00000000000E+00 0. -1.
        -13    1    5    5    0    0 -0.13106641490E+03 -0.16734058971E+03 -0.49223817269E+02  0.21818401010E+03  0.00000000000E+00 0.  1.
          2    1    6    6  503    0  0.21021817601E+03  0.49894191291E+02 -0.30861703805E+03  0.37673012625E+03  0.00000000000E+00 0. -1.
         -2    1    6    6    0  503  0.20762352578E+03  0.61471157631E+02 -0.17494252015E+03  0.27837226340E+03  0.00000000000E+00 0.  1.
<mgrwt>
<rscale>  0 0.13744489E+04</rscale>
<asrwt>0</asrwt>
<pdfrwt beam="1">  1        2 0.23433428E+00 0.13744489E+04</pdfrwt>
<pdfrwt beam="2">  1       -1 0.47701786E-01 0.13744489E+04</pdfrwt>
<totfact> 0.60053592E+01</totfact>
</mgrwt>
</event>
<event>
12    7  0.1606355E-007  0.1371444E+04  0.7818608E-02  0.8974752E-01
          2   -1    0    0  501    0  0.00000000000E+00  0.00000000000E+00  0.44692039485E+04  0.44692039485E+04  0.00000000000E+00 0. -1.
         -1   -1    0    0    0  501 -0.00000000000E+00 -0.00000000000E+00 -0.10521221099E+03  0.10521221099E+03  0.00000000000E+00 0.  1.
         24    2    1    2    0    0 -0.17770819878E+02  0.10312066726E+03  0.16982834083E+02  0.13256573612E+03  0.79596379851E+02 0.  0.
        254    2    1    2    0    0  0.17770819878E+02 -0.10312066726E+03  0.43470089035E+04  0.44418504234E+04  0.90697249299E+03 0.  0.
         23    2    4    4    0    0  0.56292810620E+02 -0.49580412676E+03  0.23658941716E+04  0.24196629274E+04  0.91229589567E+02 0.  0.
         23    2    4    4    0    0 -0.38521990742E+02  0.39268345951E+03  0.19811147318E+04  0.20221874961E+04  0.93501044646E+02 0.  0.
          2    1    3    3  502    0  0.25483093179E+02  0.83897879981E+01  0.82174935862E+01  0.28058934076E+02  0.00000000000E+00 0. -1.
         -1    1    3    3    0  502 -0.43253913057E+02  0.94730879258E+02  0.87653404964E+01  0.10450680205E+03  0.00000000000E+00 0.  1.
         13    1    5    5    0    0  0.13435119285E+02 -0.26777501629E+02  0.26135965194E+03  0.26307110196E+03  0.00000000000E+00 0.  1.
        -13    1    5    5    0    0  0.42857691335E+02 -0.46902662513E+03  0.21045345197E+04  0.21565918254E+04  0.00000000000E+00 0. -1.
          3    1    6    6  503    0 -0.35796963718E+02  0.34814005155E+03  0.15632637780E+04  0.16019602235E+04  0.00000000000E+00 0. -1.
         -3    1    6    6    0  503 -0.27250270239E+01  0.44543407956E+02  0.41785095388E+03  0.42022727258E+03  0.00000000000E+00 0.  1.
<mgrwt>
<rscale>  0 0.13714442E+04</rscale>
<asrwt>0</asrwt>
<pdfrwt beam="1">  1        2 0.68756969E+00 0.13714442E+04</pdfrwt>
<pdfrwt beam="2">  1       -1 0.16186497E-01 0.13714442E+04</pdfrwt>
<totfact> 0.44410870E+00</totfact>
</mgrwt>
</event>
<event>
12    7  0.1606355E-007  0.1059693E+04  0.7818608E-02  0.9245393E-01
         -3   -1    0    0    0  501 -0.00000000000E+00  0.00000000000E+00  0.72147946148E+03  0.72147946148E+03  0.00000000000E+00 0.  1.
          4   -1    0    0  501    0  0.00000000000E+00 -0.00000000000E+00 -0.38911344848E+03  0.38911344848E+03  0.00000000000E+00 0. -1.
         24    2    1    2    0    0 -0.66836391342E+02 -0.70476261271E+02 -0.71281440851E+02  0.16259783213E+03  0.10919251161E+03 0.  0.
        254    2    1    2    0    0  0.66836391342E+02  0.70476261271E+02  0.40364745386E+03  0.94799507783E+03  0.85224960779E+03 0.  0.
         23    2    4    4    0    0 -0.77063587130E+02 -0.36150209409E+03  0.10425589613E+03  0.39502224074E+03  0.92470094129E+02 0.  0.
         23    2    4    4    0    0  0.14389997847E+03  0.43197835536E+03  0.29939155773E+03  0.55297283710E+03  0.93974200838E+02 0.  0.
          4    1    3    3  502    0  0.26956206266E+02 -0.24566613227E+02 -0.38769148202E+02  0.53227834767E+02  0.00000000000E+00 0. -1.
         -3    1    3    3    0  502 -0.93792597608E+02 -0.45909648044E+02 -0.32512292649E+02  0.10936999736E+03  0.00000000000E+00 0.  1.
         13    1    5    5    0    0 -0.21898655919E+02 -0.13690595692E+03 -0.60788532969E+01  0.13877948202E+03  0.00000000000E+00 0. -1.
        -13    1    5    5    0    0 -0.55164931211E+02 -0.22459613717E+03  0.11033474943E+03  0.25624275872E+03  0.00000000000E+00 0.  1.
          4    1    6    6  503    0  0.19964577976E+02  0.10876848163E+02  0.21391545279E+01  0.22835634036E+02  0.00000000000E+00 0. -1.
         -4    1    6    6    0  503  0.12393540050E+03  0.42110150719E+03  0.29725240320E+03  0.53013720306E+03  0.00000000000E+00 0.  1.
<mgrwt>
<rscale>  0 0.10596931E+04</rscale>
<asrwt>0</asrwt>
<pdfrwt beam="1">  1        4 0.59863608E-01 0.10596931E+04</pdfrwt>
<pdfrwt beam="2">  1       -3 0.11099684E+00 0.10596931E+04</pdfrwt>
<totfact> 0.40860862E+00</totfact>
</mgrwt>
</event>
<event>
12    7  0.1606355E-007  0.1970953E+04  0.7818608E-02  0.8620323E-01
         -1   -1    0    0    0  501 -0.00000000000E+00  0.00000000000E+00  0.33882796334E+03  0.33882796334E+03  0.00000000000E+00 0.  1.
          2   -1    0    0  501    0  0.00000000000E+00 -0.00000000000E+00 -0.28662447669E+04  0.28662447669E+04  0.00000000000E+00 0. -1.
         24    2    1    2    0    0  0.31308696823E+03  0.40664704837E+03 -0.53930205629E+02  0.52223876222E+03  0.80247031481E+02 0.  0.
        254    2    1    2    0    0 -0.31308696823E+03 -0.40664704837E+03 -0.24734865979E+04  0.26828339680E+04  0.90336973504E+03 0.  0.
         23    2    4    4    0    0 -0.48124463031E+03 -0.10207999312E+03 -0.21246213377E+04  0.21824773943E+04  0.84705541552E+02 0.  0.
         23    2    4    4    0    0  0.16815766208E+03 -0.30456705525E+03 -0.34886526015E+03  0.50035657365E+03  0.87244716765E+02 0.  0.
          2    1    3    3  502    0  0.47219563333E+02  0.92030695543E+02  0.15266506834E+02  0.10455812888E+03  0.00000000000E+00 0. -1.
         -1    1    3    3    0  502  0.26586740490E+03  0.31461635282E+03 -0.69196712462E+02  0.41768063334E+03  0.00000000000E+00 0.  1.
         13    1    5    5    0    0 -0.15244382679E+03 -0.31178310666E+01 -0.54227158031E+03  0.56330037103E+03  0.00000000000E+00 0. -1.
        -13    1    5    5    0    0 -0.32880080351E+03 -0.98962162056E+02 -0.15823497574E+04  0.16191770233E+04  0.00000000000E+00 0.  1.
          4    1    6    6  503    0 -0.33089319454E+01 -0.44593802296E+01  0.36648877930E+01  0.66533078380E+01  0.00000000000E+00 0. -1.
         -4    1    6    6    0  503  0.17146659402E+03 -0.30010767502E+03 -0.35253014794E+03  0.49370326581E+03  0.00000000000E+00 0.  1.
<mgrwt>
<rscale>  0 0.19709529E+04</rscale>
<asrwt>0</asrwt>
<pdfrwt beam="1">  1        2 0.44096073E+00 0.19709529E+04</pdfrwt>
<pdfrwt beam="2">  1       -1 0.52127380E-01 0.19709529E+04</pdfrwt>
<totfact> 0.82945688E+00</totfact>
</mgrwt>
</event>
<event>
12    7  0.1606355E-007  0.2257557E+04  0.7818608E-02  0.8494846E-01
          2   -1    0    0  501    0  0.00000000000E+00  0.00000000000E+00  0.21607646274E+04  0.21607646274E+04  0.00000000000E+00 0. -1.
         -1   -1    0    0    0  501 -0.00000000000E+00 -0.00000000000E+00 -0.58967140105E+03  0.58967140105E+03  0.00000000000E+00 0.  1.
         24    2    1    2    0    0  0.84035423704E+02  0.41270423788E+03 -0.37421575987E+03  0.56820821536E+03  0.73731951422E+02 0.  0.
        254    2    1    2    0    0 -0.84035423704E+02 -0.41270423788E+03  0.19453089862E+04  0.21822278131E+04  0.89470913483E+03 0.  0.
         23    2    4    4    0    0 -0.37512263736E+03 -0.31400456933E+03  0.51325482297E+03  0.71468585300E+03  0.89607435781E+02 0.  0.
         23    2    4    4    0    0  0.29108721366E+03 -0.98699668556E+02  0.14320541632E+04  0.14675419601E+04  0.91798080786E+02 0.  0.
          4    1    3    3  502    0  0.58678863283E+02  0.21983644266E+03 -0.24672350815E+03  0.33562443295E+03  0.00000000000E+00 0. -1.
         -3    1    3    3    0  502  0.25356560421E+02  0.19286779523E+03 -0.12749225171E+03  0.23258378241E+03  0.00000000000E+00 0.  1.
         13    1    5    5    0    0 -0.69155648602E+02 -0.20658020130E+02  0.57432412686E+02  0.92237408660E+02  0.00000000000E+00 0.  1.
        -13    1    5    5    0    0 -0.30596698876E+03 -0.29334654920E+03  0.45582241029E+03  0.62244844434E+03  0.00000000000E+00 0. -1.
          4    1    6    6  503    0  0.17079811397E+03 -0.98087871805E+01  0.74304969515E+03  0.76249003764E+03  0.00000000000E+00 0. -1.
         -4    1    6    6    0  503  0.12028909969E+03 -0.88890881375E+02  0.68900446807E+03  0.70505192242E+03  0.00000000000E+00 0.  1.
<mgrwt>
<rscale>  0 0.22575572E+04</rscale>
<asrwt>0</asrwt>
<pdfrwt beam="1">  1        2 0.33242532E+00 0.22575572E+04</pdfrwt>
<pdfrwt beam="2">  1       -1 0.90718678E-01 0.22575572E+04</pdfrwt>
<totfact> 0.66750246E+00</totfact>
</mgrwt>
</event>
<event>
12    7  0.1606355E-007  0.1607497E+04  0.7818608E-02  0.8815956E-01
          2   -1    0    0  501    0  0.00000000000E+00  0.00000000000E+00  0.14284156403E+04  0.14284156403E+04  0.00000000000E+00 0. -1.
         -1   -1    0    0    0  501 -0.00000000000E+00 -0.00000000000E+00 -0.45225725130E+03  0.45225725130E+03  0.00000000000E+00 0.  1.
         24    2    1    2    0    0 -0.13655346648E+03 -0.29064025171E+03  0.92494118372E+03  0.98532466378E+03  0.11058885381E+03 0.  0.
        254    2    1    2    0    0  0.13655346648E+03  0.29064025171E+03  0.51217205308E+02  0.89534822785E+03  0.83421019046E+03 0.  0.
         23    2    4    4    0    0 -0.89720501174E+02  0.11116928237E+02 -0.33592166198E+03  0.35939383800E+03  0.90261915446E+02 0.  0.
         23    2    4    4    0    0  0.22627396765E+03  0.27952332348E+03  0.38713886729E+03  0.53595438985E+03  0.89651595764E+02 0.  0.
          4    1    3    3  502    0 -0.11658708377E+03 -0.29565881854E+03  0.84549643764E+03  0.90325572854E+03  0.00000000000E+00 0. -1.
         -3    1    3    3    0  502 -0.19966382705E+02  0.50185668237E+01  0.79444746077E+02  0.82068935234E+02  0.00000000000E+00 0.  1.
         13    1    5    5    0    0 -0.49456965401E+00 -0.27728867650E+02 -0.47575278808E+02  0.55068519627E+02  0.00000000000E+00 0. -1.
        -13    1    5    5    0    0 -0.89225931520E+02  0.38845795887E+02 -0.28834638318E+03  0.30432531837E+03  0.00000000000E+00 0.  1.
          2    1    6    6  503    0  0.60605511607E+02  0.30517494249E+02  0.10352516523E+03  0.12378128020E+03  0.00000000000E+00 0. -1.
         -2    1    6    6    0  503  0.16566845604E+03  0.24900582923E+03  0.28361370206E+03  0.41217310965E+03  0.00000000000E+00 0.  1.
<mgrwt>
<rscale>  0 0.16074966E+04</rscale>
<asrwt>0</asrwt>
<pdfrwt beam="1">  1        2 0.21975625E+00 0.16074966E+04</pdfrwt>
<pdfrwt beam="2">  1       -1 0.69578039E-01 0.16074966E+04</pdfrwt>
<totfact> 0.31805389E+01</totfact>
</mgrwt>
</event>
<event>
12    7  0.1606355E-007  0.2308442E+04  0.7818608E-02  0.8474600E-01
          2   -1    0    0  501    0  0.00000000000E+00  0.00000000000E+00  0.31709365095E+04  0.31709365095E+04  0.00000000000E+00 0. -1.
         -1   -1    0    0    0  501 -0.00000000000E+00 -0.00000000000E+00 -0.42013633928E+03  0.42013633928E+03  0.00000000000E+00 0.  1.
         24    2    1    2    0    0  0.75042107263E+03 -0.60619792705E+03  0.92637949063E+03  0.13400687205E+04  0.83651072220E+02 0.  0.
        254    2    1    2    0    0 -0.75042107263E+03  0.60619792705E+03  0.18244206796E+04  0.22510041283E+04  0.89883316394E+03 0.  0.
         23    2    4    4    0    0 -0.83713188166E+03  0.25617456885E+03  0.92174526461E+03  0.12744798093E+04  0.90935441161E+02 0.  0.
         23    2    4    4    0    0  0.86710809028E+02  0.35002335820E+03  0.90267541500E+03  0.97652431904E+03  0.93497193248E+02 0.  0.
          2    1    3    3  502    0  0.57280209605E+03 -0.43485312632E+03  0.64796760727E+03  0.96801937108E+03  0.00000000000E+00 0. -1.
         -1    1    3    3    0  502  0.17761897658E+03 -0.17134480073E+03  0.27841188336E+03  0.37204934938E+03  0.00000000000E+00 0.  1.
         13    1    5    5    0    0  0.17169397691E+00 -0.18885625028E+01 -0.90155667806E+00  0.20997503644E+01  0.00000000000E+00 0. -1.
        -13    1    5    5    0    0 -0.83730357563E+03  0.25806313136E+03  0.92264682129E+03  0.12723800589E+04  0.00000000000E+00 0.  1.
          1    1    6    6  503    0  0.25111467253E+02  0.27176605381E+03  0.66469688597E+03  0.71854667490E+03  0.00000000000E+00 0. -1.
         -1    1    6    6    0  503  0.61599341775E+02  0.78257304391E+02  0.23797852903E+03  0.25797764415E+03  0.00000000000E+00 0.  1.
<mgrwt>
<rscale>  0 0.23084416E+04</rscale>
<asrwt>0</asrwt>
<pdfrwt beam="1">  1        2 0.48783637E+00 0.23084416E+04</pdfrwt>
<pdfrwt beam="2">  1       -1 0.64636362E-01 0.23084416E+04</pdfrwt>
<totfact> 0.33926895E+00</totfact>
</mgrwt>
</event>
<event>
12    7  0.1606355E-007  0.2245666E+04  0.7818608E-02  0.8499658E-01
         -1   -1    0    0    0  501 -0.00000000000E+00  0.00000000000E+00  0.47773443807E+03  0.47773443807E+03  0.00000000000E+00 0.  1.
          2   -1    0    0  501    0  0.00000000000E+00 -0.00000000000E+00 -0.26390278524E+04  0.26390278524E+04  0.00000000000E+00 0. -1.
         24    2    1    2    0    0  0.51799206764E+03  0.55965415237E+03 -0.16892229395E+04  0.18551122299E+04  0.80241472559E+02 0.  0.
        254    2    1    2    0    0 -0.51799206764E+03 -0.55965415237E+03 -0.47207047481E+03  0.12616500605E+04  0.88734536097E+03 0.  0.
         23    2    4    4    0    0 -0.17518992027E+03  0.52990137956E+02  0.19908553914E+03  0.28618062249E+03  0.93620691671E+02 0.  0.
         23    2    4    4    0    0 -0.34280214736E+03 -0.61264429032E+03 -0.67115601395E+03  0.97546943804E+03  0.90795874277E+02 0.  0.
          2    1    3    3  502    0  0.17146205661E+03  0.13689733445E+03 -0.44744273928E+03  0.49834237425E+03  0.00000000000E+00 0. -1.
         -1    1    3    3    0  502  0.34653001103E+03  0.42275681792E+03 -0.12417802002E+04  0.13567698557E+04  0.00000000000E+00 0.  1.
         13    1    5    5    0    0 -0.16427933438E+03  0.15872474362E+02  0.14506330258E+03  0.21973392296E+03  0.00000000000E+00 0. -1.
        -13    1    5    5    0    0 -0.10910585897E+02  0.37117663594E+02  0.54022236555E+02  0.66446699524E+02  0.00000000000E+00 0.  1.
          2    1    6    6  503    0 -0.28311346703E+02 -0.11261421640E+03 -0.91205845226E+02  0.14765500428E+03  0.00000000000E+00 0. -1.
         -2    1    6    6    0  503 -0.31449080066E+03 -0.50003007393E+03 -0.57995016872E+03  0.82781443375E+03  0.00000000000E+00 0.  1.
<mgrwt>
<rscale>  0 0.22456665E+04</rscale>
<asrwt>0</asrwt>
<pdfrwt beam="1">  1        2 0.40600428E+00 0.22456665E+04</pdfrwt>
<pdfrwt beam="2">  1       -1 0.73497606E-01 0.22456665E+04</pdfrwt>
<totfact> 0.55790326E+00</totfact>
</mgrwt>
</event>
<event>
12    7  0.1606355E-007  0.1349102E+04  0.7818608E-02  0.8991508E-01
          2   -1    0    0  501    0  0.00000000000E+00  0.00000000000E+00  0.56990637124E+03  0.56990637124E+03  0.00000000000E+00 0. -1.
         -1   -1    0    0    0  501 -0.00000000000E+00 -0.00000000000E+00 -0.79840985748E+03  0.79840985748E+03  0.00000000000E+00 0.  1.
         24    2    1    2    0    0  0.25494631452E+02 -0.36441746199E+03 -0.86055905682E+01  0.37487406994E+03  0.83704535634E+02 0.  0.
        254    2    1    2    0    0 -0.25494631452E+02  0.36441746199E+03 -0.21989789567E+03  0.99344215878E+03  0.89728600540E+03 0.  0.
         23    2    4    4    0    0  0.97964252058E+02 -0.27439676118E+03 -0.12021110057E+03  0.32890403752E+03  0.94003084900E+02 0.  0.
         23    2    4    4    0    0 -0.12345888351E+03  0.63881422317E+03 -0.99686795099E+02  0.66453812126E+03  0.91366021258E+02 0.  0.
          4    1    3    3  502    0  0.96117267233E+00 -0.17250598882E+03 -0.44369048109E+02  0.17812313848E+03  0.00000000000E+00 0. -1.
         -3    1    3    3    0  502  0.24533458780E+02 -0.19191147317E+03  0.35763457541E+02  0.19675093146E+03  0.00000000000E+00 0.  1.
         13    1    5    5    0    0 -0.21822963066E+01 -0.21135697294E+02 -0.39501776259E+02  0.44853878816E+02  0.00000000000E+00 0. -1.
        -13    1    5    5    0    0  0.10014654836E+03 -0.25326106389E+03 -0.80709324312E+02  0.28405015871E+03  0.00000000000E+00 0.  1.
          1    1    6    6  503    0 -0.71698703927E+01  0.46535177127E+02 -0.32524650878E+02  0.57225716828E+02  0.00000000000E+00 0. -1.
         -1    1    6    6    0  503 -0.11628901312E+03  0.59227904605E+03 -0.67162144221E+02  0.60731240443E+03  0.00000000000E+00 0.  1.
<mgrwt>
<rscale>  0 0.13491017E+04</rscale>
<asrwt>0</asrwt>
<pdfrwt beam="1">  1        2 0.87677903E-01 0.13491017E+04</pdfrwt>
<pdfrwt beam="2">  1       -1 0.12283229E+00 0.13491017E+04</pdfrwt>
<totfact> 0.34447512E+01</totfact>
</mgrwt>
</event>
<event>
12    7  0.1606355E-007  0.1442593E+04  0.7818608E-02  0.8923552E-01
          2   -1    0    0  501    0  0.00000000000E+00  0.00000000000E+00  0.22926940800E+04  0.22926940800E+04  0.00000000000E+00 0. -1.
         -1   -1    0    0    0  501 -0.00000000000E+00 -0.00000000000E+00 -0.22692449123E+03  0.22692449123E+03  0.00000000000E+00 0.  1.
         24    2    1    2    0    0 -0.75732752047E+02  0.25379400446E+03  0.29685251265E+02  0.28108520021E+03  0.89335486818E+02 0.  0.
        254    2    1    2    0    0  0.75732752047E+02 -0.25379400446E+03  0.20360843375E+04  0.22385333710E+04  0.89176531514E+03 0.  0.
         23    2    4    4    0    0 -0.11686989568E+03 -0.54772291633E+03  0.12263977643E+04  0.13509772384E+04  0.86191975868E+02 0.  0.
         23    2    4    4    0    0  0.19260264773E+03  0.29392891188E+03  0.80968657322E+03  0.88755613267E+03  0.93131931311E+02 0.  0.
          2    1    3    3  502    0  0.15021180419E+02  0.47642568034E+02  0.24839764486E+02  0.55789461816E+02  0.00000000000E+00 0. -1.
         -1    1    3    3    0  502 -0.90753932466E+02  0.20615143642E+03  0.48454867789E+01  0.22529573839E+03  0.00000000000E+00 0.  1.
         13    1    5    5    0    0 -0.94617556621E+02 -0.51432241755E+03  0.11719672679E+04  0.12833500334E+04  0.00000000000E+00 0. -1.
        -13    1    5    5    0    0 -0.22252339064E+02 -0.33400498779E+02  0.54430496448E+02  0.67627204999E+02  0.00000000000E+00 0.  1.
          3    1    6    6  503    0  0.65051523536E+02  0.16331237741E+03  0.32272599830E+03  0.36749789565E+03  0.00000000000E+00 0. -1.
         -3    1    6    6    0  503  0.12755112420E+03  0.13061653447E+03  0.48696057492E+03  0.52005823702E+03  0.00000000000E+00 0.  1.
<mgrwt>
<rscale>  0 0.14425927E+04</rscale>
<asrwt>0</asrwt>
<pdfrwt beam="1">  1        2 0.35272215E+00 0.14425927E+04</pdfrwt>
<pdfrwt beam="2">  1       -1 0.34911462E-01 0.14425927E+04</pdfrwt>
<totfact> 0.39503429E+01</totfact>
</mgrwt>
</event>
<event>
12    7  0.1606355E-007  0.1410309E+04  0.7818608E-02  0.8946390E-01
          2   -1    0    0  501    0  0.00000000000E+00  0.00000000000E+00  0.12940497732E+04  0.12940497732E+04  0.00000000000E+00 0. -1.
         -1   -1    0    0    0  501 -0.00000000000E+00 -0.00000000000E+00 -0.38425319612E+03  0.38425319612E+03  0.00000000000E+00 0.  1.
         24    2    1    2    0    0 -0.26701513724E+03 -0.24469706034E+02  0.65381960939E+03  0.71152354109E+03  0.83004926831E+02 0.  0.
        254    2    1    2    0    0  0.26701513724E+03  0.24469706034E+02  0.25597696766E+03  0.96677942821E+03  0.89288431770E+03 0.  0.
         23    2    4    4    0    0 -0.28706355652E+03  0.13265775346E+03  0.21408037612E+03  0.39328152165E+03  0.94002036142E+02 0.  0.
         23    2    4    4    0    0  0.55407869376E+03 -0.10818804742E+03  0.41896591547E+02  0.57349790656E+03  0.91851357987E+02 0.  0.
          2    1    3    3  502    0 -0.21457392615E+03  0.14925218591E+02  0.49913891127E+03  0.54351116334E+03  0.00000000000E+00 0. -1.
         -1    1    3    3    0  502 -0.52441211090E+02 -0.39394924625E+02  0.15468069812E+03  0.16801237775E+03  0.00000000000E+00 0.  1.
         13    1    5    5    0    0  0.22526218446E+01  0.16863389950E+02  0.40687938112E+01  0.17492950262E+02  0.00000000000E+00 0. -1.
        -13    1    5    5    0    0 -0.28931617836E+03  0.11579436351E+03  0.21001158230E+03  0.37578857139E+03  0.00000000000E+00 0.  1.
          2    1    6    6  503    0  0.43501004611E+03 -0.46768318605E+02  0.22184466789E+02  0.43807894997E+03  0.00000000000E+00 0. -1.
         -2    1    6    6    0  503  0.11906864764E+03 -0.61419728819E+02  0.19712124758E+02  0.13541895658E+03  0.00000000000E+00 0.  1.
<mgrwt>
<rscale>  0 0.14103088E+04</rscale>
<asrwt>0</asrwt>
<pdfrwt beam="1">  1        2 0.19908458E+00 0.14103088E+04</pdfrwt>
<pdfrwt beam="2">  1       -1 0.59115877E-01 0.14103088E+04</pdfrwt>
<totfact> 0.53585742E+01</totfact>
</mgrwt>
</event>
<event>
12    7  0.1606355E-007  0.1698223E+04  0.7818608E-02  0.8762378E-01
         -1   -1    0    0    0  501 -0.00000000000E+00  0.00000000000E+00  0.38363284206E+03  0.38363284206E+03  0.00000000000E+00 0.  1.
          2   -1    0    0  501    0  0.00000000000E+00 -0.00000000000E+00 -0.18793766847E+04  0.18793766847E+04  0.00000000000E+00 0. -1.
         24    2    1    2    0    0  0.18787028056E+03 -0.27323283111E+03  0.14035875484E+03  0.36866527314E+03  0.79133313148E+02 0.  0.
        254    2    1    2    0    0 -0.18787028056E+03  0.27323283111E+03 -0.16361025975E+04  0.18943442536E+04  0.89540885599E+03 0.  0.
         23    2    4    4    0    0 -0.23076846998E+03 -0.21296491324E+03 -0.22079347963E+03  0.39441021190E+03  0.90562208424E+02 0.  0.
         23    2    4    4    0    0  0.42898189425E+02  0.48619774434E+03 -0.14153091178E+04  0.14999340417E+04  0.92052860653E+02 0.  0.
          2    1    3    3  502    0 -0.42651367139E+01 -0.10271938866E+01  0.99399847347E+01  0.10865073170E+02  0.00000000000E+00 0. -1.
         -1    1    3    3    0  502  0.19213541727E+03 -0.27220563722E+03  0.13041877011E+03  0.35780019997E+03  0.00000000000E+00 0.  1.
         13    1    5    5    0    0 -0.31882891286E+02 -0.60702541835E+01 -0.22674197012E+00  0.32456403906E+02  0.00000000000E+00 0.  1.
        -13    1    5    5    0    0 -0.19888557870E+03 -0.20689465905E+03 -0.22056673766E+03  0.36195380799E+03  0.00000000000E+00 0. -1.
          2    1    6    6  503    0  0.58914098731E+02  0.45963139815E+03 -0.12855259365E+04  0.13664950884E+04  0.00000000000E+00 0. -1.
         -2    1    6    6    0  503 -0.16015909307E+02  0.26566346193E+02 -0.12978318131E+03  0.13343895328E+03  0.00000000000E+00 0.  1.
<mgrwt>
<rscale>  0 0.16982233E+04</rscale>
<asrwt>0</asrwt>
<pdfrwt beam="1">  1        2 0.28913487E+00 0.16982233E+04</pdfrwt>
<pdfrwt beam="2">  1       -1 0.59020438E-01 0.16982233E+04</pdfrwt>
<totfact> 0.24590824E+01</totfact>
</mgrwt>
</event>
<event>
12    7  0.1606355E-007  0.1528145E+04  0.7818608E-02  0.8865949E-01
         -1   -1    0    0    0  501 -0.00000000000E+00  0.00000000000E+00  0.23073786311E+03  0.23073786311E+03  0.00000000000E+00 0.  1.
          2   -1    0    0  501    0  0.00000000000E+00 -0.00000000000E+00 -0.25301743756E+04  0.25301743756E+04  0.00000000000E+00 0. -1.
         24    2    1    2    0    0  0.11707467580E+03  0.41211860770E+02  0.10459101607E+03  0.18234467143E+03  0.83098744711E+02 0.  0.
        254    2    1    2    0    0 -0.11707467580E+03 -0.41211860770E+02 -0.24040275286E+04  0.25785675673E+04  0.92426048482E+03 0.  0.
         23    2    4    4    0    0 -0.27602628001E+03  0.37467917441E+03 -0.11144225749E+04  0.12111245993E+04  0.91159906089E+02 0.  0.
         23    2    4    4    0    0  0.15895160421E+03 -0.41589103518E+03 -0.12896049536E+04  0.13674429680E+04  0.92673451925E+02 0.  0.
          2    1    3    3  502    0  0.22463937055E+02  0.17027503148E+02 -0.11674589551E+02  0.30510004468E+02  0.00000000000E+00 0. -1.
         -1    1    3    3    0  502  0.94610738747E+02  0.24184357622E+02  0.11626560562E+03  0.15183466696E+03  0.00000000000E+00 0.  1.
         13    1    5    5    0    0 -0.12628838069E+03  0.15569862283E+03 -0.36959808590E+03  0.42046826438E+03  0.00000000000E+00 0. -1.
        -13    1    5    5    0    0 -0.14973789932E+03  0.21898055158E+03 -0.74482448903E+03  0.79065633490E+03  0.00000000000E+00 0.  1.
          2    1    6    6  503    0  0.65967794635E+02 -0.13998820197E+03 -0.32698414486E+03  0.36175554952E+03  0.00000000000E+00 0. -1.
         -2    1    6    6    0  503  0.92983809572E+02 -0.27590283321E+03 -0.96262080877E+03  0.10056874185E+04  0.00000000000E+00 0.  1.
<mgrwt>
<rscale>  0 0.15281453E+04</rscale>
<asrwt>0</asrwt>
<pdfrwt beam="1">  1        2 0.38925758E+00 0.15281453E+04</pdfrwt>
<pdfrwt beam="2">  1       -1 0.35498135E-01 0.15281453E+04</pdfrwt>
<totfact> 0.27849327E+01</totfact>
</mgrwt>
</event>
<event>
12    7  0.1606355E-007  0.1292911E+04  0.7818608E-02  0.9035206E-01
          2   -1    0    0  501    0  0.00000000000E+00  0.00000000000E+00  0.19332439630E+04  0.19332439630E+04  0.00000000000E+00 0. -1.
         -1   -1    0    0    0  501 -0.00000000000E+00 -0.00000000000E+00 -0.21616767582E+03  0.21616767582E+03  0.00000000000E+00 0.  1.
         24    2    1    2    0    0 -0.22323031936E+03  0.21670885957E+03  0.65719818689E+03  0.73146977539E+03  0.79649671438E+02 0.  0.
        254    2    1    2    0    0  0.22323031936E+03 -0.21670885957E+03  0.10598781003E+04  0.14179418635E+04  0.88905738586E+03 0.  0.
         23    2    4    4    0    0  0.34226296173E+03 -0.37479568004E+03  0.10830236403E+04  0.11996005903E+04  0.92117500879E+02 0.  0.
         23    2    4    4    0    0 -0.11903264238E+03  0.15808682048E+03 -0.23145539976E+02  0.21834127321E+03  0.89313956385E+02 0.  0.
          4    1    3    3  502    0 -0.19833951565E+03  0.18995535560E+03  0.50392353838E+03  0.57389941029E+03  0.00000000000E+00 0. -1.
         -3    1    3    3    0  502 -0.24890803702E+02  0.26753503972E+02  0.15327464851E+03  0.15757036511E+03  0.00000000000E+00 0.  1.
         13    1    5    5    0    0  0.14199328354E+02 -0.58300271831E+02  0.12627623842E+03  0.13980783601E+03  0.00000000000E+00 0. -1.
        -13    1    5    5    0    0  0.32806363338E+03 -0.31649540821E+03  0.95674740187E+03  0.10597927542E+04  0.00000000000E+00 0.  1.
          2    1    6    6  503    0 -0.56030240443E+01 -0.92318694175E+01  0.84910600797E+01  0.13737517704E+02  0.00000000000E+00 0. -1.
         -2    1    6    6    0  503 -0.11342961833E+03  0.16731868989E+03 -0.31636600056E+02  0.20460375550E+03  0.00000000000E+00 0.  1.
<mgrwt>
<rscale>  0 0.12929112E+04</rscale>
<asrwt>0</asrwt>
<pdfrwt beam="1">  1        2 0.29742214E+00 0.12929112E+04</pdfrwt>
<pdfrwt beam="2">  1       -1 0.33256567E-01 0.12929112E+04</pdfrwt>
<totfact> 0.69164417E+01</totfact>
</mgrwt>
</event>
<event>
12    7  0.1606355E-007  0.3894890E+04  0.7818608E-02  0.8026093E-01
          2   -1    0    0  501    0  0.00000000000E+00  0.00000000000E+00  0.21426475706E+04  0.21426475706E+04  0.00000000000E+00 0. -1.
         -1   -1    0    0    0  501 -0.00000000000E+00 -0.00000000000E+00 -0.17700260434E+04  0.17700260434E+04  0.00000000000E+00 0.  1.
         24    2    1    2    0    0 -0.14182740398E+04  0.91100539338E+03  0.92461463729E+03  0.19242120063E+04  0.79041373326E+02 0.  0.
        254    2    1    2    0    0  0.14182740398E+04 -0.91100539338E+03 -0.55199311013E+03  0.19884616078E+04  0.89880536996E+03 0.  0.
         23    2    4    4    0    0  0.13232848180E+04 -0.43688803106E+03 -0.53835079796E+03  0.14967138161E+04  0.91524885102E+02 0.  0.
         23    2    4    4    0    0  0.94989221859E+02 -0.47411736232E+03 -0.13642312171E+02  0.49174779162E+03  0.88428232796E+02 0.  0.
          4    1    3    3  502    0 -0.76807721278E+03  0.46902026905E+03  0.45502677483E+03  0.10084502880E+04  0.00000000000E+00 0. -1.
         -3    1    3    3    0  502 -0.65019682706E+03  0.44198512433E+03  0.46958786246E+03  0.91576171826E+03  0.00000000000E+00 0.  1.
         13    1    5    5    0    0  0.39154573871E+03 -0.12294641146E+03 -0.11473786904E+03  0.42613221444E+03  0.00000000000E+00 0. -1.
        -13    1    5    5    0    0  0.93173907928E+03 -0.31394161960E+03 -0.42361292892E+03  0.10705816017E+04  0.00000000000E+00 0.  1.
          2    1    6    6  503    0  0.70995836866E+02 -0.30552156249E+03  0.32421726787E+02  0.31533316090E+03  0.00000000000E+00 0.  1.
         -2    1    6    6    0  503  0.23993384993E+02 -0.16859579984E+03 -0.46064038958E+02  0.17641463072E+03  0.00000000000E+00 0. -1.
<mgrwt>
<rscale>  0 0.38948900E+04</rscale>
<asrwt>0</asrwt>
<pdfrwt beam="1">  1        2 0.32963809E+00 0.38948900E+04</pdfrwt>
<pdfrwt beam="2">  1       -1 0.27231170E+00 0.38948900E+04</pdfrwt>
<totfact> 0.25120498E-01</totfact>
</mgrwt>
</event>
<event>
12    7  0.1606355E-007  0.1351039E+04  0.7818608E-02  0.8990042E-01
         -1   -1    0    0    0  501 -0.00000000000E+00  0.00000000000E+00  0.42308829045E+03  0.42308829045E+03  0.00000000000E+00 0.  1.
          2   -1    0    0  501    0  0.00000000000E+00 -0.00000000000E+00 -0.10785607739E+04  0.10785607739E+04  0.00000000000E+00 0. -1.
         24    2    1    2    0    0  0.33767673709E+03 -0.11925542508E+03 -0.27812782044E+03  0.46077553086E+03  0.81924173201E+02 0.  0.
        254    2    1    2    0    0 -0.33767673709E+03  0.11925542508E+03 -0.37734466302E+03  0.10408735335E+04  0.90154383302E+03 0.  0.
         23    2    4    4    0    0 -0.58759825949E+03  0.10607649540E+03 -0.32396185357E+02  0.60496551247E+03  0.91705076335E+02 0.  0.
         23    2    4    4    0    0  0.24992152240E+03  0.13178929685E+02 -0.34494847767E+03  0.43590802103E+03  0.91607308695E+02 0.  0.
          4    1    3    3  502    0  0.30618616403E+03 -0.11931019756E+03 -0.27612701874E+03  0.42922141229E+03  0.00000000000E+00 0. -1.
         -3    1    3    3    0  502  0.31490573057E+02  0.54772483242E-01 -0.20008017000E+01  0.31554118573E+02  0.00000000000E+00 0.  1.
         13    1    5    5    0    0 -0.49185378200E+03  0.10005651365E+03  0.51289984423E+01  0.50195393755E+03  0.00000000000E+00 0. -1.
        -13    1    5    5    0    0 -0.95744477484E+02  0.60199817447E+01 -0.37525183800E+02  0.10301157492E+03  0.00000000000E+00 0.  1.
          3    1    6    6  503    0  0.23670027634E+03  0.15987781419E+02 -0.34881768583E+03  0.42184879746E+03  0.00000000000E+00 0. -1.
         -3    1    6    6    0  503  0.13221246064E+02 -0.28088517343E+01  0.38692081616E+01  0.14059223568E+02  0.00000000000E+00 0.  1.
<mgrwt>
<rscale>  0 0.13510388E+04</rscale>
<asrwt>0</asrwt>
<pdfrwt beam="1">  1        2 0.16593243E+00 0.13510388E+04</pdfrwt>
<pdfrwt beam="2">  1       -1 0.65090506E-01 0.13510388E+04</pdfrwt>
<totfact> 0.59887152E+01</totfact>
</mgrwt>
</event>
<event>
12    7  0.1606355E-007  0.1151640E+04  0.7818608E-02  0.9156272E-01
         -1   -1    0    0    0  501 -0.00000000000E+00  0.00000000000E+00  0.27973574748E+03  0.27973574748E+03  0.00000000000E+00 0.  1.
          2   -1    0    0  501    0  0.00000000000E+00 -0.00000000000E+00 -0.11852930018E+04  0.11852930018E+04  0.00000000000E+00 0. -1.
         24    2    1    2    0    0  0.13569102773E+03  0.11881951544E+03 -0.32554629007E+03  0.38015763936E+03  0.77519749260E+02 0.  0.
        254    2    1    2    0    0 -0.13569102773E+03 -0.11881951544E+03 -0.58001096423E+03  0.10848711099E+04  0.89888957845E+03 0.  0.
         23    2    4    4    0    0 -0.49642355401E+03 -0.58679933443E+02 -0.18953059205E+03  0.54217054803E+03  0.90262828816E+02 0.  0.
         23    2    4    4    0    0  0.36073252629E+03 -0.60139581992E+02 -0.39048037218E+03  0.54270056188E+03  0.91127679432E+02 0.  0.
          2    1    3    3  502    0  0.38707981755E+02  0.38361577560E+02 -0.17783766122E+03  0.18600040923E+03  0.00000000000E+00 0. -1.
         -1    1    3    3    0  502  0.96983045970E+02  0.80457937875E+02 -0.14770862885E+03  0.19415723013E+03  0.00000000000E+00 0.  1.
         13    1    5    5    0    0 -0.14137268608E+03 -0.26148051526E+02 -0.98243688262E+02  0.17413149988E+03  0.00000000000E+00 0.  1.
        -13    1    5    5    0    0 -0.35505086794E+03 -0.32531881917E+02 -0.91286903787E+02  0.36803904816E+03  0.00000000000E+00 0. -1.
          1    1    6    6  503    0  0.16424466634E+03 -0.45602697386E+01 -0.23164786881E+03  0.28400324225E+03  0.00000000000E+00 0. -1.
         -1    1    6    6    0  503  0.19648785995E+03 -0.55579312254E+02 -0.15883250337E+03  0.25869731963E+03  0.00000000000E+00 0.  1.
<mgrwt>
<rscale>  0 0.11516403E+04</rscale>
<asrwt>0</asrwt>
<pdfrwt beam="1">  1        2 0.18235277E+00 0.11516403E+04</pdfrwt>
<pdfrwt beam="2">  1       -1 0.43036269E-01 0.11516403E+04</pdfrwt>
<totfact> 0.11600110E+02</totfact>
</mgrwt>
</event>
<event>
12    7  0.1606355E-007  0.1517753E+04  0.7818608E-02  0.8872733E-01
          2   -1    0    0  501    0  0.00000000000E+00  0.00000000000E+00  0.14836607108E+04  0.14836607108E+04  0.00000000000E+00 0. -1.
         -1   -1    0    0    0  501 -0.00000000000E+00 -0.00000000000E+00 -0.38815698106E+03  0.38815698106E+03  0.00000000000E+00 0.  1.
         24    2    1    2    0    0 -0.16850873395E+03  0.18735008237E+03 -0.17432719584E+03  0.32507112683E+03  0.10856343542E+03 0.  0.
        254    2    1    2    0    0  0.16850873395E+03 -0.18735008237E+03  0.12698309256E+04  0.15467465650E+04  0.84643907641E+03 0.  0.
         23    2    4    4    0    0 -0.24634755118E+03 -0.17137830880E+03  0.14773734705E+03  0.34675535662E+03  0.91407400853E+02 0.  0.
         23    2    4    4    0    0  0.41485628513E+03 -0.15971773567E+02  0.11220935786E+04  0.11999912084E+04  0.92325870627E+02 0.  0.
          4    1    3    3  502    0 -0.75575919670E+02  0.47442880809E+02 -0.94877194371E+01  0.89736076321E+02  0.00000000000E+00 0. -1.
         -3    1    3    3    0  502 -0.92932814276E+02  0.13990720156E+03 -0.16483947640E+03  0.23533505051E+03  0.00000000000E+00 0.  1.
         13    1    5    5    0    0 -0.40043119729E+02 -0.76199454766E+02  0.48756888158E+02  0.98929482396E+02  0.00000000000E+00 0. -1.
        -13    1    5    5    0    0 -0.20630443145E+03 -0.95178854034E+02  0.98980458887E+02  0.24782587422E+03  0.00000000000E+00 0.  1.
          1    1    6    6  503    0  0.26846869852E+02 -0.11006268332E+02  0.15966313100E+03  0.16227818019E+03  0.00000000000E+00 0. -1.
         -1    1    6    6    0  503  0.38800941528E+03 -0.49655052350E+01  0.96243044756E+03  0.10377130282E+04  0.00000000000E+00 0.  1.
<mgrwt>
<rscale>  0 0.15177526E+04</rscale>
<asrwt>0</asrwt>
<pdfrwt beam="1">  1        2 0.22825549E+00 0.15177526E+04</pdfrwt>
<pdfrwt beam="2">  1       -1 0.59716459E-01 0.15177526E+04</pdfrwt>
<totfact> 0.40533861E+01</totfact>
</mgrwt>
</event>
<event>
12    7  0.1606355E-007  0.1524491E+04  0.7818608E-02  0.8868328E-01
          2   -1    0    0  501    0  0.00000000000E+00  0.00000000000E+00  0.42189921525E+04  0.42189921525E+04  0.00000000000E+00 0. -1.
         -1   -1    0    0    0  501 -0.00000000000E+00 -0.00000000000E+00 -0.13771495610E+03  0.13771495610E+03  0.00000000000E+00 0.  1.
         24    2    1    2    0    0 -0.18547363284E+03 -0.33651560286E+03  0.44278680904E+03  0.59128084822E+03  0.76874337461E+02 0.  0.
        254    2    1    2    0    0  0.18547363284E+03  0.33651560286E+03  0.36384903873E+04  0.37654262604E+04  0.89004460791E+03 0.  0.
         23    2    4    4    0    0 -0.48091399511E+02  0.59726755313E+03  0.21834372585E+04  0.22660646510E+04  0.92787002276E+02 0.  0.
         23    2    4    4    0    0  0.23356503235E+03 -0.26075195027E+03  0.14550531288E+04  0.14993616094E+04  0.91440823061E+02 0.  0.
          4    1    3    3  502    0 -0.50041282872E+02 -0.10323660326E+03  0.82978484300E+02  0.14158868281E+03  0.00000000000E+00 0. -1.
         -3    1    3    3    0  502 -0.13543234996E+03 -0.23327899960E+03  0.35980832474E+03  0.44969216541E+03  0.00000000000E+00 0.  1.
         13    1    5    5    0    0  0.16211593151E+02  0.34565418700E+03  0.11968044854E+04  0.12458252723E+04  0.00000000000E+00 0. -1.
        -13    1    5    5    0    0 -0.64302992662E+02  0.25161336613E+03  0.98663277315E+03  0.10202393787E+04  0.00000000000E+00 0.  1.
          1    1    6    6  503    0  0.36724193284E+02 -0.10364152237E+03  0.44271731500E+03  0.45616757067E+03  0.00000000000E+00 0. -1.
         -1    1    6    6    0  503  0.19684083906E+03 -0.15711042790E+03  0.10123358138E+04  0.10431940387E+04  0.00000000000E+00 0.  1.
<mgrwt>
<rscale>  0 0.15244912E+04</rscale>
<asrwt>0</asrwt>
<pdfrwt beam="1">  1        2 0.64907562E+00 0.15244912E+04</pdfrwt>
<pdfrwt beam="2">  1       -1 0.21186920E-01 0.15244912E+04</pdfrwt>
<totfact> 0.46908139E+00</totfact>
</mgrwt>
</event>
<event>
12    7  0.1606355E-007  0.1367797E+04  0.7818608E-02  0.8977464E-01
          2   -1    0    0  501    0  0.00000000000E+00  0.00000000000E+00  0.11250236123E+04  0.11250236123E+04  0.00000000000E+00 0. -1.
         -1   -1    0    0    0  501 -0.00000000000E+00 -0.00000000000E+00 -0.41573977923E+03  0.41573977923E+03  0.00000000000E+00 0.  1.
         24    2    1    2    0    0  0.17752048247E+03 -0.28493435003E+03  0.39690086939E+03  0.52593688814E+03  0.79863662976E+02 0.  0.
        254    2    1    2    0    0 -0.17752048247E+03  0.28493435003E+03  0.31238296372E+03  0.10148265034E+04  0.90531133347E+03 0.  0.
         23    2    4    4    0    0  0.96687815240E+02 -0.16447509718E+02 -0.26931000150E+03  0.29892105284E+03  0.84893254930E+02 0.  0.
         23    2    4    4    0    0 -0.27420829771E+03  0.30138185975E+03  0.58169296521E+03  0.71590545058E+03  0.90181441994E+02 0.  0.
          4    1    3    3  502    0  0.12330930737E+03 -0.24122957406E+03  0.34716804399E+03  0.44036637411E+03  0.00000000000E+00 0. -1.
         -3    1    3    3    0  502  0.54211175104E+02 -0.43704775969E+02  0.49732825403E+02  0.85570514030E+02  0.00000000000E+00 0.  1.
         13    1    5    5    0    0  0.84918222192E+02 -0.46012433637E+02 -0.18284278789E+03  0.20678426824E+03  0.00000000000E+00 0. -1.
        -13    1    5    5    0    0  0.11769593048E+02  0.29564923919E+02 -0.86467213605E+02  0.92136784595E+02  0.00000000000E+00 0.  1.
          4    1    6    6  503    0 -0.18152526102E+03  0.23661764537E+03  0.36372997267E+03  0.47036031243E+03  0.00000000000E+00 0. -1.
         -4    1    6    6    0  503 -0.92683036689E+02  0.64764214377E+02  0.21796299254E+03  0.24554513815E+03  0.00000000000E+00 0.  1.
<mgrwt>
<rscale>  0 0.13677969E+04</rscale>
<asrwt>0</asrwt>
<pdfrwt beam="1">  1        2 0.17308055E+00 0.13677969E+04</pdfrwt>
<pdfrwt beam="2">  1       -1 0.63959967E-01 0.13677969E+04</pdfrwt>
<totfact> 0.57995685E+01</totfact>
</mgrwt>
</event>
<event>
12    7  0.1606355E-007  0.2835376E+04  0.7818608E-02  0.8292369E-01
         -1   -1    0    0    0  501 -0.00000000000E+00  0.00000000000E+00  0.13754926327E+04  0.13754926327E+04  0.00000000000E+00 0.  1.
          2   -1    0    0  501    0  0.00000000000E+00 -0.00000000000E+00 -0.14611777711E+04  0.14611777711E+04  0.00000000000E+00 0. -1.
         24    2    1    2    0    0 -0.13871745758E+03 -0.15658877988E+01 -0.13108948746E+04  0.13209400094E+04  0.84806551601E+02 0.  0.
        254    2    1    2    0    0  0.13871745758E+03  0.15658877988E+01  0.12252097362E+04  0.15157303943E+04  0.88150708765E+03 0.  0.
         23    2    4    4    0    0 -0.15326407235E+03 -0.15330049130E+03  0.11357096473E+04  0.11595799912E+04  0.88308756489E+02 0.  0.
         23    2    4    4    0    0  0.29198152993E+03  0.15486637910E+03  0.89500088868E+02  0.35615040312E+03  0.97959351445E+02 0.  0.
          2    1    3    3  502    0 -0.10400429546E+03  0.36771144763E+02 -0.94210489479E+03  0.94854132400E+03  0.00000000000E+00 0. -1.
         -1    1    3    3    0  502 -0.34713162121E+02 -0.38337032562E+02 -0.36878997984E+03  0.37239868544E+03  0.00000000000E+00 0.  1.
         13    1    5    5    0    0 -0.12013706694E+03 -0.15524158443E+03  0.87386784113E+03  0.89564382884E+03  0.00000000000E+00 0.  1.
        -13    1    5    5    0    0 -0.33127005414E+02  0.19410931285E+01  0.26184180619E+03  0.26393616235E+03  0.00000000000E+00 0. -1.
          4    1    6    6  503    0  0.22371838549E+02  0.33191550461E+02 -0.14549426191E+02  0.42589482088E+02  0.00000000000E+00 0. -1.
         -4    1    6    6    0  503  0.26960969138E+03  0.12167482864E+03  0.10404951506E+03  0.31356092103E+03  0.00000000000E+00 0.  1.
<mgrwt>
<rscale>  0 0.28353760E+04</rscale>
<asrwt>0</asrwt>
<pdfrwt beam="1">  1        2 0.22479658E+00 0.28353760E+04</pdfrwt>
<pdfrwt beam="2">  1       -1 0.21161425E+00 0.28353760E+04</pdfrwt>
<totfact> 0.16540335E+00</totfact>
</mgrwt>
</event>
<event>
12    7  0.1606355E-007  0.2837878E+04  0.7818608E-02  0.8291604E-01
          2   -1    0    0  501    0  0.00000000000E+00  0.00000000000E+00  0.10367548315E+04  0.10367548315E+04  0.00000000000E+00 0. -1.
         -1   -1    0    0    0  501 -0.00000000000E+00 -0.00000000000E+00 -0.19420096486E+04  0.19420096486E+04  0.00000000000E+00 0.  1.
         24    2    1    2    0    0 -0.11956496264E+04  0.20587189961E+03 -0.58483275325E+03  0.13493395786E+04  0.82016345331E+02 0.  0.
        254    2    1    2    0    0  0.11956496264E+04 -0.20587189961E+03 -0.32042206385E+03  0.16294249016E+04  0.10394200030E+04 0.  0.
         23    2    4    4    0    0  0.11656563025E+04 -0.54162505461E+01 -0.56580538008E+03  0.12983341408E+04  0.82169712408E+02 0.  0.
         23    2    4    4    0    0  0.29993323934E+02 -0.20045564906E+03  0.24538331623E+03  0.33109076079E+03  0.91247209683E+02 0.  0.
          4    1    3    3  502    0 -0.83411088723E+03  0.17339154719E+03 -0.43587191035E+03  0.95696913381E+03  0.00000000000E+00 0. -1.
         -3    1    3    3    0  502 -0.36153873921E+03  0.32480352416E+02 -0.14896084290E+03  0.39237044480E+03  0.00000000000E+00 0.  1.
         13    1    5    5    0    0  0.24297714329E+03  0.92178289763E+01 -0.15403648301E+03  0.28783693062E+03  0.00000000000E+00 0.  1.
        -13    1    5    5    0    0  0.92267915921E+03 -0.14634079522E+02 -0.41176889707E+03  0.10104972102E+04  0.00000000000E+00 0. -1.
          4    1    6    6  503    0 -0.80219549854E+01 -0.92757412690E+02  0.17127115984E+03  0.19494127209E+03  0.00000000000E+00 0. -1.
         -4    1    6    6    0  503  0.38015278919E+02 -0.10769823637E+03  0.74112156394E+02  0.13614948870E+03  0.00000000000E+00 0.  1.
<mgrwt>
<rscale>  0 0.28378780E+04</rscale>
<asrwt>0</asrwt>
<pdfrwt beam="1">  1        2 0.15950075E+00 0.28378780E+04</pdfrwt>
<pdfrwt beam="2">  1       -1 0.29877071E+00 0.28378780E+04</pdfrwt>
<totfact> 0.79352869E-01</totfact>
</mgrwt>
</event>
<event>
12    7  0.1606355E-007  0.1749334E+04  0.7818608E-02  0.8733717E-01
         -1   -1    0    0    0  501 -0.00000000000E+00  0.00000000000E+00  0.59837509143E+03  0.59837509143E+03  0.00000000000E+00 0.  1.
          2   -1    0    0  501    0  0.00000000000E+00 -0.00000000000E+00 -0.12785326213E+04  0.12785326213E+04  0.00000000000E+00 0. -1.
         24    2    1    2    0    0  0.37586321396E+03 -0.25926188062E+03  0.22855122855E+03  0.51687875207E+03  0.80237783623E+02 0.  0.
        254    2    1    2    0    0 -0.37586321396E+03  0.25926188062E+03 -0.90870875846E+03  0.13600289607E+04  0.90301566313E+03 0.  0.
         23    2    4    4    0    0 -0.33467919238E+03  0.13878079736E+03 -0.10714323365E+04  0.11347156696E+04  0.91335248104E+02 0.  0.
         23    2    4    4    0    0 -0.41184021589E+02  0.12048108325E+03  0.16272357805E+03  0.22531329111E+03  0.89862679898E+02 0.  0.
          2    1    3    3  502    0  0.12158271338E+03 -0.88412528439E+02  0.34480910654E+02  0.15423379843E+03  0.00000000000E+00 0. -1.
         -1    1    3    3    0  502  0.25428050059E+03 -0.17084935218E+03  0.19407031789E+03  0.36264495365E+03  0.00000000000E+00 0.  1.
         13    1    5    5    0    0 -0.25974267174E+03  0.68459059910E+02 -0.82800708926E+03  0.87048758651E+03  0.00000000000E+00 0. -1.
        -13    1    5    5    0    0 -0.74936520634E+02  0.70321737454E+02 -0.24342524725E+03  0.26422808307E+03  0.00000000000E+00 0.  1.
          4    1    6    6  503    0  0.57709707079E+01  0.17623610457E+02  0.87652275540E+02  0.89592506136E+02  0.00000000000E+00 0.  1.
         -4    1    6    6    0  503 -0.46954992297E+02  0.10285747280E+03  0.75071302513E+02  0.13572078497E+03  0.00000000000E+00 0. -1.
<mgrwt>
<rscale>  0 0.17493337E+04</rscale>
<asrwt>0</asrwt>
<pdfrwt beam="1">  1        2 0.19669732E+00 0.17493337E+04</pdfrwt>
<pdfrwt beam="2">  1       -1 0.92057707E-01 0.17493337E+04</pdfrwt>
<totfact> 0.21127499E+01</totfact>
</mgrwt>
</event>
<event>
12    7  0.1606355E-007  0.1490067E+04  0.7818608E-02  0.8891085E-01
          2   -1    0    0  501    0  0.00000000000E+00  0.00000000000E+00  0.32358450220E+03  0.32358450220E+03  0.00000000000E+00 0. -1.
         -1   -1    0    0    0  501 -0.00000000000E+00 -0.00000000000E+00 -0.17153944654E+04  0.17153944654E+04  0.00000000000E+00 0.  1.
         24    2    1    2    0    0 -0.43519910882E+03  0.63430857226E+02 -0.68015575476E+03  0.81388470490E+03  0.79841869751E+02 0.  0.
        254    2    1    2    0    0  0.43519910882E+03 -0.63430857226E+02 -0.71165420842E+03  0.12250942627E+04  0.89497625786E+03 0.  0.
         23    2    4    4    0    0  0.13020847409E+03  0.29999072951E+02 -0.85011065693E+03  0.86523706667E+03  0.89960332476E+02 0.  0.
         23    2    4    4    0    0  0.30499063473E+03 -0.93429930178E+02  0.13845644851E+03  0.35985719601E+03  0.92620593069E+02 0.  0.
          4    1    3    3  502    0 -0.20754645835E+02  0.31933816359E+00 -0.91471588645E+01  0.22683205592E+02  0.00000000000E+00 0. -1.
         -3    1    3    3    0  502 -0.41444446299E+03  0.63111519063E+02 -0.67100859590E+03  0.79120149931E+03  0.00000000000E+00 0.  1.
         13    1    5    5    0    0 -0.10316845859E+02  0.48504953553E+01 -0.16594724494E+03  0.16633836814E+03  0.00000000000E+00 0.  1.
        -13    1    5    5    0    0  0.14052531995E+03  0.25148577596E+02 -0.68416341199E+03  0.69889869853E+03  0.00000000000E+00 0. -1.
          1    1    6    6  503    0  0.27859760746E+03 -0.66038981630E+02  0.14550996799E+03  0.32117117673E+03  0.00000000000E+00 0. -1.
         -1    1    6    6    0  503  0.26393027273E+02 -0.27390948548E+02 -0.70535194799E+01  0.38686019284E+02  0.00000000000E+00 0.  1.
<mgrwt>
<rscale>  0 0.14900672E+04</rscale>
<asrwt>0</asrwt>
<pdfrwt beam="1">  1        2 0.49782231E-01 0.14900672E+04</pdfrwt>
<pdfrwt beam="2">  1       -1 0.26390684E+00 0.14900672E+04</pdfrwt>
<totfact> 0.63277914E+00</totfact>
</mgrwt>
</event>
<event>
12    7  0.1606355E-007  0.2142438E+04  0.7818608E-02  0.8542776E-01
          2   -1    0    0  501    0  0.00000000000E+00  0.00000000000E+00  0.39197870221E+04  0.39197870221E+04  0.00000000000E+00 0. -1.
         -1   -1    0    0    0  501 -0.00000000000E+00 -0.00000000000E+00 -0.29274806364E+03  0.29274806364E+03  0.00000000000E+00 0.  1.
         24    2    1    2    0    0  0.78527426403E+03 -0.36431880053E+03  0.11651584882E+04  0.14535540119E+04  0.76427120208E+02 0.  0.
        254    2    1    2    0    0 -0.78527426403E+03  0.36431880053E+03  0.24618804702E+04  0.27589810738E+04  0.89539782095E+03 0.  0.
         23    2    4    4    0    0 -0.80928184904E+03 -0.46061872937E+02  0.14623506003E+04  0.16745260354E+04  0.92246180181E+02 0.  0.
         23    2    4    4    0    0  0.24007585004E+02  0.41038067347E+03  0.99952986990E+03  0.10844550384E+04  0.89409776474E+02 0.  0.
          2    1    3    3  502    0  0.65691569980E+03 -0.29715345891E+03  0.92096529366E+03  0.11696219419E+04  0.00000000000E+00 0. -1.
         -1    1    3    3    0  502  0.12835856424E+03 -0.67165341627E+02  0.24419319457E+03  0.28393207005E+03  0.00000000000E+00 0.  1.
         13    1    5    5    0    0 -0.25515458358E+03  0.20502728258E+02  0.51167030932E+03  0.57212824509E+03  0.00000000000E+00 0. -1.
        -13    1    5    5    0    0 -0.55412726545E+03 -0.66564601194E+02  0.95068029097E+03  0.11023977903E+04  0.00000000000E+00 0.  1.
          2    1    6    6  503    0  0.91733366296E+01  0.27704697024E+01  0.86474737342E+01  0.12907533044E+02  0.00000000000E+00 0. -1.
         -2    1    6    6    0  503  0.14834248374E+02  0.40761020377E+03  0.99088239617E+03  0.10715475053E+04  0.00000000000E+00 0.  1.
<mgrwt>
<rscale>  0 0.21424379E+04</rscale>
<asrwt>0</asrwt>
<pdfrwt beam="1">  1        2 0.60304412E+00 0.21424379E+04</pdfrwt>
<pdfrwt beam="2">  1       -1 0.45038166E-01 0.21424379E+04</pdfrwt>
<totfact> 0.20415513E+00</totfact>
</mgrwt>
</event>
<event>
12    7  0.1606355E-007  0.1274439E+04  0.7818608E-02  0.9050085E-01
         -3   -1    0    0    0  501 -0.00000000000E+00  0.00000000000E+00  0.48096581316E+03  0.48096581316E+03  0.00000000000E+00 0.  1.
          2   -1    0    0  501    0  0.00000000000E+00 -0.00000000000E+00 -0.84423593919E+03  0.84423593919E+03  0.00000000000E+00 0. -1.
         24    2    1    2    0    0 -0.13362713176E+03 -0.20371782712E+03 -0.28743786551E+03  0.38426009701E+03  0.75353382088E+02 0.  0.
        254    2    1    2    0    0  0.13362713176E+03  0.20371782712E+03 -0.75832260529E+02  0.94094165534E+03  0.90568399765E+03 0.  0.
         23    2    4    4    0    0  0.13773415259E+03  0.44633156911E+03 -0.32959014664E+03  0.57863240071E+03  0.89460740093E+02 0.  0.
         23    2    4    4    0    0 -0.41070208249E+01 -0.24261374199E+03  0.25375788611E+03  0.36230925464E+03  0.89423910740E+02 0.  0.
          2    1    3    3  502    0 -0.88634789651E+02 -0.12862158199E+03 -0.12629550095E+03  0.20087356932E+03  0.00000000000E+00 0. -1.
         -1    1    3    3    0  502 -0.44992342114E+02 -0.75096245129E+02 -0.16114236456E+03  0.18338652769E+03  0.00000000000E+00 0.  1.
         13    1    5    5    0    0  0.94124422727E+02  0.16435391159E+03 -0.11456187715E+03  0.22135048883E+03  0.00000000000E+00 0. -1.
        -13    1    5    5    0    0  0.43609729863E+02  0.28197765752E+03 -0.21502826949E+03  0.35728191188E+03  0.00000000000E+00 0.  1.
          1    1    6    6  503    0 -0.79973723991E+01 -0.13315393366E+03  0.19973186490E+03  0.24018065257E+03  0.00000000000E+00 0. -1.
         -1    1    6    6    0  503  0.38903515742E+01 -0.10945980833E+03  0.54026021214E+02  0.12212860207E+03  0.00000000000E+00 0.  1.
<mgrwt>
<rscale>  0 0.12744389E+04</rscale>
<asrwt>0</asrwt>
<pdfrwt beam="1">  1        2 0.12988245E+00 0.12744389E+04</pdfrwt>
<pdfrwt beam="2">  1       -3 0.73994741E-01 0.12744389E+04</pdfrwt>
<totfact> 0.34493327E+01</totfact>
</mgrwt>
</event>
<event>
12    7  0.1606355E-007  0.1326093E+04  0.7818608E-02  0.9009126E-01
          2   -1    0    0  501    0  0.00000000000E+00  0.00000000000E+00  0.59690978586E+03  0.59690978586E+03  0.00000000000E+00 0. -1.
         -1   -1    0    0    0  501 -0.00000000000E+00 -0.00000000000E+00 -0.73651059293E+03  0.73651059293E+03  0.00000000000E+00 0.  1.
         24    2    1    2    0    0 -0.26942305179E+03  0.20097848134E+01  0.19624296109E+03  0.34281869330E+03  0.80128251141E+02 0.  0.
        254    2    1    2    0    0  0.26942305179E+03 -0.20097848134E+01 -0.33584376816E+03  0.99060168549E+03  0.89213667261E+03 0.  0.
         23    2    4    4    0    0 -0.86518321967E+02 -0.28218195938E+03  0.12922042909E+03  0.33495236748E+03  0.91559221012E+02 0.  0.
         23    2    4    4    0    0  0.35594137375E+03  0.28017217456E+03 -0.46506419725E+03  0.65564931801E+03  0.91654850917E+02 0.  0.
          4    1    3    3  502    0 -0.16818368888E+03  0.74847963872E+01  0.16739159746E+03  0.23740623893E+03  0.00000000000E+00 0. -1.
         -3    1    3    3    0  502 -0.10123936290E+03 -0.54750115737E+01  0.28851363625E+02  0.10541245437E+03  0.00000000000E+00 0.  1.
         13    1    5    5    0    0  0.19568028479E+02 -0.36974954537E+02  0.18716724676E+02  0.45829802358E+02  0.00000000000E+00 0. -1.
        -13    1    5    5    0    0 -0.10608635045E+03 -0.24520700484E+03  0.11050370441E+03  0.28912256512E+03  0.00000000000E+00 0.  1.
          4    1    6    6  503    0  0.45117052550E+02  0.27486164375E+02 -0.19056475124E+02  0.56162148348E+02  0.00000000000E+00 0. -1.
         -4    1    6    6    0  503  0.31082432120E+03  0.25268601019E+03 -0.44600772212E+03  0.59948716966E+03  0.00000000000E+00 0.  1.
<mgrwt>
<rscale>  0 0.13260926E+04</rscale>
<asrwt>0</asrwt>
<pdfrwt beam="1">  1        2 0.91832275E-01 0.13260926E+04</pdfrwt>
<pdfrwt beam="2">  1       -1 0.11330932E+00 0.13260926E+04</pdfrwt>
<totfact> 0.39706166E+01</totfact>
</mgrwt>
</event>
<event>
12    7  0.1606355E-007  0.1380535E+04  0.7818608E-02  0.8968030E-01
          2   -1    0    0  501    0  0.00000000000E+00  0.00000000000E+00  0.22489506744E+04  0.22489506744E+04  0.00000000000E+00 0. -1.
         -1   -1    0    0    0  501 -0.00000000000E+00 -0.00000000000E+00 -0.21186290458E+03  0.21186290458E+03  0.00000000000E+00 0.  1.
         24    2    1    2    0    0  0.34181887315E+02  0.16036698290E+03 -0.44714247597E+02  0.18716462990E+03  0.78391735040E+02 0.  0.
        254    2    1    2    0    0 -0.34181887315E+02 -0.16036698290E+03  0.20818020174E+04  0.22736489491E+04  0.89927411466E+03 0.  0.
         23    2    4    4    0    0  0.40983502413E+03 -0.27939480022E+02  0.12294914910E+04  0.12993368585E+04  0.88778284274E+02 0.  0.
         23    2    4    4    0    0 -0.44401691145E+03 -0.13242750288E+03  0.85231052642E+03  0.97431209063E+03  0.90347967977E+02 0.  0.
          2    1    3    3  502    0  0.30230350128E+01  0.10025794515E+02 -0.31344547189E+02  0.33047480008E+02  0.00000000000E+00 0. -1.
         -1    1    3    3    0  502  0.31158852302E+02  0.15034118839E+03 -0.13369700407E+02  0.15411714990E+03  0.00000000000E+00 0.  1.
         13    1    5    5    0    0  0.33252441811E+03 -0.21609720987E+02  0.10891476122E+04  0.11389828751E+04  0.00000000000E+00 0.  1.
        -13    1    5    5    0    0  0.77310606027E+02 -0.63297590352E+01  0.14034387883E+03  0.16035398336E+03  0.00000000000E+00 0. -1.
          1    1    6    6  503    0 -0.13350284089E+03 -0.19714702153E+02  0.17740393152E+03  0.22289870552E+03  0.00000000000E+00 0. -1.
         -1    1    6    6    0  503 -0.31051407056E+03 -0.11271280073E+03  0.67490659491E+03  0.75141338510E+03  0.00000000000E+00 0.  1.
<mgrwt>
<rscale>  0 0.13805350E+04</rscale>
<asrwt>0</asrwt>
<pdfrwt beam="1">  1        2 0.34599240E+00 0.13805350E+04</pdfrwt>
<pdfrwt beam="2">  1       -1 0.32594294E-01 0.13805350E+04</pdfrwt>
<totfact> 0.47498445E+01</totfact>
</mgrwt>
</event>
<event>
12    7  0.1606355E-007  0.2294977E+04  0.7818608E-02  0.8479904E-01
         -1   -1    0    0    0  501 -0.00000000000E+00  0.00000000000E+00  0.67115063164E+03  0.67115063164E+03  0.00000000000E+00 0.  1.
          2   -1    0    0  501    0  0.00000000000E+00 -0.00000000000E+00 -0.19618996366E+04  0.19618996366E+04  0.00000000000E+00 0. -1.
         24    2    1    2    0    0 -0.27198779819E+01 -0.27111733791E+03 -0.16148830374E+04  0.16394222679E+04  0.79662659992E+02 0.  0.
        254    2    1    2    0    0  0.27198779819E+01  0.27111733791E+03  0.32413403240E+03  0.99362800037E+03  0.89928956600E+03 0.  0.
         23    2    4    4    0    0 -0.45180692612E+01  0.55139429146E+03  0.46287399688E+01  0.55900166292E+03  0.91680730311E+02 0.  0.
         23    2    4    4    0    0  0.72379472431E+01 -0.28027695355E+03  0.31950529243E+03  0.43462633745E+03  0.90602774478E+02 0.  0.
          2    1    3    3  502    0  0.15420809958E+02 -0.19755235385E+03 -0.13280100672E+04  0.13427119841E+04  0.00000000000E+00 0. -1.
         -1    1    3    3    0  502 -0.18140687940E+02 -0.73564984065E+02 -0.28687297023E+03  0.29671028376E+03  0.00000000000E+00 0.  1.
         13    1    5    5    0    0 -0.11370847735E+02  0.84027292663E+01 -0.71402208586E+01  0.15839343144E+02  0.00000000000E+00 0.  1.
        -13    1    5    5    0    0  0.68527784737E+01  0.54299156220E+03  0.11768960827E+02  0.54316231978E+03  0.00000000000E+00 0. -1.
          2    1    6    6  503    0  0.11947403693E+02 -0.28634051425E+03  0.31433246467E+03  0.42536869760E+03  0.00000000000E+00 0. -1.
         -2    1    6    6    0  503 -0.47094564500E+01  0.60635607025E+01  0.51728277573E+01  0.92576398425E+01  0.00000000000E+00 0.  1.
<mgrwt>
<rscale>  0 0.22949773E+04</rscale>
<asrwt>0</asrwt>
<pdfrwt beam="1">  1        2 0.30183071E+00 0.22949773E+04</pdfrwt>
<pdfrwt beam="2">  1       -1 0.10325394E+00 0.22949773E+04</pdfrwt>
<totfact> 0.64104384E+00</totfact>
</mgrwt>
</event>
<event>
12    7  0.1606355E-007  0.1158671E+04  0.7818608E-02  0.9149821E-01
         -1   -1    0    0    0  501 -0.00000000000E+00  0.00000000000E+00  0.25464796023E+03  0.25464796023E+03  0.00000000000E+00 0.  1.
          2   -1    0    0  501    0  0.00000000000E+00 -0.00000000000E+00 -0.13180152096E+04  0.13180152096E+04  0.00000000000E+00 0. -1.
         24    2    1    2    0    0 -0.96827945247E+02  0.15518028615E+03 -0.40132643725E+03  0.44807596232E+03  0.79073298782E+02 0.  0.
        254    2    1    2    0    0  0.96827945247E+02 -0.15518028615E+03 -0.66204081209E+03  0.11245872075E+04  0.89047278352E+03 0.  0.
         23    2    4    4    0    0  0.25709659217E+03 -0.12172661132E+03 -0.82436748835E+03  0.87680709900E+03  0.91065401820E+02 0.  0.
         23    2    4    4    0    0 -0.16026864693E+03 -0.33453674834E+02  0.16232667626E+03  0.24778010848E+03  0.90773590802E+02 0.  0.
          2    1    3    3  502    0 -0.83668752902E+02  0.16315565847E+03 -0.37811313143E+03  0.42022585507E+03  0.00000000000E+00 0. -1.
         -1    1    3    3    0  502 -0.13159192345E+02 -0.79753723248E+01 -0.23213305815E+02  0.27850107249E+02  0.00000000000E+00 0.  1.
         13    1    5    5    0    0  0.62356906794E+01 -0.25180571580E+02 -0.12276882886E+03  0.12547960138E+03  0.00000000000E+00 0.  1.
        -13    1    5    5    0    0  0.25086090149E+03 -0.96546039736E+02 -0.70159865949E+03  0.75132749762E+03  0.00000000000E+00 0. -1.
          1    1    6    6  503    0 -0.64837020159E+02  0.27722822337E+02  0.85569847867E+02  0.11088098541E+03  0.00000000000E+00 0. -1.
         -1    1    6    6    0  503 -0.95431626768E+02 -0.61176497170E+02  0.76756828391E+02  0.13689912307E+03  0.00000000000E+00 0.  1.
<mgrwt>
<rscale>  0 0.11586715E+04</rscale>
<asrwt>0</asrwt>
<pdfrwt beam="1">  1        2 0.20277157E+00 0.11586715E+04</pdfrwt>
<pdfrwt beam="2">  1       -1 0.39176609E-01 0.11586715E+04</pdfrwt>
<totfact> 0.11504237E+02</totfact>
</mgrwt>
</event>
<event>
12    7  0.1606355E-007  0.1076328E+04  0.7818608E-02  0.9228576E-01
          2   -1    0    0  501    0  0.00000000000E+00  0.00000000000E+00  0.28165783606E+04  0.28165783606E+04  0.00000000000E+00 0. -1.
         -1   -1    0    0    0  501 -0.00000000000E+00 -0.00000000000E+00 -0.10282710708E+03  0.10282710708E+03  0.00000000000E+00 0.  1.
         24    2    1    2    0    0  0.33398777112E+02 -0.78613446556E+02  0.76013185113E+03  0.76892357052E+03  0.78405828357E+02 0.  0.
        254    2    1    2    0    0 -0.33398777112E+02  0.78613446556E+02  0.19536194024E+04  0.21504818971E+04  0.89478939882E+03 0.  0.
         23    2    4    4    0    0  0.22867942362E+03 -0.31174859772E+03  0.64888830650E+03  0.76059110291E+03  0.89226254845E+02 0.  0.
         23    2    4    4    0    0 -0.26207820073E+03  0.39036204428E+03  0.13047310959E+04  0.13898907942E+04  0.91682486795E+02 0.  0.
          2    1    3    3  502    0  0.71658573111E+01  0.15234350554E+02  0.16625685430E+03  0.16710708109E+03  0.00000000000E+00 0. -1.
         -1    1    3    3    0  502  0.26232919801E+02 -0.93847797110E+02  0.59387499683E+03  0.60181648944E+03  0.00000000000E+00 0.  1.
         13    1    5    5    0    0  0.13858404573E+03 -0.14272651472E+03  0.26282144602E+03  0.32962328229E+03  0.00000000000E+00 0. -1.
        -13    1    5    5    0    0  0.90095377884E+02 -0.16902208300E+03  0.38606686048E+03  0.43096782063E+03  0.00000000000E+00 0.  1.
          2    1    6    6  503    0 -0.86619841641E+02  0.20495508316E+03  0.55763913627E+03  0.60039236285E+03  0.00000000000E+00 0.  1.
         -2    1    6    6    0  503 -0.17545835909E+03  0.18540696112E+03  0.74709195959E+03  0.78949843134E+03  0.00000000000E+00 0. -1.
<mgrwt>
<rscale>  0 0.10763282E+04</rscale>
<asrwt>0</asrwt>
<pdfrwt beam="1">  1        2 0.43331969E+00 0.10763282E+04</pdfrwt>
<pdfrwt beam="2">  1       -1 0.15819557E-01 0.10763282E+04</pdfrwt>
<totfact> 0.78409891E+01</totfact>
</mgrwt>
</event>
<event>
12    7  0.1606355E-007  0.2772225E+04  0.7818608E-02  0.8311943E-01
          2   -1    0    0  501    0  0.00000000000E+00  0.00000000000E+00  0.14931526936E+04  0.14931526936E+04  0.00000000000E+00 0. -1.
         -1   -1    0    0    0  501 -0.00000000000E+00 -0.00000000000E+00 -0.12867460964E+04  0.12867460964E+04  0.00000000000E+00 0.  1.
         24    2    1    2    0    0 -0.95341181083E+03  0.76287417378E+03  0.28658404047E+03  0.12569255305E+04  0.82220988214E+02 0.  0.
        254    2    1    2    0    0  0.95341181083E+03 -0.76287417378E+03 -0.80177443275E+02  0.15229732596E+04  0.90666865001E+03 0.  0.
         23    2    4    4    0    0  0.41231733419E+03 -0.21830671707E+03  0.39302086795E+03  0.61693587278E+03  0.92092679858E+02 0.  0.
         23    2    4    4    0    0  0.54109447664E+03 -0.54456745670E+03 -0.47319831122E+03  0.90603738679E+03  0.87465175730E+02 0.  0.
          4    1    3    3  502    0 -0.22549292181E+03  0.13771767227E+03  0.67509155310E+02  0.27270992115E+03  0.00000000000E+00 0. -1.
         -3    1    3    3    0  502 -0.72791888902E+03  0.62515650150E+03  0.21907488516E+03  0.98421560934E+03  0.00000000000E+00 0.  1.
         13    1    5    5    0    0  0.33129054026E+03 -0.21400802014E+03  0.32502381470E+03  0.51107077286E+03  0.00000000000E+00 0. -1.
        -13    1    5    5    0    0  0.81026793935E+02 -0.42986969349E+01  0.67997053252E+02  0.10586509992E+03  0.00000000000E+00 0.  1.
          1    1    6    6  503    0  0.46427663439E+03 -0.47917731659E+03 -0.44243725433E+03  0.80057130725E+03  0.00000000000E+00 0. -1.
         -1    1    6    6    0  503  0.76817842254E+02 -0.65390140114E+02 -0.30761056895E+02  0.10546607954E+03  0.00000000000E+00 0.  1.
<mgrwt>
<rscale>  0 0.27722254E+04</rscale>
<asrwt>0</asrwt>
<pdfrwt beam="1">  1        2 0.22971580E+00 0.27722254E+04</pdfrwt>
<pdfrwt beam="2">  1       -1 0.19796094E+00 0.27722254E+04</pdfrwt>
<totfact> 0.19777293E+00</totfact>
</mgrwt>
</event>
<event>
12    7  0.1606355E-007  0.1467555E+04  0.7818608E-02  0.8906320E-01
          2   -1    0    0  501    0  0.00000000000E+00  0.00000000000E+00  0.10818849092E+04  0.10818849092E+04  0.00000000000E+00 0. -1.
         -3   -1    0    0    0  501 -0.00000000000E+00 -0.00000000000E+00 -0.49767733506E+03  0.49767733506E+03  0.00000000000E+00 0.  1.
         24    2    1    2    0    0 -0.55542547419E+02  0.40356554539E+01 -0.30127378915E+03  0.31634405179E+03  0.78780720901E+02 0.  0.
        254    2    1    2    0    0  0.55542547419E+02 -0.40356554539E+01  0.88548136334E+03  0.12632181925E+04  0.89918946611E+03 0.  0.
         23    2    4    4    0    0 -0.22253371250E+03 -0.33527415077E+03  0.62808364636E+03  0.75154779579E+03  0.91678858841E+02 0.  0.
         23    2    4    4    0    0  0.27807625991E+03  0.33123849532E+03  0.25739771698E+03  0.51167039672E+03  0.92236993992E+02 0.  0.
          4    1    3    3  502    0  0.12895198434E+02 -0.20079928971E+02 -0.79032676924E+02  0.82556972521E+02  0.00000000000E+00 0. -1.
         -3    1    3    3    0  502 -0.68437745853E+02  0.24115584425E+02 -0.22224111223E+03  0.23378707927E+03  0.00000000000E+00 0.  1.
         13    1    5    5    0    0 -0.30488372886E+02 -0.11302875236E+03  0.21299349758E+03  0.24304581822E+03  0.00000000000E+00 0. -1.
        -13    1    5    5    0    0 -0.19204533961E+03 -0.22224539841E+03  0.41509014878E+03  0.50850197757E+03  0.00000000000E+00 0.  1.
          4    1    6    6  503    0  0.50764092771E+02  0.71166869689E+02  0.12623584120E+02  0.88323673680E+02  0.00000000000E+00 0. -1.
         -4    1    6    6    0  503  0.22731216714E+03  0.26007162563E+03  0.24477413286E+03  0.42334672304E+03  0.00000000000E+00 0.  1.
<mgrwt>
<rscale>  0 0.14675552E+04</rscale>
<asrwt>0</asrwt>
<pdfrwt beam="1">  1        2 0.16644383E+00 0.14675552E+04</pdfrwt>
<pdfrwt beam="2">  1       -3 0.76565744E-01 0.14675552E+04</pdfrwt>
<totfact> 0.22070388E+01</totfact>
</mgrwt>
</event>
<event>
12    7  0.1606355E-007  0.1557824E+04  0.7818608E-02  0.8846886E-01
         -1   -1    0    0    0  501 -0.00000000000E+00  0.00000000000E+00  0.16913770664E+04  0.16913770664E+04  0.00000000000E+00 0.  1.
          2   -1    0    0  501    0  0.00000000000E+00 -0.00000000000E+00 -0.35870418990E+03  0.35870418990E+03  0.00000000000E+00 0. -1.
         24    2    1    2    0    0 -0.30400732735E+03  0.76521356238E+01  0.96889644084E+03  0.10182388271E+04  0.74639036435E+02 0.  0.
        254    2    1    2    0    0  0.30400732735E+03 -0.76521356238E+01  0.36377643564E+03  0.10318424291E+04  0.91645321387E+03 0.  0.
         23    2    4    4    0    0  0.43596073096E+03 -0.36266632926E+03  0.24577908468E+03  0.62499134581E+03  0.92834253143E+02 0.  0.
         23    2    4    4    0    0 -0.13195340362E+03  0.35501419363E+03  0.11799735097E+03  0.40685108334E+03  0.90319714183E+02 0.  0.
          2    1    3    3  502    0  0.21396683921E+01  0.66372166312E+01  0.22611563519E+02  0.23662494167E+02  0.00000000000E+00 0. -1.
         -1    1    3    3    0  502 -0.30614699574E+03  0.10149189927E+01  0.94628487732E+03  0.99457633297E+03  0.00000000000E+00 0.  1.
         13    1    5    5    0    0  0.29906738127E+03 -0.30063792815E+03  0.17270386910E+03  0.45787671789E+03  0.00000000000E+00 0.  1.
        -13    1    5    5    0    0  0.13689334969E+03 -0.62028401104E+02  0.73075215573E+02  0.16711462792E+03  0.00000000000E+00 0. -1.
          1    1    6    6  503    0 -0.19096183040E+02  0.29959308000E+01  0.21079234305E+01  0.19444360345E+02  0.00000000000E+00 0. -1.
         -1    1    6    6    0  503 -0.11285722058E+03  0.35201826283E+03  0.11588942753E+03  0.38740672299E+03  0.00000000000E+00 0.  1.
<mgrwt>
<rscale>  0 0.15578242E+04</rscale>
<asrwt>0</asrwt>
<pdfrwt beam="1">  1        2 0.55185261E-01 0.15578242E+04</pdfrwt>
<pdfrwt beam="2">  1       -1 0.26021185E+00 0.15578242E+04</pdfrwt>
<totfact> 0.59235106E+00</totfact>
</mgrwt>
</event>
<event>
12    7  0.1606355E-007  0.2179977E+04  0.7818608E-02  0.8526808E-01
         -1   -1    0    0    0  501 -0.00000000000E+00  0.00000000000E+00  0.73773424588E+03  0.73773424588E+03  0.00000000000E+00 0.  1.
          2   -1    0    0  501    0  0.00000000000E+00 -0.00000000000E+00 -0.16104382650E+04  0.16104382650E+04  0.00000000000E+00 0. -1.
         24    2    1    2    0    0 -0.87661507554E+03 -0.13065629833E+03 -0.52742702888E+03  0.10343290749E+04  0.78309038166E+02 0.  0.
        254    2    1    2    0    0  0.87661507554E+03  0.13065629833E+03 -0.34527699025E+03  0.13138434360E+04  0.90633510100E+03 0.  0.
         23    2    4    4    0    0  0.16854056807E+03 -0.35514105873E+03 -0.13917361923E+03  0.42607741635E+03  0.87416095493E+02 0.  0.
         23    2    4    4    0    0  0.70807450748E+03  0.48579735706E+03 -0.20610337102E+03  0.88776601963E+03  0.91001790079E+02 0.  0.
          2    1    3    3  502    0 -0.39833023260E+03 -0.75205253246E+02 -0.28275950460E+03  0.49424259404E+03  0.00000000000E+00 0. -1.
         -1    1    3    3    0  502 -0.47828484294E+03 -0.55451045083E+02 -0.24466752429E+03  0.54008648088E+03  0.00000000000E+00 0.  1.
         13    1    5    5    0    0  0.39298996282E+01  0.27235317720E+01  0.47116412063E+01  0.67127713545E+01  0.00000000000E+00 0.  1.
        -13    1    5    5    0    0  0.16461066844E+03 -0.35786459050E+03 -0.14388526044E+03  0.41936464499E+03  0.00000000000E+00 0. -1.
          4    1    6    6  503    0  0.60594741268E+03  0.43153908024E+03 -0.14856499922E+03  0.75859726054E+03  0.00000000000E+00 0. -1.
         -4    1    6    6    0  503  0.10212709480E+03  0.54258276823E+02 -0.57538371798E+02  0.12916875909E+03  0.00000000000E+00 0.  1.
<mgrwt>
<rscale>  0 0.21799775E+04</rscale>
<asrwt>0</asrwt>
<pdfrwt beam="1">  1        2 0.24775973E+00 0.21799775E+04</pdfrwt>
<pdfrwt beam="2">  1       -1 0.11349758E+00 0.21799775E+04</pdfrwt>
<totfact> 0.81278162E+00</totfact>
</mgrwt>
</event>
<event>
12    7  0.1606355E-007  0.2561648E+04  0.7818608E-02  0.8381346E-01
          2   -1    0    0  501    0  0.00000000000E+00  0.00000000000E+00  0.26078187656E+04  0.26078187656E+04  0.00000000000E+00 0. -1.
         -1   -1    0    0    0  501 -0.00000000000E+00 -0.00000000000E+00 -0.62907361826E+03  0.62907361826E+03  0.00000000000E+00 0.  1.
         24    2    1    2    0    0 -0.47215729977E+03 -0.47554769331E+03 -0.26132619332E+03  0.72384075023E+03  0.81092096032E+02 0.  0.
        254    2    1    2    0    0  0.47215729977E+03  0.47554769331E+03  0.22400713407E+04  0.25130516336E+04  0.92110302230E+03 0.  0.
         23    2    4    4    0    0  0.53637043996E+03  0.61476020732E+03  0.21719317588E+04  0.23221528707E+04  0.97380843457E+02 0.  0.
         23    2    4    4    0    0 -0.64213140194E+02 -0.13921251400E+03  0.68139581848E+02  0.19089876291E+03  0.91081741515E+02 0.  0.
          4    1    3    3  502    0  0.88753220865E+00  0.71582867438E+00 -0.52762335861E+01  0.53980334352E+01  0.00000000000E+00 0. -1.
         -3    1    3    3    0  502 -0.47304483198E+03 -0.47626352199E+03 -0.25604995974E+03  0.71844271680E+03  0.00000000000E+00 0.  1.
         13    1    5    5    0    0  0.94627398233E+02  0.62575225698E+02  0.26147166854E+03  0.28502181815E+03  0.00000000000E+00 0. -1.
        -13    1    5    5    0    0  0.44174304173E+03  0.55218498162E+03  0.19104600903E+04  0.20371310526E+04  0.00000000000E+00 0.  1.
          3    1    6    6  503    0 -0.24728858283E+02 -0.42598120588E+01 -0.13307125879E+02  0.28403204571E+02  0.00000000000E+00 0. -1.
         -3    1    6    6    0  503 -0.39484281911E+02 -0.13495270194E+03  0.81446707728E+02  0.16249555834E+03  0.00000000000E+00 0.  1.
<mgrwt>
<rscale>  0 0.25616479E+04</rscale>
<asrwt>0</asrwt>
<pdfrwt beam="1">  1        2 0.40120288E+00 0.25616479E+04</pdfrwt>
<pdfrwt beam="2">  1       -1 0.96780558E-01 0.25616479E+04</pdfrwt>
<totfact> 0.31194779E+00</totfact>
</mgrwt>
</event>
<event>
12    7  0.1606355E-007  0.1589743E+04  0.7818608E-02  0.8826874E-01
         -3   -1    0    0    0  501 -0.00000000000E+00  0.00000000000E+00  0.15685384657E+03  0.15685384657E+03  0.00000000000E+00 0.  1.
          2   -1    0    0  501    0  0.00000000000E+00 -0.00000000000E+00 -0.40280879744E+04  0.40280879744E+04  0.00000000000E+00 0. -1.
         24    2    1    2    0    0  0.11028619501E+03  0.29500671126E+02  0.52190901067E+02  0.14848725302E+03  0.79317335737E+02 0.  0.
        254    2    1    2    0    0 -0.11028619501E+03 -0.29500671126E+02 -0.39234250289E+04  0.40364545679E+04  0.94163060024E+03 0.  0.
         23    2    4    4    0    0 -0.16086235586E+03 -0.70325512781E+02 -0.39197226516E+04  0.39247415877E+04  0.92458042980E+02 0.  0.
         23    2    4    4    0    0  0.50576160846E+02  0.40824841655E+02 -0.37023773250E+01  0.11171298024E+03  0.90782523731E+02 0.  0.
          2    1    3    3  502    0  0.19301892759E+02  0.38818694002E+02  0.34330377498E+02  0.55299447441E+02  0.00000000000E+00 0. -1.
         -1    1    3    3    0  502  0.90984302251E+02 -0.93180228757E+01  0.17860523569E+02  0.93187805579E+02  0.00000000000E+00 0.  1.
         13    1    5    5    0    0 -0.15745163373E+03 -0.32916278133E+02 -0.31727254027E+04  0.31768004311E+04  0.00000000000E+00 0.  1.
        -13    1    5    5    0    0 -0.34107221253E+01 -0.37409234648E+02 -0.74699724885E+03  0.74794115654E+03  0.00000000000E+00 0. -1.
          4    1    6    6  503    0  0.16989578419E+02 -0.57686174813E+00 -0.42502889421E+02  0.45776349281E+02  0.00000000000E+00 0. -1.
         -4    1    6    6    0  503  0.33586582427E+02  0.41401703403E+02  0.38800512096E+02  0.65936630963E+02  0.00000000000E+00 0.  1.
<mgrwt>
<rscale>  0 0.15897435E+04</rscale>
<asrwt>0</asrwt>
<pdfrwt beam="1">  1        2 0.61970577E+00 0.15897435E+04</pdfrwt>
<pdfrwt beam="2">  1       -3 0.24131364E-01 0.15897435E+04</pdfrwt>
<totfact> 0.33902986E+00</totfact>
</mgrwt>
</event>
<event>
12    7  0.1606355E-007  0.2289763E+04  0.7818608E-02  0.8481968E-01
         -1   -1    0    0    0  501 -0.00000000000E+00  0.00000000000E+00  0.53784710603E+03  0.53784710603E+03  0.00000000000E+00 0.  1.
          2   -1    0    0  501    0  0.00000000000E+00 -0.00000000000E+00 -0.24370382072E+04  0.24370382072E+04  0.00000000000E+00 0. -1.
         24    2    1    2    0    0 -0.17427825352E+03  0.86435477844E+03 -0.13115428247E+04  0.15822908945E+04  0.77574489359E+02 0.  0.
        254    2    1    2    0    0  0.17427825352E+03 -0.86435477844E+03 -0.58764827650E+03  0.13925944187E+04  0.90360756160E+03 0.  0.
         23    2    4    4    0    0  0.44996960504E+03 -0.39046500691E+03 -0.58065884823E+03  0.83684299626E+03  0.90586617582E+02 0.  0.
         23    2    4    4    0    0 -0.27569135152E+03 -0.47388977153E+03 -0.69894282756E+01  0.55575142241E+03  0.90738936169E+02 0.  0.
          4    1    3    3  502    0 -0.69961027032E+02  0.34427550366E+03 -0.59146983278E+03  0.68793657470E+03  0.00000000000E+00 0. -1.
         -3    1    3    3    0  502 -0.10431722649E+03  0.52007927478E+03 -0.72007299188E+03  0.89435431984E+03  0.00000000000E+00 0.  1.
         13    1    5    5    0    0  0.52332838178E+02 -0.12792724297E+02 -0.60118416941E+02  0.80725484218E+02  0.00000000000E+00 0. -1.
        -13    1    5    5    0    0  0.39763676687E+03 -0.37767228261E+03 -0.52054043129E+03  0.75611751204E+03  0.00000000000E+00 0.  1.
          4    1    6    6  503    0 -0.21985169881E+03 -0.30547524418E+03  0.16769402665E+02  0.37673745121E+03  0.00000000000E+00 0.  1.
         -4    1    6    6    0  503 -0.55839652710E+02 -0.16841452735E+03 -0.23758830941E+02  0.17901397120E+03  0.00000000000E+00 0. -1.
<mgrwt>
<rscale>  0 0.22897633E+04</rscale>
<asrwt>0</asrwt>
<pdfrwt beam="1">  1        2 0.37492895E+00 0.22897633E+04</pdfrwt>
<pdfrwt beam="2">  1       -1 0.82745709E-01 0.22897633E+04</pdfrwt>
<totfact> 0.56704745E+00</totfact>
</mgrwt>
</event>
<event>
12    7  0.1606355E-007  0.1572118E+04  0.7818608E-02  0.8837862E-01
         -3   -1    0    0    0  501 -0.00000000000E+00  0.00000000000E+00  0.18962976679E+03  0.18962976679E+03  0.00000000000E+00 0.  1.
          4   -1    0    0  501    0  0.00000000000E+00 -0.00000000000E+00 -0.32583962841E+04  0.32583962841E+04  0.00000000000E+00 0. -1.
         24    2    1    2    0    0 -0.48986786021E+03  0.10564410992E+03 -0.14283057053E+04  0.15157792799E+04  0.79990245438E+02 0.  0.
        254    2    1    2    0    0  0.48986786021E+03 -0.10564410992E+03 -0.16404608121E+04  0.19322467710E+04  0.88956995767E+03 0.  0.
         23    2    4    4    0    0  0.43304673703E+03  0.26791557429E+03 -0.47058414792E+03  0.69943076120E+03  0.91900587813E+02 0.  0.
         23    2    4    4    0    0  0.56821123187E+02 -0.37355968421E+03 -0.11698766642E+04  0.12328160098E+04  0.91915324793E+02 0.  0.
          4    1    3    3  502    0 -0.33680591154E+03  0.64459717876E+02 -0.10792729892E+04  0.11324413726E+04  0.00000000000E+00 0. -1.
         -3    1    3    3    0  502 -0.15306194867E+03  0.41184392040E+02 -0.34903271609E+03  0.38333790731E+03  0.00000000000E+00 0.  1.
         13    1    5    5    0    0  0.29985287244E+02  0.15761307046E+02 -0.69871687673E+02  0.77650428133E+02  0.00000000000E+00 0.  1.
        -13    1    5    5    0    0  0.40306144978E+03  0.25215426725E+03 -0.40071246025E+03  0.62178033307E+03  0.00000000000E+00 0. -1.
          2    1    6    6  503    0  0.59237771554E+02 -0.15698537925E+03 -0.41965096210E+03  0.45195182583E+03  0.00000000000E+00 0. -1.
         -2    1    6    6    0  503 -0.24166483666E+01 -0.21657430495E+03 -0.75022570206E+03  0.78086418396E+03  0.00000000000E+00 0.  1.
<mgrwt>
<rscale>  0 0.15721182E+04</rscale>
<asrwt>0</asrwt>
<pdfrwt beam="1">  1        4 0.50129170E+00 0.15721182E+04</pdfrwt>
<pdfrwt beam="2">  1       -3 0.29173812E-01 0.15721182E+04</pdfrwt>
<totfact> 0.30248868E-02</totfact>
</mgrwt>
</event>
<event>
12    7  0.1606355E-007  0.2491289E+04  0.7818608E-02  0.8406095E-01
          2   -1    0    0  501    0  0.00000000000E+00  0.00000000000E+00  0.20657076126E+04  0.20657076126E+04  0.00000000000E+00 0. -1.
         -1   -1    0    0    0  501 -0.00000000000E+00 -0.00000000000E+00 -0.75113760607E+03  0.75113760607E+03  0.00000000000E+00 0.  1.
         24    2    1    2    0    0 -0.58852976117E+03 -0.33131373190E+03  0.15153707908E+04  0.16609903473E+04  0.80026443055E+02 0.  0.
        254    2    1    2    0    0  0.58852976117E+03  0.33131373190E+03 -0.20080078426E+03  0.11558548714E+04  0.91626604213E+03 0.  0.
         23    2    4    4    0    0  0.33125283595E+03 -0.20547419975E+03  0.18442040994E+03  0.44110572467E+03  0.92818557656E+02 0.  0.
         23    2    4    4    0    0  0.25727692522E+03  0.53678793165E+03 -0.38522119420E+03  0.71474914669E+03  0.90212385056E+02 0.  0.
          2    1    3    3  502    0 -0.49806225850E+03 -0.28715146090E+03  0.13510390803E+04  0.14682740110E+04  0.00000000000E+00 0. -1.
         -3    1    3    3    0  502 -0.90467502671E+02 -0.44162271001E+02  0.16433171054E+03  0.19271633638E+03  0.00000000000E+00 0.  1.
         13    1    5    5    0    0  0.19964650054E+03 -0.11642902037E+03  0.58614502031E+02  0.23843259385E+03  0.00000000000E+00 0.  1.
        -13    1    5    5    0    0  0.13160633541E+03 -0.89045179382E+02  0.12580590791E+03  0.20267313082E+03  0.00000000000E+00 0. -1.
          2    1    6    6  503    0  0.76988882315E+02  0.83794990855E+02 -0.59566167863E+02  0.12844071335E+03  0.00000000000E+00 0. -1.
         -2    1    6    6    0  503  0.18028804290E+03  0.45299294080E+03 -0.32565502633E+03  0.58630843334E+03  0.00000000000E+00 0.  1.
<mgrwt>
<rscale>  0 0.24912894E+04</rscale>
<asrwt>0</asrwt>
<pdfrwt beam="1">  1        2 0.31780117E+00 0.24912894E+04</pdfrwt>
<pdfrwt beam="2">  1       -1 0.11555963E+00 0.24912894E+04</pdfrwt>
<totfact> 0.42304302E+00</totfact>
</mgrwt>
</event>
<event>
12    7  0.1606355E-007  0.1593467E+04  0.7818608E-02  0.8824571E-01
          2   -1    0    0  501    0  0.00000000000E+00  0.00000000000E+00  0.10030744122E+04  0.10030744122E+04  0.00000000000E+00 0. -1.
         -1   -1    0    0    0  501 -0.00000000000E+00 -0.00000000000E+00 -0.63283882036E+03  0.63283882036E+03  0.00000000000E+00 0.  1.
         24    2    1    2    0    0 -0.71588182520E+02  0.48861942428E+03 -0.73596958557E+02  0.50539564508E+03  0.78322641022E+02 0.  0.
        254    2    1    2    0    0  0.71588182520E+02 -0.48861942428E+03  0.44383255038E+03  0.11305175875E+04  0.91499118747E+03 0.  0.
         23    2    4    4    0    0  0.37428980233E+02 -0.42279641736E+03 -0.19862355469E+03  0.47740594705E+03  0.91144844659E+02 0.  0.
         23    2    4    4    0    0  0.34159202287E+02 -0.65823006913E+02  0.64245610507E+03  0.65311164042E+03  0.91134233772E+02 0.  0.
          4    1    3    3  502    0 -0.18661586974E+02  0.73844907285E+02 -0.39685247341E+02  0.85885062827E+02  0.00000000000E+00 0. -1.
         -1    1    3    3    0  502 -0.52926595546E+02  0.41477451699E+03 -0.33911711216E+02  0.41951058225E+03  0.00000000000E+00 0.  1.
         13    1    5    5    0    0  0.12152153492E+02 -0.20363484045E+03 -0.45929892978E+02  0.20910374972E+03  0.00000000000E+00 0. -1.
        -13    1    5    5    0    0  0.25276826741E+02 -0.21916157692E+03 -0.15269366171E+03  0.26830219733E+03  0.00000000000E+00 0.  1.
          2    1    6    6  503    0  0.45002487216E+02 -0.14653990944E+02  0.13676329460E+03  0.14472098001E+03  0.00000000000E+00 0. -1.
         -2    1    6    6    0  503 -0.10843284929E+02 -0.51169015969E+02  0.50569281047E+03  0.50839066040E+03  0.00000000000E+00 0.  1.
<mgrwt>
<rscale>  0 0.15934672E+04</rscale>
<asrwt>0</asrwt>
<pdfrwt beam="1">  1        2 0.15431914E+00 0.15934672E+04</pdfrwt>
<pdfrwt beam="2">  1       -1 0.97359818E-01 0.15934672E+04</pdfrwt>
<totfact> 0.27810225E+01</totfact>
</mgrwt>
</event>
<event>
12    7  0.1606355E-007  0.1256557E+04  0.7818608E-02  0.9064744E-01
          2   -1    0    0  501    0  0.00000000000E+00  0.00000000000E+00  0.14593041644E+04  0.14593041644E+04  0.00000000000E+00 0. -1.
         -1   -1    0    0    0  501 -0.00000000000E+00 -0.00000000000E+00 -0.27049448338E+03  0.27049448338E+03  0.00000000000E+00 0.  1.
         24    2    1    2    0    0  0.21721259914E+03 -0.58221633332E+02  0.21967508901E+02  0.23970813728E+03  0.80039664043E+02 0.  0.
        254    2    1    2    0    0 -0.21721259914E+03  0.58221633332E+02  0.11668421721E+04  0.14900905105E+04  0.89904282602E+03 0.  0.
         23    2    4    4    0    0 -0.20219517029E+03  0.63135269212E+02 -0.76137158996E+02  0.24322096076E+03  0.92144558527E+02 0.  0.
         23    2    4    4    0    0 -0.15017428843E+02 -0.49136358799E+01  0.12429793311E+04  0.12468695497E+04  0.97141080340E+02 0.  0.
          4    1    3    3  502    0  0.87717755785E+01 -0.79836722458E+01 -0.18047931713E+02  0.21596548531E+02  0.00000000000E+00 0. -1.
         -3    1    3    3    0  502  0.20844082356E+03 -0.50237961086E+02  0.40015440615E+02  0.21811158875E+03  0.00000000000E+00 0.  1.
         13    1    5    5    0    0 -0.24557076353E+02  0.39040266917E+01 -0.47739478460E+02  0.53827030636E+02  0.00000000000E+00 0.  1.
        -13    1    5    5    0    0 -0.17763809394E+03  0.59231242520E+02 -0.28397680536E+02  0.18939393013E+03  0.00000000000E+00 0. -1.
          4    1    6    6  503    0  0.13476009845E+01 -0.23158328946E+02  0.11627220874E+04  0.11629534714E+04  0.00000000000E+00 0. -1.
         -4    1    6    6    0  503 -0.16365029827E+02  0.18244693066E+02  0.80257243747E+02  0.83916078317E+02  0.00000000000E+00 0.  1.
<mgrwt>
<rscale>  0 0.12565568E+04</rscale>
<asrwt>0</asrwt>
<pdfrwt beam="1">  1        2 0.22450833E+00 0.12565568E+04</pdfrwt>
<pdfrwt beam="2">  1       -1 0.41614537E-01 0.12565568E+04</pdfrwt>
<totfact> 0.84889552E+01</totfact>
</mgrwt>
</event>
<event>
12    7  0.1606355E-007  0.1881216E+04  0.7818608E-02  0.8664263E-01
          2   -1    0    0  501    0  0.00000000000E+00  0.00000000000E+00  0.14368260463E+04  0.14368260463E+04  0.00000000000E+00 0. -1.
         -1   -1    0    0    0  501 -0.00000000000E+00 -0.00000000000E+00 -0.61576237122E+03  0.61576237122E+03  0.00000000000E+00 0.  1.
         24    2    1    2    0    0  0.43462921223E+03 -0.15372382794E+03 -0.28779581918E+03  0.54906512056E+03  0.78182515198E+02 0.  0.
        254    2    1    2    0    0 -0.43462921223E+03  0.15372382794E+03  0.11088594943E+04  0.15035232970E+04  0.90469849072E+03 0.  0.
         23    2    4    4    0    0 -0.24229222287E+03  0.26189104512E+03 -0.11068861755E+01  0.36812434870E+03  0.90674528578E+02 0.  0.
         23    2    4    4    0    0 -0.19233698936E+03 -0.10816721718E+03  0.11099663805E+04  0.11353989483E+04  0.91715547512E+02 0.  0.
          4    1    3    3  502    0  0.24472672395E+03 -0.45750533151E+02 -0.16083957199E+03  0.29640116163E+03  0.00000000000E+00 0. -1.
         -3    1    3    3    0  502  0.18990248828E+03 -0.10797329479E+03 -0.12695624718E+03  0.25266395893E+03  0.00000000000E+00 0.  1.
         13    1    5    5    0    0 -0.72307017861E+02  0.34078141473E+02 -0.22605872896E+02  0.83070151364E+02  0.00000000000E+00 0. -1.
        -13    1    5    5    0    0 -0.16998520501E+03  0.22781290365E+03  0.21498986720E+02  0.28505419734E+03  0.00000000000E+00 0.  1.
          3    1    6    6  503    0 -0.10612182239E+03 -0.32641417242E+02  0.73398701148E+03  0.74233700994E+03  0.00000000000E+00 0. -1.
         -3    1    6    6    0  503 -0.86215166976E+02 -0.75525799938E+02  0.37597936898E+03  0.39306193834E+03  0.00000000000E+00 0.  1.
<mgrwt>
<rscale>  0 0.18812160E+04</rscale>
<asrwt>0</asrwt>
<pdfrwt beam="1">  1        2 0.22105016E+00 0.18812160E+04</pdfrwt>
<pdfrwt beam="2">  1       -1 0.94732673E-01 0.18812160E+04</pdfrwt>
<totfact> 0.15879416E+01</totfact>
</mgrwt>
</event>
<event>
12    7  0.1606355E-007  0.1470693E+04  0.7818608E-02  0.8904179E-01
         -1   -1    0    0    0  501 -0.00000000000E+00  0.00000000000E+00  0.19711154755E+03  0.19711154755E+03  0.00000000000E+00 0.  1.
          2   -1    0    0  501    0  0.00000000000E+00 -0.00000000000E+00 -0.27432910537E+04  0.27432910537E+04  0.00000000000E+00 0. -1.
         24    2    1    2    0    0 -0.18301944638E+03  0.41972297147E+03 -0.95204177914E+03  0.10595073971E+04  0.80677659617E+02 0.  0.
        254    2    1    2    0    0  0.18301944638E+03 -0.41972297147E+03 -0.15941377270E+04  0.18808952041E+04  0.88703336223E+03 0.  0.
         23    2    4    4    0    0  0.50900135017E+03 -0.88170240028E+02 -0.86142585535E+03  0.10086121726E+04  0.91584085367E+02 0.  0.
         23    2    4    4    0    0 -0.32598190379E+03 -0.33155273144E+03 -0.73271187164E+03  0.87228303154E+03  0.88428417078E+02 0.  0.
          2    1    3    3  502    0 -0.17482106734E+03  0.42159222964E+03 -0.93116559434E+03  0.10370013393E+04  0.00000000000E+00 0. -1.
         -1    1    3    3    0  502 -0.81983790481E+01 -0.18692581697E+01 -0.20876184794E+02  0.22506057778E+02  0.00000000000E+00 0.  1.
         13    1    5    5    0    0  0.34523202203E+03 -0.88298357072E+02 -0.52598652205E+03  0.63532949741E+03  0.00000000000E+00 0.  1.
        -13    1    5    5    0    0  0.16376932814E+03  0.12811704418E+00 -0.33543933330E+03  0.37328267516E+03  0.00000000000E+00 0. -1.
          4    1    6    6  503    0 -0.13265537303E+03 -0.11904597598E+03 -0.20674426474E+03  0.27296993130E+03  0.00000000000E+00 0. -1.
         -4    1    6    6    0  503 -0.19332653076E+03 -0.21250675546E+03 -0.52596760690E+03  0.59931310024E+03  0.00000000000E+00 0.  1.
<mgrwt>
<rscale>  0 0.14706928E+04</rscale>
<asrwt>0</asrwt>
<pdfrwt beam="1">  1        2 0.42204475E+00 0.14706928E+04</pdfrwt>
<pdfrwt beam="2">  1       -1 0.30324856E-01 0.14706928E+04</pdfrwt>
<totfact> 0.27762866E+01</totfact>
</mgrwt>
</event>
<event>
12    7  0.1606355E-007  0.1427977E+04  0.7818608E-02  0.8933813E-01
          2   -1    0    0  501    0  0.00000000000E+00  0.00000000000E+00  0.18592081250E+04  0.18592081250E+04  0.00000000000E+00 0. -1.
         -1   -1    0    0    0  501 -0.00000000000E+00 -0.00000000000E+00 -0.27419179157E+03  0.27419179157E+03  0.00000000000E+00 0.  1.
         24    2    1    2    0    0 -0.16305922083E+03 -0.21627941392E+03  0.97647802421E+03  0.10167810201E+04  0.83481834735E+02 0.  0.
        254    2    1    2    0    0  0.16305922083E+03  0.21627941392E+03  0.60853830921E+03  0.11166188964E+04  0.89618848001E+03 0.  0.
         23    2    4    4    0    0  0.35200671906E+03  0.33821769318E+03  0.69921602637E+03  0.85773834484E+03  0.92260925865E+02 0.  0.
         23    2    4    4    0    0 -0.18894749823E+03 -0.12193827925E+03 -0.90677717154E+02  0.25888055159E+03  0.90700554405E+02 0.  0.
          4    1    3    3  502    0 -0.30572859675E+02 -0.10756789043E+03  0.40556870087E+03  0.42070360341E+03  0.00000000000E+00 0. -1.
         -3    1    3    3    0  502 -0.13248636116E+03 -0.10871152349E+03  0.57090932335E+03  0.59607741671E+03  0.00000000000E+00 0.  1.
         13    1    5    5    0    0  0.30758262239E+03  0.25639988586E+03  0.60304089486E+03  0.72388278881E+03  0.00000000000E+00 0. -1.
        -13    1    5    5    0    0  0.44424096675E+02  0.81817807321E+02  0.96175131501E+02  0.13385555603E+03  0.00000000000E+00 0.  1.
          4    1    6    6  503    0 -0.11451183072E+03 -0.12239302469E+03 -0.69871968110E+02  0.18159048377E+03  0.00000000000E+00 0. -1.
         -4    1    6    6    0  503 -0.74435667512E+02  0.45474543358E+00 -0.20805749043E+02  0.77290067827E+02  0.00000000000E+00 0.  1.
<mgrwt>
<rscale>  0 0.14279770E+04</rscale>
<asrwt>0</asrwt>
<pdfrwt beam="1">  1        2 0.28603201E+00 0.14279770E+04</pdfrwt>
<pdfrwt beam="2">  1       -1 0.42183354E-01 0.14279770E+04</pdfrwt>
<totfact> 0.48898785E+01</totfact>
</mgrwt>
</event>
<event>
12    7  0.2049818E-007  0.1988413E+04  0.7818608E-02  0.8612057E-01
          2   -1    0    0  501    0  0.00000000000E+00  0.00000000000E+00  0.93627121018E+03  0.93627121018E+03  0.00000000000E+00 0. -1.
         -1   -1    0    0    0  501 -0.00000000000E+00 -0.00000000000E+00 -0.10557266913E+04  0.10557266913E+04  0.00000000000E+00 0.  1.
         24    2    1    2    0    0 -0.41222376368E+03  0.71273418940E+02 -0.72224412279E+03  0.83847315671E+03  0.79952048295E+02 0.  0.
        254    2    1    2    0    0  0.41222376368E+03 -0.71273418940E+02  0.60278864166E+03  0.11535247448E+04  0.89008811849E+03 0.  0.
         23    2    4    4    0    0  0.35699044294E+03  0.10077497087E+03  0.79028569479E+03  0.87732439182E+03  0.86884049109E+02 0.  0.
         23    2    4    4    0    0  0.55233320748E+02 -0.17204838981E+03 -0.18749705313E+03  0.27620035295E+03  0.92087577222E+02 0.  0.
          2    1    3    3  502    0 -0.27533386912E+01 -0.44189023560E+01 -0.31468049919E+02  0.31895857688E+02  0.00000000000E+00 0. -1.
         -1    1    3    3    0  502 -0.40947042499E+03  0.75692321296E+02 -0.69077607287E+03  0.80657729902E+03  0.00000000000E+00 0.  1.
         13    1    5    5    0    0  0.56981659314E+02  0.39805028119E+02  0.21046216854E+03  0.22164312339E+03  0.00000000000E+00 0.  1.
        -13    1    5    5    0    0  0.30000878362E+03  0.60969942751E+02  0.57982352626E+03  0.65568126843E+03  0.00000000000E+00 0. -1.
          4    1    6    6  503    0  0.75037233241E+02 -0.16338342570E+03 -0.17650361158E+03  0.25194891360E+03  0.00000000000E+00 0. -1.
         -4    1    6    6    0  503 -0.19803912493E+02 -0.86649641085E+01 -0.10993441552E+02  0.24251439343E+02  0.00000000000E+00 0.  1.
<mgrwt>
<rscale>  0 0.19884129E+04</rscale>
<asrwt>0</asrwt>
<pdfrwt beam="1">  1        2 0.14404173E+00 0.19884129E+04</pdfrwt>
<pdfrwt beam="2">  1       -1 0.16241949E+00 0.19884129E+04</pdfrwt>
<totfact> 0.82416816E+00</totfact>
</mgrwt>
</event>
<event>
12    7  0.1606355E-007  0.1928345E+04  0.7818608E-02  0.8640875E-01
         -1   -1    0    0    0  501 -0.00000000000E+00  0.00000000000E+00  0.82255282918E+03  0.82255282918E+03  0.00000000000E+00 0.  1.
          2   -1    0    0  501    0  0.00000000000E+00 -0.00000000000E+00 -0.11301748444E+04  0.11301748444E+04  0.00000000000E+00 0. -1.
         24    2    1    2    0    0 -0.60385256703E+03  0.19411462651E+03  0.28113846305E+03  0.69829910741E+03  0.79147944216E+02 0.  0.
        254    2    1    2    0    0  0.60385256703E+03 -0.19411462651E+03 -0.58876047826E+03  0.12544285662E+04  0.90809345109E+03 0.  0.
         23    2    4    4    0    0  0.62036164541E+02  0.28666227842E+03  0.14281864336E+02  0.30736930240E+03  0.90819429804E+02 0.  0.
         23    2    4    4    0    0  0.54181640249E+03 -0.48077690493E+03 -0.60304234260E+03  0.94705926376E+03  0.92464781390E+02 0.  0.
          4    1    3    3  502    0 -0.22200847359E+03  0.62620757665E+02  0.14337187577E+03  0.27159642192E+03  0.00000000000E+00 0. -1.
         -3    1    3    3    0  502 -0.38184409343E+03  0.13149386885E+03  0.13776658728E+03  0.42670268549E+03  0.00000000000E+00 0.  1.
         13    1    5    5    0    0 -0.10178987317E+02  0.69175043473E+02  0.33248587789E+02  0.77422651803E+02  0.00000000000E+00 0. -1.
        -13    1    5    5    0    0  0.72215151857E+02  0.21748723494E+03 -0.18966723453E+02  0.22994665059E+03  0.00000000000E+00 0.  1.
          3    1    6    6  503    0  0.10020177003E+03 -0.48542052791E+02 -0.75082540954E+02  0.13429115221E+03  0.00000000000E+00 0. -1.
         -3    1    6    6    0  503  0.44161463245E+03 -0.43223485214E+03 -0.52795980164E+03  0.81276811155E+03  0.00000000000E+00 0.  1.
<mgrwt>
<rscale>  0 0.19283449E+04</rscale>
<asrwt>0</asrwt>
<pdfrwt beam="1">  1        2 0.17387305E+00 0.19283449E+04</pdfrwt>
<pdfrwt beam="2">  1       -1 0.12654659E+00 0.19283449E+04</pdfrwt>
<totfact> 0.12073727E+01</totfact>
</mgrwt>
</event>
<event>
12    7  0.1606355E-007  0.1928995E+04  0.7818608E-02  0.8640557E-01
          2   -1    0    0  501    0  0.00000000000E+00  0.00000000000E+00  0.47699628491E+03  0.47699628491E+03  0.00000000000E+00 0. -1.
         -1   -1    0    0    0  501 -0.00000000000E+00 -0.00000000000E+00 -0.19502362300E+04  0.19502362300E+04  0.00000000000E+00 0.  1.
         24    2    1    2    0    0 -0.73049153587E+03  0.68020778211E+02 -0.35859935581E+03  0.82056899302E+03  0.80593201124E+02 0.  0.
        254    2    1    2    0    0  0.73049153587E+03 -0.68020778211E+02 -0.11146405893E+04  0.16066635219E+04  0.89481803685E+03 0.  0.
         23    2    4    4    0    0  0.84299607326E+03  0.17981890330E+03 -0.78444351229E+03  0.11690842069E+04  0.91809811201E+02 0.  0.
         23    2    4    4    0    0 -0.11250453740E+03 -0.24783968151E+03 -0.33019707701E+03  0.43757931496E+03  0.91453641557E+02 0.  0.
          2    1    3    3  502    0 -0.56277433825E+03  0.24549093347E+02 -0.29602907852E+03  0.63635746959E+03  0.00000000000E+00 0. -1.
         -1    1    3    3    0  502 -0.16771719762E+03  0.43471684864E+02 -0.62570277296E+02  0.18421152343E+03  0.00000000000E+00 0.  1.
         13    1    5    5    0    0  0.83214868746E+03  0.18703427848E+03 -0.76526148033E+03  0.11458963272E+04  0.00000000000E+00 0.  1.
        -13    1    5    5    0    0  0.10847385805E+02 -0.72153751863E+01 -0.19182031960E+02  0.23187879765E+02  0.00000000000E+00 0. -1.
          4    1    6    6  503    0 -0.67882130345E+02 -0.61332538945E+02 -0.74640165165E+02  0.11807124209E+03  0.00000000000E+00 0. -1.
         -4    1    6    6    0  503 -0.44622407051E+02 -0.18650714256E+03 -0.25555691184E+03  0.31950807287E+03  0.00000000000E+00 0.  1.
<mgrwt>
<rscale>  0 0.19289950E+04</rscale>
<asrwt>0</asrwt>
<pdfrwt beam="1">  1        2 0.73384042E-01 0.19289950E+04</pdfrwt>
<pdfrwt beam="2">  1       -1 0.30003635E+00 0.19289950E+04</pdfrwt>
<totfact> 0.22939103E+00</totfact>
</mgrwt>
</event>
<event>
12    7  0.1606355E-007  0.2297918E+04  0.7818608E-02  0.8478743E-01
          2   -1    0    0  501    0  0.00000000000E+00  0.00000000000E+00  0.18550801531E+04  0.18550801531E+04  0.00000000000E+00 0. -1.
         -1   -1    0    0    0  501 -0.00000000000E+00 -0.00000000000E+00 -0.71161697569E+03  0.71161697569E+03  0.00000000000E+00 0.  1.
         24    2    1    2    0    0  0.89862023013E+03  0.37113951486E+03  0.47123277083E+03  0.10833510658E+04  0.79538354761E+02 0.  0.
        254    2    1    2    0    0 -0.89862023013E+03 -0.37113951486E+03  0.67223040664E+03  0.14833460631E+04  0.89619136672E+03 0.  0.
         23    2    4    4    0    0 -0.10519189538E+04 -0.35918074510E+03  0.67610206814E+03  0.13042214478E+04  0.91297782925E+02 0.  0.
         23    2    4    4    0    0  0.15329872372E+03 -0.11958769760E+02 -0.38716614996E+01  0.17912461532E+03  0.91799385517E+02 0.  0.
          4    1    3    3  502    0  0.76980449735E+03  0.30159428765E+03  0.37275646007E+03  0.90692086590E+03  0.00000000000E+00 0. -1.
         -3    1    3    3    0  502  0.12881573278E+03  0.69545227216E+02  0.98476310758E+02  0.17643019985E+03  0.00000000000E+00 0.  1.
         13    1    5    5    0    0 -0.89000383504E+03 -0.27038793433E+03  0.55000033975E+03  0.10806094739E+04  0.00000000000E+00 0.  1.
        -13    1    5    5    0    0 -0.16191511880E+03 -0.88792810772E+02  0.12610172838E+03  0.22361197384E+03  0.00000000000E+00 0. -1.
          2    1    6    6  503    0  0.13438386689E+03 -0.44367977100E+02 -0.15374173096E+01  0.14152704591E+03  0.00000000000E+00 0.  1.
         -2    1    6    6    0  503  0.18914856830E+02  0.32409207340E+02 -0.23342441901E+01  0.37597569406E+02  0.00000000000E+00 0. -1.
<mgrwt>
<rscale>  0 0.22979178E+04</rscale>
<asrwt>0</asrwt>
<pdfrwt beam="1">  1        2 0.28539694E+00 0.22979178E+04</pdfrwt>
<pdfrwt beam="2">  1       -1 0.10947954E+00 0.22979178E+04</pdfrwt>
<totfact> 0.64066504E+00</totfact>
</mgrwt>
</event>
<event>
12    7  0.1606355E-007  0.2387488E+04  0.7818608E-02  0.8444203E-01
         -1   -1    0    0    0  501 -0.00000000000E+00  0.00000000000E+00  0.10088182959E+04  0.10088182959E+04  0.00000000000E+00 0.  1.
          2   -1    0    0  501    0  0.00000000000E+00 -0.00000000000E+00 -0.14125687175E+04  0.14125687175E+04  0.00000000000E+00 0. -1.
         24    2    1    2    0    0 -0.95570055773E+03  0.13524284513E+03 -0.50970145700E+03  0.10944923586E+04  0.80397540601E+02 0.  0.
        254    2    1    2    0    0  0.95570055773E+03 -0.13524284513E+03  0.10595103539E+03  0.13268946548E+04  0.90430615378E+03 0.  0.
         23    2    4    4    0    0 -0.11047571414E+03  0.15808877963E+03  0.93427053376E+01  0.21268716141E+03  0.89171726613E+02 0.  0.
         23    2    4    4    0    0  0.10661762719E+04 -0.29333162476E+03  0.96608330053E+02  0.11142074934E+04  0.96694798427E+02 0.  0.
          2    1    3    3  502    0 -0.34134875936E+01  0.53427318900E+01  0.50192899321E+00  0.63599225085E+01  0.00000000000E+00 0. -1.
         -1    1    3    3    0  502 -0.95228707013E+03  0.12990011324E+03 -0.51020338599E+03  0.10881324361E+04  0.00000000000E+00 0.  1.
         13    1    5    5    0    0 -0.39536768345E+02  0.61688100204E+02 -0.39706570038E+02  0.83337803319E+02  0.00000000000E+00 0. -1.
        -13    1    5    5    0    0 -0.70938945796E+02  0.96400679428E+02  0.49049275375E+02  0.12934935810E+03  0.00000000000E+00 0.  1.
          3    1    6    6  503    0  0.70316768131E+03 -0.18605376796E+03  0.10893822767E+03  0.73547830019E+03  0.00000000000E+00 0. -1.
         -3    1    6    6    0  503  0.36300859056E+03 -0.10727785681E+03 -0.12329897618E+02  0.37872919317E+03  0.00000000000E+00 0.  1.
<mgrwt>
<rscale>  0 0.23874884E+04</rscale>
<asrwt>0</asrwt>
<pdfrwt beam="1">  1        2 0.21731826E+00 0.23874884E+04</pdfrwt>
<pdfrwt beam="2">  1       -1 0.15520281E+00 0.23874884E+04</pdfrwt>
<totfact> 0.46416201E+00</totfact>
</mgrwt>
</event>
<event>
12    7  0.1606355E-007  0.1010459E+04  0.7818608E-02  0.9297148E-01
          2   -1    0    0  501    0  0.00000000000E+00  0.00000000000E+00  0.30550475683E+04  0.30550475683E+04  0.00000000000E+00 0. -1.
         -1   -1    0    0    0  501 -0.00000000000E+00 -0.00000000000E+00 -0.83552420347E+02  0.83552420347E+02  0.00000000000E+00 0.  1.
         24    2    1    2    0    0  0.46433640839E+02 -0.40040990115E+02  0.47122809201E+03  0.48251038566E+03  0.83671940844E+02 0.  0.
        254    2    1    2    0    0 -0.46433640839E+02  0.40040990115E+02  0.25002670559E+04  0.26560896030E+04  0.89426912288E+03 0.  0.
         23    2    4    4    0    0 -0.28936610443E+03 -0.20733289618E+03  0.20405887600E+04  0.20731604284E+04  0.85276034797E+02 0.  0.
         23    2    4    4    0    0  0.24293246359E+03  0.24737388629E+03  0.45967829595E+03  0.58292917461E+03  0.91061876552E+02 0.  0.
          4    1    3    3  502    0  0.61268045498E+02 -0.89896443953E+00  0.30488593749E+03  0.31098234100E+03  0.00000000000E+00 0. -1.
         -3    1    3    3    0  502 -0.14834404659E+02 -0.39142025675E+02  0.16634215452E+03  0.17152804467E+03  0.00000000000E+00 0.  1.
         13    1    5    5    0    0 -0.26520202883E+02  0.36778090999E+01  0.10031119888E+03  0.10382284941E+03  0.00000000000E+00 0. -1.
        -13    1    5    5    0    0 -0.26284590155E+03 -0.21101070528E+03  0.19402775611E+04  0.19693375790E+04  0.00000000000E+00 0.  1.
          3    1    6    6  503    0 -0.14983579253E+01 -0.59888394330E+01  0.11083114000E+02  0.12686476665E+02  0.00000000000E+00 0. -1.
         -3    1    6    6    0  503  0.24443082152E+03  0.25336272573E+03  0.44859518195E+03  0.57024269794E+03  0.00000000000E+00 0.  1.
<mgrwt>
<rscale>  0 0.10104585E+04</rscale>
<asrwt>0</asrwt>
<pdfrwt beam="1">  1        2 0.47000723E+00 0.10104585E+04</pdfrwt>
<pdfrwt beam="2">  1       -1 0.12854221E-01 0.10104585E+04</pdfrwt>
<totfact> 0.79160054E+01</totfact>
</mgrwt>
</event>
<event>
12    7  0.1606355E-007  0.1285142E+04  0.7818608E-02  0.9041431E-01
         -1   -1    0    0    0  501 -0.00000000000E+00  0.00000000000E+00  0.61676177306E+03  0.61676177306E+03  0.00000000000E+00 0.  1.
          2   -1    0    0  501    0  0.00000000000E+00 -0.00000000000E+00 -0.66946046955E+03  0.66946046955E+03  0.00000000000E+00 0. -1.
         24    2    1    2    0    0 -0.21185012351E+03  0.12080762524E+03  0.15943013801E+03  0.30217388431E+03  0.80100750952E+02 0.  0.
        254    2    1    2    0    0  0.21185012351E+03 -0.12080762524E+03 -0.21212883450E+03  0.98404835829E+03  0.92945014492E+03 0.  0.
         23    2    4    4    0    0  0.31679812135E+02  0.38170849325E+03  0.22040096399E+02  0.39421029646E+03  0.90614610692E+02 0.  0.
         23    2    4    4    0    0  0.18017031138E+03 -0.50251611849E+03 -0.23416893090E+03  0.58983806183E+03  0.89944763829E+02 0.  0.
          2    1    3    3  502    0 -0.12328262995E+03  0.95278092645E+02  0.61001223475E+02  0.16732504610E+03  0.00000000000E+00 0. -1.
         -1    1    3    3    0  502 -0.88567493566E+02  0.25529532597E+02  0.98428914538E+02  0.13484883822E+03  0.00000000000E+00 0.  1.
         13    1    5    5    0    0  0.37910130679E+02  0.16788791253E+03  0.48119934109E+02  0.17871501683E+03  0.00000000000E+00 0.  1.
        -13    1    5    5    0    0 -0.62303185431E+01  0.21382058072E+03 -0.26079837710E+02  0.21549527963E+03  0.00000000000E+00 0. -1.
          4    1    6    6  503    0  0.62035382068E+02 -0.74612486520E+02 -0.51021477107E+02  0.10962938885E+03  0.00000000000E+00 0.  1.
         -4    1    6    6    0  503  0.11813492931E+03 -0.42790363197E+03 -0.18314745379E+03  0.48020867298E+03  0.00000000000E+00 0. -1.
<mgrwt>
<rscale>  0 0.12851422E+04</rscale>
<asrwt>0</asrwt>
<pdfrwt beam="1">  1        2 0.10299392E+00 0.12851422E+04</pdfrwt>
<pdfrwt beam="2">  1       -1 0.94886427E-01 0.12851422E+04</pdfrwt>
<totfact> 0.52184957E+01</totfact>
</mgrwt>
</event>
<event>
12    7  0.1606355E-007  0.2217577E+04  0.7818608E-02  0.8511148E-01
         -1   -1    0    0    0  501 -0.00000000000E+00  0.00000000000E+00  0.49080092058E+03  0.49080092058E+03  0.00000000000E+00 0.  1.
          2   -1    0    0  501    0  0.00000000000E+00 -0.00000000000E+00 -0.25049089791E+04  0.25049089791E+04  0.00000000000E+00 0. -1.
         24    2    1    2    0    0 -0.40345372717E+03  0.39928934138E+03  0.14292417598E+03  0.59052855358E+03  0.78036942553E+02 0.  0.
        254    2    1    2    0    0  0.40345372717E+03 -0.39928934138E+03 -0.21570322345E+04  0.24051813461E+04  0.89994575327E+03 0.  0.
         23    2    4    4    0    0 -0.20351401969E+03 -0.46255790682E+02 -0.13999765220E+03  0.26726206556E+03  0.90951166474E+02 0.  0.
         23    2    4    4    0    0  0.60696774686E+03 -0.35303355070E+03 -0.20170345823E+04  0.21379192805E+04  0.96061492022E+02 0.  0.
          4    1    3    3  502    0 -0.25084094302E+02  0.31452322639E+02 -0.93398078188E+01  0.41300029012E+02  0.00000000000E+00 0. -1.
         -3    1    3    3    0  502 -0.37836963287E+03  0.36783701874E+03  0.15226398380E+03  0.54922852457E+03  0.00000000000E+00 0.  1.
         13    1    5    5    0    0 -0.18750755276E+03 -0.67430165439E+02 -0.13376100866E+03  0.23999566036E+03  0.00000000000E+00 0.  1.
        -13    1    5    5    0    0 -0.16006466929E+02  0.21174374757E+02 -0.62366435436E+01  0.27266405201E+02  0.00000000000E+00 0. -1.
          2    1    6    6  503    0  0.39320717823E+02 -0.11262469864E+02 -0.19248070556E+03  0.19677851532E+03  0.00000000000E+00 0. -1.
         -2    1    6    6    0  503  0.56764702904E+03 -0.34177108084E+03 -0.18245538767E+04  0.19411407652E+04  0.00000000000E+00 0.  1.
<mgrwt>
<rscale>  0 0.22175767E+04</rscale>
<asrwt>0</asrwt>
<pdfrwt beam="1">  1        2 0.38537061E+00 0.22175767E+04</pdfrwt>
<pdfrwt beam="2">  1       -1 0.75507833E-01 0.22175767E+04</pdfrwt>
<totfact> 0.63322221E+00</totfact>
</mgrwt>
</event>
<event>
12    7  0.1606355E-007  0.1130271E+04  0.7818608E-02  0.9176179E-01
         -1   -1    0    0    0  501 -0.00000000000E+00  0.00000000000E+00  0.43211264037E+03  0.43211264037E+03  0.00000000000E+00 0.  1.
          2   -1    0    0  501    0  0.00000000000E+00 -0.00000000000E+00 -0.73910908035E+03  0.73910908035E+03  0.00000000000E+00 0. -1.
         24    2    1    2    0    0 -0.27839586556E+02 -0.83848828697E+02  0.13808822489E+03  0.18358667617E+03  0.82644063064E+02 0.  0.
        254    2    1    2    0    0  0.27839586556E+02  0.83848828697E+02 -0.44508466487E+03  0.98763504455E+03  0.87722115436E+03 0.  0.
         23    2    4    4    0    0  0.43327428160E+03  0.34768631314E+01 -0.14076805688E+03  0.46634053809E+03  0.99594979574E+02 0.  0.
         23    2    4    4    0    0 -0.40543469505E+03  0.80371965565E+02 -0.30431660799E+03  0.52129450646E+03  0.91117615023E+02 0.  0.
          2    1    3    3  502    0  0.49875877044E+01  0.71277188140E+01  0.56168266014E+02  0.56837967184E+02  0.00000000000E+00 0. -1.
         -1    1    3    3    0  502 -0.32827174260E+02 -0.90976547511E+02  0.81919958877E+02  0.12674870898E+03  0.00000000000E+00 0.  1.
         13    1    5    5    0    0  0.86972166460E+02 -0.20782716806E+02  0.55975699615E+01  0.89595824937E+02  0.00000000000E+00 0. -1.
        -13    1    5    5    0    0  0.34630211514E+03  0.24259579937E+02 -0.14636562684E+03  0.37674471316E+03  0.00000000000E+00 0.  1.
          2    1    6    6  503    0 -0.19179752664E+03  0.22876705923E+02 -0.19518829638E+03  0.27460536401E+03  0.00000000000E+00 0. -1.
         -2    1    6    6    0  503 -0.21363716841E+03  0.57495259642E+02 -0.10912831161E+03  0.24668914245E+03  0.00000000000E+00 0.  1.
<mgrwt>
<rscale>  0 0.11302714E+04</rscale>
<asrwt>0</asrwt>
<pdfrwt beam="1">  1        2 0.11370909E+00 0.11302714E+04</pdfrwt>
<pdfrwt beam="2">  1       -1 0.66478868E-01 0.11302714E+04</pdfrwt>
<totfact> 0.99192805E+01</totfact>
</mgrwt>
</event>
<event>
12    7  0.1606355E-007  0.1075659E+04  0.7818608E-02  0.9229247E-01
          2   -1    0    0  501    0  0.00000000000E+00  0.00000000000E+00  0.22422953727E+04  0.22422953727E+04  0.00000000000E+00 0. -1.
         -1   -1    0    0    0  501 -0.00000000000E+00 -0.00000000000E+00 -0.12900193377E+03  0.12900193377E+03  0.00000000000E+00 0.  1.
         24    2    1    2    0    0  0.37624434448E+02  0.13771858791E+03  0.30411340641E+03  0.34439284282E+03  0.75759215288E+02 0.  0.
        254    2    1    2    0    0 -0.37624434448E+02 -0.13771858791E+03  0.18091800325E+04  0.20269044637E+04  0.90267785349E+03 0.  0.
         23    2    4    4    0    0  0.24579437235E+02 -0.43759862657E+03  0.46578240004E+03  0.64598772590E+03  0.90830562684E+02 0.  0.
         23    2    4    4    0    0 -0.62203871683E+02  0.29988003865E+03  0.13433976325E+04  0.13809167377E+04  0.91741366987E+02 0.  0.
          4    1    3    3  502    0  0.44659475683E+02  0.95306111852E+02  0.26908728910E+03  0.28893890856E+03  0.00000000000E+00 0. -1.
         -3    1    3    3    0  502 -0.70350412344E+01  0.42412476063E+02  0.35026117313E+02  0.55453934261E+02  0.00000000000E+00 0.  1.
         13    1    5    5    0    0  0.43208367373E+02 -0.19120395403E+03  0.25186020616E+03  0.31915431768E+03  0.00000000000E+00 0. -1.
        -13    1    5    5    0    0 -0.18628930138E+02 -0.24639467254E+03  0.21392219388E+03  0.32683340822E+03  0.00000000000E+00 0.  1.
          1    1    6    6  503    0 -0.56310447930E+02  0.71385735335E+02  0.35975318682E+03  0.37106488002E+03  0.00000000000E+00 0. -1.
         -1    1    6    6    0  503 -0.58934237530E+01  0.22849430332E+03  0.98364444565E+03  0.10098518577E+04  0.00000000000E+00 0.  1.
<mgrwt>
<rscale>  0 0.10756588E+04</rscale>
<asrwt>0</asrwt>
<pdfrwt beam="1">  1        2 0.34496849E+00 0.10756588E+04</pdfrwt>
<pdfrwt beam="2">  1       -1 0.19846453E-01 0.10756588E+04</pdfrwt>
<totfact> 0.11533259E+02</totfact>
</mgrwt>
</event>
<event>
12    7  0.1606355E-007  0.1874328E+04  0.7818608E-02  0.8667742E-01
          2   -1    0    0  501    0  0.00000000000E+00  0.00000000000E+00  0.22042865805E+04  0.22042865805E+04  0.00000000000E+00 0. -1.
         -1   -1    0    0    0  501 -0.00000000000E+00 -0.00000000000E+00 -0.39843998431E+03  0.39843998431E+03  0.00000000000E+00 0.  1.
         24    2    1    2    0    0  0.45600377192E+03 -0.54588890981E+03  0.91186404720E+03  0.11586423279E+04  0.70865093713E+02 0.  0.
        254    2    1    2    0    0 -0.45600377192E+03  0.54588890981E+03  0.89398254903E+03  0.14440842370E+04  0.88331214396E+03 0.  0.
         23    2    4    4    0    0 -0.29240539668E+03  0.69327249310E+03  0.32100662707E+03  0.82333133638E+03  0.93282201579E+02 0.  0.
         23    2    4    4    0    0 -0.16359837524E+03 -0.14738358330E+03  0.57297592195E+03  0.62075290060E+03  0.92446781746E+02 0.  0.
          4    1    3    3  502    0  0.62508045936E+02 -0.11716325258E+03  0.17644959163E+03  0.22083691256E+03  0.00000000000E+00 0. -1.
         -3    1    3    3    0  502  0.39349572599E+03 -0.42872565723E+03  0.73541445557E+03  0.93780541532E+03  0.00000000000E+00 0.  1.
         13    1    5    5    0    0 -0.10281816309E+03  0.17464976823E+03  0.52693590908E+02  0.20940566069E+03  0.00000000000E+00 0. -1.
        -13    1    5    5    0    0 -0.18958723359E+03  0.51862272487E+03  0.26831303616E+03  0.61392567569E+03  0.00000000000E+00 0.  1.
          1    1    6    6  503    0 -0.35210089560E+02 -0.27939589044E+01  0.37885411050E+02  0.51796341411E+02  0.00000000000E+00 0. -1.
         -1    1    6    6    0  503 -0.12838828568E+03 -0.14458962439E+03  0.53509051091E+03  0.56895655919E+03  0.00000000000E+00 0.  1.
<mgrwt>
<rscale>  0 0.18743275E+04</rscale>
<asrwt>0</asrwt>
<pdfrwt beam="1">  1        2 0.33912100E+00 0.18743275E+04</pdfrwt>
<pdfrwt beam="2">  1       -1 0.61298461E-01 0.18743275E+04</pdfrwt>
<totfact> 0.14814247E+01</totfact>
</mgrwt>
</event>
<event>
12    7  0.1606355E-007  0.1633371E+04  0.7818608E-02  0.8800305E-01
          2   -1    0    0  501    0  0.00000000000E+00  0.00000000000E+00  0.15358856669E+04  0.15358856669E+04  0.00000000000E+00 0. -1.
         -1   -1    0    0    0  501 -0.00000000000E+00 -0.00000000000E+00 -0.43426084465E+03  0.43426084465E+03  0.00000000000E+00 0.  1.
         24    2    1    2    0    0  0.28102925187E+03 -0.91947636287E+02 -0.20078089104E+03  0.36721090263E+03  0.84255994299E+02 0.  0.
        254    2    1    2    0    0 -0.28102925187E+03  0.91947636287E+02  0.13024057132E+04  0.16029356089E+04  0.88640290846E+03 0.  0.
         23    2    4    4    0    0  0.21000182709E+03 -0.15521975274E+03  0.81871983825E+03  0.86416593756E+03  0.91031066585E+02 0.  0.
         23    2    4    4    0    0 -0.49103107897E+03  0.24716738902E+03  0.48368587500E+03  0.73876967132E+03  0.98108933789E+02 0.  0.
          2    1    3    3  502    0  0.44843876745E+02 -0.40676676999E+02 -0.15006610099E+02  0.62375986404E+02  0.00000000000E+00 0. -1.
         -1    1    3    3    0  502  0.23618537513E+03 -0.51270959289E+02 -0.18577428094E+03  0.30483491622E+03  0.00000000000E+00 0.  1.
         13    1    5    5    0    0  0.93784912541E+01 -0.18416459923E+02  0.17902681573E+02  0.27342788845E+02  0.00000000000E+00 0. -1.
        -13    1    5    5    0    0  0.20062333584E+03 -0.13680329281E+03  0.80081715667E+03  0.83682314872E+03  0.00000000000E+00 0.  1.
          3    1    6    6  503    0 -0.13091992743E+03  0.50572123790E+02  0.18038623224E+03  0.22855362584E+03  0.00000000000E+00 0. -1.
         -3    1    6    6    0  503 -0.36011115154E+03  0.19659526523E+03  0.30329964276E+03  0.51021604548E+03  0.00000000000E+00 0.  1.
<mgrwt>
<rscale>  0 0.16333708E+04</rscale>
<asrwt>0</asrwt>
<pdfrwt beam="1">  1        2 0.23629010E+00 0.16333708E+04</pdfrwt>
<pdfrwt beam="2">  1       -1 0.66809361E-01 0.16333708E+04</pdfrwt>
<totfact> 0.29970367E+01</totfact>
</mgrwt>
</event>
<event>
12    7  0.1606355E-007  0.2541979E+04  0.7818608E-02  0.8388181E-01
          2   -1    0    0  501    0  0.00000000000E+00  0.00000000000E+00  0.25390125367E+04  0.25390125367E+04  0.00000000000E+00 0. -1.
         -1   -1    0    0    0  501 -0.00000000000E+00 -0.00000000000E+00 -0.63623747509E+03  0.63623747509E+03  0.00000000000E+00 0.  1.
         24    2    1    2    0    0  0.24870164399E+03  0.43775918224E+03  0.20682541578E+04  0.21301420023E+04  0.79649729915E+02 0.  0.
        254    2    1    2    0    0 -0.24870164399E+03 -0.43775918224E+03 -0.16547909621E+03  0.10451080094E+04  0.90076734551E+03 0.  0.
         23    2    4    4    0    0 -0.46871770702E+03  0.58924308376E+02 -0.84372687385E+02  0.48837119915E+03  0.90660436780E+02 0.  0.
         23    2    4    4    0    0  0.22001606302E+03 -0.49668349061E+03 -0.81106408830E+02  0.55673681028E+03  0.90972899993E+02 0.  0.
          4    1    3    3  502    0  0.20416739013E+03  0.28528730029E+03  0.14066776301E+04  0.14497638159E+04  0.00000000000E+00 0. -1.
         -3    1    3    3    0  502  0.44534253859E+02  0.15247188194E+03  0.66157652774E+03  0.68037818646E+03  0.00000000000E+00 0.  1.
         13    1    5    5    0    0 -0.85407064609E+02 -0.10825617287E+02  0.12265787912E+02  0.86959819617E+02  0.00000000000E+00 0. -1.
        -13    1    5    5    0    0 -0.38331064241E+03  0.69749925663E+02 -0.96638475297E+02  0.40141137953E+03  0.00000000000E+00 0.  1.
          3    1    6    6  503    0  0.70019206860E+02 -0.92329519048E+02 -0.43684880095E+02  0.12383778973E+03  0.00000000000E+00 0. -1.
         -3    1    6    6    0  503  0.14999685617E+03 -0.40435397156E+03 -0.37421528735E+02  0.43289902055E+03  0.00000000000E+00 0.  1.
<mgrwt>
<rscale>  0 0.25419795E+04</rscale>
<asrwt>0</asrwt>
<pdfrwt beam="1">  1        2 0.39061731E+00 0.25419795E+04</pdfrwt>
<pdfrwt beam="2">  1       -1 0.97882690E-01 0.25419795E+04</pdfrwt>
<totfact> 0.33416374E+00</totfact>
</mgrwt>
</event>
<event>
12    7  0.1606355E-007  0.1459433E+04  0.7818608E-02  0.8911887E-01
         -3   -1    0    0    0  501 -0.00000000000E+00  0.00000000000E+00  0.48316954342E+03  0.48316954342E+03  0.00000000000E+00 0.  1.
          2   -1    0    0  501    0  0.00000000000E+00 -0.00000000000E+00 -0.11020697018E+04  0.11020697018E+04  0.00000000000E+00 0. -1.
         24    2    1    2    0    0 -0.68361988093E+02 -0.44252724606E+03 -0.15118269548E+03  0.47933009123E+03  0.79983773565E+02 0.  0.
        254    2    1    2    0    0  0.68361988093E+02  0.44252724606E+03 -0.46771746286E+03  0.11059091539E+04  0.89653315990E+03 0.  0.
         23    2    4    4    0    0 -0.78355468340E+02 -0.20713380216E+03  0.65112929211E+02  0.24797991260E+03  0.90610993198E+02 0.  0.
         23    2    4    4    0    0  0.14671745643E+03  0.64966104822E+03 -0.53283039207E+03  0.85792924134E+03  0.92460082391E+02 0.  0.
          2    1    3    3  502    0 -0.20201468176E+02 -0.29725576410E+03 -0.12905954079E+03  0.32469286053E+03  0.00000000000E+00 0. -1.
         -1    1    3    3    0  502 -0.48160519917E+02 -0.14527148195E+03 -0.22123154687E+02  0.15463723071E+03  0.00000000000E+00 0.  1.
         13    1    5    5    0    0 -0.66517736717E+02 -0.21500421644E+03  0.60873231966E+02  0.23314581865E+03  0.00000000000E+00 0. -1.
        -13    1    5    5    0    0 -0.11837731623E+02  0.78704142734E+01  0.42396972441E+01  0.14834093957E+02  0.00000000000E+00 0.  1.
          4    1    6    6  503    0  0.12745260667E+03  0.42076558945E+03 -0.38804808694E+03  0.58640358627E+03  0.00000000000E+00 0. -1.
         -4    1    6    6    0  503  0.19264849761E+02  0.22889545877E+03 -0.14478230513E+03  0.27152565507E+03  0.00000000000E+00 0.  1.
<mgrwt>
<rscale>  0 0.14594335E+04</rscale>
<asrwt>0</asrwt>
<pdfrwt beam="1">  1        2 0.16954919E+00 0.14594335E+04</pdfrwt>
<pdfrwt beam="2">  1       -3 0.74333776E-01 0.14594335E+04</pdfrwt>
<totfact> 0.22912704E+01</totfact>
</mgrwt>
</event>
<event>
12    7  0.1606355E-007  0.1772056E+04  0.7818608E-02  0.8721303E-01
         -1   -1    0    0    0  501 -0.00000000000E+00  0.00000000000E+00  0.18377071077E+04  0.18377071077E+04  0.00000000000E+00 0.  1.
          2   -1    0    0  501    0  0.00000000000E+00 -0.00000000000E+00 -0.42718747443E+03  0.42718747443E+03  0.00000000000E+00 0. -1.
         24    2    1    2    0    0  0.55792065806E+03 -0.52680130652E+02  0.90031475789E+03  0.10634893026E+04  0.79951088433E+02 0.  0.
        254    2    1    2    0    0 -0.55792065806E+03  0.52680130652E+02  0.51020487539E+03  0.12014052796E+04  0.93220972643E+03 0.  0.
         23    2    4    4    0    0 -0.79634393614E+03  0.13820114682E+03  0.32761754039E+03  0.87703105335E+03  0.92666035582E+02 0.  0.
         23    2    4    4    0    0  0.23842327809E+03 -0.85521016172E+02  0.18258733499E+03  0.32437422622E+03  0.87869220969E+02 0.  0.
          2    1    3    3  502    0  0.11177737357E+03 -0.79269660117E+01  0.12516025690E+03  0.16799436877E+03  0.00000000000E+00 0. -1.
         -1    1    3    3    0  502  0.44614328448E+03 -0.44753164641E+02  0.77515450099E+03  0.89549493379E+03  0.00000000000E+00 0.  1.
         13    1    5    5    0    0 -0.51718136590E+03  0.50213837446E+02  0.23255925026E+03  0.56928182791E+03  0.00000000000E+00 0. -1.
        -13    1    5    5    0    0 -0.27916257024E+03  0.87987309378E+02  0.95058290132E+02  0.30774922544E+03  0.00000000000E+00 0.  1.
          2    1    6    6  503    0  0.30388420658E+02 -0.16938695780E+02 -0.60301676138E+01  0.35309183597E+02  0.00000000000E+00 0. -1.
         -2    1    6    6    0  503  0.20803485743E+03 -0.68582320392E+02  0.18861750261E+03  0.28906504262E+03  0.00000000000E+00 0.  1.
<mgrwt>
<rscale>  0 0.17720558E+04</rscale>
<asrwt>0</asrwt>
<pdfrwt beam="1">  1        2 0.65721151E-01 0.17720558E+04</pdfrwt>
<pdfrwt beam="2">  1       -1 0.28272417E+00 0.17720558E+04</pdfrwt>
<totfact> 0.34145823E+00</totfact>
</mgrwt>
</event>
<event>
12    7  0.1606355E-007  0.1286150E+04  0.7818608E-02  0.9040621E-01
          2   -1    0    0  501    0  0.00000000000E+00  0.00000000000E+00  0.36504089537E+03  0.36504089537E+03  0.00000000000E+00 0. -1.
         -1   -1    0    0    0  501 -0.00000000000E+00 -0.00000000000E+00 -0.11328743145E+04  0.11328743145E+04  0.00000000000E+00 0.  1.
         24    2    1    2    0    0 -0.27873322028E+02  0.24935896534E+02  0.19615331240E+03  0.21395850041E+03  0.76833566347E+02 0.  0.
        254    2    1    2    0    0  0.27873322028E+02 -0.24935896534E+02 -0.96398673155E+03  0.12839567095E+04  0.84727545237E+03 0.  0.
         23    2    4    4    0    0  0.17295990513E+03  0.26202293023E+03 -0.88076843480E+03  0.93964128416E+03  0.92744608537E+02 0.  0.
         23    2    4    4    0    0 -0.14508658310E+03 -0.28695882676E+03 -0.83218296751E+02  0.34431542532E+03  0.90732256370E+02 0.  0.
          4    1    3    3  502    0  0.11603153562E+02  0.17173462233E+02  0.15509717668E+03  0.15647586137E+03  0.00000000000E+00 0. -1.
         -3    1    3    3    0  502 -0.39476475589E+02  0.77624343006E+01  0.41056135720E+02  0.57482639044E+02  0.00000000000E+00 0.  1.
         13    1    5    5    0    0  0.11397511752E+03  0.11563614480E+03 -0.54423871273E+03  0.56794174158E+03  0.00000000000E+00 0.  1.
        -13    1    5    5    0    0  0.58984787611E+02  0.14638678542E+03 -0.33652972207E+03  0.37169954258E+03  0.00000000000E+00 0. -1.
          4    1    6    6  503    0 -0.12365588570E+03 -0.17303903925E+03 -0.23663288076E+02  0.21399354751E+03  0.00000000000E+00 0.  1.
         -4    1    6    6    0  503 -0.21430697402E+02 -0.11391978751E+03 -0.59555008676E+02  0.13032187781E+03  0.00000000000E+00 0. -1.
<mgrwt>
<rscale>  0 0.12861500E+04</rscale>
<asrwt>0</asrwt>
<pdfrwt beam="1">  1        2 0.56160138E-01 0.12861500E+04</pdfrwt>
<pdfrwt beam="2">  1       -1 0.17428836E+00 0.12861500E+04</pdfrwt>
<totfact> 0.22660915E+01</totfact>
</mgrwt>
</event>
<event>
12    7  0.1606355E-007  0.1654744E+04  0.7818608E-02  0.8787605E-01
         -1   -1    0    0    0  501 -0.00000000000E+00  0.00000000000E+00  0.19320293932E+04  0.19320293932E+04  0.00000000000E+00 0.  1.
          2   -1    0    0  501    0  0.00000000000E+00 -0.00000000000E+00 -0.35431353473E+03  0.35431353473E+03  0.00000000000E+00 0. -1.
         24    2    1    2    0    0  0.26571509204E+02  0.31233590039E+03  0.12152568249E+04  0.12575916884E+04  0.80174462596E+02 0.  0.
        254    2    1    2    0    0 -0.26571509204E+02 -0.31233590039E+03  0.36245903363E+03  0.10287512396E+04  0.91032565719E+03 0.  0.
         23    2    4    4    0    0 -0.96741970278E+02 -0.61336977006E+03  0.32261860488E+03  0.70588915307E+03  0.92818363333E+02 0.  0.
         23    2    4    4    0    0  0.70170461073E+02  0.30103386967E+03  0.39840428748E+02  0.32286208652E+03  0.84305295547E+02 0.  0.
          4    1    3    3  502    0 -0.11264903695E+02  0.22194691230E+02  0.46238963510E+02  0.52512323511E+02  0.00000000000E+00 0. -1.
         -3    1    3    3    0  502  0.37836412899E+02  0.29014120916E+03  0.11690178614E+04  0.12050793648E+04  0.00000000000E+00 0.  1.
         13    1    5    5    0    0 -0.67155176749E+02 -0.46830463152E+03  0.19991880124E+03  0.51360157005E+03  0.00000000000E+00 0. -1.
        -13    1    5    5    0    0 -0.29586793528E+02 -0.14506513854E+03  0.12269980364E+03  0.19228758302E+03  0.00000000000E+00 0.  1.
          1    1    6    6  503    0  0.23922706601E+02  0.93453196324E+02  0.52477921945E+02  0.10981679328E+03  0.00000000000E+00 0. -1.
         -1    1    6    6    0  503  0.46247754473E+02  0.20758067334E+03 -0.12637493198E+02  0.21304529325E+03  0.00000000000E+00 0.  1.
<mgrwt>
<rscale>  0 0.16547437E+04</rscale>
<asrwt>0</asrwt>
<pdfrwt beam="1">  1        2 0.54509776E-01 0.16547437E+04</pdfrwt>
<pdfrwt beam="2">  1       -1 0.29723528E+00 0.16547437E+04</pdfrwt>
<totfact> 0.34328203E+00</totfact>
</mgrwt>
</event>
<event>
12    7  0.1606355E-007  0.2029912E+04  0.7818608E-02  0.8592762E-01
          2   -1    0    0  501    0  0.00000000000E+00  0.00000000000E+00  0.89247556322E+03  0.89247556322E+03  0.00000000000E+00 0. -1.
         -1   -1    0    0    0  501 -0.00000000000E+00 -0.00000000000E+00 -0.11542447023E+04  0.11542447023E+04  0.00000000000E+00 0.  1.
         24    2    1    2    0    0 -0.21691164310E+03 -0.38867387276E+03  0.58559800906E+03  0.73975673903E+03  0.78720800634E+02 0.  0.
        254    2    1    2    0    0  0.21691164310E+03  0.38867387276E+03 -0.84736714817E+03  0.13069635265E+04  0.88994636670E+03 0.  0.
         23    2    4    4    0    0 -0.25393697743E+03 -0.10463363160E+03 -0.14448812002E+03  0.32347621467E+03  0.91257105267E+02 0.  0.
         23    2    4    4    0    0  0.47084862053E+03  0.49330750436E+03 -0.70287902815E+03  0.98348731186E+03  0.90319693606E+02 0.  0.
          4    1    3    3  502    0 -0.71392258765E+02 -0.20725157502E+03  0.27218596098E+03  0.34947856489E+03  0.00000000000E+00 0. -1.
         -3    1    3    3    0  502 -0.14551938433E+03 -0.18142229773E+03  0.31341204808E+03  0.39027817414E+03  0.00000000000E+00 0.  1.
         13    1    5    5    0    0 -0.25843096894E+03 -0.89745090560E+02 -0.13330242055E+03  0.30431937551E+03  0.00000000000E+00 0.  1.
        -13    1    5    5    0    0  0.44939915072E+01 -0.14888541041E+02 -0.11185699468E+02  0.19156839160E+02  0.00000000000E+00 0. -1.
          2    1    6    6  503    0  0.20161419389E+03  0.21464467067E+03 -0.36822261697E+03  0.47149603760E+03  0.00000000000E+00 0. -1.
         -2    1    6    6    0  503  0.26923442664E+03  0.27866283369E+03 -0.33465641118E+03  0.51199127426E+03  0.00000000000E+00 0.  1.
<mgrwt>
<rscale>  0 0.20299115E+04</rscale>
<asrwt>0</asrwt>
<pdfrwt beam="1">  1        2 0.13730393E+00 0.20299115E+04</pdfrwt>
<pdfrwt beam="2">  1       -1 0.17757611E+00 0.20299115E+04</pdfrwt>
<totfact> 0.67970817E+00</totfact>
</mgrwt>
</event>
<event>
12    7  0.1606355E-007  0.1457872E+04  0.7818608E-02  0.8912961E-01
          2   -1    0    0  501    0  0.00000000000E+00  0.00000000000E+00  0.58024650387E+03  0.58024650387E+03  0.00000000000E+00 0. -1.
         -1   -1    0    0    0  501 -0.00000000000E+00 -0.00000000000E+00 -0.91572709967E+03  0.91572709967E+03  0.00000000000E+00 0.  1.
         24    2    1    2    0    0 -0.32335678766E+03 -0.46049562897E+02  0.20957205569E+03  0.39588675584E+03  0.78266867533E+02 0.  0.
        254    2    1    2    0    0  0.32335678766E+03  0.46049562897E+02 -0.54505265150E+03  0.11000868477E+04  0.89801364422E+03 0.  0.
         23    2    4    4    0    0 -0.27121804724E+02 -0.38294403810E+03 -0.21079315625E+03  0.44723388387E+03  0.90568557244E+02 0.  0.
         23    2    4    4    0    0  0.35047859238E+03  0.42899360099E+03 -0.33425949525E+03  0.65285296382E+03  0.87274445265E+02 0.  0.
          2    1    3    3  502    0 -0.15812979296E+03 -0.35227026742E+02  0.14737357262E+03  0.21900900607E+03  0.00000000000E+00 0. -1.
         -1    1    3    3    0  502 -0.16522699470E+03 -0.10822536155E+02  0.62198483078E+02  0.17687774977E+03  0.00000000000E+00 0.  1.
         13    1    5    5    0    0 -0.82623733417E+01 -0.26425477876E+03 -0.18925597768E+03  0.32514101556E+03  0.00000000000E+00 0.  1.
        -13    1    5    5    0    0 -0.18859431383E+02 -0.11868925933E+03 -0.21537178571E+02  0.12209286832E+03  0.00000000000E+00 0. -1.
          3    1    6    6  503    0  0.13721955522E+03  0.11003564956E+03 -0.12531120366E+03  0.21596284002E+03  0.00000000000E+00 0. -1.
         -3    1    6    6    0  503  0.21325903716E+03  0.31895795144E+03 -0.20894829160E+03  0.43689012380E+03  0.00000000000E+00 0.  1.
<mgrwt>
<rscale>  0 0.14578717E+04</rscale>
<asrwt>0</asrwt>
<pdfrwt beam="1">  1        2 0.89268692E-01 0.14578717E+04</pdfrwt>
<pdfrwt beam="2">  1       -1 0.14088109E+00 0.14578717E+04</pdfrwt>
<totfact> 0.23588731E+01</totfact>
</mgrwt>
</event>
<event>
12    7  0.1606355E-007  0.1424954E+04  0.7818608E-02  0.8935951E-01
         -1   -1    0    0    0  501 -0.00000000000E+00  0.00000000000E+00  0.65591142245E+03  0.65591142245E+03  0.00000000000E+00 0.  1.
          2   -1    0    0  501    0  0.00000000000E+00 -0.00000000000E+00 -0.77392057458E+03  0.77392057458E+03  0.00000000000E+00 0. -1.
         24    2    1    2    0    0  0.27838478254E+03 -0.31450616024E+03 -0.10214061755E+03  0.43955288428E+03  0.79761020199E+02 0.  0.
        254    2    1    2    0    0 -0.27838478254E+03  0.31450616024E+03 -0.15868534578E+02  0.99027911275E+03  0.89665416900E+03 0.  0.
         23    2    4    4    0    0 -0.86960847580E+02  0.55156121582E+03  0.20651829222E+03  0.60250955624E+03  0.92660652574E+02 0.  0.
         23    2    4    4    0    0 -0.19142393496E+03 -0.23705505559E+03 -0.22238682679E+03  0.38776955651E+03  0.89839334184E+02 0.  0.
          2    1    3    3  502    0  0.22199612650E+03 -0.26001609192E+03 -0.11367343273E+03  0.36029473705E+03  0.00000000000E+00 0. -1.
         -1    1    3    3    0  502  0.56388656040E+02 -0.54490068317E+02  0.11532815180E+02  0.79258147222E+02  0.00000000000E+00 0.  1.
         13    1    5    5    0    0 -0.43455562038E+02  0.27612133905E+03  0.15269671772E+03  0.31850850436E+03  0.00000000000E+00 0.  1.
        -13    1    5    5    0    0 -0.43505285542E+02  0.27543987678E+03  0.53821574492E+02  0.28400105188E+03  0.00000000000E+00 0. -1.
          1    1    6    6  503    0 -0.10235562826E+03 -0.13488555682E+03 -0.68377758180E+02  0.18260970919E+03  0.00000000000E+00 0. -1.
         -1    1    6    6    0  503 -0.89068306700E+02 -0.10216949876E+03 -0.15400906861E+03  0.20515984732E+03  0.00000000000E+00 0.  1.
<mgrwt>
<rscale>  0 0.14249538E+04</rscale>
<asrwt>0</asrwt>
<pdfrwt beam="1">  1        2 0.11906470E+00 0.14249538E+04</pdfrwt>
<pdfrwt beam="2">  1       -1 0.10090945E+00 0.14249538E+04</pdfrwt>
<totfact> 0.37287687E+01</totfact>
</mgrwt>
</event>
<event>
12    7  0.1606355E-007  0.1854702E+04  0.7818608E-02  0.8677738E-01
          2   -1    0    0  501    0  0.00000000000E+00  0.00000000000E+00  0.21636856735E+04  0.21636856735E+04  0.00000000000E+00 0. -1.
         -1   -1    0    0    0  501 -0.00000000000E+00 -0.00000000000E+00 -0.39746072243E+03  0.39746072243E+03  0.00000000000E+00 0.  1.
         24    2    1    2    0    0 -0.20360127760E+03 -0.50618006809E+03  0.55899044014E+02  0.55418951591E+03  0.79558625194E+02 0.  0.
        254    2    1    2    0    0  0.20360127760E+03  0.50618006809E+03  0.17103259070E+04  0.20069568800E+04  0.89721205318E+03 0.  0.
         23    2    4    4    0    0  0.12421129126E+02  0.40423700427E+03  0.16883314874E+03  0.44764703575E+03  0.91221688382E+02 0.  0.
         23    2    4    4    0    0  0.19118014848E+03  0.10194306382E+03  0.15414927583E+04  0.15593098443E+04  0.91131932319E+02 0.  0.
          4    1    3    3  502    0 -0.61485859997E+02 -0.16079228783E+03  0.54952343894E+02  0.18070537044E+03  0.00000000000E+00 0. -1.
         -3    1    3    3    0  502 -0.14211541761E+03 -0.34538778026E+03  0.94670012004E+00  0.37348414547E+03  0.00000000000E+00 0.  1.
         13    1    5    5    0    0  0.43557138533E+02  0.24889976965E+03  0.13162408472E+03  0.28490914223E+03  0.00000000000E+00 0. -1.
        -13    1    5    5    0    0 -0.31136009408E+02  0.15533723462E+03  0.37209064020E+02  0.16273789352E+03  0.00000000000E+00 0.  1.
          2    1    6    6  503    0  0.72229122633E+02 -0.15033764216E+01  0.64827167429E+03  0.65228480742E+03  0.00000000000E+00 0. -1.
         -2    1    6    6    0  503  0.11895102585E+03  0.10344644024E+03  0.89322108400E+03  0.90702503684E+03  0.00000000000E+00 0.  1.
<mgrwt>
<rscale>  0 0.18547022E+04</rscale>
<asrwt>0</asrwt>
<pdfrwt beam="1">  1        2 0.33287471E+00 0.18547022E+04</pdfrwt>
<pdfrwt beam="2">  1       -1 0.61147805E-01 0.18547022E+04</pdfrwt>
<totfact> 0.15715135E+01</totfact>
</mgrwt>
</event>
<event>
12    7  0.1606355E-007  0.1402298E+04  0.7818608E-02  0.8952157E-01
         -1   -1    0    0    0  501 -0.00000000000E+00  0.00000000000E+00  0.13335672597E+03  0.13335672597E+03  0.00000000000E+00 0.  1.
          2   -1    0    0  501    0  0.00000000000E+00 -0.00000000000E+00 -0.36864258341E+04  0.36864258341E+04  0.00000000000E+00 0. -1.
         24    2    1    2    0    0 -0.18508589857E+03 -0.27168176936E+03 -0.39124001633E+03  0.51727555454E+03  0.80233878713E+02 0.  0.
        254    2    1    2    0    0  0.18508589857E+03  0.27168176936E+03 -0.31618290918E+04  0.33025070055E+04  0.89516565067E+03 0.  0.
         23    2    4    4    0    0  0.79125600003E+02  0.51937975591E+03 -0.27585836833E+04  0.28096932704E+04  0.92607474244E+02 0.  0.
         23    2    4    4    0    0  0.10596029857E+03 -0.24769798655E+03 -0.40324540843E+03  0.49281373510E+03  0.87616440649E+02 0.  0.
          2    1    3    3  502    0 -0.27483612987E+02 -0.32148275028E+02 -0.99996353738E+02  0.10857316119E+03  0.00000000000E+00 0. -1.
         -1    1    3    3    0  502 -0.15760228558E+03 -0.23953349433E+03 -0.29124366259E+03  0.40870239334E+03  0.00000000000E+00 0.  1.
         13    1    5    5    0    0  0.25907991128E+02  0.41264865718E+03 -0.22009074454E+04  0.22394070022E+04  0.00000000000E+00 0. -1.
        -13    1    5    5    0    0  0.53217608875E+02  0.10673109873E+03 -0.55767623793E+03  0.57028626819E+03  0.00000000000E+00 0.  1.
          1    1    6    6  503    0  0.10650764454E+03 -0.22378785206E+03 -0.39714169167E+03  0.46813075559E+03  0.00000000000E+00 0. -1.
         -1    1    6    6    0  503 -0.54734597380E+00 -0.23910134493E+02 -0.61037167656E+01  0.24682979509E+02  0.00000000000E+00 0.  1.
<mgrwt>
<rscale>  0 0.14022977E+04</rscale>
<asrwt>0</asrwt>
<pdfrwt beam="1">  1        2 0.56714253E+00 0.14022977E+04</pdfrwt>
<pdfrwt beam="2">  1       -1 0.20516416E-01 0.14022977E+04</pdfrwt>
<totfact> 0.13246667E+01</totfact>
</mgrwt>
</event>
<event>
12    7  0.1606355E-007  0.1571566E+04  0.7818608E-02  0.8838209E-01
         -1   -1    0    0    0  501 -0.00000000000E+00  0.00000000000E+00  0.35773516496E+03  0.35773516496E+03  0.00000000000E+00 0.  1.
          2   -1    0    0  501    0  0.00000000000E+00 -0.00000000000E+00 -0.17260105114E+04  0.17260105114E+04  0.00000000000E+00 0. -1.
         24    2    1    2    0    0 -0.54172432421E+02  0.51837835520E+03 -0.46850745426E+03  0.70517279873E+03  0.78221926488E+02 0.  0.
        254    2    1    2    0    0  0.54172432421E+02 -0.51837835520E+03 -0.89976789214E+03  0.13785728776E+04  0.90511333408E+03 0.  0.
         23    2    4    4    0    0  0.19665587221E+03 -0.69582624043E+03 -0.86386459994E+03  0.11310219303E+04  0.10050308910E+03 0.  0.
         23    2    4    4    0    0 -0.14248343979E+03  0.17744788522E+03 -0.35903292206E+02  0.24755094727E+03  0.90571201372E+02 0.  0.
          4    1    3    3  502    0 -0.17570836811E+01  0.42250765526E+02 -0.71331214135E+02  0.82923800205E+02  0.00000000000E+00 0. -1.
         -1    1    3    3    0  502 -0.52415348740E+02  0.47612758968E+03 -0.39717624013E+03  0.62224899852E+03  0.00000000000E+00 0.  1.
         13    1    5    5    0    0  0.27250321528E+02 -0.18568664000E+03 -0.16932883130E+03  0.25277333998E+03  0.00000000000E+00 0.  1.
        -13    1    5    5    0    0  0.16940555068E+03 -0.51013960043E+03 -0.69453576864E+03  0.87824859035E+03  0.00000000000E+00 0. -1.
          4    1    6    6  503    0 -0.13585091060E+03  0.18317300600E+03 -0.47569776860E+02  0.23296073426E+03  0.00000000000E+00 0. -1.
         -4    1    6    6    0  503 -0.66325291830E+01 -0.57251207765E+01  0.11666484654E+02  0.14590213002E+02  0.00000000000E+00 0.  1.
<mgrwt>
<rscale>  0 0.15715657E+04</rscale>
<asrwt>0</asrwt>
<pdfrwt beam="1">  1        2 0.26554008E+00 0.15715657E+04</pdfrwt>
<pdfrwt beam="2">  1       -1 0.55036180E-01 0.15715657E+04</pdfrwt>
<totfact> 0.34650095E+01</totfact>
</mgrwt>
</event>
<event>
12    7  0.1606355E-007  0.3055702E+04  0.7818608E-02  0.8228001E-01
         -1   -1    0    0    0  501 -0.00000000000E+00  0.00000000000E+00  0.69921542596E+03  0.69921542596E+03  0.00000000000E+00 0.  1.
          2   -1    0    0  501    0  0.00000000000E+00 -0.00000000000E+00 -0.33384981111E+04  0.33384981111E+04  0.00000000000E+00 0. -1.
         24    2    1    2    0    0  0.33529521716E+03 -0.25414301598E+02 -0.29925708384E+04  0.30125543956E+04  0.83276611250E+02 0.  0.
        254    2    1    2    0    0 -0.33529521716E+03  0.25414301598E+02  0.35328815327E+03  0.10251591415E+04  0.90170392965E+03 0.  0.
         23    2    4    4    0    0 -0.38188475082E+03 -0.36980740473E+03  0.10959010359E+03  0.54979849958E+03  0.87606619805E+02 0.  0.
         23    2    4    4    0    0  0.46589533658E+02  0.39522170632E+03  0.24369804968E+03  0.47536064190E+03  0.90599219955E+02 0.  0.
          2    1    3    3  502    0  0.31710719517E+03 -0.39164214206E+02 -0.26435109535E+04  0.26627506399E+04  0.00000000000E+00 0. -1.
         -1    1    3    3    0  502  0.18188021988E+02  0.13749912608E+02 -0.34905988496E+03  0.34980375574E+03  0.00000000000E+00 0.  1.
         13    1    5    5    0    0 -0.28405773841E+03 -0.25619853172E+03  0.11602964293E+03  0.39973661884E+03  0.00000000000E+00 0.  1.
        -13    1    5    5    0    0 -0.97827012411E+02 -0.11360887301E+03 -0.64395393357E+01  0.15006188074E+03  0.00000000000E+00 0. -1.
          2    1    6    6  503    0  0.71286065557E+02  0.22908261697E+03  0.13499154396E+03  0.27528760503E+03  0.00000000000E+00 0.  1.
         -2    1    6    6    0  503 -0.24696531899E+02  0.16613908935E+03  0.10870650572E+03  0.20007303687E+03  0.00000000000E+00 0. -1.
<mgrwt>
<rscale>  0 0.30557025E+04</rscale>
<asrwt>0</asrwt>
<pdfrwt beam="1">  1        2 0.51361509E+00 0.30557025E+04</pdfrwt>
<pdfrwt beam="2">  1       -1 0.10757160E+00 0.30557025E+04</pdfrwt>
<totfact> 0.81654782E-01</totfact>
</mgrwt>
</event>
<event>
12    7  0.1606355E-007  0.1232738E+04  0.7818608E-02  0.9084674E-01
          2   -1    0    0  501    0  0.00000000000E+00  0.00000000000E+00  0.62765369704E+03  0.62765369704E+03  0.00000000000E+00 0. -1.
         -1   -1    0    0    0  501 -0.00000000000E+00 -0.00000000000E+00 -0.60528736511E+03  0.60528736511E+03  0.00000000000E+00 0.  1.
         24    2    1    2    0    0 -0.32193445252E+01  0.23386212120E+03  0.15188223554E+03  0.29023842604E+03  0.80425584017E+02 0.  0.
        254    2    1    2    0    0  0.32193445252E+01 -0.23386212120E+03 -0.12951590361E+03  0.94270263611E+03  0.90399780693E+03 0.  0.
         23    2    4    4    0    0 -0.14235633697E+03  0.25774555154E+03  0.16052085549E+03  0.34671364543E+03  0.88007447773E+02 0.  0.
         23    2    4    4    0    0  0.14557568150E+03 -0.49160767275E+03 -0.29003675910E+03  0.59598899068E+03  0.90615519827E+02 0.  0.
          4    1    3    3  502    0  0.18727319722E+02  0.21800598315E+03  0.12458579421E+03  0.25179146394E+03  0.00000000000E+00 0. -1.
         -3    1    3    3    0  502 -0.21946664247E+02  0.15856138053E+02  0.27296441329E+02  0.38446962100E+02  0.00000000000E+00 0.  1.
         13    1    5    5    0    0 -0.21168569980E+02  0.11533179792E+02  0.40636270540E+02  0.47248588069E+02  0.00000000000E+00 0.  1.
        -13    1    5    5    0    0 -0.12118776699E+03  0.24621237175E+03  0.11988458495E+03  0.29946505736E+03  0.00000000000E+00 0. -1.
          4    1    6    6  503    0  0.75875206119E+02 -0.38638130762E+03 -0.20640738491E+03  0.44458021810E+03  0.00000000000E+00 0. -1.
         -4    1    6    6    0  503  0.69700475381E+02 -0.10522636513E+03 -0.83629374190E+02  0.15140877258E+03  0.00000000000E+00 0.  1.
<mgrwt>
<rscale>  0 0.12327382E+04</rscale>
<asrwt>0</asrwt>
<pdfrwt beam="1">  1        2 0.96562108E-01 0.12327382E+04</pdfrwt>
<pdfrwt beam="2">  1       -1 0.93121133E-01 0.12327382E+04</pdfrwt>
<totfact> 0.59177122E+01</totfact>
</mgrwt>
</event>
<event>
12    7  0.1606355E-007  0.2211624E+04  0.7818608E-02  0.8513606E-01
         -1   -1    0    0    0  501 -0.00000000000E+00  0.00000000000E+00  0.19061322394E+04  0.19061322394E+04  0.00000000000E+00 0.  1.
          2   -1    0    0  501    0  0.00000000000E+00 -0.00000000000E+00 -0.64151895002E+03  0.64151895002E+03  0.00000000000E+00 0. -1.
         24    2    1    2    0    0  0.28466243025E+03 -0.60985613054E+03  0.12547027402E+04  0.14260470707E+04  0.79837850191E+02 0.  0.
        254    2    1    2    0    0 -0.28466243025E+03  0.60985613054E+03  0.99105491126E+01  0.11216041187E+04  0.89718469723E+03 0.  0.
         23    2    4    4    0    0 -0.18517434458E+03  0.75166982205E+03  0.24399986324E+03  0.81686706272E+03  0.91862971971E+02 0.  0.
         23    2    4    4    0    0 -0.99488085669E+02 -0.14181369151E+03 -0.23408931412E+03  0.30473705598E+03  0.89765605963E+02 0.  0.
          4    1    3    3  502    0  0.50686131195E+02 -0.95154241471E+02  0.14585078597E+03  0.18137217354E+03  0.00000000000E+00 0. -1.
         -3    1    3    3    0  502  0.23397629906E+03 -0.51470188907E+03  0.11088519543E+04  0.12446748972E+04  0.00000000000E+00 0.  1.
         13    1    5    5    0    0 -0.17706309078E+03  0.74945260904E+03  0.23645366154E+03  0.80556867204E+03  0.00000000000E+00 0. -1.
        -13    1    5    5    0    0 -0.81112538044E+01  0.22172130063E+01  0.75462016985E+01  0.11298390676E+02  0.00000000000E+00 0.  1.
          1    1    6    6  503    0 -0.10993353109E+03 -0.10692396375E+03 -0.15695980810E+03  0.21944132847E+03  0.00000000000E+00 0. -1.
         -1    1    6    6    0  503  0.10445445419E+02 -0.34889727761E+02 -0.77129506021E+02  0.85295727514E+02  0.00000000000E+00 0.  1.
<mgrwt>
<rscale>  0 0.22116238E+04</rscale>
<asrwt>0</asrwt>
<pdfrwt beam="1">  1        2 0.98695224E-01 0.22116238E+04</pdfrwt>
<pdfrwt beam="2">  1       -1 0.29325111E+00 0.22116238E+04</pdfrwt>
<totfact> 0.17402451E+00</totfact>
</mgrwt>
</event>
<event>
12    7  0.1606355E-007  0.1581402E+04  0.7818608E-02  0.8832056E-01
         -1   -1    0    0    0  501 -0.00000000000E+00  0.00000000000E+00  0.59377299431E+03  0.59377299431E+03  0.00000000000E+00 0.  1.
          2   -1    0    0  501    0  0.00000000000E+00 -0.00000000000E+00 -0.10529407588E+04  0.10529407588E+04  0.00000000000E+00 0. -1.
         24    2    1    2    0    0 -0.36248707295E+03  0.29532652510E+03 -0.85233012850E+02  0.48231711124E+03  0.82161395002E+02 0.  0.
        254    2    1    2    0    0  0.36248707295E+03 -0.29532652510E+03 -0.37393475162E+03  0.11643966419E+04  0.99868799262E+03 0.  0.
         23    2    4    4    0    0 -0.32122455213E+03  0.27546117176E+02 -0.17268966799E+03  0.37692482210E+03  0.91140543258E+02 0.  0.
         23    2    4    4    0    0  0.68371162508E+03 -0.32287264228E+03 -0.20124508364E+03  0.78747181975E+03  0.88904183294E+02 0.  0.
          4    1    3    3  502    0 -0.33030297761E+03  0.27507101086E+03 -0.10034096514E+03  0.44139826383E+03  0.00000000000E+00 0. -1.
         -3    1    3    3    0  502 -0.32184095346E+02  0.20255514243E+02  0.15107952292E+02  0.40918847405E+02  0.00000000000E+00 0.  1.
         13    1    5    5    0    0 -0.18238635575E+02 -0.15304915709E+02  0.31223911874E+01  0.24013279644E+02  0.00000000000E+00 0. -1.
        -13    1    5    5    0    0 -0.30298591656E+03  0.42851032886E+02 -0.17581205917E+03  0.35291154246E+03  0.00000000000E+00 0.  1.
          3    1    6    6  503    0  0.34746662093E+02 -0.74214611814E+01 -0.28404624908E+02  0.45488804434E+02  0.00000000000E+00 0. -1.
         -3    1    6    6    0  503  0.64896496299E+03 -0.31545118110E+03 -0.17284045873E+03  0.74198301532E+03  0.00000000000E+00 0.  1.
<mgrwt>
<rscale>  0 0.15814016E+04</rscale>
<asrwt>0</asrwt>
<pdfrwt beam="1">  1        2 0.16199088E+00 0.15814016E+04</pdfrwt>
<pdfrwt beam="2">  1       -1 0.91349692E-01 0.15814016E+04</pdfrwt>
<totfact> 0.29848505E+01</totfact>
</mgrwt>
</event>
<event>
12    7  0.1606355E-007  0.1582418E+04  0.7818608E-02  0.8831423E-01
         -1   -1    0    0    0  501 -0.00000000000E+00  0.00000000000E+00  0.85108191031E+03  0.85108191031E+03  0.00000000000E+00 0.  1.
          2   -1    0    0  501    0  0.00000000000E+00 -0.00000000000E+00 -0.73554790358E+03  0.73554790358E+03  0.00000000000E+00 0. -1.
         24    2    1    2    0    0  0.33906067730E+03 -0.70416411617E+02 -0.34478965698E+03  0.49506094792E+03  0.79276860925E+02 0.  0.
        254    2    1    2    0    0 -0.33906067730E+03  0.70416411617E+02  0.46032366371E+03  0.10915688660E+04  0.92720229716E+03 0.  0.
         23    2    4    4    0    0 -0.22852710439E+03  0.25081318898E+03 -0.19222432127E+03  0.39951126422E+03  0.86759249294E+02 0.  0.
         23    2    4    4    0    0 -0.11053357291E+03 -0.18039677737E+03  0.65254798497E+03  0.69205760175E+03  0.91455909745E+02 0.  0.
          4    1    3    3  502    0  0.22275862256E+03 -0.27660602299E+02 -0.26671975733E+03  0.34860571108E+03  0.00000000000E+00 0. -1.
         -3    1    3    3    0  502  0.11630205474E+03 -0.42755809319E+02 -0.78069899646E+02  0.14645523684E+03  0.00000000000E+00 0.  1.
         13    1    5    5    0    0 -0.13566134006E+03  0.90726317742E+02 -0.69127368515E+02  0.17723954693E+03  0.00000000000E+00 0. -1.
        -13    1    5    5    0    0 -0.92865764338E+02  0.16008687124E+03 -0.12309695275E+03  0.22227171729E+03  0.00000000000E+00 0.  1.
          4    1    6    6  503    0 -0.42388706721E+02 -0.14975055001E+03  0.45184103329E+03  0.47789365873E+03  0.00000000000E+00 0. -1.
         -4    1    6    6    0  503 -0.68144866186E+02 -0.30646227355E+02  0.20070695168E+03  0.21416394302E+03  0.00000000000E+00 0.  1.
<mgrwt>
<rscale>  0 0.15824178E+04</rscale>
<asrwt>0</asrwt>
<pdfrwt beam="1">  1        2 0.11316122E+00 0.15824178E+04</pdfrwt>
<pdfrwt beam="2">  1       -1 0.13093568E+00 0.15824178E+04</pdfrwt>
<totfact> 0.21004853E+01</totfact>
</mgrwt>
</event>
<event>
12    7  0.1606355E-007  0.1432374E+04  0.7818608E-02  0.8930712E-01
          2   -1    0    0  501    0  0.00000000000E+00  0.00000000000E+00  0.14177047649E+04  0.14177047649E+04  0.00000000000E+00 0. -1.
         -1   -1    0    0    0  501 -0.00000000000E+00 -0.00000000000E+00 -0.36179896322E+03  0.36179896322E+03  0.00000000000E+00 0.  1.
         24    2    1    2    0    0  0.37744550390E+03  0.89366454610E+02  0.10120310756E+03  0.40899398238E+03  0.81132835605E+02 0.  0.
        254    2    1    2    0    0 -0.37744550390E+03 -0.89366454610E+02  0.95470269407E+03  0.13705097457E+04  0.90354206176E+03 0.  0.
         23    2    4    4    0    0 -0.91902511399E+02 -0.46880988765E+03  0.59013558675E+03  0.76459919860E+03  0.90128471526E+02 0.  0.
         23    2    4    4    0    0 -0.28554299251E+03  0.37944343304E+03  0.36456710732E+03  0.60591054711E+03  0.93307534016E+02 0.  0.
          4    1    3    3  502    0  0.19365930045E+02  0.76880152468E+01  0.27321019316E+02  0.34359611776E+02  0.00000000000E+00 0. -1.
         -1    1    3    3    0  502  0.35807957386E+03  0.81678439363E+02  0.73882088240E+02  0.37463437060E+03  0.00000000000E+00 0.  1.
         13    1    5    5    0    0 -0.88972506154E+02 -0.38895663694E+03  0.43622333930E+03  0.59118032276E+03  0.00000000000E+00 0.  1.
        -13    1    5    5    0    0 -0.29300052450E+01 -0.79853250716E+02  0.15391224745E+03  0.17341887583E+03  0.00000000000E+00 0. -1.
          2    1    6    6  503    0 -0.40785937467E+02  0.12331155270E+02  0.28216095353E+02  0.51104775925E+02  0.00000000000E+00 0. -1.
         -2    1    6    6    0  503 -0.24475705504E+03  0.36711227777E+03  0.33635101197E+03  0.55480577118E+03  0.00000000000E+00 0.  1.
<mgrwt>
<rscale>  0 0.14323744E+04</rscale>
<asrwt>0</asrwt>
<pdfrwt beam="1">  1        2 0.21810842E+00 0.14323744E+04</pdfrwt>
<pdfrwt beam="2">  1       -1 0.55661379E-01 0.14323744E+04</pdfrwt>
<totfact> 0.51063103E+01</totfact>
</mgrwt>
</event>
<event>
12    7  0.1606355E-007  0.1357595E+04  0.7818608E-02  0.8985098E-01
          2   -1    0    0  501    0  0.00000000000E+00  0.00000000000E+00  0.27640148424E+04  0.27640148424E+04  0.00000000000E+00 0. -1.
         -1   -1    0    0    0  501 -0.00000000000E+00 -0.00000000000E+00 -0.16670177581E+03  0.16670177581E+03  0.00000000000E+00 0.  1.
         24    2    1    2    0    0 -0.21236273702E+03 -0.29861260399E+03  0.56527628681E+03  0.67806544054E+03  0.77253102769E+02 0.  0.
        254    2    1    2    0    0  0.21236273702E+03  0.29861260399E+03  0.20320367798E+04  0.22526511777E+04  0.90055340460E+03 0.  0.
         23    2    4    4    0    0 -0.15407864058E+02  0.31475417279E+03  0.19729011774E+04  0.20000663122E+04  0.92836445268E+02 0.  0.
         23    2    4    4    0    0  0.22777060108E+03 -0.16141568800E+02  0.59135602350E+02  0.25258486551E+03  0.90344329421E+02 0.  0.
          2    1    3    3  502    0 -0.30835831997E+02 -0.35740947289E+02  0.34128043365E+02  0.58249353575E+02  0.00000000000E+00 0. -1.
         -1    1    3    3    0  502 -0.18152690503E+03 -0.26287165670E+03  0.53114824344E+03  0.61981608696E+03  0.00000000000E+00 0.  1.
         13    1    5    5    0    0  0.36708407575E+02  0.15445597646E+03  0.87157693081E+03  0.88591788681E+03  0.00000000000E+00 0. -1.
        -13    1    5    5    0    0 -0.52116271632E+02  0.16029819633E+03  0.11013242466E+04  0.11141484253E+04  0.00000000000E+00 0.  1.
          3    1    6    6  503    0 -0.23261090251E+01  0.11121052561E+02  0.11236426050E+02  0.15979545164E+02  0.00000000000E+00 0. -1.
         -3    1    6    6    0  503  0.23009671011E+03 -0.27262621360E+02  0.47899176300E+02  0.23660532035E+03  0.00000000000E+00 0.  1.
<mgrwt>
<rscale>  0 0.13575952E+04</rscale>
<asrwt>0</asrwt>
<pdfrwt beam="1">  1        2 0.42523302E+00 0.13575952E+04</pdfrwt>
<pdfrwt beam="2">  1       -1 0.25646429E-01 0.13575952E+04</pdfrwt>
<totfact> 0.36485537E+01</totfact>
</mgrwt>
</event>
<event>
12    7  0.1606355E-007  0.2410379E+04  0.7818608E-02  0.8435628E-01
         -1   -1    0    0    0  501 -0.00000000000E+00  0.00000000000E+00  0.80507752590E+03  0.80507752590E+03  0.00000000000E+00 0.  1.
          2   -1    0    0  501    0  0.00000000000E+00 -0.00000000000E+00 -0.18041515139E+04  0.18041515139E+04  0.00000000000E+00 0. -1.
         24    2    1    2    0    0  0.52634950402E+03  0.85964270846E+03 -0.61017732268E+03  0.11810272086E+04  0.80495438647E+02 0.  0.
        254    2    1    2    0    0 -0.52634950402E+03 -0.85964270846E+03 -0.38889666537E+03  0.14282018313E+04  0.93407198222E+03 0.  0.
         23    2    4    4    0    0 -0.58999851270E+03 -0.53985969390E+03  0.12231582525E+03  0.81468353678E+03  0.95923771277E+02 0.  0.
         23    2    4    4    0    0  0.63649008675E+02 -0.31978301455E+03 -0.51121249061E+03  0.61351829451E+03  0.93563424694E+02 0.  0.
          4    1    3    3  502    0  0.30812940163E+03  0.53685630146E+03 -0.41505031411E+03  0.74526852866E+03  0.00000000000E+00 0. -1.
         -3    1    3    3    0  502  0.21822010239E+03  0.32278640699E+03 -0.19512700856E+03  0.43575867989E+03  0.00000000000E+00 0.  1.
         13    1    5    5    0    0 -0.36116104442E+02 -0.68537177396E+02  0.18137471237E+01  0.77491982580E+02  0.00000000000E+00 0. -1.
        -13    1    5    5    0    0 -0.55388240826E+03 -0.47132251651E+03  0.12050207813E+03  0.73719155420E+03  0.00000000000E+00 0.  1.
          4    1    6    6  503    0 -0.46909372042E+00 -0.21967823799E+02 -0.96318939608E+02  0.98793438338E+02  0.00000000000E+00 0. -1.
         -4    1    6    6    0  503  0.64118102395E+02 -0.29781519075E+03 -0.41489355101E+03  0.51472485617E+03  0.00000000000E+00 0.  1.
<mgrwt>
<rscale>  0 0.24103791E+04</rscale>
<asrwt>0</asrwt>
<pdfrwt beam="1">  1        2 0.27756177E+00 0.24103791E+04</pdfrwt>
<pdfrwt beam="2">  1       -1 0.12385808E+00 0.24103791E+04</pdfrwt>
<totfact> 0.50261498E+00</totfact>
</mgrwt>
</event>
<event>
12    7  0.1606355E-007  0.1551283E+04  0.7818608E-02  0.8851049E-01
          4   -1    0    0  501    0  0.00000000000E+00  0.00000000000E+00  0.27793738732E+04  0.27793738732E+04  0.00000000000E+00 0. -1.
         -3   -1    0    0    0  501 -0.00000000000E+00 -0.00000000000E+00 -0.21645867080E+03  0.21645867080E+03  0.00000000000E+00 0.  1.
         24    2    1    2    0    0 -0.20280685011E+03  0.66155798728E+02  0.15452227018E+04  0.15619888585E+04  0.81171347734E+02 0.  0.
        254    2    1    2    0    0  0.20280685011E+03 -0.66155798728E+02  0.10176925006E+04  0.14338436855E+04  0.98727021657E+03 0.  0.
         23    2    4    4    0    0  0.36814630292E+03 -0.25227356304E+03  0.84924017165E+02  0.46382250135E+03  0.93517768910E+02 0.  0.
         23    2    4    4    0    0 -0.16533945281E+03  0.18611776431E+03  0.93276848340E+03  0.97002118413E+03  0.94377418840E+02 0.  0.
          2    1    3    3  502    0 -0.18490736403E+03  0.38416727080E+02  0.14193375266E+04  0.14318469166E+04  0.00000000000E+00 0. -1.
         -1    1    3    3    0  502 -0.17899486077E+02  0.27739071648E+02  0.12588517521E+03  0.13014194188E+03  0.00000000000E+00 0.  1.
         13    1    5    5    0    0  0.30725828012E+03 -0.19861765376E+03  0.32716394374E+02  0.36732408790E+03  0.00000000000E+00 0. -1.
        -13    1    5    5    0    0  0.60888022798E+02 -0.53655909279E+02  0.52207622791E+02  0.96498413449E+02  0.00000000000E+00 0.  1.
          1    1    6    6  503    0 -0.16956083596E+03  0.19028370087E+03  0.92813973169E+03  0.96249785738E+03  0.00000000000E+00 0. -1.
         -1    1    6    6    0  503  0.42213831469E+01 -0.41659365552E+01  0.46287517041E+01  0.75233267504E+01  0.00000000000E+00 0.  1.
<mgrwt>
<rscale>  0 0.15512828E+04</rscale>
<asrwt>0</asrwt>
<pdfrwt beam="1">  1        4 0.42759596E+00 0.15512828E+04</pdfrwt>
<pdfrwt beam="2">  1       -3 0.33301336E-01 0.15512828E+04</pdfrwt>
<totfact> 0.86108830E-02</totfact>
</mgrwt>
</event>
<event>
12    7  0.1606355E-007  0.2469864E+04  0.7818608E-02  0.8413801E-01
          2   -1    0    0  501    0  0.00000000000E+00  0.00000000000E+00  0.16731922229E+04  0.16731922229E+04  0.00000000000E+00 0. -1.
         -1   -1    0    0    0  501 -0.00000000000E+00 -0.00000000000E+00 -0.91146582129E+03  0.91146582129E+03  0.00000000000E+00 0.  1.
         24    2    1    2    0    0  0.18078697537E+03 -0.97605362654E+03 -0.92284102765E+02  0.10003239155E+04  0.82261582334E+02 0.  0.
        254    2    1    2    0    0 -0.18078697537E+03  0.97605362654E+03  0.85401050439E+03  0.15843341287E+04  0.89186101916E+03 0.  0.
         23    2    4    4    0    0  0.17019634604E+03  0.95127230567E+03  0.63400316954E+03  0.11593952511E+04  0.91386725432E+02 0.  0.
         23    2    4    4    0    0 -0.35098332141E+03  0.24781320873E+02  0.22000733485E+03  0.42493887762E+03  0.91468117666E+02 0.  0.
          4    1    3    3  502    0  0.69978960979E+02 -0.43561722990E+03 -0.80707593085E+02  0.44852328986E+03  0.00000000000E+00 0. -1.
         -3    1    3    3    0  502  0.11080801439E+03 -0.54043639663E+03 -0.11576509679E+02  0.55180062562E+03  0.00000000000E+00 0.  1.
         13    1    5    5    0    0 -0.49213719811E+01  0.14835959826E+03  0.11006435719E+03  0.18479435333E+03  0.00000000000E+00 0.  1.
        -13    1    5    5    0    0  0.17511771802E+03  0.80291270741E+03  0.52393881235E+03  0.97460089779E+03  0.00000000000E+00 0. -1.
          3    1    6    6  503    0 -0.29969326760E+03 -0.10529570186E+02  0.16750417111E+03  0.34348882636E+03  0.00000000000E+00 0. -1.
         -3    1    6    6    0  503 -0.51290053805E+02  0.35310891059E+02  0.52503163738E+02  0.81450051254E+02  0.00000000000E+00 0.  1.
<mgrwt>
<rscale>  0 0.24698644E+04</rscale>
<asrwt>0</asrwt>
<pdfrwt beam="1">  1        2 0.25741419E+00 0.24698644E+04</pdfrwt>
<pdfrwt beam="2">  1       -1 0.14022551E+00 0.24698644E+04</pdfrwt>
<totfact> 0.43129760E+00</totfact>
</mgrwt>
</event>
<event>
12    7  0.1606355E-007  0.1816617E+04  0.7818608E-02  0.8697513E-01
         -1   -1    0    0    0  501 -0.00000000000E+00  0.00000000000E+00  0.52300743296E+03  0.52300743296E+03  0.00000000000E+00 0.  1.
          2   -1    0    0  501    0  0.00000000000E+00 -0.00000000000E+00 -0.15774613889E+04  0.15774613889E+04  0.00000000000E+00 0. -1.
         24    2    1    2    0    0  0.37976429563E+03 -0.57334623978E+03 -0.41247960529E+03  0.80554973204E+03  0.76315890257E+02 0.  0.
        254    2    1    2    0    0 -0.37976429563E+03  0.57334623978E+03 -0.64197435067E+03  0.12949190898E+04  0.88979635389E+03 0.  0.
         23    2    4    4    0    0  0.15440094384E+03  0.47988046628E+03 -0.52338077247E+03  0.73238576233E+03  0.91304756181E+02 0.  0.
         23    2    4    4    0    0 -0.53416523947E+03  0.93465773501E+02 -0.11859357820E+03  0.56253332750E+03  0.91164433258E+02 0.  0.
          2    1    3    3  502    0  0.29277967018E+03 -0.43063512918E+03 -0.34849061064E+03  0.62658778751E+03  0.00000000000E+00 0. -1.
         -1    1    3    3    0  502  0.86984625447E+02 -0.14271111060E+03 -0.63988994651E+02  0.17896194453E+03  0.00000000000E+00 0.  1.
         13    1    5    5    0    0  0.34276610453E+02  0.13398777433E+03 -0.89890698456E+02  0.16494831725E+03  0.00000000000E+00 0. -1.
        -13    1    5    5    0    0  0.12012433338E+03  0.34589269195E+03 -0.43349007401E+03  0.56743744508E+03  0.00000000000E+00 0.  1.
          4    1    6    6  503    0 -0.15458593951E+03  0.20824985915E+01 -0.36529299450E+00  0.15460039758E+03  0.00000000000E+00 0. -1.
         -4    1    6    6    0  503 -0.37957929996E+03  0.91383274910E+02 -0.11822828521E+03  0.40793292992E+03  0.00000000000E+00 0.  1.
<mgrwt>
<rscale>  0 0.18166167E+04</rscale>
<asrwt>0</asrwt>
<pdfrwt beam="1">  1        2 0.24268637E+00 0.18166167E+04</pdfrwt>
<pdfrwt beam="2">  1       -1 0.80462683E-01 0.18166167E+04</pdfrwt>
<totfact> 0.19001426E+01</totfact>
</mgrwt>
</event>
<event>
12    7  0.1606355E-007  0.1821246E+04  0.7818608E-02  0.8695082E-01
         -1   -1    0    0    0  501 -0.00000000000E+00  0.00000000000E+00  0.69708678648E+03  0.69708678648E+03  0.00000000000E+00 0.  1.
          2   -1    0    0  501    0  0.00000000000E+00 -0.00000000000E+00 -0.11895705225E+04  0.11895705225E+04  0.00000000000E+00 0. -1.
         24    2    1    2    0    0 -0.53270068521E+03 -0.38407433328E+03  0.24560341668E+02  0.66216380507E+03  0.81083789135E+02 0.  0.
        254    2    1    2    0    0  0.53270068521E+03  0.38407433328E+03 -0.51704407765E+03  0.12244935039E+04  0.89485565835E+03 0.  0.
         23    2    4    4    0    0  0.68880356439E+03  0.54739885366E+02 -0.48160288938E+03  0.84783470515E+03  0.97136701815E+02 0.  0.
         23    2    4    4    0    0 -0.15610287918E+03  0.32933444791E+03 -0.35441188275E+02  0.37665879872E+03  0.88241063912E+02 0.  0.
          4    1    3    3  502    0 -0.29167451408E+03 -0.23616336309E+03 -0.20257732149E+02  0.37584242967E+03  0.00000000000E+00 0. -1.
         -3    1    3    3    0  502 -0.24102617113E+03 -0.14791097019E+03  0.44818073817E+02  0.28632137540E+03  0.00000000000E+00 0.  1.
         13    1    5    5    0    0  0.28457820980E+03  0.51393271464E+02 -0.15473483935E+03  0.32797697534E+03  0.00000000000E+00 0. -1.
        -13    1    5    5    0    0  0.40422535459E+03  0.33466139020E+01 -0.32686805002E+03  0.51985772981E+03  0.00000000000E+00 0.  1.
          2    1    6    6  503    0 -0.19948152608E+02  0.12835119236E+03  0.75938478492E+01  0.13011388818E+03  0.00000000000E+00 0. -1.
         -2    1    6    6    0  503 -0.13615472657E+03  0.20098325555E+03 -0.43035036124E+02  0.24654491054E+03  0.00000000000E+00 0.  1.
<mgrwt>
<rscale>  0 0.18212456E+04</rscale>
<asrwt>0</asrwt>
<pdfrwt beam="1">  1        2 0.18301085E+00 0.18212456E+04</pdfrwt>
<pdfrwt beam="2">  1       -1 0.10724412E+00 0.18212456E+04</pdfrwt>
<totfact> 0.16733664E+01</totfact>
</mgrwt>
</event>
<event>
12    7  0.1606355E-007  0.1483050E+04  0.7818608E-02  0.8895803E-01
         -1   -1    0    0    0  501 -0.00000000000E+00  0.00000000000E+00  0.23056453063E+03  0.23056453063E+03  0.00000000000E+00 0.  1.
          2   -1    0    0  501    0  0.00000000000E+00 -0.00000000000E+00 -0.23848385889E+04  0.23848385889E+04  0.00000000000E+00 0. -1.
         24    2    1    2    0    0  0.12961497056E+01 -0.27005377719E+03 -0.13222648060E+04  0.13519073084E+04  0.79614261112E+02 0.  0.
        254    2    1    2    0    0 -0.12961497056E+01  0.27005377719E+03 -0.83200925224E+03  0.12634958112E+04  0.91172997452E+03 0.  0.
         23    2    4    4    0    0  0.23915202959E+03  0.35917333806E+03 -0.60412038637E+02  0.44536591392E+03  0.92206305854E+02 0.  0.
         23    2    4    4    0    0 -0.24044817930E+03 -0.89119560875E+02 -0.77159721360E+03  0.81812989724E+03  0.90645715075E+02 0.  0.
          4    1    3    3  502    0 -0.25793777821E+02 -0.23547050880E+03 -0.10773970223E+04  0.11031301026E+04  0.00000000000E+00 0. -1.
         -3    1    3    3    0  502  0.27089927526E+02 -0.34583268392E+02 -0.24486778374E+03  0.24877720583E+03  0.00000000000E+00 0.  1.
         13    1    5    5    0    0  0.16694660560E+03  0.17893370853E+03 -0.56514975028E+02  0.25116206635E+03  0.00000000000E+00 0.  1.
        -13    1    5    5    0    0  0.72205423990E+02  0.18023962953E+03 -0.38970636088E+01  0.19420384758E+03  0.00000000000E+00 0. -1.
          1    1    6    6  503    0 -0.76510072309E+02 -0.51523499591E+02 -0.39587119826E+03  0.40647566691E+03  0.00000000000E+00 0. -1.
         -1    1    6    6    0  503 -0.16393810699E+03 -0.37596061284E+02 -0.37572601534E+03  0.41165423033E+03  0.00000000000E+00 0.  1.
<mgrwt>
<rscale>  0 0.14830498E+04</rscale>
<asrwt>0</asrwt>
<pdfrwt beam="1">  1        2 0.36689826E+00 0.14830498E+04</pdfrwt>
<pdfrwt beam="2">  1       -1 0.35471465E-01 0.14830498E+04</pdfrwt>
<totfact> 0.33925327E+01</totfact>
</mgrwt>
</event>
<event>
12    7  0.1606355E-007  0.2794827E+04  0.7818608E-02  0.8304876E-01
         -1   -1    0    0    0  501 -0.00000000000E+00  0.00000000000E+00  0.89913948821E+03  0.89913948821E+03  0.00000000000E+00 0.  1.
          2   -1    0    0  501    0  0.00000000000E+00 -0.00000000000E+00 -0.21718148712E+04  0.21718148712E+04  0.00000000000E+00 0. -1.
         24    2    1    2    0    0 -0.38963128215E+03 -0.11376146689E+04 -0.20327448511E+03  0.12221351595E+04  0.79461695052E+02 0.  0.
        254    2    1    2    0    0  0.38963128215E+03  0.11376146689E+04 -0.10694008979E+04  0.18488191999E+04  0.91023869531E+03 0.  0.
         23    2    4    4    0    0  0.28337173573E+03  0.89281408214E+03 -0.23691512258E+03  0.97048606933E+03  0.91092862314E+02 0.  0.
         23    2    4    4    0    0  0.10625954642E+03  0.24480058675E+03 -0.83248577529E+03  0.87833313053E+03  0.84959423447E+02 0.  0.
          4    1    3    3  502    0 -0.35341487537E+03 -0.10225815797E+04 -0.15843721088E+03  0.10934703979E+04  0.00000000000E+00 0. -1.
         -3    1    3    3    0  502 -0.36216406775E+02 -0.11503308917E+03 -0.44837274238E+02  0.12866476163E+03  0.00000000000E+00 0.  1.
         13    1    5    5    0    0  0.87053470000E+02  0.35971828392E+03 -0.56230007956E+02  0.37434925433E+03  0.00000000000E+00 0. -1.
        -13    1    5    5    0    0  0.19631826573E+03  0.53309579822E+03 -0.18068511462E+03  0.59613681499E+03  0.00000000000E+00 0.  1.
          1    1    6    6  503    0  0.11584770696E+03  0.24220381963E+03 -0.81653393278E+03  0.85954118274E+03  0.00000000000E+00 0. -1.
         -1    1    6    6    0  503 -0.95881605330E+01  0.25967671242E+01 -0.15951842515E+02  0.18791947784E+02  0.00000000000E+00 0.  1.
<mgrwt>
<rscale>  0 0.27948270E+04</rscale>
<asrwt>0</asrwt>
<pdfrwt beam="1">  1        2 0.33412536E+00 0.27948270E+04</pdfrwt>
<pdfrwt beam="2">  1       -1 0.13832915E+00 0.27948270E+04</pdfrwt>
<totfact> 0.22932243E+00</totfact>
</mgrwt>
</event>
<event>
12    7  0.1606355E-007  0.2327271E+04  0.7818608E-02  0.8467245E-01
          2   -1    0    0  501    0  0.00000000000E+00  0.00000000000E+00  0.14026864806E+04  0.14026864806E+04  0.00000000000E+00 0. -1.
         -1   -1    0    0    0  501 -0.00000000000E+00 -0.00000000000E+00 -0.96532470159E+03  0.96532470159E+03  0.00000000000E+00 0.  1.
         24    2    1    2    0    0  0.10985703910E+03  0.90827426980E+03  0.58636711824E+03  0.10902328830E+04  0.88037626517E+02 0.  0.
        254    2    1    2    0    0 -0.10985703910E+03 -0.90827426980E+03 -0.14900533919E+03  0.12777782992E+04  0.87947943270E+03 0.  0.
         23    2    4    4    0    0  0.10785995566E+03 -0.64237417772E+03  0.28441407495E+03  0.71722389882E+03  0.96127003410E+02 0.  0.
         23    2    4    4    0    0 -0.21771699476E+03 -0.26590009209E+03 -0.43341941414E+03  0.56055440037E+03  0.90913686745E+02 0.  0.
          2    1    3    3  502    0  0.94407700199E+02  0.81715438805E+03  0.55632797016E+03  0.99305333097E+03  0.00000000000E+00 0. -1.
         -1    1    3    3    0  502  0.15449338899E+02  0.91119881754E+02  0.30039148076E+02  0.97179552069E+02  0.00000000000E+00 0.  1.
         13    1    5    5    0    0  0.10649172630E+03 -0.41068745420E+03  0.15402241184E+03  0.45136191261E+03  0.00000000000E+00 0. -1.
        -13    1    5    5    0    0  0.13682293678E+01 -0.23168672352E+03  0.13039166311E+03  0.26586198622E+03  0.00000000000E+00 0.  1.
          2    1    6    6  503    0 -0.14197371259E+02 -0.74443652935E+02 -0.83581467269E+02  0.11282413077E+03  0.00000000000E+00 0. -1.
         -2    1    6    6    0  503 -0.20351962350E+03 -0.19145643915E+03 -0.34983794687E+03  0.44773026960E+03  0.00000000000E+00 0.  1.
<mgrwt>
<rscale>  0 0.23272713E+04</rscale>
<asrwt>0</asrwt>
<pdfrwt beam="1">  1        2 0.21579792E+00 0.23272713E+04</pdfrwt>
<pdfrwt beam="2">  1       -1 0.14851149E+00 0.23272713E+04</pdfrwt>
<totfact> 0.53267207E+00</totfact>
</mgrwt>
</event>
<event>
12    7  0.1740510E-007  0.3008053E+04  0.7818608E-02  0.8241435E-01
          2   -1    0    0  501    0  0.00000000000E+00  0.00000000000E+00  0.28070011729E+04  0.28070011729E+04  0.00000000000E+00 0. -1.
         -1   -1    0    0    0  501 -0.00000000000E+00 -0.00000000000E+00 -0.80587647115E+03  0.80587647115E+03  0.00000000000E+00 0.  1.
         24    2    1    2    0    0 -0.97151304608E+03  0.67102870706E+02 -0.24318277213E+03  0.10066528004E+04  0.76626405162E+02 0.  0.
        254    2    1    2    0    0  0.97151304608E+03 -0.67102870706E+02  0.22443074739E+04  0.26062248436E+04  0.89841610864E+03 0.  0.
         23    2    4    4    0    0 -0.12220496057E+03 -0.12944909098E+03  0.55680731036E+03  0.59229743992E+03  0.95345460936E+02 0.  0.
         23    2    4    4    0    0  0.10937180067E+04  0.62346220275E+02  0.16875001635E+04  0.20139274037E+04  0.90225585395E+02 0.  0.
          2    1    3    3  502    0 -0.19251214999E+03 -0.15440918160E+02 -0.58813745808E+02  0.20188711337E+03  0.00000000000E+00 0. -1.
         -1    1    3    3    0  502 -0.77900089609E+03  0.82543788865E+02 -0.18436902633E+03  0.80476568705E+03  0.00000000000E+00 0.  1.
         13    1    5    5    0    0 -0.82516775122E+01 -0.63558603855E+01 -0.36553889342E+00  0.10422128462E+02  0.00000000000E+00 0. -1.
        -13    1    5    5    0    0 -0.11395328306E+03 -0.12309323060E+03  0.55717284925E+03  0.58187531146E+03  0.00000000000E+00 0.  1.
          1    1    6    6  503    0  0.66520760937E+02  0.83166081785E+01  0.68861480861E+02  0.96104532430E+02  0.00000000000E+00 0. -1.
         -1    1    6    6    0  503  0.10271972457E+04  0.54029612097E+02  0.16186386827E+04  0.19178228713E+04  0.00000000000E+00 0.  1.
<mgrwt>
<rscale>  0 0.30080533E+04</rscale>
<asrwt>0</asrwt>
<pdfrwt beam="1">  1        2 0.43184633E+00 0.30080533E+04</pdfrwt>
<pdfrwt beam="2">  1       -1 0.12398100E+00 0.30080533E+04</pdfrwt>
<totfact> 0.12707350E+00</totfact>
</mgrwt>
</event>
<event>
12    7  0.1606355E-007  0.1769939E+04  0.7818608E-02  0.8722451E-01
          2   -1    0    0  501    0  0.00000000000E+00  0.00000000000E+00  0.21474478792E+04  0.21474478792E+04  0.00000000000E+00 0. -1.
         -3   -1    0    0    0  501 -0.00000000000E+00 -0.00000000000E+00 -0.36469850393E+03  0.36469850393E+03  0.00000000000E+00 0.  1.
         24    2    1    2    0    0 -0.44657391198E+03  0.25384764142E+03  0.12563999056E+04  0.13596153896E+04  0.78398986775E+02 0.  0.
        254    2    1    2    0    0  0.44657391198E+03 -0.25384764142E+03  0.52634946974E+03  0.11525309935E+04  0.88736522515E+03 0.  0.
         23    2    4    4    0    0  0.44348451372E+03 -0.49549152671E+03  0.13569145747E+03  0.68389040997E+03  0.84282585791E+02 0.  0.
         23    2    4    4    0    0  0.30893982557E+01  0.24164388528E+03  0.39065801227E+03  0.46864058355E+03  0.92784709533E+02 0.  0.
          4    1    3    3  502    0 -0.44007817599E+03  0.25785397061E+03  0.12483099060E+04  0.13484936383E+04  0.00000000000E+00 0. -1.
         -3    1    3    3    0  502 -0.64957359898E+01 -0.40063291833E+01  0.80899995273E+01  0.11121751298E+02  0.00000000000E+00 0.  1.
         13    1    5    5    0    0  0.26590054177E+03 -0.33247374787E+03  0.52858675618E+02  0.42899409172E+03  0.00000000000E+00 0.  1.
        -13    1    5    5    0    0  0.17758397195E+03 -0.16301777884E+03  0.82832781854E+02  0.25489631825E+03  0.00000000000E+00 0. -1.
          3    1    6    6  503    0  0.22774158701E+02  0.76229257233E+01  0.36323875262E+02  0.43545323689E+02  0.00000000000E+00 0. -1.
         -3    1    6    6    0  503 -0.19684760446E+02  0.23402095956E+03  0.35433413700E+03  0.42509525986E+03  0.00000000000E+00 0.  1.
<mgrwt>
<rscale>  0 0.17699390E+04</rscale>
<asrwt>0</asrwt>
<pdfrwt beam="1">  1        2 0.33037659E+00 0.17699390E+04</pdfrwt>
<pdfrwt beam="2">  1       -3 0.56107463E-01 0.17699390E+04</pdfrwt>
<totfact> 0.10503838E+01</totfact>
</mgrwt>
</event>
<event>
12    7  0.1606355E-007  0.1799850E+04  0.7818608E-02  0.8706379E-01
          2   -1    0    0  501    0  0.00000000000E+00  0.00000000000E+00  0.10364001749E+04  0.10364001749E+04  0.00000000000E+00 0. -1.
         -1   -1    0    0    0  501 -0.00000000000E+00 -0.00000000000E+00 -0.78142139217E+03  0.78142139217E+03  0.00000000000E+00 0.  1.
         24    2    1    2    0    0 -0.40166287246E+03  0.39393991608E+03 -0.27715271400E+03  0.63209024174E+03  0.78757388454E+02 0.  0.
        254    2    1    2    0    0  0.40166287246E+03 -0.39393991608E+03  0.53213149671E+03  0.11857313253E+04  0.89792712701E+03 0.  0.
         23    2    4    4    0    0  0.45750812495E+03 -0.56308643224E+03  0.14032747635E+03  0.74550828433E+03  0.98543324603E+02 0.  0.
         23    2    4    4    0    0 -0.55845252484E+02  0.16914651616E+03  0.39180402036E+03  0.44022304097E+03  0.92502428482E+02 0.  0.
          2    1    3    3  502    0 -0.98984626290E+02  0.82425757155E+02 -0.29652824852E+02  0.13217886255E+03  0.00000000000E+00 0. -1.
         -1    1    3    3    0  502 -0.30267824617E+03  0.31151415892E+03 -0.24749988914E+03  0.49991137919E+03  0.00000000000E+00 0.  1.
         13    1    5    5    0    0  0.38287042048E+03 -0.40485277587E+03  0.10824446468E+03  0.56763755438E+03  0.00000000000E+00 0.  1.
        -13    1    5    5    0    0  0.74637704470E+02 -0.15823365637E+03  0.32083011673E+02  0.17787072996E+03  0.00000000000E+00 0. -1.
          1    1    6    6  503    0  0.16173843189E+02  0.98481456812E+02  0.19755245825E+03  0.22133044142E+03  0.00000000000E+00 0. -1.
         -1    1    6    6    0  503 -0.72019095673E+02  0.70665059350E+02  0.19425156212E+03  0.21889259955E+03  0.00000000000E+00 0.  1.
<mgrwt>
<rscale>  0 0.17998503E+04</rscale>
<asrwt>0</asrwt>
<pdfrwt beam="1">  1        2 0.15944618E+00 0.17998503E+04</pdfrwt>
<pdfrwt beam="2">  1       -1 0.12021868E+00 0.17998503E+04</pdfrwt>
<totfact> 0.15849871E+01</totfact>
</mgrwt>
</event>
<event>
12    7  0.1606355E-007  0.2240681E+04  0.7818608E-02  0.8501684E-01
         -1   -1    0    0    0  501 -0.00000000000E+00  0.00000000000E+00  0.60393722435E+03  0.60393722435E+03  0.00000000000E+00 0.  1.
          2   -1    0    0  501    0  0.00000000000E+00 -0.00000000000E+00 -0.20783007500E+04  0.20783007500E+04  0.00000000000E+00 0. -1.
         24    2    1    2    0    0  0.88458143562E+03 -0.27978782556E+03 -0.81064210325E+03  0.12345381151E+04  0.78601491422E+02 0.  0.
        254    2    1    2    0    0 -0.88458143562E+03  0.27978782556E+03 -0.66372142240E+03  0.14476998593E+04  0.89137153443E+03 0.  0.
         23    2    4    4    0    0  0.79871886827E+02  0.45802751597E+02  0.12198705900E+03  0.17850995746E+03  0.92236391907E+02 0.  0.
         23    2    4    4    0    0 -0.96445332245E+03  0.23398507396E+03 -0.78570848140E+03  0.12691899018E+04  0.92660472066E+02 0.  0.
          4    1    3    3  502    0  0.46123637851E+02 -0.30971254961E+02 -0.62352598269E+02  0.83513203228E+02  0.00000000000E+00 0. -1.
         -3    1    3    3    0  502  0.83845779777E+03 -0.24881657059E+03 -0.74828950498E+03  0.11510249119E+04  0.00000000000E+00 0.  1.
         13    1    5    5    0    0 -0.12191768154E+02  0.14986891354E+02 -0.37235811900E+01  0.19675141170E+02  0.00000000000E+00 0. -1.
        -13    1    5    5    0    0  0.92063654981E+02  0.30815860243E+02  0.12571064019E+03  0.15883481629E+03  0.00000000000E+00 0.  1.
          1    1    6    6  503    0 -0.41812206413E+03  0.84827500713E+02 -0.39268150856E+03  0.57984526605E+03  0.00000000000E+00 0. -1.
         -1    1    6    6    0  503 -0.54633125831E+03  0.14915757325E+03 -0.39302697284E+03  0.68934463575E+03  0.00000000000E+00 0.  1.
<mgrwt>
<rscale>  0 0.22406813E+04</rscale>
<asrwt>0</asrwt>
<pdfrwt beam="1">  1        2 0.31973857E+00 0.22406813E+04</pdfrwt>
<pdfrwt beam="2">  1       -1 0.92913420E-01 0.22406813E+04</pdfrwt>
<totfact> 0.70496930E+00</totfact>
</mgrwt>
</event>
<event>
12    7  0.1606355E-007  0.2041176E+04  0.7818608E-02  0.8587608E-01
         -1   -1    0    0    0  501 -0.00000000000E+00  0.00000000000E+00  0.13761018305E+04  0.13761018305E+04  0.00000000000E+00 0.  1.
          2   -1    0    0  501    0  0.00000000000E+00 -0.00000000000E+00 -0.75692085922E+03  0.75692085922E+03  0.00000000000E+00 0. -1.
         24    2    1    2    0    0 -0.70893745392E+03 -0.13922447713E+02  0.68782789289E+03  0.99182663294E+03  0.88468703346E+02 0.  0.
        254    2    1    2    0    0  0.70893745392E+03  0.13922447713E+02 -0.68646921602E+02  0.11411960568E+04  0.89153232810E+03 0.  0.
         23    2    4    4    0    0  0.57740477760E+03 -0.35535625300E+03 -0.20890961013E+03  0.71528591400E+03  0.91194132558E+02 0.  0.
         23    2    4    4    0    0  0.13153267631E+03  0.36927870071E+03  0.14026268853E+03  0.42591014278E+03  0.89767612166E+02 0.  0.
          2    1    3    3  502    0 -0.50240067140E+03 -0.35685451047E+02  0.52856123392E+03  0.73010743322E+03  0.00000000000E+00 0. -1.
         -1    1    3    3    0  502 -0.20653678252E+03  0.21763003334E+02  0.15926665896E+03  0.26171919972E+03  0.00000000000E+00 0.  1.
         13    1    5    5    0    0  0.12167982982E+03 -0.10309822601E+03 -0.17902511124E+02  0.16048590311E+03  0.00000000000E+00 0. -1.
        -13    1    5    5    0    0  0.45572494779E+03 -0.25225802699E+03 -0.19100709901E+03  0.55480001089E+03  0.00000000000E+00 0.  1.
          4    1    6    6  503    0  0.99135642906E+02  0.21748166051E+03  0.43311139598E+02  0.24290327944E+03  0.00000000000E+00 0. -1.
         -4    1    6    6    0  503  0.32397033406E+02  0.15179704020E+03  0.96951548935E+02  0.18300686334E+03  0.00000000000E+00 0.  1.
<mgrwt>
<rscale>  0 0.20411763E+04</rscale>
<asrwt>0</asrwt>
<pdfrwt beam="1">  1        2 0.11644936E+00 0.20411763E+04</pdfrwt>
<pdfrwt beam="2">  1       -1 0.21170797E+00 0.20411763E+04</pdfrwt>
<totfact> 0.49011890E+00</totfact>
</mgrwt>
</event>
<event>
12    7  0.1606355E-007  0.2245001E+04  0.7818608E-02  0.8499928E-01
          2   -1    0    0  501    0  0.00000000000E+00  0.00000000000E+00  0.24052229021E+04  0.24052229021E+04  0.00000000000E+00 0. -1.
         -1   -1    0    0    0  501 -0.00000000000E+00 -0.00000000000E+00 -0.52386298408E+03  0.52386298408E+03  0.00000000000E+00 0.  1.
         24    2    1    2    0    0 -0.45302073742E+03  0.77330806260E+03  0.41423454935E+03  0.99061649605E+03  0.80607891370E+02 0.  0.
        254    2    1    2    0    0  0.45302073742E+03 -0.77330806260E+03  0.14671253687E+04  0.19384693901E+04  0.89552977664E+03 0.  0.
         23    2    4    4    0    0 -0.16846283281E+03 -0.47147295570E+03  0.33537208224E+03  0.60924451510E+03  0.89654735718E+02 0.  0.
         23    2    4    4    0    0  0.62148357023E+03 -0.30183510690E+03  0.11317532864E+04  0.13292248750E+04  0.92881683992E+02 0.  0.
          4    1    3    3  502    0 -0.99403291692E+02  0.11154990879E+03  0.74953912652E+02  0.16716005974E+03  0.00000000000E+00 0. -1.
         -3    1    3    3    0  502 -0.35361744572E+03  0.66175815382E+03  0.33928063670E+03  0.82345643631E+03  0.00000000000E+00 0.  1.
         13    1    5    5    0    0 -0.78948918569E+02 -0.32789954664E+03  0.19634700911E+03  0.39026041615E+03  0.00000000000E+00 0. -1.
        -13    1    5    5    0    0 -0.89513914243E+02 -0.14357340906E+03  0.13902507313E+03  0.21898409895E+03  0.00000000000E+00 0.  1.
          2    1    6    6  503    0  0.46917309845E+03 -0.19607312223E+03  0.88321932507E+03  0.10191390689E+04  0.00000000000E+00 0. -1.
         -2    1    6    6    0  503  0.15231047178E+03 -0.10576198467E+03  0.24853396137E+03  0.31008580614E+03  0.00000000000E+00 0.  1.
<mgrwt>
<rscale>  0 0.22450009E+04</rscale>
<asrwt>0</asrwt>
<pdfrwt beam="1">  1        2 0.37003429E+00 0.22450009E+04</pdfrwt>
<pdfrwt beam="2">  1       -1 0.80594307E-01 0.22450009E+04</pdfrwt>
<totfact> 0.62818027E+00</totfact>
</mgrwt>
</event>
<event>
12    7  0.1606355E-007  0.1667321E+04  0.7818608E-02  0.8780225E-01
         -1   -1    0    0    0  501 -0.00000000000E+00  0.00000000000E+00  0.36303460212E+03  0.36303460212E+03  0.00000000000E+00 0.  1.
          2   -1    0    0  501    0  0.00000000000E+00 -0.00000000000E+00 -0.19143891675E+04  0.19143891675E+04  0.00000000000E+00 0. -1.
         24    2    1    2    0    0  0.36797494103E+03  0.13035231651E+03 -0.11412480024E+04  0.12088479230E+04  0.80430181834E+02 0.  0.
        254    2    1    2    0    0 -0.36797494103E+03 -0.13035231651E+03 -0.41010656292E+03  0.10685758466E+04  0.90623929698E+03 0.  0.
         23    2    4    4    0    0 -0.49105460875E+03  0.86984566549E+02  0.77486770078E+02  0.51284145243E+03  0.91110988395E+02 0.  0.
         23    2    4    4    0    0  0.12307966771E+03 -0.21733688306E+03 -0.48759333300E+03  0.55573439419E+03  0.93324879665E+02 0.  0.
          4    1    3    3  502    0  0.17280951560E+03  0.61304695261E+02 -0.65920305810E+03  0.68422954201E+03  0.00000000000E+00 0. -1.
         -3    1    3    3    0  502  0.19516542543E+03  0.69047621251E+02 -0.48204494434E+03  0.52461838097E+03  0.00000000000E+00 0.  1.
         13    1    5    5    0    0 -0.99527956714E+01 -0.10786542779E+02  0.88291819539E+01  0.17127816579E+02  0.00000000000E+00 0.  1.
        -13    1    5    5    0    0 -0.48110181308E+03  0.97771109328E+02  0.68657588124E+02  0.49571363585E+03  0.00000000000E+00 0. -1.
          4    1    6    6  503    0  0.13652975641E+03 -0.18348966293E+03 -0.43902114170E+03  0.49502362938E+03  0.00000000000E+00 0. -1.
         -4    1    6    6    0  503 -0.13450088698E+02 -0.33847220132E+02 -0.48572191297E+02  0.60710764812E+02  0.00000000000E+00 0.  1.
<mgrwt>
<rscale>  0 0.16673206E+04</rscale>
<asrwt>0</asrwt>
<pdfrwt beam="1">  1        2 0.29452141E+00 0.16673206E+04</pdfrwt>
<pdfrwt beam="2">  1       -1 0.55851476E-01 0.16673206E+04</pdfrwt>
<totfact> 0.26268660E+01</totfact>
</mgrwt>
</event>
<event>
12    7  0.1606355E-007  0.1338180E+04  0.7818608E-02  0.8999824E-01
          2   -1    0    0  501    0  0.00000000000E+00  0.00000000000E+00  0.10172838618E+04  0.10172838618E+04  0.00000000000E+00 0. -1.
         -1   -1    0    0    0  501 -0.00000000000E+00 -0.00000000000E+00 -0.44007507117E+03  0.44007507117E+03  0.00000000000E+00 0.  1.
         24    2    1    2    0    0 -0.19123890628E+03 -0.15914294921E+03 -0.12609151495E+03  0.28970993413E+03  0.78319718040E+02 0.  0.
        254    2    1    2    0    0  0.19123890628E+03  0.15914294921E+03  0.70330030561E+03  0.11676489989E+04  0.89826169191E+03 0.  0.
         23    2    4    4    0    0  0.10068914446E+02  0.37497266498E+03  0.77280358505E+03  0.86354745896E+03  0.88221030865E+02 0.  0.
         23    2    4    4    0    0  0.18116999184E+03 -0.21582971577E+03 -0.69503279442E+02  0.30410153992E+03  0.90785508621E+02 0.  0.
          4    1    3    3  502    0 -0.59014436532E+02 -0.79940165960E+02 -0.16826956124E+02  0.10077837221E+03  0.00000000000E+00 0. -1.
         -3    1    3    3    0  502 -0.13222446975E+03 -0.79202783248E+02 -0.10926455882E+03  0.18893156192E+03  0.00000000000E+00 0.  1.
         13    1    5    5    0    0 -0.84024784032E+01  0.40319400915E+02  0.15845714554E+03  0.16372208986E+03  0.00000000000E+00 0.  1.
        -13    1    5    5    0    0  0.18471392849E+02  0.33465326407E+03  0.61434643951E+03  0.69982536910E+03  0.00000000000E+00 0. -1.
          4    1    6    6  503    0  0.61318586859E+02 -0.10964030195E+03 -0.70336151249E+02  0.14397270254E+03  0.00000000000E+00 0. -1.
         -4    1    6    6    0  503  0.11985140498E+03 -0.10618941383E+03  0.83287180693E+00  0.16012883737E+03  0.00000000000E+00 0.  1.
<mgrwt>
<rscale>  0 0.13381798E+04</rscale>
<asrwt>0</asrwt>
<pdfrwt beam="1">  1        2 0.15650521E+00 0.13381798E+04</pdfrwt>
<pdfrwt beam="2">  1       -1 0.67703857E-01 0.13381798E+04</pdfrwt>
<totfact> 0.60500964E+01</totfact>
</mgrwt>
</event>
<event>
12    7  0.1606355E-007  0.2760157E+04  0.7818608E-02  0.8315746E-01
          2   -1    0    0  501    0  0.00000000000E+00  0.00000000000E+00  0.20122186585E+04  0.20122186585E+04  0.00000000000E+00 0. -1.
         -1   -1    0    0    0  501 -0.00000000000E+00 -0.00000000000E+00 -0.94652537471E+03  0.94652537471E+03  0.00000000000E+00 0.  1.
         24    2    1    2    0    0  0.42681568785E+03  0.11550416022E+04  0.40743681570E+03  0.12994534591E+04  0.79257804571E+02 0.  0.
        254    2    1    2    0    0 -0.42681568785E+03 -0.11550416022E+04  0.65825646807E+03  0.16592905740E+04  0.89646578142E+03 0.  0.
         23    2    4    4    0    0  0.26014543427E+03 -0.20051730549E+03  0.16849240249E+03  0.38212759080E+03  0.98736868387E+02 0.  0.
         23    2    4    4    0    0 -0.68696112212E+03 -0.95452429667E+03  0.48976406558E+03  0.12771629833E+04  0.90797740148E+02 0.  0.
          4    1    3    3  502    0  0.36833022960E+03  0.10613701692E+04  0.37359035989E+03  0.11839525121E+04  0.00000000000E+00 0. -1.
         -3    1    3    3    0  502  0.58485458246E+02  0.93671433009E+02  0.33846455814E+02  0.11550094701E+03  0.00000000000E+00 0.  1.
         13    1    5    5    0    0  0.68280311482E+02 -0.58802129906E+02  0.98594826529E+02  0.13356957451E+03  0.00000000000E+00 0. -1.
        -13    1    5    5    0    0  0.19186512279E+03 -0.14171517558E+03  0.69897575961E+02  0.24855801628E+03  0.00000000000E+00 0.  1.
          1    1    6    6  503    0 -0.54917770120E+03 -0.76164508572E+03  0.35068845758E+03  0.10023381557E+04  0.00000000000E+00 0. -1.
         -1    1    6    6    0  503 -0.13778342092E+03 -0.19287921095E+03  0.13907560800E+03  0.27482482755E+03  0.00000000000E+00 0.  1.
<mgrwt>
<rscale>  0 0.27601565E+04</rscale>
<asrwt>0</asrwt>
<pdfrwt beam="1">  1        2 0.30957210E+00 0.27601565E+04</pdfrwt>
<pdfrwt beam="2">  1       -1 0.14561929E+00 0.27601565E+04</pdfrwt>
<totfact> 0.24676511E+00</totfact>
</mgrwt>
</event>
<event>
12    7  0.1606355E-007  0.1730626E+04  0.7818608E-02  0.8744088E-01
          2   -1    0    0  501    0  0.00000000000E+00  0.00000000000E+00  0.59033648196E+03  0.59033648196E+03  0.00000000000E+00 0. -1.
         -1   -1    0    0    0  501 -0.00000000000E+00 -0.00000000000E+00 -0.12683718436E+04  0.12683718436E+04  0.00000000000E+00 0.  1.
         24    2    1    2    0    0  0.46931621282E+03  0.19384618579E+03  0.15343505487E+03  0.53494241416E+03  0.69188286902E+02 0.  0.
        254    2    1    2    0    0 -0.46931621282E+03 -0.19384618579E+03 -0.83147041652E+03  0.13237659114E+04  0.89620259054E+03 0.  0.
         23    2    4    4    0    0 -0.51996995689E+03 -0.46579645703E+03 -0.72913109234E+03  0.10139987965E+04  0.96053704170E+02 0.  0.
         23    2    4    4    0    0  0.50653744070E+02  0.27195027124E+03 -0.10233932418E+03  0.30976711488E+03  0.94655038828E+02 0.  0.
          2    1    3    3  502    0  0.34491669688E+03  0.15810422993E+03  0.86225925484E+02  0.38910073957E+03  0.00000000000E+00 0. -1.
         -1    1    3    3    0  502  0.12439951594E+03  0.35741955863E+02  0.67209129386E+02  0.14584167459E+03  0.00000000000E+00 0.  1.
         13    1    5    5    0    0 -0.38134983819E+03 -0.38732273284E+03 -0.59345626173E+03  0.80475892853E+03  0.00000000000E+00 0.  1.
        -13    1    5    5    0    0 -0.13862011870E+03 -0.78473724185E+02 -0.13567483060E+03  0.20923986798E+03  0.00000000000E+00 0. -1.
          3    1    6    6  503    0 -0.11955589871E+02  0.38167724273E+01  0.59536910976E+01  0.13890655802E+02  0.00000000000E+00 0. -1.
         -3    1    6    6    0  503  0.62609333942E+02  0.26813349881E+03 -0.10829301528E+03  0.29587645908E+03  0.00000000000E+00 0.  1.
<mgrwt>
<rscale>  0 0.17306255E+04</rscale>
<asrwt>0</asrwt>
<pdfrwt beam="1">  1        2 0.90820998E-01 0.17306255E+04</pdfrwt>
<pdfrwt beam="2">  1       -1 0.19513413E+00 0.17306255E+04</pdfrwt>
<totfact> 0.89211199E+00</totfact>
</mgrwt>
</event>
<event>
12    7  0.1606355E-007  0.1404359E+04  0.7818608E-02  0.8950669E-01
         -1   -1    0    0    0  501 -0.00000000000E+00  0.00000000000E+00  0.64937518423E+03  0.64937518423E+03  0.00000000000E+00 0.  1.
          2   -1    0    0  501    0  0.00000000000E+00 -0.00000000000E+00 -0.75927787153E+03  0.75927787153E+03  0.00000000000E+00 0. -1.
         24    2    1    2    0    0  0.34061265288E+03  0.12883739095E+03  0.15180334601E+03  0.40307405632E+03  0.82512946949E+02 0.  0.
        254    2    1    2    0    0 -0.34061265288E+03 -0.12883739095E+03 -0.26170603331E+03  0.10055789994E+04  0.90004612306E+03 0.  0.
         23    2    4    4    0    0 -0.20931212400E+03  0.21260491278E+03  0.22883175437E+03  0.38667178380E+03  0.90214646163E+02 0.  0.
         23    2    4    4    0    0 -0.13130052887E+03 -0.34144230373E+03 -0.49053778769E+03  0.61890721564E+03  0.92715396607E+02 0.  0.
          2    1    3    3  502    0  0.25694550794E+03  0.86907043076E+02  0.73437891924E+02  0.28101059083E+03  0.00000000000E+00 0. -1.
         -1    1    3    3    0  502  0.83667144933E+02  0.41930347871E+02  0.78365454084E+02  0.12206346549E+03  0.00000000000E+00 0.  1.
         13    1    5    5    0    0 -0.21253594814E+03  0.20268078857E+03  0.23354152379E+03  0.37522349959E+03  0.00000000000E+00 0.  1.
        -13    1    5    5    0    0  0.32238241359E+01  0.99241242101E+01 -0.47097694186E+01  0.11448284211E+02  0.00000000000E+00 0. -1.
          3    1    6    6  503    0 -0.80988752998E+02 -0.14246965879E+03 -0.15494452111E+03  0.22553178581E+03  0.00000000000E+00 0. -1.
         -3    1    6    6    0  503 -0.50311775874E+02 -0.19897264494E+03 -0.33559326658E+03  0.39337542984E+03  0.00000000000E+00 0.  1.
<mgrwt>
<rscale>  0 0.14043592E+04</rscale>
<asrwt>0</asrwt>
<pdfrwt beam="1">  1        2 0.11681198E+00 0.14043592E+04</pdfrwt>
<pdfrwt beam="2">  1       -1 0.99903874E-01 0.14043592E+04</pdfrwt>
<totfact> 0.39184560E+01</totfact>
</mgrwt>
</event>
<event>
12    7  0.1606355E-007  0.1801250E+04  0.7818608E-02  0.8705635E-01
          2   -1    0    0  501    0  0.00000000000E+00  0.00000000000E+00  0.23625528606E+04  0.23625528606E+04  0.00000000000E+00 0. -1.
         -1   -1    0    0    0  501 -0.00000000000E+00 -0.00000000000E+00 -0.34332598562E+03  0.34332598562E+03  0.00000000000E+00 0.  1.
         24    2    1    2    0    0 -0.26736809588E+03 -0.17533239048E+03  0.16458317569E+04  0.16785531779E+04  0.80941047307E+02 0.  0.
        254    2    1    2    0    0  0.26736809588E+03  0.17533239048E+03  0.37339511807E+03  0.10273256683E+04  0.90207924749E+03 0.  0.
         23    2    4    4    0    0  0.34379928776E+03  0.25357091913E+03  0.61028921190E+03  0.75077421282E+03  0.93342568957E+02 0.  0.
         23    2    4    4    0    0 -0.76431191877E+02 -0.78238528643E+02 -0.23689409383E+03  0.27655145551E+03  0.91645520338E+02 0.  0.
          4    1    3    3  502    0 -0.26699031490E+03 -0.15868066779E+03  0.15980438557E+04  0.16279458060E+04  0.00000000000E+00 0. -1.
         -3    1    3    3    0  502 -0.37778097758E+00 -0.16651722695E+02  0.47787901234E+02  0.50607371909E+02  0.00000000000E+00 0.  1.
         13    1    5    5    0    0  0.31444438481E+03  0.19186991611E+03  0.52837076312E+03  0.64410014685E+03  0.00000000000E+00 0. -1.
        -13    1    5    5    0    0  0.29354902944E+02  0.61701003013E+02  0.81918448785E+02  0.10667406597E+03  0.00000000000E+00 0.  1.
          4    1    6    6  503    0 -0.89672134372E+02 -0.88299553805E+02 -0.21387114388E+03  0.24815069830E+03  0.00000000000E+00 0. -1.
         -4    1    6    6    0  503  0.13240942495E+02  0.10061025162E+02 -0.23022949954E+02  0.28400757209E+02  0.00000000000E+00 0.  1.
<mgrwt>
<rscale>  0 0.18012504E+04</rscale>
<asrwt>0</asrwt>
<pdfrwt beam="1">  1        2 0.36346966E+00 0.18012504E+04</pdfrwt>
<pdfrwt beam="2">  1       -1 0.52819384E-01 0.18012504E+04</pdfrwt>
<totfact> 0.16231988E+01</totfact>
</mgrwt>
</event>
<event>
12    7  0.1606355E-007  0.1196355E+04  0.7818608E-02  0.9116053E-01
         -1   -1    0    0    0  501 -0.00000000000E+00  0.00000000000E+00  0.29849040814E+03  0.29849040814E+03  0.00000000000E+00 0.  1.
          2   -1    0    0  501    0  0.00000000000E+00 -0.00000000000E+00 -0.11987531448E+04  0.11987531448E+04  0.00000000000E+00 0. -1.
         24    2    1    2    0    0  0.62087345023E+02  0.11328615494E+03  0.70256153601E+02  0.16809341266E+03  0.81430196779E+02 0.  0.
        254    2    1    2    0    0 -0.62087345023E+02 -0.11328615494E+03 -0.97051889021E+03  0.13291501402E+04  0.89891300343E+03 0.  0.
         23    2    4    4    0    0 -0.41272421065E+03  0.16038987845E+03 -0.51738592944E+03  0.68733325945E+03  0.93126915582E+02 0.  0.
         23    2    4    4    0    0  0.35063686563E+03 -0.27367603338E+03 -0.45313296077E+03  0.64181688079E+03  0.93566262841E+02 0.  0.
          4    1    3    3  502    0  0.40172513281E+02  0.56835056011E+02 -0.69802244314E+01  0.69948394894E+02  0.00000000000E+00 0. -1.
         -3    1    3    3    0  502  0.21914831741E+02  0.56451098925E+02  0.77236378032E+02  0.98145017763E+02  0.00000000000E+00 0.  1.
         13    1    5    5    0    0 -0.28563495068E+03  0.13456635828E+03 -0.41848893429E+03  0.52424080150E+03  0.00000000000E+00 0.  1.
        -13    1    5    5    0    0 -0.12708925996E+03  0.25823520168E+02 -0.98896995147E+02  0.16309245795E+03  0.00000000000E+00 0. -1.
          3    1    6    6  503    0 -0.56613947186E+01 -0.40884804631E+01 -0.30380934311E+01  0.76155810253E+01  0.00000000000E+00 0. -1.
         -3    1    6    6    0  503  0.35629826034E+03 -0.26958755292E+03 -0.45009486734E+03  0.63420129976E+03  0.00000000000E+00 0.  1.
<mgrwt>
<rscale>  0 0.11963550E+04</rscale>
<asrwt>0</asrwt>
<pdfrwt beam="1">  1        2 0.18442356E+00 0.11963550E+04</pdfrwt>
<pdfrwt beam="2">  1       -1 0.45921602E-01 0.11963550E+04</pdfrwt>
<totfact> 0.10060912E+02</totfact>
</mgrwt>
</event>
<event>
12    7  0.1606355E-007  0.1279088E+04  0.7818608E-02  0.9046315E-01
          2   -1    0    0  501    0  0.00000000000E+00  0.00000000000E+00  0.14619717735E+04  0.14619717735E+04  0.00000000000E+00 0. -1.
         -1   -1    0    0    0  501 -0.00000000000E+00 -0.00000000000E+00 -0.27977047670E+03  0.27977047670E+03  0.00000000000E+00 0.  1.
         24    2    1    2    0    0  0.20100810329E+03 -0.21725075794E+03  0.17292293677E+03  0.35242560992E+03  0.81849368038E+02 0.  0.
        254    2    1    2    0    0 -0.20100810329E+03  0.21725075794E+03  0.10092783600E+04  0.13893166402E+04  0.90772009425E+03 0.  0.
         23    2    4    4    0    0 -0.37273321100E+03 -0.18796833699E+03  0.76980523879E+03  0.88049675828E+03  0.91718555235E+02 0.  0.
         23    2    4    4    0    0  0.17172510771E+03  0.40521909493E+03  0.23947312120E+03  0.50881988197E+03  0.88646878100E+02 0.  0.
          4    1    3    3  502    0 -0.31925358286E+00 -0.32580122047E+02  0.89093922605E+01  0.33777855851E+02  0.00000000000E+00 0. -1.
         -3    1    3    3    0  502  0.20132735687E+03 -0.18467063589E+03  0.16401354451E+03  0.31864775407E+03  0.00000000000E+00 0.  1.
         13    1    5    5    0    0 -0.18274483488E+03 -0.58482322012E+02  0.42191782643E+03  0.46349812181E+03  0.00000000000E+00 0. -1.
        -13    1    5    5    0    0 -0.18998837612E+03 -0.12948601498E+03  0.34788741236E+03  0.41699863646E+03  0.00000000000E+00 0.  1.
          2    1    6    6  503    0  0.14729631052E+02  0.10434142594E+03  0.28304760822E+02  0.10911120329E+03  0.00000000000E+00 0. -1.
         -2    1    6    6    0  503  0.15699547665E+03  0.30087766899E+03  0.21116836038E+03  0.39970867868E+03  0.00000000000E+00 0.  1.
<mgrwt>
<rscale>  0 0.12790880E+04</rscale>
<asrwt>0</asrwt>
<pdfrwt beam="1">  1        2 0.22491873E+00 0.12790880E+04</pdfrwt>
<pdfrwt beam="2">  1       -1 0.43041613E-01 0.12790880E+04</pdfrwt>
<totfact> 0.79360222E+01</totfact>
</mgrwt>
</event>
<event>
12    7  0.1606355E-007  0.2023488E+04  0.7818608E-02  0.8595717E-01
          2   -1    0    0  501    0  0.00000000000E+00  0.00000000000E+00  0.30003893573E+04  0.30003893573E+04  0.00000000000E+00 0. -1.
         -1   -1    0    0    0  501 -0.00000000000E+00 -0.00000000000E+00 -0.34116425461E+03  0.34116425461E+03  0.00000000000E+00 0.  1.
         24    2    1    2    0    0  0.66778230184E+03  0.25451745295E+03  0.60386886579E+03  0.93897379580E+03  0.79384164824E+02 0.  0.
        254    2    1    2    0    0 -0.66778230184E+03 -0.25451745295E+03  0.20553562369E+04  0.24025798161E+04  0.10184243593E+04 0.  0.
         23    2    4    4    0    0 -0.10973028925E+03 -0.45187691915E+03  0.33435374322E+03  0.58001375648E+03  0.91597192447E+02 0.  0.
         23    2    4    4    0    0 -0.55805201259E+03  0.19735946620E+03  0.17210024936E+04  0.18225660596E+04  0.97594317282E+02 0.  0.
          4    1    3    3  502    0  0.10460887890E+03  0.69361877078E+02  0.12154300587E+03  0.17471917414E+03  0.00000000000E+00 0. -1.
         -3    1    3    3    0  502  0.56317342294E+03  0.18515557587E+03  0.48232585992E+03  0.76425462166E+03  0.00000000000E+00 0.  1.
         13    1    5    5    0    0 -0.34617546306E+02 -0.27482351450E+03  0.15699770450E+03  0.31839380938E+03  0.00000000000E+00 0.  1.
        -13    1    5    5    0    0 -0.75112742944E+02 -0.17705340465E+03  0.17735603872E+03  0.26161994710E+03  0.00000000000E+00 0. -1.
          3    1    6    6  503    0 -0.53496384762E+03  0.20834480801E+03  0.16364722921E+04  0.17342535686E+04  0.00000000000E+00 0. -1.
         -3    1    6    6    0  503 -0.23088164972E+02 -0.10985341807E+02  0.84530201528E+02  0.88312491001E+02  0.00000000000E+00 0.  1.
<mgrwt>
<rscale>  0 0.20234877E+04</rscale>
<asrwt>0</asrwt>
<pdfrwt beam="1">  1        2 0.46159835E+00 0.20234877E+04</pdfrwt>
<pdfrwt beam="2">  1       -1 0.52486810E-01 0.20234877E+04</pdfrwt>
<totfact> 0.67324994E+00</totfact>
</mgrwt>
</event>
<event>
12    7  0.1606355E-007  0.1578633E+04  0.7818608E-02  0.8833783E-01
          2   -1    0    0  501    0  0.00000000000E+00  0.00000000000E+00  0.69246817031E+03  0.69246817031E+03  0.00000000000E+00 0. -1.
         -1   -1    0    0    0  501 -0.00000000000E+00 -0.00000000000E+00 -0.89971033005E+03  0.89971033005E+03  0.00000000000E+00 0.  1.
         24    2    1    2    0    0 -0.31702499026E+03 -0.37474932056E+03 -0.23366027300E+03  0.54966066239E+03  0.81165404516E+02 0.  0.
        254    2    1    2    0    0  0.31702499026E+03  0.37474932056E+03  0.26418113260E+02  0.10425178380E+04  0.91934956794E+03 0.  0.
         23    2    4    4    0    0 -0.15711032180E+03 -0.21516480278E+03  0.26393214475E+02  0.27950420109E+03  0.80289794380E+02 0.  0.
         23    2    4    4    0    0  0.47413531207E+03  0.58991412334E+03  0.24898784340E-01  0.76301363688E+03  0.96885718182E+02 0.  0.
          2    1    3    3  502    0 -0.14773355862E+03 -0.14677842321E+03 -0.13884636543E+03  0.25029467245E+03  0.00000000000E+00 0. -1.
         -1    1    3    3    0  502 -0.16929143165E+03 -0.22797089734E+03 -0.94813907569E+02  0.29936598994E+03  0.00000000000E+00 0.  1.
         13    1    5    5    0    0 -0.89836285630E+02 -0.58657342458E+02  0.11960583518E+01  0.10729712296E+03  0.00000000000E+00 0. -1.
        -13    1    5    5    0    0 -0.67274036173E+02 -0.15650746032E+03  0.25197156124E+02  0.17220707813E+03  0.00000000000E+00 0.  1.
          1    1    6    6  503    0  0.49224610196E+02  0.26574602297E+02  0.12343105906E+02  0.57285460630E+02  0.00000000000E+00 0. -1.
         -1    1    6    6    0  503  0.42491070187E+03  0.56333952104E+03 -0.12318207121E+02  0.70572817625E+03  0.00000000000E+00 0.  1.
<mgrwt>
<rscale>  0 0.15786333E+04</rscale>
<asrwt>0</asrwt>
<pdfrwt beam="1">  1        2 0.10653356E+00 0.15786333E+04</pdfrwt>
<pdfrwt beam="2">  1       -1 0.13841697E+00 0.15786333E+04</pdfrwt>
<totfact> 0.19679374E+01</totfact>
</mgrwt>
</event>
<event>
12    7  0.1606355E-007  0.2419665E+04  0.7818608E-02  0.8432178E-01
          2   -1    0    0  501    0  0.00000000000E+00  0.00000000000E+00  0.18579280044E+04  0.18579280044E+04  0.00000000000E+00 0. -1.
         -1   -1    0    0    0  501 -0.00000000000E+00 -0.00000000000E+00 -0.78781038802E+03  0.78781038802E+03  0.00000000000E+00 0.  1.
         24    2    1    2    0    0  0.79846936633E+03 -0.25357002097E+03  0.11332525812E+04  0.14116739558E+04  0.81919839162E+02 0.  0.
        254    2    1    2    0    0 -0.79846936633E+03  0.25357002097E+03 -0.63134964781E+02  0.12340644367E+04  0.90392362822E+03 0.  0.
         23    2    4    4    0    0 -0.85171941900E+03  0.47907605452E+03 -0.27705370778E+02  0.98190837086E+03  0.91851110448E+02 0.  0.
         23    2    4    4    0    0  0.53250052664E+02 -0.22550603356E+03 -0.35429594003E+02  0.25215606584E+03  0.92945608455E+02 0.  0.
          4    1    3    3  502    0  0.77529831671E+03 -0.23120882745E+03  0.10796700790E+04  0.13491599169E+04  0.00000000000E+00 0. -1.
         -3    1    3    3    0  502  0.23171049618E+02 -0.22361193514E+02  0.53582502198E+02  0.62514038884E+02  0.00000000000E+00 0.  1.
         13    1    5    5    0    0 -0.19288496427E+03  0.72952832340E+02  0.15124637764E+02  0.20677398254E+03  0.00000000000E+00 0. -1.
        -13    1    5    5    0    0 -0.65883445472E+03  0.40612322218E+03 -0.42830008543E+02  0.77513438832E+03  0.00000000000E+00 0.  1.
          2    1    6    6  503    0 -0.61448503288E+01 -0.70908284131E+01 -0.23717746050E+02  0.25506283752E+02  0.00000000000E+00 0. -1.
         -2    1    6    6    0  503  0.59394902993E+02 -0.21841520514E+03 -0.11711847953E+02  0.22664978209E+03  0.00000000000E+00 0.  1.
<mgrwt>
<rscale>  0 0.24196653E+04</rscale>
<asrwt>0</asrwt>
<pdfrwt beam="1">  1        2 0.28583508E+00 0.24196653E+04</pdfrwt>
<pdfrwt beam="2">  1       -1 0.12120160E+00 0.24196653E+04</pdfrwt>
<totfact> 0.49464720E+00</totfact>
</mgrwt>
</event>
<event>
12    7  0.1606355E-007  0.2794639E+04  0.7818608E-02  0.8304935E-01
          2   -1    0    0  501    0  0.00000000000E+00  0.00000000000E+00  0.30727255986E+04  0.30727255986E+04  0.00000000000E+00 0. -1.
         -1   -1    0    0    0  501 -0.00000000000E+00 -0.00000000000E+00 -0.63542987684E+03  0.63542987684E+03  0.00000000000E+00 0.  1.
         24    2    1    2    0    0 -0.93687146412E+03 -0.51048198360E+03  0.22508765870E+03  0.10933255490E+04  0.79851776236E+02 0.  0.
        254    2    1    2    0    0  0.93687146412E+03  0.51048198360E+03  0.22122080631E+04  0.26148299264E+04  0.89730208621E+03 0.  0.
         23    2    4    4    0    0  0.99223891206E+03  0.47637415463E+03  0.22423003547E+04  0.24995569110E+04  0.91670479404E+02 0.  0.
         23    2    4    4    0    0 -0.55367447938E+02  0.34107828976E+02 -0.30092291641E+02  0.11527301542E+03  0.90296310991E+02 0.  0.
          4    1    3    3  502    0 -0.65209420684E+02 -0.52547519527E+02  0.33663489422E+02  0.90259297995E+02  0.00000000000E+00 0. -1.
         -1    1    3    3    0  502 -0.87166204344E+03 -0.45793446408E+03  0.19142416927E+03  0.10030662510E+04  0.00000000000E+00 0.  1.
         13    1    5    5    0    0  0.10637900821E+03  0.57004523600E+02  0.18765316591E+03  0.22311369248E+03  0.00000000000E+00 0. -1.
        -13    1    5    5    0    0  0.88585990385E+03  0.41936963103E+03  0.20546471888E+04  0.22764432185E+04  0.00000000000E+00 0.  1.
          1    1    6    6  503    0  0.81359948751E+01  0.34769903812E+02  0.13574479829E+02  0.38202187455E+02  0.00000000000E+00 0. -1.
         -1    1    6    6    0  503 -0.63503442813E+02 -0.66207483604E+00 -0.43666771470E+02  0.77070827963E+02  0.00000000000E+00 0.  1.
<mgrwt>
<rscale>  0 0.27946389E+04</rscale>
<asrwt>0</asrwt>
<pdfrwt beam="1">  1        2 0.47272701E+00 0.27946389E+04</pdfrwt>
<pdfrwt beam="2">  1       -1 0.97758444E-01 0.27946389E+04</pdfrwt>
<totfact> 0.15548734E+00</totfact>
</mgrwt>
</event>
<event>
12    7  0.1606355E-007  0.1424061E+04  0.7818608E-02  0.8936584E-01
          2   -1    0    0  501    0  0.00000000000E+00  0.00000000000E+00  0.17675045794E+04  0.17675045794E+04  0.00000000000E+00 0. -1.
         -1   -1    0    0    0  501 -0.00000000000E+00 -0.00000000000E+00 -0.28683784112E+03  0.28683784112E+03  0.00000000000E+00 0.  1.
         24    2    1    2    0    0 -0.74807529223E+01  0.41159000725E+03  0.32547222475E+03  0.53084188261E+03  0.79991496517E+02 0.  0.
        254    2    1    2    0    0  0.74807529223E+01 -0.41159000725E+03  0.11551945135E+04  0.15235005379E+04  0.90394536846E+03 0.  0.
         23    2    4    4    0    0 -0.23166483076E+03  0.11868740897E+03  0.63271245753E+02  0.28292745866E+03  0.91046150204E+02 0.  0.
         23    2    4    4    0    0  0.23914558368E+03 -0.53027741622E+03  0.10919232678E+04  0.12405730792E+04  0.91325756887E+02 0.  0.
          2    1    3    3  502    0 -0.20878187738E+02  0.26520679983E+02  0.20914570211E+02  0.39707234065E+02  0.00000000000E+00 0. -1.
         -3    1    3    3    0  502  0.13397434815E+02  0.38506932727E+03  0.30455765454E+03  0.49113464855E+03  0.00000000000E+00 0.  1.
         13    1    5    5    0    0 -0.53646283083E+02  0.21149011615E+02  0.55126600048E+02  0.79775600366E+02  0.00000000000E+00 0. -1.
        -13    1    5    5    0    0 -0.17801854768E+03  0.97538397353E+02  0.81446457044E+01  0.20315185830E+03  0.00000000000E+00 0.  1.
          1    1    6    6  503    0  0.68358578429E+02 -0.16946337342E+03  0.25950434073E+03  0.31738499182E+03  0.00000000000E+00 0. -1.
         -1    1    6    6    0  503  0.17078700525E+03 -0.36081404281E+03  0.83241892704E+03  0.92318808741E+03  0.00000000000E+00 0.  1.
<mgrwt>
<rscale>  0 0.14240607E+04</rscale>
<asrwt>0</asrwt>
<pdfrwt beam="1">  1        2 0.27192377E+00 0.14240607E+04</pdfrwt>
<pdfrwt beam="2">  1       -1 0.44128900E-01 0.14240607E+04</pdfrwt>
<totfact> 0.50574284E+01</totfact>
</mgrwt>
</event>
<event>
12    7  0.1606355E-007  0.1273514E+04  0.7818608E-02  0.9050837E-01
          2   -1    0    0  501    0  0.00000000000E+00  0.00000000000E+00  0.14021141429E+04  0.14021141429E+04  0.00000000000E+00 0. -1.
         -3   -1    0    0    0  501 -0.00000000000E+00 -0.00000000000E+00 -0.28917718628E+03  0.28917718628E+03  0.00000000000E+00 0.  1.
         24    2    1    2    0    0  0.15204428542E+03 -0.17825168033E+03  0.54566265330E+03  0.59889630229E+03  0.77704075982E+02 0.  0.
        254    2    1    2    0    0 -0.15204428542E+03  0.17825168033E+03  0.56727430337E+03  0.10923950269E+04  0.90367894373E+03 0.  0.
         23    2    4    4    0    0  0.24512739587E+03  0.19332438920E+03 -0.74273004714E+02  0.33220890675E+03  0.85933223101E+02 0.  0.
         23    2    4    4    0    0 -0.39717168129E+03 -0.15072708873E+02  0.64154730808E+03  0.76018612018E+03  0.91254905827E+02 0.  0.
          4    1    3    3  502    0  0.95133862604E+02 -0.14140726721E+03  0.31100748024E+03  0.35464365186E+03  0.00000000000E+00 0. -1.
         -3    1    3    3    0  502  0.56910422818E+02 -0.36844413117E+02  0.23465517306E+03  0.24425265044E+03  0.00000000000E+00 0.  1.
         13    1    5    5    0    0  0.50384743386E+02  0.22060226116E+01 -0.48960428930E+01  0.50670110893E+02  0.00000000000E+00 0. -1.
        -13    1    5    5    0    0  0.19474265248E+03  0.19111836659E+03 -0.69376961821E+02  0.28153879586E+03  0.00000000000E+00 0.  1.
          1    1    6    6  503    0 -0.29830405876E+03 -0.18207625372E+02  0.54717478788E+03  0.62347179374E+03  0.00000000000E+00 0.  1.
         -1    1    6    6    0  503 -0.98867622526E+02  0.31349164986E+01  0.94372520205E+02  0.13671432645E+03  0.00000000000E+00 0. -1.
<mgrwt>
<rscale>  0 0.12735139E+04</rscale>
<asrwt>0</asrwt>
<pdfrwt beam="1">  1        2 0.21570986E+00 0.12735139E+04</pdfrwt>
<pdfrwt beam="2">  1       -3 0.44488799E-01 0.12735139E+04</pdfrwt>
<totfact> 0.45638747E+01</totfact>
</mgrwt>
</event>
<event>
12    7  0.1606355E-007  0.1957638E+04  0.7818608E-02  0.8626686E-01
          2   -1    0    0  501    0  0.00000000000E+00  0.00000000000E+00  0.97869802637E+03  0.97869802637E+03  0.00000000000E+00 0. -1.
         -1   -1    0    0    0  501 -0.00000000000E+00 -0.00000000000E+00 -0.97894028875E+03  0.97894028875E+03  0.00000000000E+00 0.  1.
         24    2    1    2    0    0  0.60634431640E+03  0.10468251817E+03  0.46762088115E+03  0.77691962671E+03  0.79517031120E+02 0.  0.
        254    2    1    2    0    0 -0.60634431640E+03 -0.10468251817E+03 -0.46786314354E+03  0.11807186884E+04  0.89251825777E+03 0.  0.
         23    2    4    4    0    0 -0.54534949807E+03 -0.43894010664E+03 -0.42981537506E+03  0.82664022764E+03  0.92294729197E+02 0.  0.
         23    2    4    4    0    0 -0.60994818328E+02  0.33425758847E+03 -0.38047768474E+02  0.35407846078E+03  0.92062046404E+02 0.  0.
          2    1    3    3  502    0  0.17044157137E+03  0.58577455419E+02  0.16424335335E+03  0.24383914094E+03  0.00000000000E+00 0. -1.
         -1    1    3    3    0  502  0.43590274503E+03  0.46105062756E+02  0.30337752780E+03  0.53308048577E+03  0.00000000000E+00 0.  1.
         13    1    5    5    0    0 -0.52731092385E+03 -0.41768280092E+03 -0.43067603280E+03  0.79874750568E+03  0.00000000000E+00 0. -1.
        -13    1    5    5    0    0 -0.18038574217E+02 -0.21257305723E+02  0.86065773636E+00  0.27892721956E+02  0.00000000000E+00 0.  1.
          2    1    6    6  503    0 -0.67965204977E+02  0.28365018780E+03 -0.22298802780E+01  0.29168762485E+03  0.00000000000E+00 0. -1.
         -2    1    6    6    0  503  0.69703866490E+01  0.50607400674E+02 -0.35817888196E+02  0.62390835928E+02  0.00000000000E+00 0.  1.
<mgrwt>
<rscale>  0 0.19576383E+04</rscale>
<asrwt>0</asrwt>
<pdfrwt beam="1">  1        2 0.15056893E+00 0.19576383E+04</pdfrwt>
<pdfrwt beam="2">  1       -1 0.15060620E+00 0.19576383E+04</pdfrwt>
<totfact> 0.95435724E+00</totfact>
</mgrwt>
</event>
<event>
12    7  0.1606355E-007  0.2131853E+04  0.7818608E-02  0.8547340E-01
         -1   -1    0    0    0  501 -0.00000000000E+00  0.00000000000E+00  0.20620159656E+04  0.20620159656E+04  0.00000000000E+00 0.  1.
          2   -1    0    0  501    0  0.00000000000E+00 -0.00000000000E+00 -0.55101356709E+03  0.55101356709E+03  0.00000000000E+00 0. -1.
         24    2    1    2    0    0 -0.15578952714E+03 -0.58706954689E+03 -0.14638165981E+03  0.63007424788E+03  0.81516488229E+02 0.  0.
        254    2    1    2    0    0  0.15578952714E+03  0.58706954689E+03  0.16573840583E+04  0.19829552848E+04  0.90347590734E+03 0.  0.
         23    2    4    4    0    0  0.39851197510E+03  0.61221261801E+03  0.15193439676E+04  0.16883521087E+04  0.92253277084E+02 0.  0.
         23    2    4    4    0    0 -0.24272244797E+03 -0.25143071117E+02  0.13804009066E+03  0.29460317606E+03  0.90496430546E+02 0.  0.
          2    1    3    3  502    0 -0.20361266700E+02 -0.14095627715E+03 -0.35290726261E+01  0.14246300433E+03  0.00000000000E+00 0. -1.
         -1    1    3    3    0  502 -0.13542826044E+03 -0.44611326974E+03 -0.14285258718E+03  0.48761124354E+03  0.00000000000E+00 0.  1.
         13    1    5    5    0    0 -0.52418547252E+01  0.66661771921E+01  0.16853166942E+02  0.18866483384E+02  0.00000000000E+00 0.  1.
        -13    1    5    5    0    0  0.40375382983E+03  0.60554644082E+03  0.15024908007E+04  0.16694856253E+04  0.00000000000E+00 0. -1.
          3    1    6    6  503    0 -0.49428519710E+02 -0.43671061828E+02  0.38994115314E+02  0.76621675987E+02  0.00000000000E+00 0.  1.
         -3    1    6    6    0  503 -0.19329392826E+03  0.18527990711E+02  0.99045975349E+02  0.21798150007E+03  0.00000000000E+00 0. -1.
<mgrwt>
<rscale>  0 0.21318525E+04</rscale>
<asrwt>0</asrwt>
<pdfrwt beam="1">  1        2 0.84771319E-01 0.21318525E+04</pdfrwt>
<pdfrwt beam="2">  1       -1 0.31723322E+00 0.21318525E+04</pdfrwt>
<totfact> 0.14720261E+00</totfact>
</mgrwt>
</event>
<event>
12    7  0.1606355E-007  0.3232853E+04  0.7818608E-02  0.8180194E-01
          2   -1    0    0  501    0  0.00000000000E+00  0.00000000000E+00  0.21053532678E+04  0.21053532678E+04  0.00000000000E+00 0. -1.
         -1   -1    0    0    0  501 -0.00000000000E+00 -0.00000000000E+00 -0.12410434835E+04  0.12410434835E+04  0.00000000000E+00 0.  1.
         24    2    1    2    0    0  0.91828782081E+03 -0.58511089895E+03  0.14502672247E+04  0.18151173769E+04  0.75952505213E+02 0.  0.
        254    2    1    2    0    0 -0.91828782081E+03  0.58511089895E+03 -0.58595744040E+03  0.15312793744E+04  0.90325141269E+03 0.  0.
         23    2    4    4    0    0 -0.37555482389E+03  0.40796566089E+03  0.16279005092E+03  0.58514664965E+03  0.91752900204E+02 0.  0.
         23    2    4    4    0    0 -0.54273299691E+03  0.17714523806E+03 -0.74874749132E+03  0.94613272473E+03  0.92761984388E+02 0.  0.
          2    1    3    3  502    0  0.81560751331E+03 -0.50773857181E+03  0.12396195209E+04  0.15683337112E+04  0.00000000000E+00 0. -1.
         -1    1    3    3    0  502  0.10268030750E+03 -0.77372327143E+02  0.21064770375E+03  0.24678366569E+03  0.00000000000E+00 0.  1.
         13    1    5    5    0    0 -0.12445571344E+02  0.31290862003E+02  0.30623042717E+02  0.45516821465E+02  0.00000000000E+00 0. -1.
        -13    1    5    5    0    0 -0.36310925255E+03  0.37667479889E+03  0.13216700820E+03  0.53962982818E+03  0.00000000000E+00 0.  1.
          1    1    6    6  503    0 -0.22958184227E+03  0.12300603466E+03 -0.32678250851E+03  0.41788169945E+03  0.00000000000E+00 0. -1.
         -1    1    6    6    0  503 -0.31315115465E+03  0.54139203394E+02 -0.42196498281E+03  0.52825102529E+03  0.00000000000E+00 0.  1.
<mgrwt>
<rscale>  0 0.32328532E+04</rscale>
<asrwt>0</asrwt>
<pdfrwt beam="1">  1        2 0.32390050E+00 0.32328532E+04</pdfrwt>
<pdfrwt beam="2">  1       -1 0.19092977E+00 0.32328532E+04</pdfrwt>
<totfact> 0.97005613E-01</totfact>
</mgrwt>
</event>
<event>
12    7  0.1606355E-007  0.1167407E+04  0.7818608E-02  0.9141873E-01
          2   -1    0    0  501    0  0.00000000000E+00  0.00000000000E+00  0.90109866303E+03  0.90109866303E+03  0.00000000000E+00 0. -1.
         -1   -1    0    0    0  501 -0.00000000000E+00 -0.00000000000E+00 -0.37810478289E+03  0.37810478289E+03  0.00000000000E+00 0.  1.
         24    2    1    2    0    0  0.41763333831E+02 -0.96688744529E+02 -0.11650945740E+03  0.17601495427E+03  0.79460185581E+02 0.  0.
        254    2    1    2    0    0 -0.41763333831E+02  0.96688744529E+02  0.63950333754E+03  0.11031884916E+04  0.89273032882E+03 0.  0.
         23    2    4    4    0    0 -0.54480744650E+02 -0.15460646255E+03 -0.16809855434E+03  0.25228937275E+03  0.92311937656E+02 0.  0.
         23    2    4    4    0    0  0.12717410819E+02  0.25129520708E+03  0.80760189189E+03  0.85089911889E+03  0.92181782979E+02 0.  0.
          2    1    3    3  502    0  0.32611724763E+02 -0.33501505082E+01 -0.54442224425E+02  0.63550797799E+02  0.00000000000E+00 0. -1.
         -1    1    3    3    0  502  0.91516090676E+01 -0.93338594021E+02 -0.62067232979E+02  0.11246415648E+03  0.00000000000E+00 0.  1.
         13    1    5    5    0    0 -0.13109846656E+02  0.82843434303E+01 -0.13925146820E+01  0.15570405343E+02  0.00000000000E+00 0.  1.
        -13    1    5    5    0    0 -0.41370897994E+02 -0.16289080598E+03 -0.16670603966E+03  0.23671896741E+03  0.00000000000E+00 0. -1.
          3    1    6    6  503    0 -0.29481111511E+02  0.54368064899E+02  0.12930661699E+03  0.14333605134E+03  0.00000000000E+00 0. -1.
         -3    1    6    6    0  503  0.42198522329E+02  0.19692714218E+03  0.67829527490E+03  0.70756306755E+03  0.00000000000E+00 0.  1.
<mgrwt>
<rscale>  0 0.11674069E+04</rscale>
<asrwt>0</asrwt>
<pdfrwt beam="1">  1        2 0.13863056E+00 0.11674069E+04</pdfrwt>
<pdfrwt beam="2">  1       -1 0.58169967E-01 0.11674069E+04</pdfrwt>
<totfact> 0.98889667E+01</totfact>
</mgrwt>
</event>
<event>
12    7  0.1606355E-007  0.1977119E+04  0.7818608E-02  0.8617393E-01
          2   -1    0    0  501    0  0.00000000000E+00  0.00000000000E+00  0.11042006558E+04  0.11042006558E+04  0.00000000000E+00 0. -1.
         -1   -1    0    0    0  501 -0.00000000000E+00 -0.00000000000E+00 -0.88502963499E+03  0.88502963499E+03  0.00000000000E+00 0.  1.
         24    2    1    2    0    0  0.60197401802E+03 -0.85972225839E+02  0.60590618800E+03  0.86209893324E+03  0.79550738876E+02 0.  0.
        254    2    1    2    0    0 -0.60197401802E+03  0.85972225839E+02 -0.38673516722E+03  0.11271313575E+04  0.86665856343E+03 0.  0.
         23    2    4    4    0    0 -0.34838105770E+03  0.30254688586E+03  0.14572074614E+03  0.49238754314E+03  0.91142620535E+02 0.  0.
         23    2    4    4    0    0 -0.25359296031E+03 -0.21657466002E+03 -0.53245591335E+03  0.63474381438E+03  0.90423654762E+02 0.  0.
          4    1    3    3  502    0  0.26863399131E+03 -0.68232543878E+02  0.31211307107E+03  0.41741402763E+03  0.00000000000E+00 0. -1.
         -3    1    3    3    0  502  0.33334002671E+03 -0.17739681961E+02  0.29379311693E+03  0.44468490561E+03  0.00000000000E+00 0.  1.
         13    1    5    5    0    0 -0.33804976183E+03  0.29868361097E+03  0.15599955334E+03  0.47731059236E+03  0.00000000000E+00 0.  1.
        -13    1    5    5    0    0 -0.10331295875E+02  0.38632748891E+01 -0.10278807208E+02  0.15076950784E+02  0.00000000000E+00 0. -1.
          1    1    6    6  503    0 -0.23256132690E+03 -0.18837685213E+03 -0.41182083949E+03  0.50908448515E+03  0.00000000000E+00 0.  1.
         -1    1    6    6    0  503 -0.21031633408E+02 -0.28197807896E+02 -0.12063507387E+03  0.12565932922E+03  0.00000000000E+00 0. -1.
<mgrwt>
<rscale>  0 0.19771194E+04</rscale>
<asrwt>0</asrwt>
<pdfrwt beam="1">  1        2 0.16987702E+00 0.19771194E+04</pdfrwt>
<pdfrwt beam="2">  1       -1 0.13615841E+00 0.19771194E+04</pdfrwt>
<totfact> 0.10360034E+01</totfact>
</mgrwt>
</event>
<event>
12    7  0.1606355E-007  0.2139442E+04  0.7818608E-02  0.8544065E-01
          2   -1    0    0  501    0  0.00000000000E+00  0.00000000000E+00  0.68969603712E+03  0.68969603712E+03  0.00000000000E+00 0. -1.
         -1   -1    0    0    0  501 -0.00000000000E+00 -0.00000000000E+00 -0.16591412198E+04  0.16591412198E+04  0.00000000000E+00 0.  1.
         24    2    1    2    0    0  0.57284730129E+03 -0.27073368295E+03  0.26221482883E+03  0.69050601191E+03  0.81186072445E+02 0.  0.
        254    2    1    2    0    0 -0.57284730129E+03  0.27073368295E+03 -0.12316600115E+04  0.16583312450E+04  0.91193496287E+03 0.  0.
         23    2    4    4    0    0 -0.63261989518E+03  0.26128895161E+03 -0.13380114018E+04  0.15056806855E+04  0.91213854781E+02 0.  0.
         23    2    4    4    0    0  0.59772593896E+02  0.94447313372E+01  0.10635139028E+03  0.15265055952E+03  0.91266692587E+02 0.  0.
          2    1    3    3  502    0  0.31901231637E+03 -0.19144507274E+03  0.16992485700E+03  0.40901654110E+03  0.00000000000E+00 0. -1.
         -1    1    3    3    0  502  0.25383498492E+03 -0.79288610211E+02  0.92289971828E+02  0.28148947081E+03  0.00000000000E+00 0.  1.
         13    1    5    5    0    0 -0.15486823391E+03  0.99811738887E+02 -0.40999469940E+03  0.44949105289E+03  0.00000000000E+00 0.  1.
        -13    1    5    5    0    0 -0.47775166128E+03  0.16147721272E+03 -0.92801670237E+03  0.10561896326E+04  0.00000000000E+00 0. -1.
          2    1    6    6  503    0  0.73531864769E+02  0.32157055213E+01  0.11401949253E+03  0.13571190285E+03  0.00000000000E+00 0. -1.
         -2    1    6    6    0  503 -0.13759270873E+02  0.62290258160E+01 -0.76681022511E+01  0.16938656668E+02  0.00000000000E+00 0.  1.
<mgrwt>
<rscale>  0 0.21394421E+04</rscale>
<asrwt>0</asrwt>
<pdfrwt beam="1">  1        2 0.10610708E+00 0.21394421E+04</pdfrwt>
<pdfrwt beam="2">  1       -1 0.25525249E+00 0.21394421E+04</pdfrwt>
<totfact> 0.28201253E+00</totfact>
</mgrwt>
</event>
<event>
12    7  0.1606355E-007  0.1837387E+04  0.7818608E-02  0.8686666E-01
         -1   -1    0    0    0  501 -0.00000000000E+00  0.00000000000E+00  0.34353261768E+03  0.34353261768E+03  0.00000000000E+00 0.  1.
          2   -1    0    0  501    0  0.00000000000E+00 -0.00000000000E+00 -0.24568200190E+04  0.24568200190E+04  0.00000000000E+00 0. -1.
         24    2    1    2    0    0 -0.47221319183E+03 -0.12335282143E+03 -0.52393149488E+02  0.49716578806E+03  0.78914901070E+02 0.  0.
        254    2    1    2    0    0  0.47221319183E+03  0.12335282143E+03 -0.20608942519E+04  0.23031868486E+04  0.90508746835E+03 0.  0.
         23    2    4    4    0    0  0.33658936932E+03 -0.12483906504E+03 -0.19511797577E+04  0.19859806500E+04  0.90219176890E+02 0.  0.
         23    2    4    4    0    0  0.13562382251E+03  0.24819188646E+03 -0.10971449420E+03  0.31720619863E+03  0.92679385366E+02 0.  0.
          4    1    3    3  502    0 -0.57262894975E+02 -0.42209385098E+02 -0.15027104146E+02  0.72708219551E+02  0.00000000000E+00 0. -1.
         -3    1    3    3    0  502 -0.41495029685E+03 -0.81143436329E+02 -0.37366045342E+02  0.42445756851E+03  0.00000000000E+00 0.  1.
         13    1    5    5    0    0  0.20080709340E+03 -0.11173494294E+03 -0.13589951204E+04  0.13782873152E+04  0.00000000000E+00 0. -1.
        -13    1    5    5    0    0  0.13578227592E+03 -0.13104122096E+02 -0.59218463730E+03  0.60769333477E+03  0.00000000000E+00 0.  1.
          1    1    6    6  503    0  0.14300848295E+03  0.25144364838E+03 -0.10433253600E+03  0.30750709354E+03  0.00000000000E+00 0. -1.
         -1    1    6    6    0  503 -0.73846604440E+01 -0.32517619188E+01 -0.53819582016E+01  0.96991050893E+01  0.00000000000E+00 0.  1.
<mgrwt>
<rscale>  0 0.18373871E+04</rscale>
<asrwt>0</asrwt>
<pdfrwt beam="1">  1        2 0.37797229E+00 0.18373871E+04</pdfrwt>
<pdfrwt beam="2">  1       -1 0.52851175E-01 0.18373871E+04</pdfrwt>
<totfact> 0.14273747E+01</totfact>
</mgrwt>
</event>
<event>
12    7  0.1606355E-007  0.2910615E+04  0.7818608E-02  0.8269726E-01
          2   -1    0    0  501    0  0.00000000000E+00  0.00000000000E+00  0.40203947901E+04  0.40203947901E+04  0.00000000000E+00 0. -1.
         -1   -1    0    0    0  501 -0.00000000000E+00 -0.00000000000E+00 -0.52679386583E+03  0.52679386583E+03  0.00000000000E+00 0.  1.
         24    2    1    2    0    0 -0.81734512664E+03  0.10059671546E+04  0.19366386287E+04  0.23317630343E+04  0.80787981570E+02 0.  0.
        254    2    1    2    0    0  0.81734512664E+03 -0.10059671546E+04  0.15569622956E+04  0.22154256216E+04  0.89663600348E+03 0.  0.
         23    2    4    4    0    0  0.53363797961E+03 -0.94615924997E+03  0.67409309190E+03  0.12816918402E+04  0.91354567426E+02 0.  0.
         23    2    4    4    0    0  0.28370714703E+03 -0.59807904628E+02  0.88286920365E+03  0.93373378141E+03  0.91290815807E+02 0.  0.
          2    1    3    3  502    0 -0.62211140924E+03  0.75492923515E+03  0.15209296463E+04  0.18083605129E+04  0.00000000000E+00 0. -1.
         -1    1    3    3    0  502 -0.19523371740E+03  0.25103791945E+03  0.41570898241E+03  0.52340252146E+03  0.00000000000E+00 0.  1.
         13    1    5    5    0    0  0.81936385853E+02 -0.10313080215E+03  0.10772622128E+03  0.17016013761E+03  0.00000000000E+00 0. -1.
        -13    1    5    5    0    0  0.45170159376E+03 -0.84302844783E+03  0.56636687062E+03  0.11115317026E+04  0.00000000000E+00 0.  1.
          4    1    6    6  503    0  0.51787283722E+02 -0.38709093618E+02  0.12268719827E+03  0.13868116420E+03  0.00000000000E+00 0. -1.
         -4    1    6    6    0  503  0.23191986331E+03 -0.21098811010E+02  0.76018200539E+03  0.79505261721E+03  0.00000000000E+00 0.  1.
<mgrwt>
<rscale>  0 0.29106146E+04</rscale>
<asrwt>0</asrwt>
<pdfrwt beam="1">  1        2 0.61852226E+00 0.29106146E+04</pdfrwt>
<pdfrwt beam="2">  1       -1 0.81045213E-01 0.29106146E+04</pdfrwt>
<totfact> 0.48954447E-01</totfact>
</mgrwt>
</event>
<event>
12    7  0.1606355E-007  0.1412473E+04  0.7818608E-02  0.8944839E-01
         -1   -1    0    0    0  501 -0.00000000000E+00  0.00000000000E+00  0.20121154070E+03  0.20121154070E+03  0.00000000000E+00 0.  1.
          2   -1    0    0  501    0  0.00000000000E+00 -0.00000000000E+00 -0.24788339407E+04  0.24788339407E+04  0.00000000000E+00 0. -1.
         24    2    1    2    0    0 -0.24317812798E+02 -0.19008597688E+03  0.17571538072E+02  0.20872258144E+03  0.80822784069E+02 0.  0.
        254    2    1    2    0    0  0.24317812798E+02  0.19008597688E+03 -0.22951939381E+04  0.24713228999E+04  0.89598974763E+03 0.  0.
         23    2    4    4    0    0  0.21355167744E+03  0.19259964142E+03 -0.22269397855E+04  0.22473266699E+04  0.92289826316E+02 0.  0.
         23    2    4    4    0    0 -0.18923386464E+03 -0.25136645354E+01 -0.68254152552E+02  0.22399623007E+03  0.98488109478E+02 0.  0.
          4    1    3    3  502    0  0.12103340397E+02 -0.13356257156E+03 -0.13232739406E+02  0.13476110998E+03  0.00000000000E+00 0. -1.
         -3    1    3    3    0  502 -0.36421153196E+02 -0.56523405325E+02  0.30804277478E+02  0.73961471460E+02  0.00000000000E+00 0.  1.
         13    1    5    5    0    0  0.86821175743E+02  0.13538353881E+03 -0.10599809667E+04  0.10721129926E+04  0.00000000000E+00 0.  1.
        -13    1    5    5    0    0  0.12673050170E+03  0.57216102611E+02 -0.11669588188E+04  0.11752136773E+04  0.00000000000E+00 0. -1.
          4    1    6    6  503    0 -0.15603678199E+03 -0.39075271343E+02 -0.35466339620E+02  0.16471859461E+03  0.00000000000E+00 0. -1.
         -4    1    6    6    0  503 -0.33197082653E+02  0.36561606808E+02 -0.32787812932E+02  0.59277635461E+02  0.00000000000E+00 0.  1.
<mgrwt>
<rscale>  0 0.14124730E+04</rscale>
<asrwt>0</asrwt>
<pdfrwt beam="1">  1        2 0.38135904E+00 0.14124730E+04</pdfrwt>
<pdfrwt beam="2">  1       -1 0.30955624E-01 0.14124730E+04</pdfrwt>
<totfact> 0.38421574E+01</totfact>
</mgrwt>
</event>
<event>
12    7  0.1606355E-007  0.2205721E+04  0.7818608E-02  0.8516051E-01
         -1   -1    0    0    0  501 -0.00000000000E+00  0.00000000000E+00  0.68831340498E+03  0.68831340498E+03  0.00000000000E+00 0.  1.
          2   -1    0    0  501    0  0.00000000000E+00 -0.00000000000E+00 -0.17670740959E+04  0.17670740959E+04  0.00000000000E+00 0. -1.
         24    2    1    2    0    0  0.73065959905E+03  0.41786991477E+03 -0.85504677119E+03  0.12024407803E+04  0.79247295545E+02 0.  0.
        254    2    1    2    0    0 -0.73065959905E+03 -0.41786991477E+03 -0.22371391978E+03  0.12529467206E+04  0.90074905022E+03 0.  0.
         23    2    4    4    0    0 -0.32930639699E+02 -0.47102593220E+03  0.74203830585E+02  0.48673245841E+03  0.91937053257E+02 0.  0.
         23    2    4    4    0    0 -0.69772895935E+03  0.53156017426E+02 -0.29791775037E+03  0.76621426222E+03  0.93156034357E+02 0.  0.
          2    1    3    3  502    0  0.68004241563E+03  0.38761388481E+03 -0.76284428589E+03  0.10929929621E+04  0.00000000000E+00 0. -1.
         -1    1    3    3    0  502  0.50617183418E+02  0.30256029958E+02 -0.92202485296E+02  0.10944781816E+03  0.00000000000E+00 0.  1.
         13    1    5    5    0    0 -0.46727602869E+02 -0.20032975209E+03 -0.14640898563E-01  0.20570726448E+03  0.00000000000E+00 0.  1.
        -13    1    5    5    0    0  0.13796963170E+02 -0.27069618010E+03  0.74218471484E+02  0.28102519393E+03  0.00000000000E+00 0. -1.
          3    1    6    6  503    0 -0.48244174069E+03  0.61427586518E+02 -0.16751856903E+03  0.51437909417E+03  0.00000000000E+00 0. -1.
         -3    1    6    6    0  503 -0.21528721866E+03 -0.82715690913E+01 -0.13039918134E+03  0.25183516805E+03  0.00000000000E+00 0.  1.
<mgrwt>
<rscale>  0 0.22057206E+04</rscale>
<asrwt>0</asrwt>
<pdfrwt beam="1">  1        2 0.27185756E+00 0.22057206E+04</pdfrwt>
<pdfrwt beam="2">  1       -1 0.10589437E+00 0.22057206E+04</pdfrwt>
<totfact> 0.78139136E+00</totfact>
</mgrwt>
</event>
<event>
12    7  0.1606355E-007  0.1791911E+04  0.7818608E-02  0.8710613E-01
          2   -1    0    0  501    0  0.00000000000E+00  0.00000000000E+00  0.19926065698E+04  0.19926065698E+04  0.00000000000E+00 0. -1.
         -1   -1    0    0    0  501 -0.00000000000E+00 -0.00000000000E+00 -0.40285746738E+03  0.40285746738E+03  0.00000000000E+00 0.  1.
         24    2    1    2    0    0 -0.65127949360E+03  0.13145912170E+03  0.56318132473E+03  0.87398490808E+03  0.72318293393E+02 0.  0.
        254    2    1    2    0    0  0.65127949360E+03 -0.13145912170E+03  0.10265677777E+04  0.15214791291E+04  0.90532362093E+03 0.  0.
         23    2    4    4    0    0  0.19285619630E+03 -0.60206111356E+02 -0.14031803955E+03  0.26235641584E+03  0.91232934897E+02 0.  0.
         23    2    4    4    0    0  0.45842329730E+03 -0.71253010347E+02  0.11668858172E+04  0.12591227132E+04  0.92404467400E+02 0.  0.
          4    1    3    3  502    0 -0.64890489057E+03  0.13056762128E+03  0.56547339767E+03  0.87056626640E+03  0.00000000000E+00 0. -1.
         -3    1    3    3    0  502 -0.23746030335E+01  0.89150042150E+00 -0.22920729355E+01  0.34186416761E+01  0.00000000000E+00 0.  1.
         13    1    5    5    0    0 -0.28349696596E+01  0.16813802501E+01  0.83159710727E+01  0.89453601044E+01  0.00000000000E+00 0. -1.
        -13    1    5    5    0    0  0.19569116596E+03 -0.61887491606E+02 -0.14863401062E+03  0.25341105573E+03  0.00000000000E+00 0.  1.
          4    1    6    6  503    0  0.19936497728E+02 -0.16472230539E+02  0.12070148066E+03  0.12344085934E+03  0.00000000000E+00 0. -1.
         -4    1    6    6    0  503  0.43848679957E+03 -0.54780779808E+02  0.10461843365E+04  0.11356818539E+04  0.00000000000E+00 0.  1.
<mgrwt>
<rscale>  0 0.17919112E+04</rscale>
<asrwt>0</asrwt>
<pdfrwt beam="1">  1        2 0.30655485E+00 0.17919112E+04</pdfrwt>
<pdfrwt beam="2">  1       -1 0.61978073E-01 0.17919112E+04</pdfrwt>
<totfact> 0.19160652E+01</totfact>
</mgrwt>
</event>
<event>
12    7  0.1606355E-007  0.1900673E+04  0.7818608E-02  0.8654521E-01
          2   -1    0    0  501    0  0.00000000000E+00  0.00000000000E+00  0.78620375129E+03  0.78620375129E+03  0.00000000000E+00 0. -1.
         -1   -1    0    0    0  501 -0.00000000000E+00 -0.00000000000E+00 -0.11487350672E+04  0.11487350672E+04  0.00000000000E+00 0.  1.
         24    2    1    2    0    0 -0.26381520345E+03  0.55493307453E+03 -0.54839032663E+03  0.82741226012E+03  0.79560788488E+02 0.  0.
        254    2    1    2    0    0  0.26381520345E+03 -0.55493307453E+03  0.18585901072E+03  0.11075265584E+04  0.90250890681E+03 0.  0.
         23    2    4    4    0    0  0.32047475296E+03  0.12690990751E+03 -0.84304498718E+02  0.36646945289E+03  0.91555554136E+02 0.  0.
         23    2    4    4    0    0 -0.56659549509E+02 -0.68184298204E+03  0.27016350943E+03  0.74105710549E+03  0.89761656942E+02 0.  0.
          4    1    3    3  502    0 -0.14349115528E+03  0.32727361806E+03 -0.26768630782E+03  0.44649041660E+03  0.00000000000E+00 0. -1.
         -3    1    3    3    0  502 -0.12032404817E+03  0.22765945647E+03 -0.28070401882E+03  0.38092184352E+03  0.00000000000E+00 0.  1.
         13    1    5    5    0    0  0.20975084878E+03  0.90644177863E+02 -0.99020923031E+02  0.24903198337E+03  0.00000000000E+00 0. -1.
        -13    1    5    5    0    0  0.11072390418E+03  0.36265729644E+02  0.14716424313E+02  0.11743746952E+03  0.00000000000E+00 0.  1.
          2    1    6    6  503    0 -0.35715764175E+02 -0.45840786024E+03  0.22600435987E+03  0.51233909945E+03  0.00000000000E+00 0. -1.
         -2    1    6    6    0  503 -0.20943785334E+02 -0.22343512180E+03  0.44159149563E+02  0.22871800604E+03  0.00000000000E+00 0.  1.
<mgrwt>
<rscale>  0 0.19006734E+04</rscale>
<asrwt>0</asrwt>
<pdfrwt beam="1">  1        2 0.12095442E+00 0.19006734E+04</pdfrwt>
<pdfrwt beam="2">  1       -1 0.17672847E+00 0.19006734E+04</pdfrwt>
<totfact> 0.82799510E+00</totfact>
</mgrwt>
</event>
<event>
12    7  0.1606355E-007  0.3128692E+04  0.7818608E-02  0.8207908E-01
         -3   -1    0    0    0  501 -0.00000000000E+00  0.00000000000E+00  0.12109061200E+04  0.12109061200E+04  0.00000000000E+00 0.  1.
          2   -1    0    0  501    0  0.00000000000E+00 -0.00000000000E+00 -0.20209476689E+04  0.20209476689E+04  0.00000000000E+00 0. -1.
         24    2    1    2    0    0 -0.29536699201E+03  0.13162084633E+03  0.10777508978E+04  0.11281218711E+04  0.80908907040E+02 0.  0.
        254    2    1    2    0    0  0.29536699201E+03 -0.13162084633E+03 -0.18877924468E+04  0.21037319178E+04  0.87026544959E+03 0.  0.
         23    2    4    4    0    0  0.49328111599E+03  0.11100756285E+03 -0.67762319060E+03  0.85035751668E+03  0.91026256366E+02 0.  0.
         23    2    4    4    0    0 -0.19791412398E+03 -0.24262840918E+03 -0.12101692562E+04  0.12533744011E+04  0.91647233375E+02 0.  0.
          2    1    3    3  502    0 -0.16054615706E+03  0.27885235846E+02  0.50445586648E+03  0.53012109574E+03  0.00000000000E+00 0. -1.
         -1    1    3    3    0  502 -0.13482083495E+03  0.10373561048E+03  0.57329503134E+03  0.59800077540E+03  0.00000000000E+00 0.  1.
         13    1    5    5    0    0  0.12765267570E+03 -0.11421125965E+02 -0.16804925230E+03  0.21134379322E+03  0.00000000000E+00 0.  1.
        -13    1    5    5    0    0  0.36562844029E+03  0.12242868881E+03 -0.50957393829E+03  0.63901372347E+03  0.00000000000E+00 0. -1.
          3    1    6    6  503    0 -0.18336977823E+03 -0.23651220118E+03 -0.10322518435E+04  0.10747587475E+04  0.00000000000E+00 0. -1.
         -3    1    6    6    0  503 -0.14544345745E+02 -0.61162080003E+01 -0.17791741263E+03  0.17861565360E+03  0.00000000000E+00 0.  1.
<mgrwt>
<rscale>  0 0.31286917E+04</rscale>
<asrwt>0</asrwt>
<pdfrwt beam="1">  1        2 0.31091503E+00 0.31286917E+04</pdfrwt>
<pdfrwt beam="2">  1       -3 0.18629325E+00 0.31286917E+04</pdfrwt>
<totfact> 0.62625112E-01</totfact>
</mgrwt>
</event>
<event>
12    7  0.1606355E-007  0.2020095E+04  0.7818608E-02  0.8597283E-01
         -1   -1    0    0    0  501 -0.00000000000E+00  0.00000000000E+00  0.47828307641E+03  0.47828307641E+03  0.00000000000E+00 0.  1.
          2   -1    0    0  501    0  0.00000000000E+00 -0.00000000000E+00 -0.21330378463E+04  0.21330378463E+04  0.00000000000E+00 0. -1.
         24    2    1    2    0    0  0.33641513825E+02  0.49685562773E+03 -0.14863803804E+04  0.15696382526E+04  0.80251744272E+02 0.  0.
        254    2    1    2    0    0 -0.33641513825E+02 -0.49685562773E+03 -0.16837438946E+03  0.10416826701E+04  0.89930839199E+03 0.  0.
         23    2    4    4    0    0  0.24610087485E+03 -0.63434230623E+03 -0.19123228963E+03  0.71251582362E+03  0.90295117483E+02 0.  0.
         23    2    4    4    0    0 -0.27974238868E+03  0.13748667850E+03  0.22857900167E+02  0.32916684648E+03  0.10329539407E+03 0.  0.
          2    1    3    3  502    0  0.42739563581E+02  0.47689606265E+03 -0.13713420325E+04  0.14525272786E+04  0.00000000000E+00 0. -1.
         -1    1    3    3    0  502 -0.90980497557E+01  0.19959565082E+02 -0.11503834789E+03  0.11711097400E+03  0.00000000000E+00 0.  1.
         13    1    5    5    0    0  0.16260495808E+03 -0.47141905195E+03 -0.10261394887E+03  0.50912269390E+03  0.00000000000E+00 0.  1.
        -13    1    5    5    0    0  0.83495916774E+02 -0.16292325428E+03 -0.88618340759E+02  0.20339312973E+03  0.00000000000E+00 0. -1.
          4    1    6    6  503    0 -0.53003905894E+02  0.31466398111E+00  0.35612311482E+02  0.63857261000E+02  0.00000000000E+00 0. -1.
         -4    1    6    6    0  503 -0.22673848278E+03  0.13717201451E+03 -0.12754411315E+02  0.26530958548E+03  0.00000000000E+00 0.  1.
<mgrwt>
<rscale>  0 0.20200950E+04</rscale>
<asrwt>0</asrwt>
<pdfrwt beam="1">  1        2 0.32815967E+00 0.20200950E+04</pdfrwt>
<pdfrwt beam="2">  1       -1 0.73582011E-01 0.20200950E+04</pdfrwt>
<totfact> 0.11063368E+01</totfact>
</mgrwt>
</event>
<event>
12    7  0.1606355E-007  0.1601735E+04  0.7818608E-02  0.8819483E-01
          2   -1    0    0  501    0  0.00000000000E+00  0.00000000000E+00  0.50041078419E+03  0.50041078419E+03  0.00000000000E+00 0. -1.
         -1   -1    0    0    0  501 -0.00000000000E+00 -0.00000000000E+00 -0.12817241392E+04  0.12817241392E+04  0.00000000000E+00 0.  1.
         24    2    1    2    0    0 -0.17434423858E+03 -0.35539782582E+03 -0.67969139832E+03  0.79045063837E+03  0.78283373892E+02 0.  0.
        254    2    1    2    0    0  0.17434423858E+03  0.35539782582E+03 -0.10162195670E+03  0.99168428502E+03  0.90355252805E+03 0.  0.
         23    2    4    4    0    0 -0.33650978682E+03 -0.46695602432E+01 -0.86506130747E+02  0.35954778694E+03  0.92361566777E+02 0.  0.
         23    2    4    4    0    0  0.51085402540E+03  0.36006738607E+03 -0.15115825954E+02  0.63213649808E+03  0.93529173209E+02 0.  0.
          2    1    3    3  502    0  0.23855286184E+01  0.14537487437E+01 -0.17679769134E+02  0.17899116426E+02  0.00000000000E+00 0. -1.
         -1    1    3    3    0  502 -0.17672976720E+03 -0.35685157457E+03 -0.66201162918E+03  0.77255152195E+03  0.00000000000E+00 0.  1.
         13    1    5    5    0    0 -0.21734147141E+03  0.12570835066E+02 -0.12177741813E+02  0.21804503775E+03  0.00000000000E+00 0.  1.
        -13    1    5    5    0    0 -0.11916831540E+03 -0.17240395309E+02 -0.74328388934E+02  0.14150274919E+03  0.00000000000E+00 0. -1.
          3    1    6    6  503    0  0.11951657636E+03  0.46506707181E+02  0.18376633285E+02  0.12955611328E+03  0.00000000000E+00 0. -1.
         -3    1    6    6    0  503  0.39133744904E+03  0.31356067889E+03 -0.33492459240E+02  0.50258038480E+03  0.00000000000E+00 0.  1.
<mgrwt>
<rscale>  0 0.16017348E+04</rscale>
<asrwt>0</asrwt>
<pdfrwt beam="1">  1        2 0.76986275E-01 0.16017348E+04</pdfrwt>
<pdfrwt beam="2">  1       -1 0.19718833E+00 0.16017348E+04</pdfrwt>
<totfact> 0.10611562E+01</totfact>
</mgrwt>
</event>
<event>
12    7  0.1606355E-007  0.1670318E+04  0.7818608E-02  0.8778477E-01
          2   -1    0    0  501    0  0.00000000000E+00  0.00000000000E+00  0.19675871921E+04  0.19675871921E+04  0.00000000000E+00 0. -1.
         -1   -1    0    0    0  501 -0.00000000000E+00 -0.00000000000E+00 -0.35449009370E+03  0.35449009370E+03  0.00000000000E+00 0.  1.
         24    2    1    2    0    0  0.29261935045E+03  0.46688894981E+02  0.12827334650E+04  0.13188616428E+04  0.78644475284E+02 0.  0.
        254    2    1    2    0    0 -0.29261935045E+03 -0.46688894981E+02  0.33036363341E+03  0.10032156430E+04  0.89971971129E+03 0.  0.
         23    2    4    4    0    0 -0.40354694542E+03 -0.35904688380E+03  0.36437257730E+03  0.65734984918E+03  0.87043938377E+02 0.  0.
         23    2    4    4    0    0  0.11092759497E+03  0.31235798882E+03 -0.34008943886E+02  0.34586579381E+03  0.92704339465E+02 0.  0.
          2    1    3    3  502    0  0.15363082112E+03  0.27303251423E+02  0.84164637424E+03  0.85598861908E+03  0.00000000000E+00 0. -1.
         -1    1    3    3    0  502  0.13898852934E+03  0.19385643558E+02  0.44108709076E+03  0.46287302374E+03  0.00000000000E+00 0.  1.
         13    1    5    5    0    0 -0.14021311299E+03 -0.76324492091E+02  0.87739423496E+02  0.18216298083E+03  0.00000000000E+00 0. -1.
        -13    1    5    5    0    0 -0.26333383242E+03 -0.28272239171E+03  0.27663315380E+03  0.47518686835E+03  0.00000000000E+00 0.  1.
          4    1    6    6  503    0  0.38861702449E+02  0.66899850637E+02  0.28620623679E+02  0.82492193765E+02  0.00000000000E+00 0. -1.
         -4    1    6    6    0  503  0.72065892518E+02  0.24545813819E+03 -0.62629567565E+02  0.26337360004E+03  0.00000000000E+00 0.  1.
<mgrwt>
<rscale>  0 0.16703175E+04</rscale>
<asrwt>0</asrwt>
<pdfrwt beam="1">  1        2 0.30270572E+00 0.16703175E+04</pdfrwt>
<pdfrwt beam="2">  1       -1 0.54536938E-01 0.16703175E+04</pdfrwt>
<totfact> 0.25698403E+01</totfact>
</mgrwt>
</event>
<event>
12    7  0.1606355E-007  0.1868167E+04  0.7818608E-02  0.8670866E-01
          2   -1    0    0  501    0  0.00000000000E+00  0.00000000000E+00  0.21877229374E+04  0.21877229374E+04  0.00000000000E+00 0. -1.
         -1   -1    0    0    0  501 -0.00000000000E+00 -0.00000000000E+00 -0.39882180696E+03  0.39882180696E+03  0.00000000000E+00 0.  1.
         24    2    1    2    0    0 -0.19618288135E+03 -0.54001965434E+03  0.12777445812E+04  0.14033247052E+04  0.81117591297E+02 0.  0.
        254    2    1    2    0    0  0.19618288135E+03  0.54001965434E+03  0.51115654931E+03  0.11832200392E+04  0.89923283589E+03 0.  0.
         23    2    4    4    0    0  0.38897230820E+03  0.68080735928E+03  0.27645471218E+03  0.83631721656E+03  0.90560266279E+02 0.  0.
         23    2    4    4    0    0 -0.19278942685E+03 -0.14078770494E+03  0.23470183713E+03  0.34690282260E+03  0.90926756282E+02 0.  0.
          4    1    3    3  502    0 -0.85622153541E+02 -0.25733492260E+03  0.50731987528E+03  0.57526156783E+03  0.00000000000E+00 0. -1.
         -3    1    3    3    0  502 -0.11056072781E+03 -0.28268473174E+03  0.77042470590E+03  0.82806313742E+03  0.00000000000E+00 0.  1.
         13    1    5    5    0    0  0.72072520196E+02  0.17729651582E+03  0.36615957591E+02  0.19485695019E+03  0.00000000000E+00 0. -1.
        -13    1    5    5    0    0  0.31689978800E+03  0.50351084346E+03  0.23983875459E+03  0.64146026636E+03  0.00000000000E+00 0.  1.
          4    1    6    6  503    0 -0.19147882065E+03 -0.12898610579E+03  0.18513430155E+03  0.29593287052E+03  0.00000000000E+00 0.  1.
         -4    1    6    6    0  503 -0.13106061948E+01 -0.11801599148E+02  0.49567535579E+02  0.50969952074E+02  0.00000000000E+00 0. -1.
<mgrwt>
<rscale>  0 0.18681666E+04</rscale>
<asrwt>0</asrwt>
<pdfrwt beam="1">  1        2 0.33657275E+00 0.18681666E+04</pdfrwt>
<pdfrwt beam="2">  1       -1 0.61357202E-01 0.18681666E+04</pdfrwt>
<totfact> 0.15114177E+01</totfact>
</mgrwt>
</event>
<event>
12    7  0.1606355E-007  0.1237634E+04  0.7818608E-02  0.9080539E-01
          2   -1    0    0  501    0  0.00000000000E+00  0.00000000000E+00  0.18438848466E+04  0.18438848466E+04  0.00000000000E+00 0. -1.
         -1   -1    0    0    0  501 -0.00000000000E+00 -0.00000000000E+00 -0.20767813403E+03  0.20767813403E+03  0.00000000000E+00 0.  1.
         24    2    1    2    0    0 -0.51555332979E+02 -0.26835387558E+03  0.28037688107E+03  0.39894130904E+03  0.76623871745E+02 0.  0.
        254    2    1    2    0    0  0.51555332979E+02  0.26835387558E+03  0.13558298315E+04  0.16526216716E+04  0.90455077387E+03 0.  0.
         23    2    4    4    0    0  0.40762964377E+03 -0.84835689738E+02  0.73338241119E+03  0.84818990031E+03  0.90649463362E+02 0.  0.
         23    2    4    4    0    0 -0.35607431080E+03  0.35318956532E+03  0.62244742029E+03  0.80443177126E+03  0.90210308297E+02 0.  0.
          2    1    3    3  502    0 -0.32644568987E+02 -0.25521706532E+03  0.27206617420E+03  0.37446150865E+03  0.00000000000E+00 0. -1.
         -3    1    3    3    0  502 -0.18910763992E+02 -0.13136810261E+02  0.83107068738E+01  0.24479800394E+02  0.00000000000E+00 0.  1.
         13    1    5    5    0    0  0.28055172491E+03 -0.98073654800E+02  0.54070075733E+03  0.61699677560E+03  0.00000000000E+00 0. -1.
        -13    1    5    5    0    0  0.12707791886E+03  0.13237965062E+02  0.19268165386E+03  0.23119312472E+03  0.00000000000E+00 0.  1.
          4    1    6    6  503    0 -0.30555023513E+02  0.62342550240E+02  0.12182644091E+03  0.14022084274E+03  0.00000000000E+00 0. -1.
         -4    1    6    6    0  503 -0.32551928728E+03  0.29084701508E+03  0.50062097938E+03  0.66421092853E+03  0.00000000000E+00 0.  1.
<mgrwt>
<rscale>  0 0.12376341E+04</rscale>
<asrwt>0</asrwt>
<pdfrwt beam="1">  1        2 0.28367458E+00 0.12376341E+04</pdfrwt>
<pdfrwt beam="2">  1       -1 0.31950483E-01 0.12376341E+04</pdfrwt>
<totfact> 0.83550865E+01</totfact>
</mgrwt>
</event>
<event>
12    7  0.1606355E-007  0.2283753E+04  0.7818608E-02  0.8484355E-01
          2   -1    0    0  501    0  0.00000000000E+00  0.00000000000E+00  0.99328532927E+03  0.99328532927E+03  0.00000000000E+00 0. -1.
         -1   -1    0    0    0  501 -0.00000000000E+00 -0.00000000000E+00 -0.13126962816E+04  0.13126962816E+04  0.00000000000E+00 0.  1.
         24    2    1    2    0    0  0.61797040165E+03 -0.57917643939E+02 -0.87324300490E+03  0.10743164399E+04  0.79753349124E+02 0.  0.
        254    2    1    2    0    0 -0.61797040165E+03  0.57917643939E+02  0.55383205255E+03  0.12316651710E+04  0.90831012333E+03 0.  0.
         23    2    4    4    0    0 -0.88742997300E+02 -0.10529986971E+03  0.64254526544E+03  0.66349838580E+03  0.91664102563E+02 0.  0.
         23    2    4    4    0    0 -0.52922740435E+03  0.16321751365E+03 -0.88713212888E+02  0.56816678516E+03  0.90674469087E+02 0.  0.
          2    1    3    3  502    0  0.56640487961E+02 -0.83628440503E+01 -0.12611322485E+03  0.13850136288E+03  0.00000000000E+00 0. -1.
         -3    1    3    3    0  502  0.56132991369E+03 -0.49554799889E+02 -0.74712978005E+03  0.93581507705E+03  0.00000000000E+00 0.  1.
         13    1    5    5    0    0  0.10982977387E+02  0.81102307447E+01  0.38093495262E+02  0.40466233038E+02  0.00000000000E+00 0.  1.
        -13    1    5    5    0    0 -0.99725974687E+02 -0.11341010046E+03  0.60445177017E+03  0.62303215277E+03  0.00000000000E+00 0. -1.
          3    1    6    6  503    0 -0.83961379442E+02  0.58779935012E+02 -0.10850876718E+01  0.10249766540E+03  0.00000000000E+00 0.  1.
         -3    1    6    6    0  503 -0.44526602491E+03  0.10443757864E+03 -0.87628125216E+02  0.46566911976E+03  0.00000000000E+00 0. -1.
<mgrwt>
<rscale>  0 0.22837530E+04</rscale>
<asrwt>0</asrwt>
<pdfrwt beam="1">  1        2 0.15281313E+00 0.22837530E+04</pdfrwt>
<pdfrwt beam="2">  1       -1 0.20195327E+00 0.22837530E+04</pdfrwt>
<totfact> 0.38427731E+00</totfact>
</mgrwt>
</event>
<event>
12    7  0.1606355E-007  0.1633643E+04  0.7818608E-02  0.8800142E-01
          2   -1    0    0  501    0  0.00000000000E+00  0.00000000000E+00  0.16094954462E+04  0.16094954462E+04  0.00000000000E+00 0. -1.
         -1   -1    0    0    0  501 -0.00000000000E+00 -0.00000000000E+00 -0.41453812053E+03  0.41453812053E+03  0.00000000000E+00 0.  1.
         24    2    1    2    0    0  0.89209262409E+01 -0.54343283534E+02 -0.27539446882E+03  0.29153326074E+03  0.78209675050E+02 0.  0.
        254    2    1    2    0    0 -0.89209262409E+01  0.54343283534E+02  0.14703517945E+04  0.17325003060E+04  0.91465301361E+03 0.  0.
         23    2    4    4    0    0  0.32788461153E+03  0.27476531815E+03  0.42955134781E+03  0.61316443488E+03  0.91934570537E+02 0.  0.
         23    2    4    4    0    0 -0.33680553777E+03 -0.22042203462E+03  0.10408004467E+04  0.11193358711E+04  0.87311963237E+02 0.  0.
          2    1    3    3  502    0 -0.48396915316E+01 -0.52827952677E+02 -0.82125941297E+02  0.97769552684E+02  0.00000000000E+00 0. -1.
         -1    1    3    3    0  502  0.13760617772E+02 -0.15153308575E+01 -0.19326852752E+03  0.19376370806E+03  0.00000000000E+00 0.  1.
         13    1    5    5    0    0  0.21498600499E+03  0.20552046857E+03  0.34735495998E+03  0.45728887321E+03  0.00000000000E+00 0.  1.
        -13    1    5    5    0    0  0.11289860654E+03  0.69244849585E+02  0.82196387826E+02  0.15587556167E+03  0.00000000000E+00 0. -1.
          2    1    6    6  503    0 -0.16665714068E+03 -0.94453390852E+02  0.60922559897E+03  0.63863281784E+03  0.00000000000E+00 0. -1.
         -2    1    6    6    0  503 -0.17014839709E+03 -0.12596864377E+03  0.43157484769E+03  0.48070305325E+03  0.00000000000E+00 0.  1.
<mgrwt>
<rscale>  0 0.16336428E+04</rscale>
<asrwt>0</asrwt>
<pdfrwt beam="1">  1        2 0.24761468E+00 0.16336428E+04</pdfrwt>
<pdfrwt beam="2">  1       -1 0.63775096E-01 0.16336428E+04</pdfrwt>
<totfact> 0.29931977E+01</totfact>
</mgrwt>
</event>
<event>
12    7  0.1606355E-007  0.2275147E+04  0.7818608E-02  0.8487785E-01
          2   -1    0    0  501    0  0.00000000000E+00  0.00000000000E+00  0.22748589741E+04  0.22748589741E+04  0.00000000000E+00 0. -1.
         -1   -1    0    0    0  501 -0.00000000000E+00 -0.00000000000E+00 -0.56885870828E+03  0.56885870828E+03  0.00000000000E+00 0.  1.
         24    2    1    2    0    0 -0.27951946920E+03 -0.54934257058E+03 -0.18773504466E+03  0.64941722833E+03  0.81178174047E+02 0.  0.
        254    2    1    2    0    0  0.27951946920E+03  0.54934257058E+03  0.18937353105E+04  0.21943004540E+04  0.92131029678E+03 0.  0.
         23    2    4    4    0    0 -0.23412450412E+03  0.52052775243E+03  0.85380044532E+03  0.10305688355E+04  0.85635855958E+02 0.  0.
         23    2    4    4    0    0  0.51364397332E+03  0.28814818154E+02  0.10399348652E+04  0.11637316185E+04  0.90257028105E+02 0.  0.
          2    1    3    3  502    0  0.49003348540E+01 -0.36176206154E+01 -0.35540793013E+01  0.70520876539E+01  0.00000000000E+00 0. -1.
         -1    1    3    3    0  502 -0.28441980405E+03 -0.54572494996E+03 -0.18418096536E+03  0.64236514067E+03  0.00000000000E+00 0.  1.
         13    1    5    5    0    0 -0.18209720619E+03  0.47159884064E+03  0.73916609987E+03  0.89550621561E+03  0.00000000000E+00 0.  1.
        -13    1    5    5    0    0 -0.52027297932E+02  0.48928911781E+02  0.11463434545E+03  0.13506261990E+03  0.00000000000E+00 0. -1.
          2    1    6    6  503    0  0.46555626194E+03  0.52217404611E+02  0.94582096312E+03  0.10554840523E+04  0.00000000000E+00 0.  1.
         -2    1    6    6    0  503  0.48087711387E+02 -0.23402586457E+02  0.94113902049E+02  0.10824756625E+03  0.00000000000E+00 0. -1.
<mgrwt>
<rscale>  0 0.22751469E+04</rscale>
<asrwt>0</asrwt>
<pdfrwt beam="1">  1        2 0.34997830E+00 0.22751469E+04</pdfrwt>
<pdfrwt beam="2">  1       -1 0.87516725E-01 0.22751469E+04</pdfrwt>
<totfact> 0.62208712E+00</totfact>
</mgrwt>
</event>
<event>
12    7  0.1606355E-007  0.1212917E+04  0.7818608E-02  0.9101625E-01
          2   -1    0    0  501    0  0.00000000000E+00  0.00000000000E+00  0.29305860341E+04  0.29305860341E+04  0.00000000000E+00 0. -1.
         -1   -1    0    0    0  501 -0.00000000000E+00 -0.00000000000E+00 -0.12550117203E+03  0.12550117203E+03  0.00000000000E+00 0.  1.
         24    2    1    2    0    0  0.77457425005E+02  0.16141750820E+03  0.11038815117E+04  0.11212488469E+04  0.81174628242E+02 0.  0.
        254    2    1    2    0    0 -0.77457425005E+02 -0.16141750820E+03  0.17012033503E+04  0.19348383592E+04  0.90413017436E+03 0.  0.
         23    2    4    4    0    0 -0.24962079929E+03  0.64577159106E+02  0.15942419097E+04  0.16177230404E+04  0.94550599589E+02 0.  0.
         23    2    4    4    0    0  0.17216337429E+03 -0.22599466731E+03  0.10696144064E+03  0.31711531875E+03  0.91692739665E+02 0.  0.
          4    1    3    3  502    0  0.63462519956E+02  0.11903448821E+03  0.98627956354E+03  0.99546174124E+03  0.00000000000E+00 0. -1.
         -3    1    3    3    0  502  0.13994905049E+02  0.42383019989E+02  0.11760194815E+03  0.12578710570E+03  0.00000000000E+00 0.  1.
         13    1    5    5    0    0 -0.15406732121E+03  0.72551554454E+02  0.11980792188E+04  0.12101215980E+04  0.00000000000E+00 0.  1.
        -13    1    5    5    0    0 -0.95553478084E+02 -0.79743953480E+01  0.39616269090E+03  0.40760144236E+03  0.00000000000E+00 0. -1.
          1    1    6    6  503    0  0.15740436936E+03 -0.14871083541E+03  0.98783466629E+02  0.23801096895E+03  0.00000000000E+00 0. -1.
         -1    1    6    6    0  503  0.14759004928E+02 -0.77283831893E+02  0.81779740136E+01  0.79104349801E+02  0.00000000000E+00 0.  1.
<mgrwt>
<rscale>  0 0.12129171E+04</rscale>
<asrwt>0</asrwt>
<pdfrwt beam="1">  1        2 0.45085934E+00 0.12129171E+04</pdfrwt>
<pdfrwt beam="2">  1       -1 0.19307875E-01 0.12129171E+04</pdfrwt>
<totfact> 0.47468300E+01</totfact>
</mgrwt>
</event>
<event>
12    7  0.1606355E-007  0.1216896E+04  0.7818608E-02  0.9098195E-01
          2   -1    0    0  501    0  0.00000000000E+00  0.00000000000E+00  0.96245310463E+03  0.96245310463E+03  0.00000000000E+00 0. -1.
         -1   -1    0    0    0  501 -0.00000000000E+00 -0.00000000000E+00 -0.38465157911E+03  0.38465157911E+03  0.00000000000E+00 0.  1.
         24    2    1    2    0    0 -0.57840392962E+02  0.14745845639E+03 -0.12075562415E+03  0.20999224925E+03  0.66523052851E+02 0.  0.
        254    2    1    2    0    0  0.57840392962E+02 -0.14745845639E+03  0.69855714967E+03  0.11371124345E+04  0.88314952862E+03 0.  0.
         23    2    4    4    0    0 -0.68325240000E+02 -0.43737542763E+02  0.87341450140E+03  0.88193039360E+03  0.91471399046E+02 0.  0.
         23    2    4    4    0    0  0.12616563296E+03 -0.10372091363E+03 -0.17485735172E+03  0.25518204089E+03  0.88696029660E+02 0.  0.
          4    1    3    3  502    0 -0.34577774075E+02  0.35519664582E+02 -0.95175546712E+01  0.50476260548E+02  0.00000000000E+00 0. -1.
         -3    1    3    3    0  502 -0.23262618888E+02  0.11193879181E+03 -0.11123806948E+03  0.15951598870E+03  0.00000000000E+00 0.  1.
         13    1    5    5    0    0  0.14993162978E+02  0.12603816000E+02  0.21328384152E+03  0.21418134411E+03  0.00000000000E+00 0.  1.
        -13    1    5    5    0    0 -0.83318402978E+02 -0.56341358764E+02  0.66013065988E+03  0.66774904949E+03  0.00000000000E+00 0. -1.
          1    1    6    6  503    0  0.27631598970E+02  0.13021191627E+02 -0.14871944707E+02  0.33973981698E+02  0.00000000000E+00 0. -1.
         -1    1    6    6    0  503  0.98534033992E+02 -0.11674210526E+03 -0.15998540701E+03  0.22120805919E+03  0.00000000000E+00 0.  1.
<mgrwt>
<rscale>  0 0.12168962E+04</rscale>
<asrwt>0</asrwt>
<pdfrwt beam="1">  1        2 0.14806971E+00 0.12168962E+04</pdfrwt>
<pdfrwt beam="2">  1       -1 0.59177166E-01 0.12168962E+04</pdfrwt>
<totfact> 0.86722404E+01</totfact>
</mgrwt>
</event>
<event>
12    7  0.1606355E-007  0.2522110E+04  0.7818608E-02  0.8395151E-01
          2   -1    0    0  501    0  0.00000000000E+00  0.00000000000E+00  0.97814785377E+03  0.97814785377E+03  0.00000000000E+00 0. -1.
         -1   -1    0    0    0  501 -0.00000000000E+00 -0.00000000000E+00 -0.16257870960E+04  0.16257870960E+04  0.00000000000E+00 0.  1.
         24    2    1    2    0    0 -0.20319337693E+03  0.12777658255E+03 -0.13887049985E+04  0.14116466662E+04  0.81426862404E+02 0.  0.
        254    2    1    2    0    0  0.20319337693E+03 -0.12777658255E+03  0.74106575626E+03  0.11922882836E+04  0.90263973573E+03 0.  0.
         23    2    4    4    0    0 -0.28970177855E+03 -0.18632810907E+03  0.89657978445E+02  0.36808067416E+03  0.93805889297E+02 0.  0.
         23    2    4    4    0    0  0.49289515549E+03  0.58551526520E+02  0.65140777782E+03  0.82420760939E+03  0.92801803927E+02 0.  0.
          2    1    3    3  502    0 -0.51289207233E+01  0.32974034494E+02 -0.15486762283E+03  0.15842213665E+03  0.00000000000E+00 0. -1.
         -1    1    3    3    0  502 -0.19806445621E+03  0.94802548057E+02 -0.12338373756E+04  0.12532245295E+04  0.00000000000E+00 0.  1.
         13    1    5    5    0    0 -0.25015437051E+03 -0.18176999503E+03  0.10326847144E+03  0.32600907560E+03  0.00000000000E+00 0. -1.
        -13    1    5    5    0    0 -0.39547408041E+02 -0.45581140428E+01 -0.13610492992E+02  0.42071598566E+02  0.00000000000E+00 0.  1.
          1    1    6    6  503    0  0.44153656261E+03  0.22357518834E+02  0.57320926081E+03  0.72389450298E+03  0.00000000000E+00 0. -1.
         -1    1    6    6    0  503  0.51358592878E+02  0.36194007686E+02  0.78198517011E+02  0.10031310641E+03  0.00000000000E+00 0.  1.
<mgrwt>
<rscale>  0 0.25221104E+04</rscale>
<asrwt>0</asrwt>
<pdfrwt beam="1">  1        2 0.15048429E+00 0.25221104E+04</pdfrwt>
<pdfrwt beam="2">  1       -1 0.25012109E+00 0.25221104E+04</pdfrwt>
<totfact> 0.18380097E+00</totfact>
</mgrwt>
</event>
<event>
12    7  0.1606355E-007  0.4323746E+04  0.7818608E-02  0.7942242E-01
          2   -1    0    0  501    0  0.00000000000E+00  0.00000000000E+00  0.26521076522E+04  0.26521076522E+04  0.00000000000E+00 0. -1.
         -1   -1    0    0    0  501 -0.00000000000E+00 -0.00000000000E+00 -0.17622571875E+04  0.17622571875E+04  0.00000000000E+00 0.  1.
         24    2    1    2    0    0 -0.16058839508E+04  0.12723653437E+04  0.68824802000E+03  0.21628753179E+04  0.81039944562E+02 0.  0.
        254    2    1    2    0    0  0.16058839508E+04 -0.12723653437E+04  0.20160244470E+03  0.22514895218E+04  0.91147391059E+03 0.  0.
         23    2    4    4    0    0  0.56305592171E+03  0.22658187541E+02  0.12666031625E+03  0.58459947981E+03  0.90378933623E+02 0.  0.
         23    2    4    4    0    0  0.10428280291E+04 -0.12950235312E+04  0.74942128450E+02  0.16668900420E+04  0.91267983042E+02 0.  0.
          2    1    3    3  502    0 -0.15896824362E+04  0.12522099947E+04  0.67184195552E+03  0.21322503915E+04  0.00000000000E+00 0. -1.
         -1    1    3    3    0  502 -0.16201514614E+02  0.20155348960E+02  0.16406064487E+02  0.30624926439E+02  0.00000000000E+00 0.  1.
         13    1    5    5    0    0  0.32941543947E+03 -0.31359898882E+02  0.72252366232E+02  0.33870101778E+03  0.00000000000E+00 0. -1.
        -13    1    5    5    0    0  0.23364048224E+03  0.54018086423E+02  0.54407950021E+02  0.24589846202E+03  0.00000000000E+00 0.  1.
          1    1    6    6  503    0  0.93608532308E+02 -0.93653590381E+02 -0.14264397551E+02  0.13318042405E+03  0.00000000000E+00 0. -1.
         -1    1    6    6    0  503  0.94921949683E+03 -0.12013699408E+04  0.89206526002E+02  0.15337096179E+04  0.00000000000E+00 0.  1.
<mgrwt>
<rscale>  0 0.43237464E+04</rscale>
<asrwt>0</asrwt>
<pdfrwt beam="1">  1        2 0.40801656E+00 0.43237464E+04</pdfrwt>
<pdfrwt beam="2">  1       -1 0.27111649E+00 0.43237464E+04</pdfrwt>
<totfact> 0.12584291E-01</totfact>
</mgrwt>
</event>
<event>
12    7  0.1606355E-007  0.1679403E+04  0.7818608E-02  0.8773200E-01
          2   -1    0    0  501    0  0.00000000000E+00  0.00000000000E+00  0.14279635199E+04  0.14279635199E+04  0.00000000000E+00 0. -1.
         -1   -1    0    0    0  501 -0.00000000000E+00 -0.00000000000E+00 -0.49377914406E+03  0.49377914406E+03  0.00000000000E+00 0.  1.
         24    2    1    2    0    0 -0.58936622769E+03  0.85184352961E+02  0.24322663647E+03  0.64821882289E+03  0.80121915453E+02 0.  0.
        254    2    1    2    0    0  0.58936622769E+03 -0.85184352961E+02  0.69095773942E+03  0.12735238411E+04  0.88872462095E+03 0.  0.
         23    2    4    4    0    0  0.75825600200E+03  0.54681772790E+02  0.70152504373E+03  0.10385548800E+04  0.92285377653E+02 0.  0.
         23    2    4    4    0    0 -0.16888977431E+03 -0.13986612575E+03 -0.10567304308E+02  0.23496896112E+03  0.83740407027E+02 0.  0.
          2    1    3    3  502    0 -0.23522662898E+03  0.52145358195E+02  0.13629064911E+03  0.27681373954E+03  0.00000000000E+00 0. -1.
         -1    1    3    3    0  502 -0.35413959871E+03  0.33038994766E+02  0.10693598735E+03  0.37140508335E+03  0.00000000000E+00 0.  1.
         13    1    5    5    0    0  0.27966026843E+03 -0.18238629654E+02  0.28816303094E+03  0.40197070261E+03  0.00000000000E+00 0.  1.
        -13    1    5    5    0    0  0.47859573357E+03  0.72920402444E+02  0.41336201278E+03  0.63658417738E+03  0.00000000000E+00 0. -1.
          2    1    6    6  503    0 -0.55984801114E+02 -0.32956791333E+02  0.33855973820E+02  0.73257593559E+02  0.00000000000E+00 0. -1.
         -2    1    6    6    0  503 -0.11290497320E+03 -0.10690933442E+03 -0.44423278128E+02  0.16171136756E+03  0.00000000000E+00 0.  1.
<mgrwt>
<rscale>  0 0.16794030E+04</rscale>
<asrwt>0</asrwt>
<pdfrwt beam="1">  1        2 0.21968669E+00 0.16794030E+04</pdfrwt>
<pdfrwt beam="2">  1       -1 0.75966023E-01 0.16794030E+04</pdfrwt>
<totfact> 0.26368681E+01</totfact>
</mgrwt>
</event>
<event>
12    7  0.1606355E-007  0.1197234E+04  0.7818608E-02  0.9115281E-01
          2   -1    0    0  501    0  0.00000000000E+00  0.00000000000E+00  0.36503408027E+03  0.36503408027E+03  0.00000000000E+00 0. -1.
         -1   -1    0    0    0  501 -0.00000000000E+00 -0.00000000000E+00 -0.98166759509E+03  0.98166759509E+03  0.00000000000E+00 0.  1.
         24    2    1    2    0    0 -0.45104396428E+02  0.11526882002E+03  0.10728601679E+03  0.18252827988E+03  0.80529349383E+02 0.  0.
        254    2    1    2    0    0  0.45104396428E+02 -0.11526882002E+03 -0.72391953162E+03  0.11641733955E+04  0.90328229199E+03 0.  0.
         23    2    4    4    0    0 -0.16254106152E+03 -0.24470870745E+03  0.81056349185E+02  0.31811618228E+03  0.91245961590E+02 0.  0.
         23    2    4    4    0    0  0.20764545795E+03  0.12943988743E+03 -0.80497588080E+03  0.84605721319E+03  0.89192593070E+02 0.  0.
          2    1    3    3  502    0 -0.66085980727E+02  0.63106617873E+02  0.63709472953E+02  0.11139434013E+03  0.00000000000E+00 0. -1.
         -3    1    3    3    0  502  0.20981584299E+02  0.52162202145E+02  0.43576543841E+02  0.71133939758E+02  0.00000000000E+00 0.  1.
         13    1    5    5    0    0 -0.17069594199E+03 -0.20368916794E+03  0.71735670165E+02  0.27526784796E+03  0.00000000000E+00 0.  1.
        -13    1    5    5    0    0  0.81548804661E+01 -0.41019539509E+02  0.93206790196E+01  0.42848334323E+02  0.00000000000E+00 0. -1.
          1    1    6    6  503    0  0.11272070741E+03  0.11971482739E+03 -0.53617149374E+03  0.56081857001E+03  0.00000000000E+00 0. -1.
         -1    1    6    6    0  503  0.94924750539E+02  0.97250600408E+01 -0.26880438706E+03  0.28523864318E+03  0.00000000000E+00 0.  1.
<mgrwt>
<rscale>  0 0.11972337E+04</rscale>
<asrwt>0</asrwt>
<pdfrwt beam="1">  1        2 0.56159090E-01 0.11972337E+04</pdfrwt>
<pdfrwt beam="2">  1       -1 0.15102578E+00 0.11972337E+04</pdfrwt>
<totfact> 0.34120173E+01</totfact>
</mgrwt>
</event>
<event>
12    7  0.1606355E-007  0.2268579E+04  0.7818608E-02  0.8490414E-01
          2   -1    0    0  501    0  0.00000000000E+00  0.00000000000E+00  0.86735944425E+03  0.86735944425E+03  0.00000000000E+00 0. -1.
         -1   -1    0    0    0  501 -0.00000000000E+00 -0.00000000000E+00 -0.14833678235E+04  0.14833678235E+04  0.00000000000E+00 0.  1.
         24    2    1    2    0    0  0.63599887246E+03 -0.26340672767E+03 -0.95869866440E+03  0.11852778490E+04  0.10909986352E+03 0.  0.
        254    2    1    2    0    0 -0.63599887246E+03  0.26340672767E+03  0.34269028514E+03  0.11654494188E+04  0.87576140942E+03 0.  0.
         23    2    4    4    0    0 -0.62943018542E+03 -0.14171212408E+03  0.41785907472E+02  0.65251100866E+03  0.88090123961E+02 0.  0.
         23    2    4    4    0    0 -0.65686870388E+01  0.40511885175E+03  0.30090437767E+03  0.51293841011E+03  0.91640255167E+02 0.  0.
          4    1    3    3  502    0  0.32657152398E+03 -0.14829714797E+03 -0.58913017901E+03  0.68972122788E+03  0.00000000000E+00 0. -1.
         -3    1    3    3    0  502  0.30942734847E+03 -0.11510957970E+03 -0.36956848539E+03  0.49555662110E+03  0.00000000000E+00 0.  1.
         13    1    5    5    0    0 -0.60504194897E+02 -0.39892981080E+02  0.14456364628E+02  0.73899891866E+02  0.00000000000E+00 0. -1.
        -13    1    5    5    0    0 -0.56892599052E+03 -0.10181914300E+03  0.27329542844E+02  0.57861111680E+03  0.00000000000E+00 0.  1.
          4    1    6    6  503    0 -0.77789986815E+01  0.21319032727E+03  0.10176319109E+03  0.23636068946E+03  0.00000000000E+00 0. -1.
         -4    1    6    6    0  503  0.12103116427E+01  0.19192852448E+03  0.19914118658E+03  0.27657772065E+03  0.00000000000E+00 0.  1.
<mgrwt>
<rscale>  0 0.22685794E+04</rscale>
<asrwt>0</asrwt>
<pdfrwt beam="1">  1        2 0.13343992E+00 0.22685794E+04</pdfrwt>
<pdfrwt beam="2">  1       -1 0.22821043E+00 0.22685794E+04</pdfrwt>
<totfact> 0.31046861E+00</totfact>
</mgrwt>
</event>
<event>
12    7  0.1606355E-007  0.1788983E+04  0.7818608E-02  0.8712180E-01
         -1   -1    0    0    0  501 -0.00000000000E+00  0.00000000000E+00  0.47736748173E+03  0.47736748173E+03  0.00000000000E+00 0.  1.
          2   -1    0    0  501    0  0.00000000000E+00 -0.00000000000E+00 -0.16760980667E+04  0.16760980667E+04  0.00000000000E+00 0. -1.
         24    2    1    2    0    0  0.52304896714E+03  0.12675828796E+03 -0.93021116460E+03  0.10775947994E+04  0.79182418598E+02 0.  0.
        254    2    1    2    0    0 -0.52304896714E+03 -0.12675828796E+03 -0.26851942032E+03  0.10758707489E+04  0.89204669371E+03 0.  0.
         23    2    4    4    0    0 -0.40473258752E+03  0.19422337834E+03 -0.47977186827E+03  0.66270506468E+03  0.86404682000E+02 0.  0.
         23    2    4    4    0    0 -0.11831637963E+03 -0.32098166631E+03  0.21125244794E+03  0.41316568427E+03  0.95133012703E+02 0.  0.
          4    1    3    3  502    0  0.25247741789E+03  0.31461923677E+02 -0.49093484803E+03  0.55294821114E+03  0.00000000000E+00 0. -1.
         -3    1    3    3    0  502  0.27057154925E+03  0.95296364285E+02 -0.43927631657E+03  0.52464658829E+03  0.00000000000E+00 0.  1.
         13    1    5    5    0    0 -0.23569602347E+03  0.15408039453E+03 -0.26744474042E+03  0.38835560075E+03  0.00000000000E+00 0. -1.
        -13    1    5    5    0    0 -0.16903656405E+03  0.40142983816E+02 -0.21232712785E+03  0.27434946393E+03  0.00000000000E+00 0.  1.
          2    1    6    6  503    0 -0.10847566693E+03 -0.17137818814E+03  0.14459516614E+03  0.24908877083E+03  0.00000000000E+00 0.  1.
         -2    1    6    6    0  503 -0.98407127000E+01 -0.14960347817E+03  0.66657281808E+02  0.16407691344E+03  0.00000000000E+00 0. -1.
<mgrwt>
<rscale>  0 0.17889826E+04</rscale>
<asrwt>0</asrwt>
<pdfrwt beam="1">  1        2 0.25786124E+00 0.17889826E+04</pdfrwt>
<pdfrwt beam="2">  1       -1 0.73441151E-01 0.17889826E+04</pdfrwt>
<totfact> 0.20332519E+01</totfact>
</mgrwt>
</event>
<event>
12    7  0.1606355E-007  0.1554343E+04  0.7818608E-02  0.8849099E-01
          2   -1    0    0  501    0  0.00000000000E+00  0.00000000000E+00  0.45539043274E+03  0.45539043274E+03  0.00000000000E+00 0. -1.
         -1   -1    0    0    0  501 -0.00000000000E+00 -0.00000000000E+00 -0.13263239639E+04  0.13263239639E+04  0.00000000000E+00 0.  1.
         24    2    1    2    0    0  0.44752210032E+03 -0.68786549607E+02 -0.57207532554E+03  0.73392174249E+03  0.79770460229E+02 0.  0.
        254    2    1    2    0    0 -0.44752210032E+03  0.68786549607E+02 -0.29885820564E+03  0.10477926542E+04  0.89640705004E+03 0.  0.
         23    2    4    4    0    0  0.16940532304E+03  0.22809143874E+03  0.68542831951E+02  0.30632427735E+03  0.91720091473E+02 0.  0.
         23    2    4    4    0    0 -0.61692742336E+03 -0.15930488913E+03 -0.36740103759E+03  0.74146837682E+03  0.93884705929E+02 0.  0.
          2    1    3    3  502    0  0.11741982302E+03 -0.29144197975E+02 -0.10252726869E+03  0.15858322717E+03  0.00000000000E+00 0. -1.
         -1    1    3    3    0  502  0.33010227730E+03 -0.39642351633E+02 -0.46954805685E+03  0.57533851532E+03  0.00000000000E+00 0.  1.
         13    1    5    5    0    0  0.10114018747E+03  0.15063478501E+03  0.87364463358E+02  0.20137707276E+03  0.00000000000E+00 0.  1.
        -13    1    5    5    0    0  0.68265135568E+02  0.77456653727E+02 -0.18821631407E+02  0.10494720458E+03  0.00000000000E+00 0. -1.
          4    1    6    6  503    0 -0.24022574658E+03 -0.48062064881E+02 -0.91714580012E+02  0.26159116114E+03  0.00000000000E+00 0. -1.
         -4    1    6    6    0  503 -0.37670167678E+03 -0.11124282425E+03 -0.27568645757E+03  0.47987721568E+03  0.00000000000E+00 0.  1.
<mgrwt>
<rscale>  0 0.15543426E+04</rscale>
<asrwt>0</asrwt>
<pdfrwt beam="1">  1        2 0.70060066E-01 0.15543426E+04</pdfrwt>
<pdfrwt beam="2">  1       -1 0.20404984E+00 0.15543426E+04</pdfrwt>
<totfact> 0.10653763E+01</totfact>
</mgrwt>
</event>
<event>
12    7  0.1606355E-007  0.1236646E+04  0.7818608E-02  0.9081372E-01
          2   -1    0    0  501    0  0.00000000000E+00  0.00000000000E+00  0.56636844149E+03  0.56636844149E+03  0.00000000000E+00 0. -1.
         -1   -1    0    0    0  501 -0.00000000000E+00 -0.00000000000E+00 -0.67504307278E+03  0.67504307278E+03  0.00000000000E+00 0.  1.
         24    2    1    2    0    0  0.68976438787E+02  0.10055875623E+03 -0.29811035501E+03  0.33215951775E+03  0.81180963924E+02 0.  0.
        254    2    1    2    0    0 -0.68976438787E+02 -0.10055875623E+03  0.18943572372E+03  0.90925199652E+03  0.88089924917E+03 0.  0.
         23    2    4    4    0    0 -0.26446563626E+03 -0.31122591335E+03 -0.15975948217E+03  0.44749281613E+03  0.89011720832E+02 0.  0.
         23    2    4    4    0    0  0.19548919747E+03  0.21066715712E+03  0.34919520590E+03  0.46175918039E+03  0.93207142616E+02 0.  0.
          4    1    3    3  502    0  0.11020735548E+02  0.69101736750E+02 -0.21479532480E+03  0.22590603841E+03  0.00000000000E+00 0. -1.
         -3    1    3    3    0  502  0.57955703239E+02  0.31457019481E+02 -0.83315030210E+02  0.10625347934E+03  0.00000000000E+00 0.  1.
         13    1    5    5    0    0 -0.20080843902E+03 -0.28471668453E+03 -0.14240243296E+03  0.37638553711E+03  0.00000000000E+00 0.  1.
        -13    1    5    5    0    0 -0.63657197242E+02 -0.26509228818E+02 -0.17357049215E+02  0.71107279027E+02  0.00000000000E+00 0. -1.
          1    1    6    6  503    0  0.16820776404E+03  0.12208243782E+03  0.26273459047E+03  0.33500363959E+03  0.00000000000E+00 0. -1.
         -1    1    6    6    0  503  0.27281433430E+02  0.88584719301E+02  0.86460615428E+02  0.12675554080E+03  0.00000000000E+00 0.  1.
<mgrwt>
<rscale>  0 0.12366456E+04</rscale>
<asrwt>0</asrwt>
<pdfrwt beam="1">  1        2 0.87133606E-01 0.12366456E+04</pdfrwt>
<pdfrwt beam="2">  1       -1 0.10385278E+00 0.12366456E+04</pdfrwt>
<totfact> 0.52274398E+01</totfact>
</mgrwt>
</event>
<event>
12    7  0.1606355E-007  0.1957752E+04  0.7818608E-02  0.8626632E-01
         -1   -1    0    0    0  501 -0.00000000000E+00  0.00000000000E+00  0.14092523114E+04  0.14092523114E+04  0.00000000000E+00 0.  1.
          2   -1    0    0  501    0  0.00000000000E+00 -0.00000000000E+00 -0.67993342797E+03  0.67993342797E+03  0.00000000000E+00 0. -1.
         24    2    1    2    0    0  0.53943086367E+03 -0.37902828643E+02  0.87242100662E+03  0.10295172347E+04  0.79781217646E+02 0.  0.
        254    2    1    2    0    0 -0.53943086367E+03  0.37902828643E+02 -0.14310212316E+03  0.10596685047E+04  0.89999824504E+03 0.  0.
         23    2    4    4    0    0 -0.70580893587E+03 -0.40695232902E+02 -0.32320331647E+03  0.78242852783E+03  0.88947520776E+02 0.  0.
         23    2    4    4    0    0  0.16637807220E+03  0.78598061545E+02  0.18010119331E+03  0.27723997686E+03  0.10279225044E+03 0.  0.
          4    1    3    3  502    0  0.91350301491E+02  0.13775919327E+02  0.10980905276E+03  0.14350150384E+03  0.00000000000E+00 0. -1.
         -3    1    3    3    0  502  0.44808056218E+03 -0.51678747970E+02  0.76261195386E+03  0.88601573088E+03  0.00000000000E+00 0.  1.
         13    1    5    5    0    0 -0.28743725267E+02 -0.17312389176E+02 -0.26856956028E+02  0.42979258350E+02  0.00000000000E+00 0.  1.
        -13    1    5    5    0    0 -0.67706521060E+03 -0.23382843726E+02 -0.29634636045E+03  0.73944926948E+03  0.00000000000E+00 0. -1.
          2    1    6    6  503    0  0.14822272939E+03  0.28397314390E+02  0.10022306032E+03  0.18116579918E+03  0.00000000000E+00 0. -1.
         -2    1    6    6    0  503  0.18155342811E+02  0.50200747155E+02  0.79878132992E+02  0.96074177685E+02  0.00000000000E+00 0.  1.
<mgrwt>
<rscale>  0 0.19577515E+04</rscale>
<asrwt>0</asrwt>
<pdfrwt beam="1">  1        2 0.10460514E+00 0.19577515E+04</pdfrwt>
<pdfrwt beam="2">  1       -1 0.21680805E+00 0.19577515E+04</pdfrwt>
<totfact> 0.52300494E+00</totfact>
</mgrwt>
</event>
<event>
12    7  0.1606355E-007  0.1363697E+04  0.7818608E-02  0.8980524E-01
         -1   -1    0    0    0  501 -0.00000000000E+00  0.00000000000E+00  0.16860064200E+03  0.16860064200E+03  0.00000000000E+00 0.  1.
          2   -1    0    0  501    0  0.00000000000E+00 -0.00000000000E+00 -0.27575075335E+04  0.27575075335E+04  0.00000000000E+00 0. -1.
         24    2    1    2    0    0 -0.24994117692E+03 -0.36545749707E+02 -0.13405765274E+04  0.13664787749E+04  0.79452078402E+02 0.  0.
        254    2    1    2    0    0  0.24994117692E+03  0.36545749707E+02 -0.12483303641E+04  0.15596294006E+04  0.90017164222E+03 0.  0.
         23    2    4    4    0    0 -0.90865932049E+02  0.15467620270E+03 -0.11609837860E+04  0.11785660988E+04  0.94622156999E+02 0.  0.
         23    2    4    4    0    0  0.34080710896E+03 -0.11813045299E+03 -0.87346578114E+02  0.38106330178E+03  0.86461123128E+02 0.  0.
          2    1    3    3  502    0 -0.14806879064E+03 -0.48919442198E+02 -0.94648303745E+03  0.95924325317E+03  0.00000000000E+00 0. -1.
         -1    1    3    3    0  502 -0.10187238627E+03  0.12373692491E+02 -0.39409348996E+03  0.40723552176E+03  0.00000000000E+00 0.  1.
         13    1    5    5    0    0  0.10693539553E+02  0.60288159421E+02 -0.45450624700E+03  0.45861197380E+03  0.00000000000E+00 0.  1.
        -13    1    5    5    0    0 -0.10155947160E+03  0.94388043276E+02 -0.70647753901E+03  0.71995412501E+03  0.00000000000E+00 0. -1.
          4    1    6    6  503    0  0.23809420775E+03 -0.85594118658E+02 -0.19553783490E+02  0.25376673415E+03  0.00000000000E+00 0. -1.
         -4    1    6    6    0  503  0.10271290121E+03 -0.32536334331E+02 -0.67792794623E+02  0.12729656763E+03  0.00000000000E+00 0.  1.
<mgrwt>
<rscale>  0 0.13636972E+04</rscale>
<asrwt>0</asrwt>
<pdfrwt beam="1">  1        2 0.42423188E+00 0.13636972E+04</pdfrwt>
<pdfrwt beam="2">  1       -1 0.25938563E-01 0.13636972E+04</pdfrwt>
<totfact> 0.36081919E+01</totfact>
</mgrwt>
</event>
<event>
12    7  0.1606355E-007  0.2353141E+04  0.7818608E-02  0.8457258E-01
          2   -1    0    0  501    0  0.00000000000E+00  0.00000000000E+00  0.16297103313E+04  0.16297103313E+04  0.00000000000E+00 0. -1.
         -1   -1    0    0    0  501 -0.00000000000E+00 -0.00000000000E+00 -0.84942614580E+03  0.84942614580E+03  0.00000000000E+00 0.  1.
         24    2    1    2    0    0 -0.58711639532E+03  0.70307542806E+03  0.76653826392E+03  0.11970579707E+04  0.79662764623E+02 0.  0.
        254    2    1    2    0    0  0.58711639532E+03 -0.70307542806E+03  0.13745921599E+02  0.12820785064E+04  0.89694795109E+03 0.  0.
         23    2    4    4    0    0  0.18282875677E+03  0.20085406721E+03  0.25408814735E+02  0.28766610150E+03  0.91309733705E+02 0.  0.
         23    2    4    4    0    0  0.40428763855E+03 -0.90392949527E+03 -0.11662893136E+02  0.99441240488E+03  0.90459829743E+02 0.  0.
          2    1    3    3  502    0 -0.57639484260E+03  0.69865147890E+03  0.74568782162E+03  0.11731987175E+04  0.00000000000E+00 0. -1.
         -1    1    3    3    0  502 -0.10721552715E+02  0.44239491643E+01  0.20850442301E+02  0.23859253194E+02  0.00000000000E+00 0.  1.
         13    1    5    5    0    0  0.11445393016E+03  0.17194318832E+03  0.43889527904E+02  0.21116451596E+03  0.00000000000E+00 0. -1.
        -13    1    5    5    0    0  0.68374826604E+02  0.28910878891E+02 -0.18480713168E+02  0.76501585543E+02  0.00000000000E+00 0.  1.
          4    1    6    6  503    0  0.40184730728E+03 -0.86923066052E+03 -0.22779718295E+02  0.95789462632E+03  0.00000000000E+00 0. -1.
         -4    1    6    6    0  503  0.24403312714E+01 -0.34698834749E+02  0.11116825159E+02  0.36517778564E+02  0.00000000000E+00 0.  1.
<mgrwt>
<rscale>  0 0.23531414E+04</rscale>
<asrwt>0</asrwt>
<pdfrwt beam="1">  1        2 0.25072467E+00 0.23531414E+04</pdfrwt>
<pdfrwt beam="2">  1       -1 0.13068095E+00 0.23531414E+04</pdfrwt>
<totfact> 0.55221277E+00</totfact>
</mgrwt>
</event>
<event>
12    7  0.1606355E-007  0.1635165E+04  0.7818608E-02  0.8799231E-01
          2   -1    0    0  501    0  0.00000000000E+00  0.00000000000E+00  0.81965856419E+03  0.81965856419E+03  0.00000000000E+00 0. -1.
         -1   -1    0    0    0  501 -0.00000000000E+00 -0.00000000000E+00 -0.81551186728E+03  0.81551186728E+03  0.00000000000E+00 0.  1.
         24    2    1    2    0    0  0.32211347643E+01 -0.57883344962E+03 -0.23610945154E+03  0.62994369253E+03  0.77606987702E+02 0.  0.
        254    2    1    2    0    0 -0.32211347643E+01  0.57883344962E+03  0.24025614845E+03  0.10052267389E+04  0.78593844651E+03 0.  0.
         23    2    4    4    0    0 -0.18709145912E+03  0.59053956273E+03 -0.73225371042E+02  0.62987634944E+03  0.87418941846E+02 0.  0.
         23    2    4    4    0    0  0.18387032435E+03 -0.11706113110E+02  0.31348151950E+03  0.37535038950E+03  0.93123158090E+02 0.  0.
          2    1    3    3  502    0  0.20766356789E+02 -0.97598492045E+02 -0.18413240362E+02  0.10146799813E+03  0.00000000000E+00 0. -1.
         -1    1    3    3    0  502 -0.17545222024E+02 -0.48123495758E+03 -0.21769621118E+03  0.52847569440E+03  0.00000000000E+00 0.  1.
         13    1    5    5    0    0 -0.83777213022E+02  0.29090599522E+03  0.74653533200E+01  0.30282115345E+03  0.00000000000E+00 0.  1.
        -13    1    5    5    0    0 -0.10331424609E+03  0.29963356752E+03 -0.80690724362E+02  0.32705519599E+03  0.00000000000E+00 0. -1.
          1    1    6    6  503    0  0.10960917678E+03 -0.43744579067E+02  0.13444999307E+03  0.17889818464E+03  0.00000000000E+00 0. -1.
         -1    1    6    6    0  503  0.74261147572E+02  0.32038465956E+02  0.17903152643E+03  0.19645220486E+03  0.00000000000E+00 0.  1.
<mgrwt>
<rscale>  0 0.16351652E+04</rscale>
<asrwt>0</asrwt>
<pdfrwt beam="1">  1        2 0.12610132E+00 0.16351652E+04</pdfrwt>
<pdfrwt beam="2">  1       -1 0.12546336E+00 0.16351652E+04</pdfrwt>
<totfact> 0.20189089E+01</totfact>
</mgrwt>
</event>
<event>
12    7  0.1606355E-007  0.1343875E+04  0.7818608E-02  0.8995477E-01
         -1   -1    0    0    0  501 -0.00000000000E+00  0.00000000000E+00  0.57034506254E+03  0.57034506254E+03  0.00000000000E+00 0.  1.
          2   -1    0    0  501    0  0.00000000000E+00 -0.00000000000E+00 -0.79162658677E+03  0.79162658677E+03  0.00000000000E+00 0. -1.
         24    2    1    2    0    0 -0.30126129950E+03 -0.15912532298E+03  0.69266633337E+02  0.35684944225E+03  0.80401610358E+02 0.  0.
        254    2    1    2    0    0  0.30126129950E+03  0.15912532298E+03 -0.29054815757E+03  0.10051222071E+04  0.89987398021E+03 0.  0.
         23    2    4    4    0    0  0.60410492851E+03  0.85392150510E+01 -0.17743069981E+03  0.63660585392E+03  0.93646554466E+02 0.  0.
         23    2    4    4    0    0 -0.30284362901E+03  0.15058610793E+03 -0.11311745775E+03  0.36851635314E+03  0.92834819711E+02 0.  0.
          4    1    3    3  502    0 -0.95160911288E+02 -0.71935666319E+02  0.58355064623E+02  0.13279929478E+03  0.00000000000E+00 0. -1.
         -1    1    3    3    0  502 -0.20610038821E+03 -0.87189656661E+02  0.10911568713E+02  0.22405014747E+03  0.00000000000E+00 0.  1.
         13    1    5    5    0    0  0.28868201676E+03  0.24262878729E+02 -0.41017144751E+02  0.29258913214E+03  0.00000000000E+00 0. -1.
        -13    1    5    5    0    0  0.31542291175E+03 -0.15723663678E+02 -0.13641355506E+03  0.34401672178E+03  0.00000000000E+00 0.  1.
          4    1    6    6  503    0 -0.17388641397E+03  0.60076347163E+02 -0.10252420201E+03  0.21061069405E+03  0.00000000000E+00 0. -1.
         -4    1    6    6    0  503 -0.12895721503E+03  0.90509760766E+02 -0.10593255743E+02  0.15790565908E+03  0.00000000000E+00 0.  1.
<mgrwt>
<rscale>  0 0.13438755E+04</rscale>
<asrwt>0</asrwt>
<pdfrwt beam="1">  1        2 0.12178871E+00 0.13438755E+04</pdfrwt>
<pdfrwt beam="2">  1       -1 0.87745394E-01 0.13438755E+04</pdfrwt>
<totfact> 0.49804303E+01</totfact>
</mgrwt>
</event>
<event>
12    7  0.1606355E-007  0.1217077E+04  0.7818608E-02  0.9098039E-01
          2   -1    0    0  501    0  0.00000000000E+00  0.00000000000E+00  0.30944378728E+04  0.30944378728E+04  0.00000000000E+00 0. -1.
         -1   -1    0    0    0  501 -0.00000000000E+00 -0.00000000000E+00 -0.11967256506E+03  0.11967256506E+03  0.00000000000E+00 0.  1.
         24    2    1    2    0    0 -0.20587208664E+03  0.14539812367E+03  0.44437582431E+03  0.51738395066E+03  0.81806776890E+02 0.  0.
        254    2    1    2    0    0  0.20587208664E+03 -0.14539812367E+03  0.25303894835E+04  0.26967264872E+04  0.89774098633E+03 0.  0.
         23    2    4    4    0    0 -0.10357457027E+03 -0.45685912339E+03  0.11623081397E+04  0.12566707025E+04  0.93878072684E+02 0.  0.
         23    2    4    4    0    0  0.30944665691E+03  0.31146099971E+03  0.13680813438E+04  0.14400557848E+04  0.96689773889E+02 0.  0.
          4    1    3    3  502    0 -0.30317037530E+02 -0.60480049243E+01  0.33343349819E+02  0.45469551408E+02  0.00000000000E+00 0. -1.
         -1    1    3    3    0  502 -0.17555504911E+03  0.15144612860E+03  0.41103247449E+03  0.47191439925E+03  0.00000000000E+00 0.  1.
         13    1    5    5    0    0 -0.65628391050E+02 -0.10513465561E+03  0.31066199239E+03  0.33447160573E+03  0.00000000000E+00 0.  1.
        -13    1    5    5    0    0 -0.37946179221E+02 -0.35172446778E+03  0.85164614733E+03  0.92219909673E+03  0.00000000000E+00 0. -1.
          2    1    6    6  503    0  0.20510129447E+03  0.18280261189E+03  0.98704051236E+03  0.10245644484E+04  0.00000000000E+00 0. -1.
         -2    1    6    6    0  503  0.10434536244E+03  0.12865838782E+03  0.38104083139E+03  0.41549133638E+03  0.00000000000E+00 0.  1.
<mgrwt>
<rscale>  0 0.12170773E+04</rscale>
<asrwt>0</asrwt>
<pdfrwt beam="1">  1        2 0.47606730E+00 0.12170773E+04</pdfrwt>
<pdfrwt beam="2">  1       -1 0.18411166E-01 0.12170773E+04</pdfrwt>
<totfact> 0.40637161E+01</totfact>
</mgrwt>
</event>
<event>
12    7  0.1606355E-007  0.2822189E+04  0.7818608E-02  0.8296413E-01
          2   -1    0    0  501    0  0.00000000000E+00  0.00000000000E+00  0.20018703954E+04  0.20018703954E+04  0.00000000000E+00 0. -1.
         -1   -1    0    0    0  501 -0.00000000000E+00 -0.00000000000E+00 -0.99466360265E+03  0.99466360265E+03  0.00000000000E+00 0.  1.
         24    2    1    2    0    0  0.36754313487E+03  0.48426652825E+02 -0.83275248345E+03  0.91503955787E+03  0.79922444192E+02 0.  0.
        254    2    1    2    0    0 -0.36754313487E+03 -0.48426652825E+02  0.18399592762E+04  0.20814944402E+04  0.89985324900E+03 0.  0.
         23    2    4    4    0    0 -0.68280632656E+02  0.40566983624E+03  0.81414001839E+03  0.91673628724E+03  0.91384845444E+02 0.  0.
         23    2    4    4    0    0 -0.29926250222E+03 -0.45409648907E+03  0.10258192578E+04  0.11647581529E+04  0.92707812591E+02 0.  0.
          4    1    3    3  502    0  0.17250843380E+03  0.52702160232E+02 -0.33603947058E+03  0.38139114202E+03  0.00000000000E+00 0. -1.
         -3    1    3    3    0  502  0.19503470107E+03 -0.42755074076E+01 -0.49671301287E+03  0.53364841585E+03  0.00000000000E+00 0.  1.
         13    1    5    5    0    0  0.10950053500E+02  0.35759472786E+01  0.19853164994E+02  0.22952978692E+02  0.00000000000E+00 0. -1.
        -13    1    5    5    0    0 -0.79230686156E+02  0.40209388896E+03  0.79428685339E+03  0.89378330855E+03  0.00000000000E+00 0.  1.
          3    1    6    6  503    0 -0.64925280850E+02 -0.41312325144E+02  0.14952773449E+03  0.16816820057E+03  0.00000000000E+00 0. -1.
         -3    1    6    6    0  503 -0.23433722137E+03 -0.41278416392E+03  0.87629152331E+03  0.99658995236E+03  0.00000000000E+00 0.  1.
<mgrwt>
<rscale>  0 0.28221890E+04</rscale>
<asrwt>0</asrwt>
<pdfrwt beam="1">  1        2 0.30798006E+00 0.28221890E+04</pdfrwt>
<pdfrwt beam="2">  1       -1 0.15302517E+00 0.28221890E+04</pdfrwt>
<totfact> 0.21766876E+00</totfact>
</mgrwt>
</event>
<event>
12    7  0.1606355E-007  0.1741015E+04  0.7818608E-02  0.8738312E-01
         -1   -1    0    0    0  501 -0.00000000000E+00  0.00000000000E+00  0.76872882406E+03  0.76872882406E+03  0.00000000000E+00 0.  1.
          2   -1    0    0  501    0  0.00000000000E+00 -0.00000000000E+00 -0.98576130958E+03  0.98576130958E+03  0.00000000000E+00 0. -1.
         24    2    1    2    0    0 -0.68583778074E+02  0.38498653347E+03 -0.58624180744E+03  0.70963201801E+03  0.83545069467E+02 0.  0.
        254    2    1    2    0    0  0.68583778074E+02 -0.38498653347E+03  0.36920932192E+03  0.10448581156E+04  0.89582062536E+03 0.  0.
         23    2    4    4    0    0  0.44569878965E+02  0.28024902977E+03  0.55274908367E+02  0.30260747409E+03  0.89386660558E+02 0.  0.
         23    2    4    4    0    0  0.24013899109E+02 -0.66523556324E+03  0.31393441355E+03  0.74225064153E+03  0.96260983212E+02 0.  0.
          2    1    3    3  502    0 -0.82586623502E+02  0.24797025586E+03 -0.36248725378E+03  0.44688567590E+03  0.00000000000E+00 0. -1.
         -1    1    3    3    0  502  0.14002845428E+02  0.13701627761E+03 -0.22375455366E+03  0.26274634211E+03  0.00000000000E+00 0.  1.
         13    1    5    5    0    0  0.10829376081E+02  0.41560664190E+02 -0.23555772643E+02  0.48984064950E+02  0.00000000000E+00 0. -1.
        -13    1    5    5    0    0  0.33740502884E+02  0.23868836558E+03  0.78830681010E+02  0.25362340914E+03  0.00000000000E+00 0.  1.
          4    1    6    6  503    0  0.23775325969E+02 -0.58384552722E+03  0.30827923880E+03  0.66066402570E+03  0.00000000000E+00 0.  1.
         -4    1    6    6    0  503  0.23857314048E+00 -0.81390036023E+02  0.56551747455E+01  0.81586615829E+02  0.00000000000E+00 0. -1.
<mgrwt>
<rscale>  0 0.17410148E+04</rscale>
<asrwt>0</asrwt>
<pdfrwt beam="1">  1        2 0.15165559E+00 0.17410148E+04</pdfrwt>
<pdfrwt beam="2">  1       -1 0.11826597E+00 0.17410148E+04</pdfrwt>
<totfact> 0.17863863E+01</totfact>
</mgrwt>
</event>
<event>
12    7  0.1606355E-007  0.2357810E+04  0.7818608E-02  0.8455470E-01
          2   -1    0    0  501    0  0.00000000000E+00  0.00000000000E+00  0.13843306508E+04  0.13843306508E+04  0.00000000000E+00 0. -1.
         -1   -1    0    0    0  501 -0.00000000000E+00 -0.00000000000E+00 -0.10039631841E+04  0.10039631841E+04  0.00000000000E+00 0.  1.
         24    2    1    2    0    0 -0.54337093736E+03  0.57934704628E+03 -0.46401033392E+03  0.92333570208E+03  0.79675925757E+02 0.  0.
        254    2    1    2    0    0  0.54337093736E+03 -0.57934704628E+03  0.84437780059E+03  0.14649581329E+04  0.89567487701E+03 0.  0.
         23    2    4    4    0    0 -0.23087201033E+03 -0.19633147321E+03  0.13756746918E+03  0.34523973098E+03  0.91748192028E+02 0.  0.
         23    2    4    4    0    0  0.77424294769E+03 -0.38301557307E+03  0.70681033141E+03  0.11197184019E+04  0.89640301586E+02 0.  0.
          2    1    3    3  502    0 -0.35538138827E+02  0.72108559467E+02 -0.41953415396E+02  0.90679064414E+02  0.00000000000E+00 0. -1.
         -1    1    3    3    0  502 -0.50783279853E+03  0.50723848682E+03 -0.42205691853E+03  0.83265663767E+03  0.00000000000E+00 0.  1.
         13    1    5    5    0    0 -0.17971305400E+03 -0.14078852787E+03  0.58006206843E+02  0.23554810844E+03  0.00000000000E+00 0. -1.
        -13    1    5    5    0    0 -0.51158956334E+02 -0.55542945347E+02  0.79561262337E+02  0.10969162254E+03  0.00000000000E+00 0.  1.
          2    1    6    6  503    0  0.71651743415E+03 -0.34738361827E+03  0.67872108645E+03  0.10462958114E+04  0.00000000000E+00 0. -1.
         -2    1    6    6    0  503  0.57725513534E+02 -0.35631954802E+02  0.28089244956E+02  0.73422590516E+02  0.00000000000E+00 0.  1.
<mgrwt>
<rscale>  0 0.23578100E+04</rscale>
<asrwt>0</asrwt>
<pdfrwt beam="1">  1        2 0.21297395E+00 0.23578100E+04</pdfrwt>
<pdfrwt beam="2">  1       -1 0.15445587E+00 0.23578100E+04</pdfrwt>
<totfact> 0.48943011E+00</totfact>
</mgrwt>
</event>
<event>
12    7  0.1606355E-007  0.1973694E+04  0.7818608E-02  0.8619019E-01
          2   -1    0    0  501    0  0.00000000000E+00  0.00000000000E+00  0.26861645873E+04  0.26861645873E+04  0.00000000000E+00 0. -1.
         -1   -1    0    0    0  501 -0.00000000000E+00 -0.00000000000E+00 -0.36254941427E+03  0.36254941427E+03  0.00000000000E+00 0.  1.
         24    2    1    2    0    0  0.58170029585E+03  0.43137622748E+03  0.51465755203E+03  0.89221640905E+03  0.81957555373E+02 0.  0.
        254    2    1    2    0    0 -0.58170029585E+03 -0.43137622748E+03  0.18089576210E+04  0.21564975925E+04  0.92395536047E+03 0.  0.
         23    2    4    4    0    0 -0.18080132712E+03 -0.36390596812E+03  0.14402132987E+03  0.44037794394E+03  0.89854974993E+02 0.  0.
         23    2    4    4    0    0 -0.40089896873E+03 -0.67470259369E+02  0.16649362911E+04  0.17161196486E+04  0.88213239915E+02 0.  0.
          2    1    3    3  502    0  0.83883159360E+02  0.96350100617E+02  0.72858849613E+02  0.14706508178E+03  0.00000000000E+00 0. -1.
         -1    1    3    3    0  502  0.49781713649E+03  0.33502612687E+03  0.44179870242E+03  0.74515132727E+03  0.00000000000E+00 0.  1.
         13    1    5    5    0    0 -0.83396259117E+02 -0.84380283225E+02  0.24460736167E+02  0.12113338039E+03  0.00000000000E+00 0. -1.
        -13    1    5    5    0    0 -0.97405068007E+02 -0.27952568489E+03  0.11956059370E+03  0.31924456354E+03  0.00000000000E+00 0.  1.
          1    1    6    6  503    0 -0.51662947783E+02 -0.13340550221E+02  0.12082976924E+03  0.13208657611E+03  0.00000000000E+00 0. -1.
         -1    1    6    6    0  503 -0.34923602095E+03 -0.54129709148E+02  0.15441065219E+04  0.15840330725E+04  0.00000000000E+00 0.  1.
<mgrwt>
<rscale>  0 0.19736944E+04</rscale>
<asrwt>0</asrwt>
<pdfrwt beam="1">  1        2 0.41325608E+00 0.19736944E+04</pdfrwt>
<pdfrwt beam="2">  1       -1 0.55776835E-01 0.19736944E+04</pdfrwt>
<totfact> 0.93361036E+00</totfact>
</mgrwt>
</event>
<event>
12    7  0.1606355E-007  0.2046587E+04  0.7818608E-02  0.8585144E-01
         -1   -1    0    0    0  501 -0.00000000000E+00  0.00000000000E+00  0.34400537286E+03  0.34400537286E+03  0.00000000000E+00 0.  1.
          2   -1    0    0  501    0  0.00000000000E+00 -0.00000000000E+00 -0.30439346572E+04  0.30439346572E+04  0.00000000000E+00 0. -1.
         24    2    1    2    0    0 -0.58103190145E+03  0.50850269063E+03 -0.60613585882E+03  0.98428783002E+03  0.72448575650E+02 0.  0.
        254    2    1    2    0    0  0.58103190145E+03 -0.50850269063E+03 -0.20937934255E+04  0.24036522001E+04  0.89297252653E+03 0.  0.
         23    2    4    4    0    0  0.75136113275E+03 -0.35154546290E+03 -0.19381588475E+04  0.21101043514E+04  0.89178984850E+02 0.  0.
         23    2    4    4    0    0 -0.17032923130E+03 -0.15695722773E+03 -0.15563457808E+03  0.29354784870E+03  0.91107624322E+02 0.  0.
          4    1    3    3  502    0 -0.18420923330E+02  0.12889277456E+02 -0.44007486562E+01  0.22909178912E+02  0.00000000000E+00 0. -1.
         -3    1    3    3    0  502 -0.56261097812E+03  0.49561341317E+03 -0.60173511016E+03  0.96137865111E+03  0.00000000000E+00 0.  1.
         13    1    5    5    0    0  0.38909733559E+03 -0.13328164597E+03 -0.94025414814E+03  0.10262741334E+04  0.00000000000E+00 0. -1.
        -13    1    5    5    0    0  0.36226379717E+03 -0.21826381693E+03 -0.99790469933E+03  0.10838302180E+04  0.00000000000E+00 0.  1.
          3    1    6    6  503    0 -0.81462938985E+02 -0.12437897429E+03 -0.12445353900E+03  0.19389436052E+03  0.00000000000E+00 0. -1.
         -3    1    6    6    0  503 -0.88866292318E+02 -0.32578253436E+02 -0.31181039083E+02  0.99653488176E+02  0.00000000000E+00 0.  1.
<mgrwt>
<rscale>  0 0.20465873E+04</rscale>
<asrwt>0</asrwt>
<pdfrwt beam="1">  1        2 0.46829763E+00 0.20465873E+04</pdfrwt>
<pdfrwt beam="2">  1       -1 0.52923904E-01 0.20465873E+04</pdfrwt>
<totfact> 0.62087060E+00</totfact>
</mgrwt>
</event>
<event>
12    7  0.1606355E-007  0.2964231E+04  0.7818608E-02  0.8254019E-01
         -1   -1    0    0    0  501 -0.00000000000E+00  0.00000000000E+00  0.61036235689E+03  0.61036235689E+03  0.00000000000E+00 0.  1.
          2   -1    0    0  501    0  0.00000000000E+00 -0.00000000000E+00 -0.35989551653E+04  0.35989551653E+04  0.00000000000E+00 0. -1.
         24    2    1    2    0    0 -0.85607384277E+03 -0.99993512538E+03 -0.17266194255E+04  0.21727621530E+04  0.83354986490E+02 0.  0.
        254    2    1    2    0    0  0.85607384277E+03  0.99993512538E+03 -0.12619733829E+04  0.20365553692E+04  0.90677906531E+03 0.  0.
         23    2    4    4    0    0  0.40375201877E+03  0.69420232244E+03 -0.12432337162E+04  0.14831093050E+04  0.95134537199E+02 0.  0.
         23    2    4    4    0    0  0.45232182400E+03  0.30573280294E+03 -0.18739666667E+02  0.55344606419E+03  0.88790718019E+02 0.  0.
          2    1    3    3  502    0 -0.15731265482E+03 -0.19983155636E+03 -0.28397424397E+03  0.38121030091E+03  0.00000000000E+00 0. -1.
         -1    1    3    3    0  502 -0.69876118795E+03 -0.80010356903E+03 -0.14426451815E+04  0.17915518521E+04  0.00000000000E+00 0.  1.
         13    1    5    5    0    0  0.35159619108E+02  0.23000008647E+02 -0.50095326765E+02  0.65381503327E+02  0.00000000000E+00 0. -1.
        -13    1    5    5    0    0  0.36859239966E+03  0.67120231379E+03 -0.11931383895E+04  0.14177278017E+04  0.00000000000E+00 0.  1.
          1    1    6    6  503    0  0.78917886527E+02  0.91971577997E+02  0.13716288398E+02  0.12196286542E+03  0.00000000000E+00 0. -1.
         -1    1    6    6    0  503  0.37340393747E+03  0.21376122494E+03 -0.32455955065E+02  0.43148319878E+03  0.00000000000E+00 0.  1.
<mgrwt>
<rscale>  0 0.29642313E+04</rscale>
<asrwt>0</asrwt>
<pdfrwt beam="1">  1        2 0.55368539E+00 0.29642313E+04</pdfrwt>
<pdfrwt beam="2">  1       -1 0.93901904E-01 0.29642313E+04</pdfrwt>
<totfact> 0.74091017E-01</totfact>
</mgrwt>
</event>
<event>
12    7  0.1606355E-007  0.1330077E+04  0.7818608E-02  0.9006048E-01
         -1   -1    0    0    0  501 -0.00000000000E+00  0.00000000000E+00  0.20570929230E+03  0.20570929230E+03  0.00000000000E+00 0.  1.
          2   -1    0    0  501    0  0.00000000000E+00 -0.00000000000E+00 -0.21500050392E+04  0.21500050392E+04  0.00000000000E+00 0. -1.
         24    2    1    2    0    0 -0.16791031906E+03 -0.35110509274E+02  0.17155243333E+02  0.19003890909E+03  0.79961625092E+02 0.  0.
        254    2    1    2    0    0  0.16791031906E+03  0.35110509274E+02 -0.19614509902E+04  0.21656754224E+04  0.90190544129E+03 0.  0.
         23    2    4    4    0    0  0.53328287512E+03  0.48947047553E+02 -0.11771663183E+04  0.12964949085E+04  0.91608233223E+02 0.  0.
         23    2    4    4    0    0 -0.36537255606E+03 -0.13836538280E+02 -0.78428467188E+03  0.86918051389E+03  0.81754294432E+02 0.  0.
          2    1    3    3  502    0 -0.10098439187E+03 -0.29084979890E+02  0.48677830533E+02  0.11581586524E+03  0.00000000000E+00 0. -1.
         -1    1    3    3    0  502 -0.66925927193E+02 -0.60255293835E+01 -0.31522587201E+02  0.74223043853E+02  0.00000000000E+00 0.  1.
         13    1    5    5    0    0  0.41171353112E+03  0.11338413917E+02 -0.96291049572E+03  0.10472980541E+04  0.00000000000E+00 0. -1.
        -13    1    5    5    0    0  0.12156934400E+03  0.37608633636E+02 -0.21425582263E+03  0.24919685442E+03  0.00000000000E+00 0.  1.
          2    1    6    6  503    0 -0.35325914190E+03  0.26293039383E+01 -0.72539155123E+03  0.80684065166E+03  0.00000000000E+00 0. -1.
         -2    1    6    6    0  503 -0.12113414168E+02 -0.16465842218E+02 -0.58893120654E+02  0.62339862233E+02  0.00000000000E+00 0.  1.
<mgrwt>
<rscale>  0 0.13300767E+04</rscale>
<asrwt>0</asrwt>
<pdfrwt beam="1">  1        2 0.33076999E+00 0.13300767E+04</pdfrwt>
<pdfrwt beam="2">  1       -1 0.31647585E-01 0.13300767E+04</pdfrwt>
<totfact> 0.57083541E+01</totfact>
</mgrwt>
</event>
<event>
12    7  0.1606355E-007  0.3021888E+04  0.7818608E-02  0.8237508E-01
         -1   -1    0    0    0  501 -0.00000000000E+00  0.00000000000E+00  0.98290337962E+03  0.98290337962E+03  0.00000000000E+00 0.  1.
          2   -1    0    0  501    0  0.00000000000E+00 -0.00000000000E+00 -0.23226609700E+04  0.23226609700E+04  0.00000000000E+00 0. -1.
         24    2    1    2    0    0  0.83598908603E+03  0.67203396752E+01  0.59402834549E+03  0.10286176853E+04  0.79131234363E+02 0.  0.
        254    2    1    2    0    0 -0.83598908603E+03 -0.67203396752E+01 -0.19337859359E+04  0.22769466644E+04  0.86373326421E+03 0.  0.
         23    2    4    4    0    0 -0.90515554583E+03 -0.12479100175E+03 -0.18939971502E+04  0.21047619556E+04  0.88984991149E+02 0.  0.
         23    2    4    4    0    0  0.69166459800E+02  0.11807066208E+03 -0.39788785684E+02  0.17218470875E+03  0.96642361609E+02 0.  0.
          2    1    3    3  502    0  0.12794425366E+03  0.22998236797E+02  0.11534164449E+03  0.17378822139E+03  0.00000000000E+00 0. -1.
         -1    1    3    3    0  502  0.70804483237E+03 -0.16277897122E+02  0.47868670099E+03  0.85482946386E+03  0.00000000000E+00 0.  1.
         13    1    5    5    0    0 -0.22405682501E+03 -0.10882480262E+02 -0.39254489723E+03  0.45211877373E+03  0.00000000000E+00 0.  1.
        -13    1    5    5    0    0 -0.68109872082E+03 -0.11390852149E+03 -0.15014522529E+04  0.16526431819E+04  0.00000000000E+00 0. -1.
          1    1    6    6  503    0  0.37112475957E+02  0.59327575709E+01 -0.40905843689E+02  0.55550171304E+02  0.00000000000E+00 0.  1.
         -1    1    6    6    0  503  0.32053983843E+02  0.11213790450E+03  0.11170580051E+01  0.11663453745E+03  0.00000000000E+00 0. -1.
<mgrwt>
<rscale>  0 0.30218877E+04</rscale>
<asrwt>0</asrwt>
<pdfrwt beam="1">  1        2 0.35733245E+00 0.30218877E+04</pdfrwt>
<pdfrwt beam="2">  1       -1 0.15121591E+00 0.30218877E+04</pdfrwt>
<totfact> 0.14592964E+00</totfact>
</mgrwt>
</event>
<event>
12    7  0.1606355E-007  0.1814766E+04  0.7818608E-02  0.8698486E-01
         -1   -1    0    0    0  501 -0.00000000000E+00  0.00000000000E+00  0.77708210430E+03  0.77708210430E+03  0.00000000000E+00 0.  1.
          2   -1    0    0  501    0  0.00000000000E+00 -0.00000000000E+00 -0.10595324515E+04  0.10595324515E+04  0.00000000000E+00 0. -1.
         24    2    1    2    0    0 -0.61129718848E+03 -0.47373467295E+02  0.19683093123E+03  0.64873816200E+03  0.78678391582E+02 0.  0.
        254    2    1    2    0    0  0.61129718848E+03  0.47373467295E+02 -0.47928127845E+03  0.11878763938E+04  0.89744709318E+03 0.  0.
         23    2    4    4    0    0  0.31890635002E+02 -0.31259405594E+03  0.32532884937E+02  0.33040539186E+03  0.96836346278E+02 0.  0.
         23    2    4    4    0    0  0.57940655347E+03  0.35996752323E+03 -0.51181416339E+03  0.85747100195E+03  0.89522116496E+02 0.  0.
          2    1    3    3  502    0 -0.21673685289E+03 -0.15201301019E+02  0.30722439433E+02  0.21943065246E+03  0.00000000000E+00 0. -1.
         -1    1    3    3    0  502 -0.39456033559E+03 -0.32172166276E+02  0.16610849180E+03  0.42930750954E+03  0.00000000000E+00 0.  1.
         13    1    5    5    0    0 -0.21957422627E+02 -0.20075449173E+03 -0.51971548239E+00  0.20195238167E+03  0.00000000000E+00 0.  1.
        -13    1    5    5    0    0  0.53848057630E+02 -0.11183956421E+03  0.33052600420E+02  0.12845301019E+03  0.00000000000E+00 0. -1.
          1    1    6    6  503    0  0.34903921761E+03  0.26668894891E+03 -0.33604605498E+03  0.55306267454E+03  0.00000000000E+00 0. -1.
         -1    1    6    6    0  503  0.23036733587E+03  0.93278574322E+02 -0.17576810841E+03  0.30440832741E+03  0.00000000000E+00 0.  1.
<mgrwt>
<rscale>  0 0.18147658E+04</rscale>
<asrwt>0</asrwt>
<pdfrwt beam="1">  1        2 0.16300499E+00 0.18147658E+04</pdfrwt>
<pdfrwt beam="2">  1       -1 0.11955109E+00 0.18147658E+04</pdfrwt>
<totfact> 0.15517655E+01</totfact>
</mgrwt>
</event>
<event>
12    7  0.1606355E-007  0.1802808E+04  0.7818608E-02  0.8704808E-01
         -1   -1    0    0    0  501 -0.00000000000E+00  0.00000000000E+00  0.61539644915E+03  0.61539644915E+03  0.00000000000E+00 0.  1.
          2   -1    0    0  501    0  0.00000000000E+00 -0.00000000000E+00 -0.13203337874E+04  0.13203337874E+04  0.00000000000E+00 0. -1.
         24    2    1    2    0    0 -0.30957352489E+03  0.10207024597E+03  0.37451055680E+03  0.50307972984E+03  0.81098427819E+02 0.  0.
        254    2    1    2    0    0  0.30957352489E+03 -0.10207024597E+03 -0.10794478950E+04  0.14326505067E+04  0.88375653539E+03 0.  0.
         23    2    4    4    0    0  0.56661073833E+03  0.12407798447E+03 -0.71648958457E+03  0.92602466813E+03  0.87870849303E+02 0.  0.
         23    2    4    4    0    0 -0.25703721344E+03 -0.22614823044E+03 -0.36295831047E+03  0.50662583858E+03  0.87862699436E+02 0.  0.
          2    1    3    3  502    0 -0.77519908037E+02  0.63899949163E+02  0.10298616273E+03  0.14387039084E+03  0.00000000000E+00 0. -1.
         -3    1    3    3    0  502 -0.23205361685E+03  0.38170296808E+02  0.27152439407E+03  0.35920933900E+03  0.00000000000E+00 0.  1.
         13    1    5    5    0    0  0.20999649538E+03  0.31715043348E+01 -0.24914767100E+03  0.32585755857E+03  0.00000000000E+00 0.  1.
        -13    1    5    5    0    0  0.35661424295E+03  0.12090648014E+03 -0.46734191357E+03  0.60016710956E+03  0.00000000000E+00 0. -1.
          1    1    6    6  503    0 -0.23490778569E+03 -0.23197645471E+03 -0.33288647911E+03  0.46883701997E+03  0.00000000000E+00 0. -1.
         -1    1    6    6    0  503 -0.22129427753E+02  0.58282242699E+01 -0.30071831359E+02  0.37788818612E+02  0.00000000000E+00 0.  1.
<mgrwt>
<rscale>  0 0.18028075E+04</rscale>
<asrwt>0</asrwt>
<pdfrwt beam="1">  1        2 0.20312827E+00 0.18028075E+04</pdfrwt>
<pdfrwt beam="2">  1       -1 0.94676378E-01 0.18028075E+04</pdfrwt>
<totfact> 0.18676363E+01</totfact>
</mgrwt>
</event>
<event>
12    7  0.1606355E-007  0.1810090E+04  0.7818608E-02  0.8700952E-01
         -1   -1    0    0    0  501 -0.00000000000E+00  0.00000000000E+00  0.86066105572E+03  0.86066105572E+03  0.00000000000E+00 0.  1.
          2   -1    0    0  501    0  0.00000000000E+00 -0.00000000000E+00 -0.95171831943E+03  0.95171831943E+03  0.00000000000E+00 0. -1.
         24    2    1    2    0    0  0.23596842595E+03 -0.29411502327E+01 -0.67130394780E+03  0.71572725704E+03  0.76985503373E+02 0.  0.
        254    2    1    2    0    0 -0.23596842595E+03  0.29411502327E+01  0.58024668409E+03  0.10966521181E+04  0.90014993493E+03 0.  0.
         23    2    4    4    0    0 -0.80261160393E+02  0.22079606522E+03  0.73264309058E+03  0.77433861983E+03  0.87416495597E+02 0.  0.
         23    2    4    4    0    0 -0.15570726555E+03 -0.21785491499E+03 -0.15239640649E+03  0.32231349829E+03  0.94635141129E+02 0.  0.
          2    1    3    3  502    0  0.16657786917E+03 -0.17523700804E+02 -0.55291512054E+03  0.57772865353E+03  0.00000000000E+00 0. -1.
         -1    1    3    3    0  502  0.69390556775E+02  0.14582550571E+02 -0.11838882726E+03  0.13799860351E+03  0.00000000000E+00 0.  1.
         13    1    5    5    0    0  0.12370514616E+02  0.27953670527E+02  0.46763313337E+02  0.55868101829E+02  0.00000000000E+00 0.  1.
        -13    1    5    5    0    0 -0.92631675009E+02  0.19284239470E+03  0.68587977724E+03  0.71847051800E+03  0.00000000000E+00 0. -1.
          2    1    6    6  503    0 -0.10270797439E+03 -0.72565639989E+02 -0.43102464054E+02  0.13293804014E+03  0.00000000000E+00 0.  1.
         -2    1    6    6    0  503 -0.52999291167E+02 -0.14528927500E+03 -0.10929394243E+03  0.18937545814E+03  0.00000000000E+00 0. -1.
<mgrwt>
<rscale>  0 0.18100905E+04</rscale>
<asrwt>0</asrwt>
<pdfrwt beam="1">  1        2 0.14641820E+00 0.18100905E+04</pdfrwt>
<pdfrwt beam="2">  1       -1 0.13240939E+00 0.18100905E+04</pdfrwt>
<totfact> 0.14109530E+01</totfact>
</mgrwt>
</event>
<event>
12    7  0.1606355E-007  0.1246784E+04  0.7818608E-02  0.9072864E-01
          2   -1    0    0  501    0  0.00000000000E+00  0.00000000000E+00  0.18281870301E+04  0.18281870301E+04  0.00000000000E+00 0. -1.
         -1   -1    0    0    0  501 -0.00000000000E+00 -0.00000000000E+00 -0.21256980343E+03  0.21256980343E+03  0.00000000000E+00 0.  1.
         24    2    1    2    0    0  0.11365721213E+03  0.51570250508E+02  0.81522677668E+03  0.82860474236E+03  0.80085385904E+02 0.  0.
        254    2    1    2    0    0 -0.11365721213E+03 -0.51570250508E+02  0.80039044996E+03  0.12121520911E+04  0.90172632602E+03 0.  0.
         23    2    4    4    0    0  0.37080556831E+03  0.99947597108E+02  0.34055216698E+03  0.52117319012E+03  0.90329530125E+02 0.  0.
         23    2    4    4    0    0 -0.48446278044E+03 -0.15151784762E+03  0.45983828298E+03  0.69097890101E+03  0.91316763863E+02 0.  0.
          2    1    3    3  502    0  0.70917945822E+02  0.26657145827E+02  0.68701720290E+03  0.69118202779E+03  0.00000000000E+00 0. -1.
         -1    1    3    3    0  502  0.42739266312E+02  0.24913104681E+02  0.12820957378E+03  0.13742271456E+03  0.00000000000E+00 0.  1.
         13    1    5    5    0    0  0.28319552864E+03  0.36387885143E+02  0.26107387949E+03  0.38688933325E+03  0.00000000000E+00 0.  1.
        -13    1    5    5    0    0  0.87610039672E+02  0.63559711964E+02  0.79478287482E+02  0.13428385688E+03  0.00000000000E+00 0. -1.
          3    1    6    6  503    0 -0.74436691366E+00  0.14743900465E+01 -0.35211828478E+01  0.38892977206E+01  0.00000000000E+00 0. -1.
         -3    1    6    6    0  503 -0.48371841353E+03 -0.15299223766E+03  0.46335946583E+03  0.68708960329E+03  0.00000000000E+00 0.  1.
<mgrwt>
<rscale>  0 0.12467836E+04</rscale>
<asrwt>0</asrwt>
<pdfrwt beam="1">  1        2 0.28125953E+00 0.12467836E+04</pdfrwt>
<pdfrwt beam="2">  1       -1 0.32703048E-01 0.12467836E+04</pdfrwt>
<totfact> 0.81736363E+01</totfact>
</mgrwt>
</event>
<event>
12    7  0.1606355E-007  0.1345576E+04  0.7818608E-02  0.8994184E-01
         -1   -1    0    0    0  501 -0.00000000000E+00  0.00000000000E+00  0.57682906503E+03  0.57682906503E+03  0.00000000000E+00 0.  1.
          2   -1    0    0  501    0  0.00000000000E+00 -0.00000000000E+00 -0.78471000058E+03  0.78471000058E+03  0.00000000000E+00 0. -1.
         24    2    1    2    0    0  0.52011871347E+02 -0.20314990325E+03  0.24086716899E+03  0.32942635939E+03  0.80806034485E+02 0.  0.
        254    2    1    2    0    0 -0.52011871347E+02  0.20314990325E+03 -0.44874810454E+03  0.10321127062E+04  0.90548697343E+03 0.  0.
         23    2    4    4    0    0  0.90566130806E+02 -0.19363019263E+03 -0.54273504248E+03  0.59059428902E+03  0.92441399486E+02 0.  0.
         23    2    4    4    0    0 -0.14257800215E+03  0.39678009587E+03  0.93986937940E+02  0.44151841720E+03  0.91334752657E+02 0.  0.
          2    1    3    3  502    0  0.14124020832E+02 -0.10953464853E+01  0.38222223726E+02  0.40763048646E+02  0.00000000000E+00 0. -1.
         -1    1    3    3    0  502  0.37887850516E+02 -0.20205455676E+03  0.20264494527E+03  0.28866331074E+03  0.00000000000E+00 0.  1.
         13    1    5    5    0    0  0.31694922159E+02 -0.89262982286E+02 -0.35863131649E+03  0.37092973629E+03  0.00000000000E+00 0. -1.
        -13    1    5    5    0    0  0.58871208648E+02 -0.10436721034E+03 -0.18410372600E+03  0.21966455274E+03  0.00000000000E+00 0.  1.
          1    1    6    6  503    0 -0.23243676528E+02  0.15386035725E+03  0.67369945070E+02  0.16956411038E+03  0.00000000000E+00 0. -1.
         -1    1    6    6    0  503 -0.11933432563E+03  0.24291973862E+03  0.26616992869E+02  0.27195430682E+03  0.00000000000E+00 0.  1.
<mgrwt>
<rscale>  0 0.13455758E+04</rscale>
<asrwt>0</asrwt>
<pdfrwt beam="1">  1        2 0.12072462E+00 0.13455758E+04</pdfrwt>
<pdfrwt beam="2">  1       -1 0.88742933E-01 0.13455758E+04</pdfrwt>
<totfact> 0.49146885E+01</totfact>
</mgrwt>
</event>
<event>
12    7  0.1606355E-007  0.1922048E+04  0.7818608E-02  0.8643959E-01
          2   -1    0    0  501    0  0.00000000000E+00  0.00000000000E+00  0.29338009315E+04  0.29338009315E+04  0.00000000000E+00 0. -1.
         -1   -1    0    0    0  501 -0.00000000000E+00 -0.00000000000E+00 -0.31480238387E+03  0.31480238387E+03  0.00000000000E+00 0.  1.
         24    2    1    2    0    0 -0.54901028445E+02  0.57680016064E+03  0.22712228589E+03  0.62855699634E+03  0.88242941210E+02 0.  0.
        254    2    1    2    0    0  0.54901028445E+02 -0.57680016064E+03  0.23918762618E+04  0.26200463191E+04  0.89880927572E+03 0.  0.
         23    2    4    4    0    0  0.31535131430E+03 -0.63303578725E+03  0.20865088721E+04  0.22049962058E+04  0.91149517682E+02 0.  0.
         23    2    4    4    0    0 -0.26045028585E+03  0.56235626613E+02  0.30536738964E+03  0.41505011329E+03  0.89557561284E+02 0.  0.
          4    1    3    3  502    0  0.27097806641E+01  0.70004310747E+01  0.16892790138E+02  0.18485543138E+02  0.00000000000E+00 0. -1.
         -3    1    3    3    0  502 -0.57610809110E+02  0.56979972956E+03  0.21022949575E+03  0.61007145321E+03  0.00000000000E+00 0.  1.
         13    1    5    5    0    0  0.17749110630E+03 -0.35123841582E+03  0.10192178929E+04  0.10925550928E+04  0.00000000000E+00 0.  1.
        -13    1    5    5    0    0  0.13786020800E+03 -0.28179737143E+03  0.10672909792E+04  0.11124411130E+04  0.00000000000E+00 0. -1.
          4    1    6    6  503    0 -0.19020029340E+03  0.23587187489E+02  0.15730227002E+03  0.24794457279E+03  0.00000000000E+00 0. -1.
         -4    1    6    6    0  503 -0.70249992455E+02  0.32648439124E+02  0.14806511962E+03  0.16710554050E+03  0.00000000000E+00 0.  1.
<mgrwt>
<rscale>  0 0.19220484E+04</rscale>
<asrwt>0</asrwt>
<pdfrwt beam="1">  1        2 0.45135397E+00 0.19220484E+04</pdfrwt>
<pdfrwt beam="2">  1       -1 0.48431138E-01 0.19220484E+04</pdfrwt>
<totfact> 0.87125503E+00</totfact>
</mgrwt>
</event>
<event>
12    7  0.1606355E-007  0.2027152E+04  0.7818608E-02  0.8594030E-01
          2   -1    0    0  501    0  0.00000000000E+00  0.00000000000E+00  0.36198554523E+04  0.36198554523E+04  0.00000000000E+00 0. -1.
         -1   -1    0    0    0  501 -0.00000000000E+00 -0.00000000000E+00 -0.28380584800E+03  0.28380584800E+03  0.00000000000E+00 0.  1.
         24    2    1    2    0    0  0.39604525748E+03  0.57187390896E+03  0.53410907068E+03  0.88070521570E+03  0.80483314174E+02 0.  0.
        254    2    1    2    0    0 -0.39604525748E+03 -0.57187390896E+03  0.28019405336E+04  0.30229560846E+04  0.89638224086E+03 0.  0.
         23    2    4    4    0    0 -0.25522031987E+03 -0.79869654972E+03  0.19270918114E+04  0.21037011558E+04  0.93926104950E+02 0.  0.
         23    2    4    4    0    0 -0.14082493761E+03  0.22682264075E+03  0.87484872217E+03  0.91925492874E+03  0.91592379156E+02 0.  0.
          4    1    3    3  502    0  0.33210553780E+02  0.69512218850E+02  0.89082379765E+02  0.11777334094E+03  0.00000000000E+00 0. -1.
         -3    1    3    3    0  502  0.36283470370E+03  0.50236169011E+03  0.44502669092E+03  0.76293187476E+03  0.00000000000E+00 0.  1.
         13    1    5    5    0    0 -0.53728898200E+02 -0.23265579234E+03  0.64580653833E+03  0.68853583578E+03  0.00000000000E+00 0. -1.
        -13    1    5    5    0    0 -0.20149142167E+03 -0.56604075737E+03  0.12812852731E+04  0.14151653201E+04  0.00000000000E+00 0.  1.
          2    1    6    6  503    0 -0.25568032639E+02  0.74646210910E+02  0.14757113959E+03  0.16734103602E+03  0.00000000000E+00 0. -1.
         -2    1    6    6    0  503 -0.11525690497E+03  0.15217642985E+03  0.72727758257E+03  0.75191389271E+03  0.00000000000E+00 0.  1.
<mgrwt>
<rscale>  0 0.20271518E+04</rscale>
<asrwt>0</asrwt>
<pdfrwt beam="1">  1        2 0.55690081E+00 0.20271518E+04</pdfrwt>
<pdfrwt beam="2">  1       -1 0.43662441E-01 0.20271518E+04</pdfrwt>
<totfact> 0.36746984E+00</totfact>
</mgrwt>
</event>
<event>
12    7  0.1606355E-007  0.2046702E+04  0.7818608E-02  0.8585092E-01
          2   -1    0    0  501    0  0.00000000000E+00  0.00000000000E+00  0.14205288977E+04  0.14205288977E+04  0.00000000000E+00 0. -1.
         -1   -1    0    0    0  501 -0.00000000000E+00 -0.00000000000E+00 -0.73722344268E+03  0.73722344268E+03  0.00000000000E+00 0.  1.
         24    2    1    2    0    0  0.13194512363E+01 -0.73760638593E+03  0.66454280139E+03  0.99606050343E+03  0.80339716704E+02 0.  0.
        254    2    1    2    0    0 -0.13194512363E+01  0.73760638593E+03  0.18762653631E+02  0.11616918370E+04  0.89727975869E+03 0.  0.
         23    2    4    4    0    0 -0.19256121092E+03  0.82406099668E+03 -0.16507894880E+03  0.86720847014E+03  0.92968409428E+02 0.  0.
         23    2    4    4    0    0  0.19124175969E+03 -0.86454610743E+02  0.18384160243E+03  0.29448336681E+03  0.94206731071E+02 0.  0.
          4    1    3    3  502    0 -0.10451071486E+02 -0.39678850825E+03  0.30552803466E+03  0.50089692067E+03  0.00000000000E+00 0. -1.
         -3    1    3    3    0  502  0.11770522722E+02 -0.34081787768E+03  0.35901476673E+03  0.49516358275E+03  0.00000000000E+00 0.  1.
         13    1    5    5    0    0 -0.45310880952E+02  0.39684320391E+03 -0.82028586632E+02  0.40775764058E+03  0.00000000000E+00 0. -1.
        -13    1    5    5    0    0 -0.14725032997E+03  0.42721779277E+03 -0.83050362166E+02  0.45945082957E+03  0.00000000000E+00 0.  1.
          3    1    6    6  503    0 -0.84766870561E+01 -0.16005418530E+02  0.11641994246E+02  0.21530528925E+02  0.00000000000E+00 0. -1.
         -3    1    6    6    0  503  0.19971844674E+03 -0.70449192213E+02  0.17219960818E+03  0.27295283789E+03  0.00000000000E+00 0.  1.
<mgrwt>
<rscale>  0 0.20467019E+04</rscale>
<asrwt>0</asrwt>
<pdfrwt beam="1">  1        2 0.21854291E+00 0.20467019E+04</pdfrwt>
<pdfrwt beam="2">  1       -1 0.11341899E+00 0.20467019E+04</pdfrwt>
<totfact> 0.10541040E+01</totfact>
</mgrwt>
</event>
<event>
12    7  0.1606355E-007  0.1544063E+04  0.7818608E-02  0.8855669E-01
          2   -1    0    0  501    0  0.00000000000E+00  0.00000000000E+00  0.16980445892E+04  0.16980445892E+04  0.00000000000E+00 0. -1.
         -1   -1    0    0    0  501 -0.00000000000E+00 -0.00000000000E+00 -0.35101107284E+03  0.35101107284E+03  0.00000000000E+00 0.  1.
         24    2    1    2    0    0 -0.41650416393E+03 -0.21237331941E+03  0.19385853624E+03  0.51254452494E+03  0.80886417914E+02 0.  0.
        254    2    1    2    0    0  0.41650416393E+03  0.21237331941E+03  0.11531749802E+04  0.15365111371E+04  0.90137439185E+03 0.  0.
         23    2    4    4    0    0  0.66671488244E+03  0.34829907514E+02  0.91907445311E+03  0.11396391952E+04  0.91420938357E+02 0.  0.
         23    2    4    4    0    0 -0.25021071851E+03  0.17754341190E+03  0.23410052706E+03  0.39687194193E+03  0.92613253672E+02 0.  0.
          2    1    3    3  502    0 -0.25257010196E+02 -0.30826101726E+02  0.34564533035E+02  0.52752934094E+02  0.00000000000E+00 0. -1.
         -1    1    3    3    0  502 -0.39124715373E+03 -0.18154721769E+03  0.15929400320E+03  0.45979159085E+03  0.00000000000E+00 0.  1.
         13    1    5    5    0    0  0.38723168439E+02 -0.19779326531E+02  0.60879623254E+02  0.74813328088E+02  0.00000000000E+00 0.  1.
        -13    1    5    5    0    0  0.62799171400E+03  0.54609234046E+02  0.85819482985E+03  0.10648258671E+04  0.00000000000E+00 0. -1.
          3    1    6    6  503    0 -0.15497752961E+03  0.56938299590E+02  0.14158834573E+03  0.21750233169E+03  0.00000000000E+00 0. -1.
         -3    1    6    6    0  503 -0.95233188901E+02  0.12060511231E+03  0.92512181324E+02  0.17936961024E+03  0.00000000000E+00 0.  1.
<mgrwt>
<rscale>  0 0.15440628E+04</rscale>
<asrwt>0</asrwt>
<pdfrwt beam="1">  1        2 0.26123763E+00 0.15440628E+04</pdfrwt>
<pdfrwt beam="2">  1       -1 0.54001704E-01 0.15440628E+04</pdfrwt>
<totfact> 0.37338995E+01</totfact>
</mgrwt>
</event>
<event>
12    7  0.1606355E-007  0.3982563E+04  0.7818608E-02  0.8008073E-01
          2   -1    0    0  501    0  0.00000000000E+00  0.00000000000E+00  0.17799703582E+04  0.17799703582E+04  0.00000000000E+00 0. -1.
         -1   -1    0    0    0  501 -0.00000000000E+00 -0.00000000000E+00 -0.22276788338E+04  0.22276788338E+04  0.00000000000E+00 0.  1.
         24    2    1    2    0    0 -0.28170314002E+03  0.62093981802E+02  0.16636978126E+04  0.16907527840E+04  0.86846089130E+02 0.  0.
        254    2    1    2    0    0  0.28170314002E+03 -0.62093981802E+02 -0.21114062883E+04  0.23168964080E+04  0.90926350953E+03 0.  0.
         23    2    4    4    0    0  0.34366690482E+03 -0.32635417797E+03 -0.19053310589E+04  0.19654828032E+04  0.90676429116E+02 0.  0.
         23    2    4    4    0    0 -0.61963764794E+02  0.26426019617E+03 -0.20607522937E+03  0.35141360481E+03  0.85741250644E+02 0.  0.
          4    1    3    3  502    0 -0.28045031024E+03  0.70145823763E+02  0.15475939887E+04  0.15743633529E+04  0.00000000000E+00 0. -1.
         -3    1    3    3    0  502 -0.12528297894E+01 -0.80518419607E+01  0.11610382389E+03  0.11638943107E+03  0.00000000000E+00 0.  1.
         13    1    5    5    0    0  0.42211048880E+02 -0.15929155073E+02 -0.27641626081E+03  0.28007402569E+03  0.00000000000E+00 0.  1.
        -13    1    5    5    0    0  0.30145585594E+03 -0.31042502290E+03 -0.16289147981E+04  0.16854087775E+04  0.00000000000E+00 0. -1.
          3    1    6    6  503    0 -0.46280885139E+02  0.25735757359E+03 -0.17116691128E+03  0.31252672291E+03  0.00000000000E+00 0. -1.
         -3    1    6    6    0  503 -0.15682879655E+02  0.69026225782E+01 -0.34908318085E+02  0.38886881904E+02  0.00000000000E+00 0.  1.
<mgrwt>
<rscale>  0 0.39825631E+04</rscale>
<asrwt>0</asrwt>
<pdfrwt beam="1">  1        2 0.27384160E+00 0.39825631E+04</pdfrwt>
<pdfrwt beam="2">  1       -1 0.34271982E+00 0.39825631E+04</pdfrwt>
<totfact> 0.13816074E-01</totfact>
</mgrwt>
</event>
<event>
12    7  0.1606355E-007  0.2473613E+04  0.7818608E-02  0.8412447E-01
          2   -1    0    0  501    0  0.00000000000E+00  0.00000000000E+00  0.14856455024E+04  0.14856455024E+04  0.00000000000E+00 0. -1.
         -1   -1    0    0    0  501 -0.00000000000E+00 -0.00000000000E+00 -0.10296465086E+04  0.10296465086E+04  0.00000000000E+00 0.  1.
         24    2    1    2    0    0  0.31257263935E+03 -0.29871724566E+03  0.12003264072E+04  0.12783136652E+04  0.79804103213E+02 0.  0.
        254    2    1    2    0    0 -0.31257263935E+03  0.29871724566E+03 -0.74432741349E+03  0.12369783459E+04  0.88834592472E+03 0.  0.
         23    2    4    4    0    0 -0.52742756017E+03 -0.67832364975E+02 -0.30824489303E+03  0.62137850394E+03  0.91188102930E+02 0.  0.
         23    2    4    4    0    0  0.21485492082E+03  0.36654961064E+03 -0.43608252046E+03  0.61559984193E+03  0.90961237226E+02 0.  0.
          2    1    3    3  502    0  0.18974130636E+03 -0.20252426067E+03  0.86589774646E+03  0.90928364487E+03  0.00000000000E+00 0. -1.
         -1    1    3    3    0  502  0.12283133299E+03 -0.96192984991E+02  0.33442866079E+03  0.36903002030E+03  0.00000000000E+00 0.  1.
         13    1    5    5    0    0 -0.19611964088E+03  0.18987213286E+02 -0.11342286349E+03  0.22735033268E+03  0.00000000000E+00 0. -1.
        -13    1    5    5    0    0 -0.33130791929E+03 -0.86819578260E+02 -0.19482202954E+03  0.39402817127E+03  0.00000000000E+00 0.  1.
          4    1    6    6  503    0 -0.72631194494E+01  0.22006391700E+02 -0.13343667849E+02  0.26741122853E+02  0.00000000000E+00 0. -1.
         -4    1    6    6    0  503  0.22211804027E+03  0.34454321894E+03 -0.42273885261E+03  0.58885871908E+03  0.00000000000E+00 0.  1.
<mgrwt>
<rscale>  0 0.24736125E+04</rscale>
<asrwt>0</asrwt>
<pdfrwt beam="1">  1        2 0.22856085E+00 0.24736125E+04</pdfrwt>
<pdfrwt beam="2">  1       -1 0.15840716E+00 0.24736125E+04</pdfrwt>
<totfact> 0.39570745E+00</totfact>
</mgrwt>
</event>
<event>
12    7  0.1606355E-007  0.1788758E+04  0.7818608E-02  0.8712301E-01
          2   -1    0    0  501    0  0.00000000000E+00  0.00000000000E+00  0.11770314003E+04  0.11770314003E+04  0.00000000000E+00 0. -1.
         -1   -1    0    0    0  501 -0.00000000000E+00 -0.00000000000E+00 -0.67960297395E+03  0.67960297395E+03  0.00000000000E+00 0.  1.
         24    2    1    2    0    0 -0.21870869647E+03  0.32270601326E+03  0.74286469024E+03  0.84289865893E+03  0.81593727158E+02 0.  0.
        254    2    1    2    0    0  0.21870869647E+03 -0.32270601326E+03 -0.24543626385E+03  0.10137357154E+04  0.90302185802E+03 0.  0.
         23    2    4    4    0    0  0.50574330964E+03 -0.10615753364E+03 -0.34696454053E+03  0.62870022617E+03  0.88509122717E+02 0.  0.
         23    2    4    4    0    0 -0.28703461316E+03 -0.21654847963E+03  0.10152827669E+03  0.38503548919E+03  0.93071068481E+02 0.  0.
          2    1    3    3  502    0 -0.19805907317E+03  0.32082414809E+03  0.69371991635E+03  0.78955864431E+03  0.00000000000E+00 0. -1.
         -1    1    3    3    0  502 -0.20649623305E+02  0.18818651751E+01  0.49144773896E+02  0.53340014627E+02  0.00000000000E+00 0.  1.
         13    1    5    5    0    0  0.89613928274E+01 -0.16354100421E+02 -0.19383880351E+02  0.26897917753E+02  0.00000000000E+00 0.  1.
        -13    1    5    5    0    0  0.49678191681E+03 -0.89803433215E+02 -0.32758066018E+03  0.60180230841E+03  0.00000000000E+00 0. -1.
          1    1    6    6  503    0 -0.23472918565E+03 -0.16117108005E+03  0.40855020060E+02  0.28765090005E+03  0.00000000000E+00 0. -1.
         -1    1    6    6    0  503 -0.52305427514E+02 -0.55377399582E+02  0.60673256625E+02  0.97384589137E+02  0.00000000000E+00 0.  1.
<mgrwt>
<rscale>  0 0.17887583E+04</rscale>
<asrwt>0</asrwt>
<pdfrwt beam="1">  1        2 0.18108175E+00 0.17887583E+04</pdfrwt>
<pdfrwt beam="2">  1       -1 0.10455430E+00 0.17887583E+04</pdfrwt>
<totfact> 0.18116946E+01</totfact>
</mgrwt>
</event>
<event>
12    7  0.1606355E-007  0.1142037E+04  0.7818608E-02  0.9165162E-01
         -1   -1    0    0    0  501 -0.00000000000E+00  0.00000000000E+00  0.76814807319E+03  0.76814807319E+03  0.00000000000E+00 0.  1.
          2   -1    0    0  501    0  0.00000000000E+00 -0.00000000000E+00 -0.42447786694E+03  0.42447786694E+03  0.00000000000E+00 0. -1.
         24    2    1    2    0    0  0.15116279410E+03 -0.48535312188E+02  0.19748834839E+03  0.26535194701E+03  0.78766370885E+02 0.  0.
        254    2    1    2    0    0 -0.15116279410E+03  0.48535312188E+02  0.14618185786E+03  0.92727399311E+03  0.90181043235E+03 0.  0.
         23    2    4    4    0    0 -0.43922571673E+03  0.17306731602E+03  0.29832952361E+03  0.56598594389E+03  0.92022051212E+02 0.  0.
         23    2    4    4    0    0  0.28806292263E+03 -0.12453200384E+03 -0.15214766576E+03  0.36128804922E+03  0.94295678301E+02 0.  0.
          2    1    3    3  502    0  0.39281702085E+02  0.15547676815E+02  0.82066628343E+02  0.92302296075E+02  0.00000000000E+00 0. -1.
         -1    1    3    3    0  502  0.11188109202E+03 -0.64082989002E+02  0.11542172005E+03  0.17304965094E+03  0.00000000000E+00 0.  1.
         13    1    5    5    0    0 -0.21145821303E+03  0.34193883559E+02  0.13439698286E+03  0.25287614861E+03  0.00000000000E+00 0. -1.
        -13    1    5    5    0    0 -0.22776750369E+03  0.13887343247E+03  0.16393254075E+03  0.31310979528E+03  0.00000000000E+00 0.  1.
          1    1    6    6  503    0  0.30997891973E+02  0.12809899905E+02 -0.30953154972E+02  0.45640559211E+02  0.00000000000E+00 0. -1.
         -1    1    6    6    0  503  0.25706503065E+03 -0.13734190374E+03 -0.12119451078E+03  0.31564749001E+03  0.00000000000E+00 0.  1.
<mgrwt>
<rscale>  0 0.11420365E+04</rscale>
<asrwt>0</asrwt>
<pdfrwt beam="1">  1        2 0.65304287E-01 0.11420365E+04</pdfrwt>
<pdfrwt beam="2">  1       -1 0.11817663E+00 0.11420365E+04</pdfrwt>
<totfact> 0.54170531E+01</totfact>
</mgrwt>
</event>
<event>
12    7  0.1606355E-007  0.1745051E+04  0.7818608E-02  0.8736079E-01
         -1   -1    0    0    0  501 -0.00000000000E+00  0.00000000000E+00  0.92073297222E+03  0.92073297222E+03  0.00000000000E+00 0.  1.
          2   -1    0    0  501    0  0.00000000000E+00 -0.00000000000E+00 -0.82684242010E+03  0.82684242010E+03  0.00000000000E+00 0. -1.
         24    2    1    2    0    0 -0.29236345201E+03 -0.35771081628E+02 -0.52570436817E+03  0.61184139014E+03  0.10596624759E+03 0.  0.
        254    2    1    2    0    0  0.29236345201E+03  0.35771081628E+02  0.61959492028E+03  0.11357340022E+04  0.90511761673E+03 0.  0.
         23    2    4    4    0    0  0.49845772862E+03  0.30077641314E+03  0.46894306602E+03  0.75367381584E+03  0.95864819434E+02 0.  0.
         23    2    4    4    0    0 -0.20609427661E+03 -0.26500533151E+03  0.15065185427E+03  0.38206018633E+03  0.10281696458E+03 0.  0.
          4    1    3    3  502    0 -0.13241634936E+03 -0.50344886903E+02 -0.16814625188E+03  0.21986782219E+03  0.00000000000E+00 0. -1.
         -3    1    3    3    0  502 -0.15994710265E+03  0.14573805275E+02 -0.35755811629E+03  0.39197356795E+03  0.00000000000E+00 0.  1.
         13    1    5    5    0    0  0.86382981129E+02  0.21646909732E+02  0.44489154650E+02  0.99548445549E+02  0.00000000000E+00 0.  1.
        -13    1    5    5    0    0  0.41207474749E+03  0.27912950341E+03  0.42445391137E+03  0.65412537030E+03  0.00000000000E+00 0. -1.
          4    1    6    6  503    0 -0.16839946235E+03 -0.23169989533E+03  0.83878121933E+02  0.29846065027E+03  0.00000000000E+00 0. -1.
         -4    1    6    6    0  503 -0.37694814252E+02 -0.33305436180E+02  0.66773732333E+02  0.83599536065E+02  0.00000000000E+00 0.  1.
<mgrwt>
<rscale>  0 0.17450514E+04</rscale>
<asrwt>0</asrwt>
<pdfrwt beam="1">  1        2 0.12720653E+00 0.17450514E+04</pdfrwt>
<pdfrwt beam="2">  1       -1 0.14165123E+00 0.17450514E+04</pdfrwt>
<totfact> 0.14498092E+01</totfact>
</mgrwt>
</event>
<event>
12    7  0.1606355E-007  0.1422042E+04  0.7818608E-02  0.8938016E-01
          2   -1    0    0  501    0  0.00000000000E+00  0.00000000000E+00  0.12232560130E+04  0.12232560130E+04  0.00000000000E+00 0. -1.
         -1   -1    0    0    0  501 -0.00000000000E+00 -0.00000000000E+00 -0.41328295683E+03  0.41328295683E+03  0.00000000000E+00 0.  1.
         24    2    1    2    0    0  0.20316133071E+03  0.10845281732E+03  0.64939164884E+03  0.69376169141E+03  0.80989079607E+02 0.  0.
        254    2    1    2    0    0 -0.20316133071E+03 -0.10845281732E+03  0.16058140737E+03  0.94277727846E+03  0.90000337139E+03 0.  0.
         23    2    4    4    0    0  0.28168282427E+03 -0.23568963994E+03  0.20565274408E+03  0.43121154229E+03  0.93570952715E+02 0.  0.
         23    2    4    4    0    0 -0.48484415497E+03  0.12723682263E+03 -0.45071336710E+02  0.51156573617E+03  0.91678860090E+02 0.  0.
          2    1    3    3  502    0  0.19238624829E+03  0.76489654841E+02  0.51164733497E+03  0.55194758013E+03  0.00000000000E+00 0. -1.
         -1    1    3    3    0  502  0.10775082414E+02  0.31963162474E+02  0.13774431387E+03  0.14181411128E+03  0.00000000000E+00 0.  1.
         13    1    5    5    0    0  0.94639984591E+02 -0.32788388792E+02  0.31938706378E+02  0.10512795103E+03  0.00000000000E+00 0. -1.
        -13    1    5    5    0    0  0.18704283967E+03 -0.20290125115E+03  0.17371403770E+03  0.32608359126E+03  0.00000000000E+00 0.  1.
          2    1    6    6  503    0 -0.47964605992E+03  0.12283851195E+03 -0.31193632349E+02  0.49610753423E+03  0.00000000000E+00 0. -1.
         -2    1    6    6    0  503 -0.51980950476E+01  0.43983106741E+01 -0.13877704361E+02  0.15458201941E+02  0.00000000000E+00 0.  1.
<mgrwt>
<rscale>  0 0.14220420E+04</rscale>
<asrwt>0</asrwt>
<pdfrwt beam="1">  1        2 0.18819323E+00 0.14220420E+04</pdfrwt>
<pdfrwt beam="2">  1       -1 0.63581994E-01 0.14220420E+04</pdfrwt>
<totfact> 0.50991940E+01</totfact>
</mgrwt>
</event>
<event>
12    7  0.1606355E-007  0.1066141E+04  0.7818608E-02  0.9238837E-01
         -1   -1    0    0    0  501 -0.00000000000E+00  0.00000000000E+00  0.16834173044E+04  0.16834173044E+04  0.00000000000E+00 0.  1.
          2   -1    0    0  501    0  0.00000000000E+00 -0.00000000000E+00 -0.16880185446E+03  0.16880185446E+03  0.00000000000E+00 0. -1.
         24    2    1    2    0    0 -0.83383616882E+02 -0.15805858605E+03  0.20831927053E+03  0.28620593079E+03  0.81126889233E+02 0.  0.
        254    2    1    2    0    0  0.83383616882E+02  0.15805858605E+03  0.13062961794E+04  0.15660132281E+04  0.84501619984E+03 0.  0.
         23    2    4    4    0    0 -0.10848433698E+02 -0.33843974900E+03  0.57502078252E+03  0.67327136112E+03  0.89365950784E+02 0.  0.
         23    2    4    4    0    0  0.94232050580E+02  0.49649833504E+03  0.73127539691E+03  0.89274186697E+03  0.82668366786E+02 0.  0.
          4    1    3    3  502    0 -0.43641472667E+02 -0.74496211462E+02  0.42304500621E+02  0.96145381749E+02  0.00000000000E+00 0. -1.
         -3    1    3    3    0  502 -0.39742144215E+02 -0.83562374585E+02  0.16601476991E+03  0.19006054904E+03  0.00000000000E+00 0.  1.
         13    1    5    5    0    0  0.26951639440E+02 -0.20334753767E+03  0.39460515441E+03  0.44473569661E+03  0.00000000000E+00 0. -1.
        -13    1    5    5    0    0 -0.37800073138E+02 -0.13509221132E+03  0.18041562811E+03  0.22853566452E+03  0.00000000000E+00 0.  1.
          3    1    6    6  503    0  0.10074828541E+03  0.32160954907E+03  0.47552992611E+03  0.58284786153E+03  0.00000000000E+00 0. -1.
         -3    1    6    6    0  503 -0.65162348249E+01  0.17488878597E+03  0.25574547080E+03  0.30989400544E+03  0.00000000000E+00 0.  1.
<mgrwt>
<rscale>  0 0.10661406E+04</rscale>
<asrwt>0</asrwt>
<pdfrwt beam="1">  1        2 0.25969517E-01 0.10661406E+04</pdfrwt>
<pdfrwt beam="2">  1       -1 0.25898727E+00 0.10661406E+04</pdfrwt>
<totfact> 0.14694234E+01</totfact>
</mgrwt>
</event>
<event>
12    7  0.1606355E-007  0.2034201E+04  0.7818608E-02  0.8590795E-01
          2   -1    0    0  501    0  0.00000000000E+00  0.00000000000E+00  0.80916962308E+03  0.80916962308E+03  0.00000000000E+00 0. -1.
         -1   -1    0    0    0  501 -0.00000000000E+00 -0.00000000000E+00 -0.12784629527E+04  0.12784629527E+04  0.00000000000E+00 0.  1.
         24    2    1    2    0    0  0.66909073586E+03  0.19998478235E+03 -0.62182409203E+03  0.93864921544E+03  0.81980621116E+02 0.  0.
        254    2    1    2    0    0 -0.66909073586E+03 -0.19998478235E+03  0.15253076241E+03  0.11489833603E+04  0.89956700856E+03 0.  0.
         23    2    4    4    0    0  0.18352293861E+03 -0.17623472184E+03 -0.29321100693E+02  0.27205563033E+03  0.91734360360E+02 0.  0.
         23    2    4    4    0    0 -0.85261367447E+03 -0.23750060505E+02  0.18185186310E+03  0.87692773001E+03  0.91749660903E+02 0.  0.
          2    1    3    3  502    0  0.36946782605E+03  0.75671050976E+02 -0.36581730043E+03  0.52540924976E+03  0.00000000000E+00 0. -1.
         -3    1    3    3    0  502  0.29962290981E+03  0.12431373137E+03 -0.25600679160E+03  0.41323996568E+03  0.00000000000E+00 0.  1.
         13    1    5    5    0    0  0.18947785814E+03 -0.17940568533E+03 -0.34952292695E+02  0.26326777512E+03  0.00000000000E+00 0. -1.
        -13    1    5    5    0    0 -0.59549195227E+01  0.31709634842E+01  0.56311920011E+01  0.87878552158E+01  0.00000000000E+00 0.  1.
          1    1    6    6  503    0 -0.27923153205E+03  0.10390136545E+02  0.19885302310E+02  0.28013144892E+03  0.00000000000E+00 0. -1.
         -1    1    6    6    0  503 -0.57338214242E+03 -0.34140197050E+02  0.16196656079E+03  0.59679628109E+03  0.00000000000E+00 0.  1.
<mgrwt>
<rscale>  0 0.20342010E+04</rscale>
<asrwt>0</asrwt>
<pdfrwt beam="1">  1        2 0.12448763E+00 0.20342010E+04</pdfrwt>
<pdfrwt beam="2">  1       -1 0.19668661E+00 0.20342010E+04</pdfrwt>
<totfact> 0.56909105E+00</totfact>
</mgrwt>
</event>
<event>
12    7  0.1606355E-007  0.1866243E+04  0.7818608E-02  0.8671844E-01
          2   -1    0    0  501    0  0.00000000000E+00  0.00000000000E+00  0.15026374576E+04  0.15026374576E+04  0.00000000000E+00 0. -1.
         -1   -1    0    0    0  501 -0.00000000000E+00 -0.00000000000E+00 -0.57945854189E+03  0.57945854189E+03  0.00000000000E+00 0.  1.
         24    2    1    2    0    0  0.47469376468E+03 -0.34343171294E+02 -0.23846731952E+03  0.53667287564E+03  0.68099114034E+02 0.  0.
        254    2    1    2    0    0 -0.47469376468E+03  0.34343171294E+02  0.11616462353E+04  0.15454231239E+04  0.90133070085E+03 0.  0.
         23    2    4    4    0    0 -0.33830351332E+03 -0.38666992644E+03  0.39282554710E+03  0.65360708578E+03  0.94484988181E+02 0.  0.
         23    2    4    4    0    0 -0.13639025136E+03  0.42101309773E+03  0.76882068818E+03  0.89181603812E+03  0.91631141747E+02 0.  0.
          4    1    3    3  502    0  0.26138466588E+03 -0.36904031431E+02 -0.99655217707E+02  0.28216132533E+03  0.00000000000E+00 0. -1.
         -3    1    3    3    0  502  0.21330909879E+03  0.25608601375E+01 -0.13881210182E+03  0.25451155032E+03  0.00000000000E+00 0.  1.
         13    1    5    5    0    0 -0.98169065303E+02 -0.68725487822E+02  0.57852107829E+02  0.13306849529E+03  0.00000000000E+00 0. -1.
        -13    1    5    5    0    0 -0.24013444802E+03 -0.31794443861E+03  0.33497343927E+03  0.52053859049E+03  0.00000000000E+00 0.  1.
          2    1    6    6  503    0 -0.11912635437E+03  0.38019049764E+03  0.62383487505E+03  0.74020662935E+03  0.00000000000E+00 0.  1.
         -2    1    6    6    0  503 -0.17263896984E+02  0.40822600090E+02  0.14498581313E+03  0.15160940877E+03  0.00000000000E+00 0. -1.
<mgrwt>
<rscale>  0 0.18662434E+04</rscale>
<asrwt>0</asrwt>
<pdfrwt beam="1">  1        2 0.23117499E+00 0.18662434E+04</pdfrwt>
<pdfrwt beam="2">  1       -1 0.89147469E-01 0.18662434E+04</pdfrwt>
<totfact> 0.16698189E+01</totfact>
</mgrwt>
</event>
<event>
12    7  0.1606355E-007  0.1470107E+04  0.7818608E-02  0.8904578E-01
         -1   -1    0    0    0  501 -0.00000000000E+00  0.00000000000E+00  0.44086076502E+03  0.44086076502E+03  0.00000000000E+00 0.  1.
          2   -1    0    0  501    0  0.00000000000E+00 -0.00000000000E+00 -0.12255657208E+04  0.12255657208E+04  0.00000000000E+00 0. -1.
         24    2    1    2    0    0  0.26091602538E+03 -0.85743872469E+02  0.16304399457E+03  0.32863081064E+03  0.77367186647E+02 0.  0.
        254    2    1    2    0    0 -0.26091602538E+03  0.85743872469E+02 -0.94774895032E+03  0.13377956751E+04  0.90334932980E+03 0.  0.
         23    2    4    4    0    0 -0.34780013888E+03  0.22320424496E+03 -0.10447077817E+04  0.11271428933E+04  0.90838764819E+02 0.  0.
         23    2    4    4    0    0  0.86884113495E+02 -0.13746037249E+03  0.96958831360E+02  0.21065278187E+03  0.92354622772E+02 0.  0.
          2    1    3    3  502    0  0.61675257363E+02 -0.55338028174E+02  0.59733155729E+02  0.10214785669E+03  0.00000000000E+00 0. -1.
         -1    1    3    3    0  502  0.19924076802E+03 -0.30405844295E+02  0.10331083884E+03  0.22648295395E+03  0.00000000000E+00 0.  1.
         13    1    5    5    0    0 -0.37721028649E+02  0.64049249382E+02 -0.16909467196E+03  0.18471109992E+03  0.00000000000E+00 0. -1.
        -13    1    5    5    0    0 -0.31007911023E+03  0.15915499558E+03 -0.87561310972E+03  0.94243179336E+03  0.00000000000E+00 0.  1.
          4    1    6    6  503    0  0.90184246022E+02 -0.14942834236E+03  0.89119333493E+02  0.19597010826E+03  0.00000000000E+00 0.  1.
         -4    1    6    6    0  503 -0.33001325263E+01  0.11967969867E+02  0.78394978670E+01  0.14682673606E+02  0.00000000000E+00 0. -1.
<mgrwt>
<rscale>  0 0.14701073E+04</rscale>
<asrwt>0</asrwt>
<pdfrwt beam="1">  1        2 0.18854857E+00 0.14701073E+04</pdfrwt>
<pdfrwt beam="2">  1       -1 0.67824732E-01 0.14701073E+04</pdfrwt>
<totfact> 0.44443685E+01</totfact>
</mgrwt>
</event>
<event>
12    7  0.1606355E-007  0.1863577E+04  0.7818608E-02  0.8673202E-01
         -1   -1    0    0    0  501 -0.00000000000E+00  0.00000000000E+00  0.27028158467E+03  0.27028158467E+03  0.00000000000E+00 0.  1.
          2   -1    0    0  501    0  0.00000000000E+00 -0.00000000000E+00 -0.32123148235E+04  0.32123148235E+04  0.00000000000E+00 0. -1.
         24    2    1    2    0    0 -0.82804427110E+02  0.69890876319E+03 -0.94050699056E+03  0.11773528234E+04  0.79222718053E+02 0.  0.
        254    2    1    2    0    0  0.82804427110E+02 -0.69890876319E+03 -0.20015262483E+04  0.23052435848E+04  0.90150464794E+03 0.  0.
         23    2    4    4    0    0 -0.23858767662E+03 -0.44977856092E+03 -0.17356820424E+04  0.18109993010E+04  0.88890283643E+02 0.  0.
         23    2    4    4    0    0  0.32139210373E+03 -0.24913020227E+03 -0.26584420591E+03  0.49424428385E+03  0.90804891227E+02 0.  0.
          2    1    3    3  502    0 -0.76360008448E+02  0.69328701428E+03 -0.91547693865E+03  0.11509021506E+04  0.00000000000E+00 0. -1.
         -1    1    3    3    0  502 -0.64444186620E+01  0.56217489107E+01 -0.25030051913E+02  0.26450672798E+02  0.00000000000E+00 0.  1.
         13    1    5    5    0    0 -0.10108252129E+01 -0.27999925554E+02 -0.51516250951E+02  0.58642490659E+02  0.00000000000E+00 0. -1.
        -13    1    5    5    0    0 -0.23757685141E+03 -0.42177863536E+03 -0.16841657914E+04  0.17523568103E+04  0.00000000000E+00 0.  1.
          4    1    6    6  503    0  0.14739627086E+03 -0.15601725928E+03 -0.17528766219E+03  0.27711515724E+03  0.00000000000E+00 0.  1.
         -4    1    6    6    0  503  0.17399583287E+03 -0.93112942990E+02 -0.90556543728E+02  0.21712912661E+03  0.00000000000E+00 0. -1.
<mgrwt>
<rscale>  0 0.18635767E+04</rscale>
<asrwt>0</asrwt>
<pdfrwt beam="1">  1        2 0.49420228E+00 0.18635767E+04</pdfrwt>
<pdfrwt beam="2">  1       -1 0.41581782E-01 0.18635767E+04</pdfrwt>
<totfact> 0.77568659E+00</totfact>
</mgrwt>
</event>
<event>
12    7  0.1606355E-007  0.3020680E+04  0.7818608E-02  0.8237850E-01
          2   -1    0    0  501    0  0.00000000000E+00  0.00000000000E+00  0.31423846509E+04  0.31423846509E+04  0.00000000000E+00 0. -1.
         -1   -1    0    0    0  501 -0.00000000000E+00 -0.00000000000E+00 -0.72592218550E+03  0.72592218550E+03  0.00000000000E+00 0.  1.
         24    2    1    2    0    0  0.84119929419E+03  0.10459488588E+04  0.14850226349E+04  0.20033077859E+04  0.79527298016E+02 0.  0.
        254    2    1    2    0    0 -0.84119929419E+03 -0.10459488588E+04  0.93143983047E+03  0.18649990505E+04  0.89945318534E+03 0.  0.
         23    2    4    4    0    0 -0.94506264772E+03 -0.90899987245E+03  0.10085155090E+04  0.16567370408E+04  0.90829039184E+02 0.  0.
         23    2    4    4    0    0  0.10386335353E+03 -0.13694898636E+03 -0.77075678546E+02  0.20826200961E+03  0.88824452433E+02 0.  0.
          4    1    3    3  502    0  0.51215887747E+03  0.62705677684E+03  0.95244573937E+03  0.12500639198E+04  0.00000000000E+00 0. -1.
         -3    1    3    3    0  502  0.32904041672E+03  0.41889208198E+03  0.53257689553E+03  0.75324386611E+03  0.00000000000E+00 0.  1.
         13    1    5    5    0    0 -0.72186224465E+03 -0.64080572123E+03  0.75444913173E+03  0.12251165516E+04  0.00000000000E+00 0.  1.
        -13    1    5    5    0    0 -0.22320040308E+03 -0.26819415122E+03  0.25406637729E+03  0.43162048926E+03  0.00000000000E+00 0. -1.
          1    1    6    6  503    0  0.52356192009E+02 -0.98919596585E+02 -0.89175898327E+02  0.14310345304E+03  0.00000000000E+00 0. -1.
         -1    1    6    6    0  503  0.51507161523E+02 -0.38029389780E+02  0.12100219781E+02  0.65158556567E+02  0.00000000000E+00 0.  1.
<mgrwt>
<rscale>  0 0.30206799E+04</rscale>
<asrwt>0</asrwt>
<pdfrwt beam="1">  1        2 0.48344379E+00 0.30206799E+04</pdfrwt>
<pdfrwt beam="2">  1       -1 0.11168034E+00 0.30206799E+04</pdfrwt>
<totfact> 0.10094888E+00</totfact>
</mgrwt>
</event>
<event>
12    7  0.1606355E-007  0.1248500E+04  0.7818608E-02  0.9071432E-01
          2   -1    0    0  501    0  0.00000000000E+00  0.00000000000E+00  0.97322236584E+03  0.97322236584E+03  0.00000000000E+00 0. -1.
         -1   -1    0    0    0  501 -0.00000000000E+00 -0.00000000000E+00 -0.40041033954E+03  0.40041033954E+03  0.00000000000E+00 0.  1.
         24    2    1    2    0    0  0.53815768679E+02  0.12734609161E+03  0.42217573445E+03  0.45138572809E+03  0.80022251640E+02 0.  0.
        254    2    1    2    0    0 -0.53815768679E+02 -0.12734609161E+03  0.15063629184E+03  0.92224697729E+03  0.89929696469E+03 0.  0.
         23    2    4    4    0    0 -0.41581749979E+03 -0.24101039636E+03  0.19984401240E+03  0.52883196728E+03  0.93463447619E+02 0.  0.
         23    2    4    4    0    0  0.36200173111E+03  0.11366430475E+03 -0.49207720555E+02  0.39341501001E+03  0.91592264044E+02 0.  0.
          2    1    3    3  502    0  0.21202192964E+02  0.51195813266E+02  0.29109570849E+03  0.29632289109E+03  0.00000000000E+00 0. -1.
         -1    1    3    3    0  502  0.32613575715E+02  0.76150278344E+02  0.13108002596E+03  0.15506283700E+03  0.00000000000E+00 0.  1.
         13    1    5    5    0    0 -0.25078103206E+03 -0.17494673475E+03  0.16580513897E+03  0.34783448672E+03  0.00000000000E+00 0.  1.
        -13    1    5    5    0    0 -0.16503646774E+03 -0.66063661609E+02  0.34038873433E+02  0.18099748057E+03  0.00000000000E+00 0. -1.
          3    1    6    6  503    0  0.27203992205E+03  0.67838358871E+02  0.16330427243E+01  0.28037551418E+03  0.00000000000E+00 0. -1.
         -3    1    6    6    0  503  0.89961809061E+02  0.45825945880E+02 -0.50840763279E+02  0.11303949582E+03  0.00000000000E+00 0.  1.
<mgrwt>
<rscale>  0 0.12485004E+04</rscale>
<asrwt>0</asrwt>
<pdfrwt beam="1">  1        2 0.14972652E+00 0.12485004E+04</pdfrwt>
<pdfrwt beam="2">  1       -1 0.61601591E-01 0.12485004E+04</pdfrwt>
<totfact> 0.78629388E+01</totfact>
</mgrwt>
</event>
<event>
12    7  0.1606355E-007  0.2000775E+04  0.7818608E-02  0.8606259E-01
          2   -1    0    0  501    0  0.00000000000E+00  0.00000000000E+00  0.23373604458E+04  0.23373604458E+04  0.00000000000E+00 0. -1.
         -1   -1    0    0    0  501 -0.00000000000E+00 -0.00000000000E+00 -0.42816450905E+03  0.42816450905E+03  0.00000000000E+00 0.  1.
         24    2    1    2    0    0  0.30196246088E+02 -0.17102902746E+03  0.17889531820E+04  0.17991265890E+04  0.79625713853E+02 0.  0.
        254    2    1    2    0    0 -0.30196246088E+02  0.17102902746E+03  0.12024275467E+03  0.96639836579E+03  0.94302955406E+03 0.  0.
         23    2    4    4    0    0  0.39026176282E+03 -0.99518242784E+02 -0.78031859949E+02  0.42060679405E+03  0.92806141305E+02 0.  0.
         23    2    4    4    0    0 -0.42045800891E+03  0.27054727024E+03  0.19827461462E+03  0.54579157174E+03  0.92708437000E+02 0.  0.
          2    1    3    3  502    0  0.37799690575E+02 -0.11478081086E+03  0.86100443694E+03  0.86944355284E+03  0.00000000000E+00 0. -1.
         -3    1    3    3    0  502 -0.76034444871E+01 -0.56248216597E+02  0.92794874509E+03  0.92968303618E+03  0.00000000000E+00 0.  1.
         13    1    5    5    0    0  0.80366195297E+02 -0.55985767080E+02  0.57790752956E+00  0.97946237494E+02  0.00000000000E+00 0.  1.
        -13    1    5    5    0    0  0.30989556752E+03 -0.43532475704E+02 -0.78609767479E+02  0.32266055655E+03  0.00000000000E+00 0. -1.
          4    1    6    6  503    0 -0.13163685693E+03  0.77638952457E+02  0.16318918069E+02  0.15369572580E+03  0.00000000000E+00 0.  1.
         -4    1    6    6    0  503 -0.28882115198E+03  0.19290831779E+03  0.18195569655E+03  0.39209584595E+03  0.00000000000E+00 0. -1.
<mgrwt>
<rscale>  0 0.20007746E+04</rscale>
<asrwt>0</asrwt>
<pdfrwt beam="1">  1        2 0.35959391E+00 0.20007746E+04</pdfrwt>
<pdfrwt beam="2">  1       -1 0.65871464E-01 0.20007746E+04</pdfrwt>
<totfact> 0.10667118E+01</totfact>
</mgrwt>
</event>
<event>
12    7  0.1606355E-007  0.1388323E+04  0.7818608E-02  0.8962314E-01
         -1   -1    0    0    0  501 -0.00000000000E+00  0.00000000000E+00  0.24767086969E+03  0.24767086969E+03  0.00000000000E+00 0.  1.
          2   -1    0    0  501    0  0.00000000000E+00 -0.00000000000E+00 -0.19455676722E+04  0.19455676722E+04  0.00000000000E+00 0. -1.
         24    2    1    2    0    0 -0.35879340462E+03 -0.61570994391E+02 -0.87921086392E+03  0.95460373351E+03  0.75715587864E+02 0.  0.
        254    2    1    2    0    0  0.35879340462E+03  0.61570994391E+02 -0.81868593861E+03  0.12386348084E+04  0.85524606280E+03 0.  0.
         23    2    4    4    0    0  0.58482919586E+03  0.16460185509E+02 -0.30051394583E+03  0.66409605877E+03  0.91754114903E+02 0.  0.
         23    2    4    4    0    0 -0.22603579124E+03  0.45110808882E+02 -0.51817199278E+03  0.57453874963E+03  0.92007590560E+02 0.  0.
          2    1    3    3  502    0 -0.19735174422E+03 -0.27485229628E+02 -0.57470334185E+03  0.60826563270E+03  0.00000000000E+00 0. -1.
         -1    1    3    3    0  502 -0.16144166041E+03 -0.34085764763E+02 -0.30450752207E+03  0.34633810081E+03  0.00000000000E+00 0.  1.
         13    1    5    5    0    0  0.40206959884E+03  0.12471461941E+02 -0.15750153617E+03  0.43199795552E+03  0.00000000000E+00 0.  1.
        -13    1    5    5    0    0  0.18275959702E+03  0.39887235685E+01 -0.14301240966E+03  0.23209810325E+03  0.00000000000E+00 0. -1.
          1    1    6    6  503    0 -0.68209740646E+02  0.39543948371E+02 -0.98708357252E+02  0.12633143854E+03  0.00000000000E+00 0. -1.
         -1    1    6    6    0  503 -0.15782605059E+03  0.55668605113E+01 -0.41946363553E+03  0.44820731109E+03  0.00000000000E+00 0.  1.
<mgrwt>
<rscale>  0 0.13883234E+04</rscale>
<asrwt>0</asrwt>
<pdfrwt beam="1">  1        2 0.29931810E+00 0.13883234E+04</pdfrwt>
<pdfrwt beam="2">  1       -1 0.38103212E-01 0.13883234E+04</pdfrwt>
<totfact> 0.52931661E+01</totfact>
</mgrwt>
</event>
<event>
12    7  0.1606355E-007  0.3543437E+04  0.7818608E-02  0.8103573E-01
         -1   -1    0    0    0  501 -0.00000000000E+00  0.00000000000E+00  0.17308316435E+04  0.17308316435E+04  0.00000000000E+00 0.  1.
          2   -1    0    0  501    0  0.00000000000E+00 -0.00000000000E+00 -0.18135707066E+04  0.18135707066E+04  0.00000000000E+00 0. -1.
         24    2    1    2    0    0  0.14181589078E+04 -0.42035557266E+03  0.70569001514E+03  0.16408725523E+04  0.81183990929E+02 0.  0.
        254    2    1    2    0    0 -0.14181589078E+04  0.42035557266E+03 -0.78842907829E+03  0.19035297978E+04  0.90218168046E+03 0.  0.
         23    2    4    4    0    0  0.34134173674E+02 -0.14114831280E+03 -0.83459746148E+02  0.19189590844E+03  0.93651067418E+02 0.  0.
         23    2    4    4    0    0 -0.14522930814E+04  0.56150388546E+03 -0.70496933214E+03  0.17116338894E+04  0.90923067764E+02 0.  0.
          2    1    3    3  502    0  0.33334975607E+02 -0.68755889236E+01  0.30476894618E+02  0.45687366168E+02  0.00000000000E+00 0. -1.
         -1    1    3    3    0  502  0.13848239321E+04 -0.41347998373E+03  0.67521312052E+03  0.15951851862E+04  0.00000000000E+00 0.  1.
         13    1    5    5    0    0  0.22687575878E+02 -0.14444930187E+03 -0.95748833613E+02  0.17478033656E+03  0.00000000000E+00 0.  1.
        -13    1    5    5    0    0  0.11446597796E+02  0.33009890680E+01  0.12289087465E+02  0.17115571876E+02  0.00000000000E+00 0. -1.
          3    1    6    6  503    0 -0.78582014999E+03  0.31685084622E+03 -0.43134610368E+03  0.95077191168E+03  0.00000000000E+00 0. -1.
         -3    1    6    6    0  503 -0.66647293144E+03  0.24465303924E+03 -0.27362322846E+03  0.76086197770E+03  0.00000000000E+00 0.  1.
<mgrwt>
<rscale>  0 0.35434365E+04</rscale>
<asrwt>0</asrwt>
<pdfrwt beam="1">  1        2 0.27901088E+00 0.35434365E+04</pdfrwt>
<pdfrwt beam="2">  1       -1 0.26628179E+00 0.35434365E+04</pdfrwt>
<totfact> 0.43157601E-01</totfact>
</mgrwt>
</event>
<event>
12    7  0.1606355E-007  0.1873640E+04  0.7818608E-02  0.8668090E-01
          4   -1    0    0  501    0  0.00000000000E+00  0.00000000000E+00  0.49336041879E+03  0.49336041879E+03  0.00000000000E+00 0. -1.
         -3   -1    0    0    0  501 -0.00000000000E+00 -0.00000000000E+00 -0.17788855394E+04  0.17788855394E+04  0.00000000000E+00 0.  1.
         24    2    1    2    0    0 -0.17045097289E+03 -0.17694375178E+03 -0.13083006733E+04  0.13335830445E+04  0.80190145557E+02 0.  0.
        254    2    1    2    0    0  0.17045097289E+03  0.17694375178E+03  0.22775552696E+02  0.93866291366E+03  0.90565264546E+03 0.  0.
         23    2    4    4    0    0  0.24906101933E+03  0.26527148196E+03  0.39084027774E+03  0.54131488020E+03  0.88686675088E+02 0.  0.
         23    2    4    4    0    0 -0.78610046439E+02 -0.88327730179E+02 -0.36806472504E+03  0.39734803346E+03  0.91828593328E+02 0.  0.
          2    1    3    3  502    0  0.14765069328E+01 -0.13800794744E+00  0.63821598735E+00  0.16144468287E+01  0.00000000000E+00 0. -1.
         -1    1    3    3    0  502 -0.17192747982E+03 -0.17680574383E+03 -0.13089388893E+04  0.13319685977E+04  0.00000000000E+00 0.  1.
         13    1    5    5    0    0  0.11811495869E+03  0.78241984538E+02  0.19158560365E+03  0.23828133611E+03  0.00000000000E+00 0.  1.
        -13    1    5    5    0    0  0.13094606063E+03  0.18702949742E+03  0.19925467409E+03  0.30303354410E+03  0.00000000000E+00 0. -1.
          2    1    6    6  503    0 -0.37149523605E+02 -0.91907078248E+02 -0.18797357578E+03  0.21251132518E+03  0.00000000000E+00 0. -1.
         -2    1    6    6    0  503 -0.41460522834E+02  0.35793480689E+01 -0.18009114926E+03  0.18483670828E+03  0.00000000000E+00 0.  1.
<mgrwt>
<rscale>  0 0.18736400E+04</rscale>
<asrwt>0</asrwt>
<pdfrwt beam="1">  1        4 0.75901603E-01 0.18736400E+04</pdfrwt>
<pdfrwt beam="2">  1       -3 0.27367470E+00 0.18736400E+04</pdfrwt>
<totfact> 0.17986267E-01</totfact>
</mgrwt>
</event>
<event>
12    7  0.1606355E-007  0.4113723E+04  0.7818608E-02  0.7981990E-01
          2   -1    0    0  501    0  0.00000000000E+00  0.00000000000E+00  0.35334178385E+04  0.35334178385E+04  0.00000000000E+00 0. -1.
         -1   -1    0    0    0  501 -0.00000000000E+00 -0.00000000000E+00 -0.11973336211E+04  0.11973336211E+04  0.00000000000E+00 0.  1.
         24    2    1    2    0    0  0.18401539939E+04  0.48154578201E+03  0.16507862227E+04  0.25198089607E+04  0.79303113434E+02 0.  0.
        254    2    1    2    0    0 -0.18401539939E+04 -0.48154578201E+03  0.68529799475E+03  0.22109424989E+04  0.89475154677E+03 0.  0.
         23    2    4    4    0    0 -0.76144916281E+03 -0.21209874559E+03 -0.15888219297E+03  0.81199204249E+03  0.96420020732E+02 0.  0.
         23    2    4    4    0    0 -0.10787048311E+04 -0.26944703642E+03  0.84418018772E+03  0.13989504564E+04  0.90644206254E+02 0.  0.
          2    1    3    3  502    0  0.15257237302E+04  0.37788792390E+03  0.13341974233E+04  0.20617262059E+04  0.00000000000E+00 0. -1.
         -1    1    3    3    0  502  0.31443026372E+03  0.10365785811E+03  0.31658879941E+03  0.45808275475E+03  0.00000000000E+00 0.  1.
         13    1    5    5    0    0 -0.25730679895E+02 -0.27672545242E+02 -0.61085415927E+01  0.38277303045E+02  0.00000000000E+00 0.  1.
        -13    1    5    5    0    0 -0.73571848292E+03 -0.18442620035E+03 -0.15277365138E+03  0.77371473945E+03  0.00000000000E+00 0. -1.
          3    1    6    6  503    0 -0.92109660788E+03 -0.25772847236E+03  0.74479662478E+03  0.12122561358E+04  0.00000000000E+00 0. -1.
         -3    1    6    6    0  503 -0.15760822322E+03 -0.11718564060E+02  0.99383562938E+02  0.18669432062E+03  0.00000000000E+00 0.  1.
<mgrwt>
<rscale>  0 0.41137234E+04</rscale>
<asrwt>0</asrwt>
<pdfrwt beam="1">  1        2 0.54360274E+00 0.41137234E+04</pdfrwt>
<pdfrwt beam="2">  1       -1 0.18420517E+00 0.41137234E+04</pdfrwt>
<totfact> 0.13240465E-01</totfact>
</mgrwt>
</event>
<event>
12    7  0.1606355E-007  0.1229542E+04  0.7818608E-02  0.9087385E-01
         -1   -1    0    0    0  501 -0.00000000000E+00  0.00000000000E+00  0.34339221706E+03  0.34339221706E+03  0.00000000000E+00 0.  1.
          2   -1    0    0  501    0  0.00000000000E+00 -0.00000000000E+00 -0.11006163766E+04  0.11006163766E+04  0.00000000000E+00 0. -1.
         24    2    1    2    0    0 -0.11812970779E+02 -0.72934857520E+02 -0.49986046817E+03  0.51109611240E+03  0.76809561549E+02 0.  0.
        254    2    1    2    0    0  0.11812970779E+02  0.72934857520E+02 -0.25736369142E+03  0.93291248130E+03  0.89366133876E+03 0.  0.
         23    2    4    4    0    0  0.37906839577E+03  0.25315128686E+03 -0.56940160308E+02  0.46814732271E+03  0.90229214755E+02 0.  0.
         23    2    4    4    0    0 -0.36725542499E+03 -0.18021642934E+03 -0.20042353111E+03  0.46476515859E+03  0.92100772130E+02 0.  0.
          2    1    3    3  502    0 -0.39790173895E+02 -0.45316274079E+02 -0.20690115916E+03  0.21551081713E+03  0.00000000000E+00 0. -1.
         -1    1    3    3    0  502  0.27977203116E+02 -0.27618583441E+02 -0.29295930901E+03  0.29558529527E+03  0.00000000000E+00 0.  1.
         13    1    5    5    0    0  0.34802415526E+03  0.23405361029E+03 -0.25785347641E+02  0.42019851176E+03  0.00000000000E+00 0.  1.
        -13    1    5    5    0    0  0.31044240512E+02  0.19097676572E+02 -0.31154812667E+02  0.47948810952E+02  0.00000000000E+00 0. -1.
          4    1    6    6  503    0 -0.30383254840E+02 -0.12982030530E+02  0.90615412828E+01  0.34260572409E+02  0.00000000000E+00 0. -1.
         -4    1    6    6    0  503 -0.33687217015E+03 -0.16723439881E+03 -0.20948507239E+03  0.43050458618E+03  0.00000000000E+00 0.  1.
<mgrwt>
<rscale>  0 0.12295415E+04</rscale>
<asrwt>0</asrwt>
<pdfrwt beam="1">  1        2 0.16932560E+00 0.12295415E+04</pdfrwt>
<pdfrwt beam="2">  1       -1 0.52829572E-01 0.12295415E+04</pdfrwt>
<totfact> 0.88277220E+01</totfact>
</mgrwt>
</event>
<event>
12    7  0.1606355E-007  0.1508965E+04  0.7818608E-02  0.8878513E-01
          2   -1    0    0  501    0  0.00000000000E+00  0.00000000000E+00  0.70900998886E+03  0.70900998886E+03  0.00000000000E+00 0. -1.
         -1   -1    0    0    0  501 -0.00000000000E+00 -0.00000000000E+00 -0.80287147207E+03  0.80287147207E+03  0.00000000000E+00 0.  1.
         24    2    1    2    0    0 -0.26634191244E+03 -0.40498982848E+03  0.12367147485E+02  0.49222190616E+03  0.84703500891E+02 0.  0.
        254    2    1    2    0    0  0.26634191244E+03  0.40498982848E+03 -0.10622863070E+03  0.10196595548E+04  0.89076725925E+03 0.  0.
         23    2    4    4    0    0  0.31080833925E+03  0.74385239242E+02 -0.43168275546E+03  0.54479711305E+03  0.91208033961E+02 0.  0.
         23    2    4    4    0    0 -0.44466426803E+02  0.33060458924E+03  0.32545412477E+03  0.47486244172E+03  0.91089481781E+02 0.  0.
          4    1    3    3  502    0 -0.84509305172E+02 -0.17908192769E+03  0.35994213756E+02  0.20126535447E+03  0.00000000000E+00 0. -1.
         -1    1    3    3    0  502 -0.18183260727E+03 -0.22590790079E+03 -0.23627066271E+02  0.29095655168E+03  0.00000000000E+00 0.  1.
         13    1    5    5    0    0  0.46563871498E+02  0.82744943144E+01 -0.13001826516E+03  0.13835248700E+03  0.00000000000E+00 0. -1.
        -13    1    5    5    0    0  0.26424446775E+03  0.66110744927E+02 -0.30166449031E+03  0.40644462605E+03  0.00000000000E+00 0.  1.
          3    1    6    6  503    0 -0.24277592200E+02  0.32338566533E+02  0.73548633560E+02  0.83932031234E+02  0.00000000000E+00 0. -1.
         -3    1    6    6    0  503 -0.20188834603E+02  0.29826602271E+03  0.25190549120E+03  0.39093041049E+03  0.00000000000E+00 0.  1.
<mgrwt>
<rscale>  0 0.15089651E+04</rscale>
<asrwt>0</asrwt>
<pdfrwt beam="1">  1        2 0.10907846E+00 0.15089651E+04</pdfrwt>
<pdfrwt beam="2">  1       -1 0.12351869E+00 0.15089651E+04</pdfrwt>
<totfact> 0.25633927E+01</totfact>
</mgrwt>
</event>
<event>
12    7  0.1606355E-007  0.2234294E+04  0.7818608E-02  0.8504288E-01
          2   -1    0    0  501    0  0.00000000000E+00  0.00000000000E+00  0.14282205721E+04  0.14282205721E+04  0.00000000000E+00 0. -1.
         -1   -1    0    0    0  501 -0.00000000000E+00 -0.00000000000E+00 -0.87382689101E+03  0.87382689101E+03  0.00000000000E+00 0.  1.
         24    2    1    2    0    0 -0.83759867563E+03  0.14823966828E+03 -0.16679265174E+03  0.87046902396E+03  0.79686839092E+02 0.  0.
        254    2    1    2    0    0  0.83759867563E+03 -0.14823966828E+03  0.72118633279E+03  0.14315784391E+04  0.89764166574E+03 0.  0.
         23    2    4    4    0    0  0.89742222776E+03  0.12643083811E+03  0.66606536269E+03  0.11283911412E+04  0.90951021860E+02 0.  0.
         23    2    4    4    0    0 -0.59823552121E+02 -0.27467050639E+03  0.55120970103E+02  0.30318729796E+03  0.99304943649E+02 0.  0.
          4    1    3    3  502    0 -0.17949628401E+03  0.62562825459E+01 -0.14322305176E+02  0.18017542970E+03  0.00000000000E+00 0. -1.
         -3    1    3    3    0  502 -0.65810239163E+03  0.14198338574E+03 -0.15247034656E+03  0.69029359426E+03  0.00000000000E+00 0.  1.
         13    1    5    5    0    0  0.51852637150E+03  0.47227613800E+02  0.42755770925E+03  0.67372519634E+03  0.00000000000E+00 0.  1.
        -13    1    5    5    0    0  0.37889585625E+03  0.79203224308E+02  0.23850765345E+03  0.45466594482E+03  0.00000000000E+00 0. -1.
          3    1    6    6  503    0 -0.31961083243E+02 -0.30965966419E+02  0.35838546592E+02  0.57138457629E+02  0.00000000000E+00 0. -1.
         -3    1    6    6    0  503 -0.27862468879E+02 -0.24370453997E+03  0.19282423510E+02  0.24604884034E+03  0.00000000000E+00 0.  1.
<mgrwt>
<rscale>  0 0.22342941E+04</rscale>
<asrwt>0</asrwt>
<pdfrwt beam="1">  1        2 0.21972624E+00 0.22342941E+04</pdfrwt>
<pdfrwt beam="2">  1       -1 0.13443491E+00 0.22342941E+04</pdfrwt>
<totfact> 0.67425136E+00</totfact>
</mgrwt>
</event>
<event>
12    7  0.1606355E-007  0.1675393E+04  0.7818608E-02  0.8775525E-01
         -1   -1    0    0    0  501 -0.00000000000E+00  0.00000000000E+00  0.27047327757E+03  0.27047327757E+03  0.00000000000E+00 0.  1.
          2   -1    0    0  501    0  0.00000000000E+00 -0.00000000000E+00 -0.25944712786E+04  0.25944712786E+04  0.00000000000E+00 0. -1.
         24    2    1    2    0    0 -0.27993939345E+03  0.30615567539E+02 -0.17837603485E+04  0.18070912677E+04  0.66891643110E+02 0.  0.
        254    2    1    2    0    0  0.27993939345E+03 -0.30615567539E+02 -0.54023765253E+03  0.10578532885E+04  0.86480834973E+03 0.  0.
         23    2    4    4    0    0 -0.27955348726E+03 -0.39870021656E+02 -0.35769111474E+02  0.29849664392E+03  0.89894639615E+02 0.  0.
         23    2    4    4    0    0  0.55949288070E+03  0.92544541169E+01 -0.50446854105E+03  0.75935664456E+03  0.94953021284E+02 0.  0.
          4    1    3    3  502    0 -0.14864995454E+03 -0.16980360656E+02 -0.95412973831E+03  0.96578915875E+03  0.00000000000E+00 0. -1.
         -3    1    3    3    0  502 -0.13128943891E+03  0.47595928195E+02 -0.82963061015E+03  0.84130210890E+03  0.00000000000E+00 0.  1.
         13    1    5    5    0    0 -0.26061319954E+03 -0.60295707028E+02 -0.39479093119E+02  0.27039491647E+03  0.00000000000E+00 0.  1.
        -13    1    5    5    0    0 -0.18940287714E+02  0.20425685372E+02  0.37099816445E+01  0.28101727445E+02  0.00000000000E+00 0. -1.
          1    1    6    6  503    0  0.19759721194E+02  0.84922155145E+01 -0.47552007680E+02  0.52189632499E+02  0.00000000000E+00 0. -1.
         -1    1    6    6    0  503  0.53973315951E+03  0.76223860233E+00 -0.45691653337E+03  0.70716701206E+03  0.00000000000E+00 0.  1.
<mgrwt>
<rscale>  0 0.16753927E+04</rscale>
<asrwt>0</asrwt>
<pdfrwt beam="1">  1        2 0.39914944E+00 0.16753927E+04</pdfrwt>
<pdfrwt beam="2">  1       -1 0.41611272E-01 0.16753927E+04</pdfrwt>
<totfact> 0.18896061E+01</totfact>
</mgrwt>
</event>
<event>
12    7  0.1606355E-007  0.1317400E+04  0.7818608E-02  0.9015880E-01
          2   -1    0    0  501    0  0.00000000000E+00  0.00000000000E+00  0.15852557464E+04  0.15852557464E+04  0.00000000000E+00 0. -1.
         -1   -1    0    0    0  501 -0.00000000000E+00 -0.00000000000E+00 -0.27370074263E+03  0.27370074263E+03  0.00000000000E+00 0.  1.
         24    2    1    2    0    0 -0.24123053165E+03 -0.19457833072E+03  0.13008894955E+03  0.34545366998E+03  0.79763444786E+02 0.  0.
        254    2    1    2    0    0  0.24123053165E+03  0.19457833072E+03  0.11814660542E+04  0.15135028191E+04  0.89374260827E+03 0.  0.
         23    2    4    4    0    0  0.29756014449E+03 -0.86240333813E+02  0.11687852220E+04  0.12126349364E+04  0.91897545724E+02 0.  0.
         23    2    4    4    0    0 -0.56329612840E+02  0.28081866453E+03  0.12680832176E+02  0.30086788267E+03  0.91260789427E+02 0.  0.
          2    1    3    3  502    0 -0.21342276034E+02 -0.31254121681E+02 -0.80360271396E+01  0.38689670463E+02  0.00000000000E+00 0. -1.
         -1    1    3    3    0  502 -0.21988825561E+03 -0.16332420904E+03  0.13812497669E+03  0.30676399952E+03  0.00000000000E+00 0.  1.
         13    1    5    5    0    0  0.29076459588E+03 -0.84228025618E+02  0.11665737972E+04  0.12052107014E+04  0.00000000000E+00 0. -1.
        -13    1    5    5    0    0  0.67955486052E+01 -0.20123081943E+01  0.22114248667E+01  0.74242349812E+01  0.00000000000E+00 0.  1.
          2    1    6    6  503    0 -0.82788827748E+01  0.22948507102E+03  0.12928435268E+01  0.22963799591E+03  0.00000000000E+00 0. -1.
         -2    1    6    6    0  503 -0.48050730066E+02  0.51333593511E+02  0.11387988649E+02  0.71229886761E+02  0.00000000000E+00 0.  1.
<mgrwt>
<rscale>  0 0.13174000E+04</rscale>
<asrwt>0</asrwt>
<pdfrwt beam="1">  1        2 0.24388549E+00 0.13174000E+04</pdfrwt>
<pdfrwt beam="2">  1       -1 0.42107808E-01 0.13174000E+04</pdfrwt>
<totfact> 0.70239454E+01</totfact>
</mgrwt>
</event>
<event>
12    7  0.1606355E-007  0.2193350E+04  0.7818608E-02  0.8521201E-01
         -1   -1    0    0    0  501 -0.00000000000E+00  0.00000000000E+00  0.13643532002E+04  0.13643532002E+04  0.00000000000E+00 0.  1.
          2   -1    0    0  501    0  0.00000000000E+00 -0.00000000000E+00 -0.88151347839E+03  0.88151347839E+03  0.00000000000E+00 0. -1.
         24    2    1    2    0    0  0.30136734240E+03 -0.84914376919E+03  0.69700984861E+02  0.90732617499E+03  0.80716446370E+02 0.  0.
        254    2    1    2    0    0 -0.30136734240E+03  0.84914376919E+03  0.41313873694E+03  0.13385405036E+04  0.89952189965E+03 0.  0.
         23    2    4    4    0    0 -0.46398772949E+03  0.73235721936E+03  0.25991325615E+01  0.87293702427E+03  0.10188514607E+03 0.  0.
         23    2    4    4    0    0  0.16262038709E+03  0.11678654983E+03  0.41053960437E+03  0.46560347931E+03  0.90329090926E+02 0.  0.
          2    1    3    3  502    0  0.16074165450E+03 -0.36748402741E+03  0.59208294815E+02  0.40544791536E+03  0.00000000000E+00 0. -1.
         -1    1    3    3    0  502  0.14062568790E+03 -0.48165974178E+03  0.10492690046E+02  0.50187825963E+03  0.00000000000E+00 0.  1.
         13    1    5    5    0    0 -0.18940628348E+03  0.39374746629E+03 -0.33513645387E+01  0.43694740997E+03  0.00000000000E+00 0. -1.
        -13    1    5    5    0    0 -0.27458144601E+03  0.33860975307E+03  0.59504971002E+01  0.43598961430E+03  0.00000000000E+00 0.  1.
          3    1    6    6  503    0  0.22293870821E+02 -0.15190363661E+02  0.47962429841E+02  0.55028706150E+02  0.00000000000E+00 0. -1.
         -3    1    6    6    0  503  0.14032651627E+03  0.13197691349E+03  0.36257717453E+03  0.41057477316E+03  0.00000000000E+00 0.  1.
<mgrwt>
<rscale>  0 0.21933497E+04</rscale>
<asrwt>0</asrwt>
<pdfrwt beam="1">  1        2 0.13561746E+00 0.21933497E+04</pdfrwt>
<pdfrwt beam="2">  1       -1 0.20990049E+00 0.21933497E+04</pdfrwt>
<totfact> 0.40544287E+00</totfact>
</mgrwt>
</event>
<event>
12    7  0.1606355E-007  0.2520155E+04  0.7818608E-02  0.8395840E-01
          2   -1    0    0  501    0  0.00000000000E+00  0.00000000000E+00  0.75492046207E+03  0.75492046207E+03  0.00000000000E+00 0. -1.
         -1   -1    0    0    0  501 -0.00000000000E+00 -0.00000000000E+00 -0.21032624382E+04  0.21032624382E+04  0.00000000000E+00 0.  1.
         24    2    1    2    0    0 -0.95732310926E+03 -0.11182135463E+03 -0.11941099852E+04  0.15368416782E+04  0.83738497598E+02 0.  0.
        254    2    1    2    0    0  0.95732310926E+03  0.11182135463E+03 -0.15423199090E+03  0.13213412221E+04  0.89060853768E+03 0.  0.
         23    2    4    4    0    0  0.14490670304E+03 -0.27905146331E+03 -0.24891060983E+03  0.41102520639E+03  0.90097485167E+02 0.  0.
         23    2    4    4    0    0  0.81241640621E+03  0.39087281794E+03  0.94678618934E+02  0.91031601574E+03  0.83121782527E+02 0.  0.
          4    1    3    3  502    0 -0.37327727152E+03 -0.42655262130E+02 -0.53132485832E+03  0.65073919345E+03  0.00000000000E+00 0. -1.
         -3    1    3    3    0  502 -0.58404583773E+03 -0.69166092501E+02 -0.66278512693E+03  0.88610248471E+03  0.00000000000E+00 0.  1.
         13    1    5    5    0    0  0.15297325785E+03 -0.27136753434E+03 -0.25054243862E+03  0.39976576875E+03  0.00000000000E+00 0. -1.
        -13    1    5    5    0    0 -0.80665548014E+01 -0.76839289675E+01  0.16318287881E+01  0.11259437638E+02  0.00000000000E+00 0.  1.
          2    1    6    6  503    0  0.49106989949E+03  0.23164137012E+03  0.97634092084E+02  0.55166999779E+03  0.00000000000E+00 0. -1.
         -2    1    6    6    0  503  0.32134650673E+03  0.15923144783E+03 -0.29554731505E+01  0.35864601794E+03  0.00000000000E+00 0.  1.
<mgrwt>
<rscale>  0 0.25201554E+04</rscale>
<asrwt>0</asrwt>
<pdfrwt beam="1">  1        2 0.11614161E+00 0.25201554E+04</pdfrwt>
<pdfrwt beam="2">  1       -1 0.32357884E+00 0.25201554E+04</pdfrwt>
<totfact> 0.87595917E-01</totfact>
</mgrwt>
</event>
<event>
12    7  0.1606355E-007  0.1397415E+04  0.7818608E-02  0.8955692E-01
          2   -1    0    0  501    0  0.00000000000E+00  0.00000000000E+00  0.61962031350E+03  0.61962031350E+03  0.00000000000E+00 0. -1.
         -1   -1    0    0    0  501 -0.00000000000E+00 -0.00000000000E+00 -0.78788935475E+03  0.78788935475E+03  0.00000000000E+00 0.  1.
         24    2    1    2    0    0  0.27973642050E+03 -0.16948848925E+03  0.16493971575E+03  0.37482009553E+03  0.79411467908E+02 0.  0.
        254    2    1    2    0    0 -0.27973642050E+03  0.16948848925E+03 -0.33320875700E+03  0.10326895727E+04  0.92110849791E+03 0.  0.
         23    2    4    4    0    0 -0.67406681221E+02 -0.12208550169E+03  0.27368146871E+03  0.32043158047E+03  0.91248676995E+02 0.  0.
         23    2    4    4    0    0 -0.21232973928E+03  0.29157399094E+03 -0.60689022571E+03  0.71225799225E+03  0.94320682159E+02 0.  0.
          4    1    3    3  502    0  0.15618785016E+03 -0.98570363128E+02  0.13623527553E+03  0.22950122293E+03  0.00000000000E+00 0. -1.
         -3    1    3    3    0  502  0.12354857034E+03 -0.70918126120E+02  0.28704440220E+02  0.14531887260E+03  0.00000000000E+00 0.  1.
         13    1    5    5    0    0 -0.54372352564E+02 -0.61290443205E+02  0.23077472118E+03  0.24488740900E+03  0.00000000000E+00 0. -1.
        -13    1    5    5    0    0 -0.13034328658E+02 -0.60795058483E+02  0.42906747527E+02  0.75544171469E+02  0.00000000000E+00 0.  1.
          3    1    6    6  503    0 -0.18455139131E+03  0.18952479813E+03 -0.39436947566E+03  0.47487487665E+03  0.00000000000E+00 0. -1.
         -3    1    6    6    0  503 -0.27778347968E+02  0.10204919281E+03 -0.21252075005E+03  0.23738311560E+03  0.00000000000E+00 0.  1.
<mgrwt>
<rscale>  0 0.13974151E+04</rscale>
<asrwt>0</asrwt>
<pdfrwt beam="1">  1        2 0.95326203E-01 0.13974151E+04</pdfrwt>
<pdfrwt beam="2">  1       -1 0.12121375E+00 0.13974151E+04</pdfrwt>
<totfact> 0.32050582E+01</totfact>
</mgrwt>
</event>
<event>
12    7  0.1606355E-007  0.1595052E+04  0.7818608E-02  0.8823593E-01
          2   -1    0    0  501    0  0.00000000000E+00  0.00000000000E+00  0.23726537609E+04  0.23726537609E+04  0.00000000000E+00 0. -1.
         -1   -1    0    0    0  501 -0.00000000000E+00 -0.00000000000E+00 -0.26807450305E+03  0.26807450305E+03  0.00000000000E+00 0.  1.
         24    2    1    2    0    0  0.50243306842E+03  0.17041153254E+03  0.54166379377E+03  0.76242271064E+03  0.80060262070E+02 0.  0.
        254    2    1    2    0    0 -0.50243306842E+03 -0.17041153254E+03  0.15629154641E+04  0.18783055533E+04  0.89657566613E+03 0.  0.
         23    2    4    4    0    0 -0.67794886046E+03 -0.35513394541E+03  0.11247450707E+04  0.13635244042E+04  0.91719955157E+02 0.  0.
         23    2    4    4    0    0  0.17551579205E+03  0.18472241288E+03  0.43817039338E+03  0.51478114912E+03  0.89878667012E+02 0.  0.
          2    1    3    3  502    0  0.15806897606E+03  0.80944779562E+02  0.22042310557E+03  0.28306219104E+03  0.00000000000E+00 0. -1.
         -1    1    3    3    0  502  0.34436409236E+03  0.89466752978E+02  0.32124068820E+03  0.47936051960E+03  0.00000000000E+00 0.  1.
         13    1    5    5    0    0 -0.31710362113E+03 -0.12266540180E+03  0.45429563958E+03  0.56743813361E+03  0.00000000000E+00 0.  1.
        -13    1    5    5    0    0 -0.36084523933E+03 -0.23246854362E+03  0.67044943115E+03  0.79608627060E+03  0.00000000000E+00 0. -1.
          4    1    6    6  503    0  0.12696707937E+03  0.17046609643E+03  0.30024418600E+03  0.36786668850E+03  0.00000000000E+00 0. -1.
         -4    1    6    6    0  503  0.48548712674E+02  0.14256316446E+02  0.13792620737E+03  0.14691446062E+03  0.00000000000E+00 0.  1.
<mgrwt>
<rscale>  0 0.15950523E+04</rscale>
<asrwt>0</asrwt>
<pdfrwt beam="1">  1        2 0.36502364E+00 0.15950523E+04</pdfrwt>
<pdfrwt beam="2">  1       -1 0.41242233E-01 0.15950523E+04</pdfrwt>
<totfact> 0.25964990E+01</totfact>
</mgrwt>
</event>
<event>
12    7  0.1606355E-007  0.1954621E+04  0.7818608E-02  0.8628136E-01
         -1   -1    0    0    0  501 -0.00000000000E+00  0.00000000000E+00  0.95362687293E+03  0.95362687293E+03  0.00000000000E+00 0.  1.
          2   -1    0    0  501    0  0.00000000000E+00 -0.00000000000E+00 -0.10015821135E+04  0.10015821135E+04  0.00000000000E+00 0. -1.
         24    2    1    2    0    0  0.72590598274E+03 -0.94729871965E+02 -0.36086547430E+03  0.82016932659E+03  0.80873909969E+02 0.  0.
        254    2    1    2    0    0 -0.72590598274E+03  0.94729871965E+02  0.31291023368E+03  0.11350396599E+04  0.80900492629E+03 0.  0.
         23    2    4    4    0    0 -0.65525878174E+03  0.38356437510E+03  0.30709992019E+03  0.82418292975E+03  0.92094732789E+02 0.  0.
         23    2    4    4    0    0 -0.70647200996E+02 -0.28883450314E+03  0.58103134920E+01  0.31085673014E+03  0.90453024948E+02 0.  0.
          4    1    3    3  502    0  0.72189613642E+03 -0.10071284186E+03 -0.35991056978E+03  0.81290388517E+03  0.00000000000E+00 0. -1.
         -3    1    3    3    0  502  0.40098463233E+01  0.59829698955E+01 -0.95490451693E+00  0.72654414142E+01  0.00000000000E+00 0.  1.
         13    1    5    5    0    0 -0.42037368658E+03  0.29254890978E+03  0.18827387124E+03  0.54566102259E+03  0.00000000000E+00 0.  1.
        -13    1    5    5    0    0 -0.23488509517E+03  0.91015465323E+02  0.11882604895E+03  0.27852190716E+03  0.00000000000E+00 0. -1.
          3    1    6    6  503    0 -0.33845145945E+02 -0.17666263976E+03 -0.39924000837E+02  0.18425283725E+03  0.00000000000E+00 0. -1.
         -3    1    6    6    0  503 -0.36802055050E+02 -0.11217186337E+03  0.45734314329E+02  0.12660389289E+03  0.00000000000E+00 0.  1.
<mgrwt>
<rscale>  0 0.19546208E+04</rscale>
<asrwt>0</asrwt>
<pdfrwt beam="1">  1        2 0.15408956E+00 0.19546208E+04</pdfrwt>
<pdfrwt beam="2">  1       -1 0.14671183E+00 0.19546208E+04</pdfrwt>
<totfact> 0.98991171E+00</totfact>
</mgrwt>
</event>
<event>
12    7  0.1606355E-007  0.1226106E+04  0.7818608E-02  0.9090308E-01
          2   -1    0    0  501    0  0.00000000000E+00  0.00000000000E+00  0.13142101397E+04  0.13142101397E+04  0.00000000000E+00 0. -1.
         -1   -1    0    0    0  501 -0.00000000000E+00 -0.00000000000E+00 -0.28597725976E+03  0.28597725976E+03  0.00000000000E+00 0.  1.
         24    2    1    2    0    0 -0.98034961253E+02  0.63805254498E+02 -0.84578358617E+02  0.16528341052E+03  0.80517966419E+02 0.  0.
        254    2    1    2    0    0  0.98034961253E+02 -0.63805254498E+02  0.11128112385E+04  0.14349039889E+04  0.89828650256E+03 0.  0.
         23    2    4    4    0    0  0.11507505862E+03  0.38766674189E+03  0.71404518119E+03  0.82555060567E+03  0.90252478405E+02 0.  0.
         23    2    4    4    0    0 -0.17040097371E+02 -0.45147199639E+03  0.39876605733E+03  0.60935338324E+03  0.90442516216E+02 0.  0.
          4    1    3    3  502    0 -0.28949762958E+02 -0.16768026291E+01  0.10408544112E+02  0.30809710042E+02  0.00000000000E+00 0. -1.
         -3    1    3    3    0  502 -0.69085198295E+02  0.65482057127E+02 -0.94986902729E+02  0.13447370047E+03  0.00000000000E+00 0.  1.
         13    1    5    5    0    0  0.76805577375E+02  0.13473748994E+03  0.21950292247E+03  0.26876536399E+03  0.00000000000E+00 0. -1.
        -13    1    5    5    0    0  0.38269481248E+02  0.25292925196E+03  0.49454225872E+03  0.55678524167E+03  0.00000000000E+00 0.  1.
          2    1    6    6  503    0 -0.21453342091E+02 -0.23183748006E+03  0.26234642351E+03  0.35076275312E+03  0.00000000000E+00 0. -1.
         -2    1    6    6    0  503  0.44132447199E+01 -0.21963451633E+03  0.13641963382E+03  0.25859063012E+03  0.00000000000E+00 0.  1.
<mgrwt>
<rscale>  0 0.12261064E+04</rscale>
<asrwt>0</asrwt>
<pdfrwt beam="1">  1        2 0.20218617E+00 0.12261064E+04</pdfrwt>
<pdfrwt beam="2">  1       -1 0.43996502E-01 0.12261064E+04</pdfrwt>
<totfact> 0.92972933E+01</totfact>
</mgrwt>
</event>
<event>
12    7  0.1606355E-007  0.1463361E+04  0.7818608E-02  0.8909190E-01
         -1   -1    0    0    0  501 -0.00000000000E+00  0.00000000000E+00  0.30919171905E+03  0.30919171905E+03  0.00000000000E+00 0.  1.
          2   -1    0    0  501    0  0.00000000000E+00 -0.00000000000E+00 -0.17314709798E+04  0.17314709798E+04  0.00000000000E+00 0. -1.
         24    2    1    2    0    0 -0.41878262066E+03 -0.62003773429E+02 -0.63774652823E+03  0.76957868610E+03  0.79418943206E+02 0.  0.
        254    2    1    2    0    0  0.41878262066E+03  0.62003773429E+02 -0.78453273248E+03  0.12710840127E+04  0.90605717685E+03 0.  0.
         23    2    4    4    0    0  0.55602128641E+03  0.11192540725E+02 -0.10875795093E+03  0.57342511835E+03  0.87767480024E+02 0.  0.
         23    2    4    4    0    0 -0.13723866576E+03  0.50811232703E+02 -0.67577478154E+03  0.69765889435E+03  0.92952378925E+02 0.  0.
          2    1    3    3  502    0 -0.37046765920E+03 -0.51492377673E+02 -0.60135664166E+03  0.70818610685E+03  0.00000000000E+00 0. -1.
         -1    1    3    3    0  502 -0.48314961463E+02 -0.10511395755E+02 -0.36389886571E+02  0.61392579247E+02  0.00000000000E+00 0.  1.
         13    1    5    5    0    0  0.49648423688E+03 -0.16136179900E+02 -0.86393795029E+02  0.50420319474E+03  0.00000000000E+00 0. -1.
        -13    1    5    5    0    0  0.59537049538E+02  0.27328720626E+02 -0.22364155903E+02  0.69221923608E+02  0.00000000000E+00 0.  1.
          2    1    6    6  503    0 -0.11187275238E+03  0.75702279109E+02 -0.57947895947E+03  0.59501446391E+03  0.00000000000E+00 0. -1.
         -2    1    6    6    0  503 -0.25365913375E+02 -0.24891046406E+02 -0.96295822069E+02  0.10264443044E+03  0.00000000000E+00 0.  1.
<mgrwt>
<rscale>  0 0.14633612E+04</rscale>
<asrwt>0</asrwt>
<pdfrwt beam="1">  1        2 0.26638015E+00 0.14633612E+04</pdfrwt>
<pdfrwt beam="2">  1       -1 0.47567956E-01 0.14633612E+04</pdfrwt>
<totfact> 0.45870908E+01</totfact>
</mgrwt>
</event>
<event>
12    7  0.1606355E-007  0.1445352E+04  0.7818608E-02  0.8921629E-01
         -1   -1    0    0    0  501 -0.00000000000E+00  0.00000000000E+00  0.71304699469E+03  0.71304699469E+03  0.00000000000E+00 0.  1.
          2   -1    0    0  501    0  0.00000000000E+00 -0.00000000000E+00 -0.73243470759E+03  0.73243470759E+03  0.00000000000E+00 0. -1.
         24    2    1    2    0    0  0.23333482844E+03  0.37159139950E+03  0.51163204061E+02  0.44906148840E+03  0.80704625408E+02 0.  0.
        254    2    1    2    0    0 -0.23333482844E+03 -0.37159139950E+03 -0.70550916957E+02  0.99642021388E+03  0.89182425421E+03 0.  0.
         23    2    4    4    0    0 -0.56653426824E+03 -0.20538033112E+03 -0.55263903910E+02  0.61181418139E+03  0.90112906786E+02 0.  0.
         23    2    4    4    0    0  0.33319943980E+03 -0.16621106839E+03 -0.15287013047E+02  0.38460603249E+03  0.95079553657E+02 0.  0.
          4    1    3    3  502    0  0.16180167157E+03  0.30720354257E+03  0.60222769994E+02  0.35239264963E+03  0.00000000000E+00 0. -1.
         -3    1    3    3    0  502  0.71533156878E+02  0.64387856935E+02 -0.90595659327E+01  0.96668838767E+02  0.00000000000E+00 0.  1.
         13    1    5    5    0    0 -0.32469630422E+03 -0.12339319595E+03  0.12640923330E+02  0.34758216831E+03  0.00000000000E+00 0.  1.
        -13    1    5    5    0    0 -0.24183796402E+03 -0.81987135169E+02 -0.67904827240E+02  0.26423201308E+03  0.00000000000E+00 0. -1.
          2    1    6    6  503    0  0.37841315337E+01 -0.52898165125E+01 -0.16765877114E+02  0.17983226785E+02  0.00000000000E+00 0. -1.
         -2    1    6    6    0  503  0.32941530827E+03 -0.16092125188E+03  0.14788640674E+01  0.36662280571E+03  0.00000000000E+00 0.  1.
<mgrwt>
<rscale>  0 0.14453517E+04</rscale>
<asrwt>0</asrwt>
<pdfrwt beam="1">  1        2 0.11268226E+00 0.14453517E+04</pdfrwt>
<pdfrwt beam="2">  1       -1 0.10969954E+00 0.14453517E+04</pdfrwt>
<totfact> 0.32919757E+01</totfact>
</mgrwt>
</event>
<event>
12    7  0.1606355E-007  0.2313165E+04  0.7818608E-02  0.8472749E-01
          2   -1    0    0  501    0  0.00000000000E+00  0.00000000000E+00  0.19807635226E+04  0.19807635226E+04  0.00000000000E+00 0. -1.
         -1   -1    0    0    0  501 -0.00000000000E+00 -0.00000000000E+00 -0.67533683096E+03  0.67533683096E+03  0.00000000000E+00 0.  1.
         24    2    1    2    0    0 -0.50359735864E+03 -0.18135661176E+03  0.14991913379E+04  0.15937863120E+04  0.77971920227E+02 0.  0.
        254    2    1    2    0    0  0.50359735864E+03  0.18135661176E+03 -0.19376464625E+03  0.10623140416E+04  0.89692021081E+03 0.  0.
         23    2    4    4    0    0  0.10004791692E+03 -0.72090691036E+02 -0.47634869201E+03  0.50071753529E+03  0.92754085340E+02 0.  0.
         23    2    4    4    0    0  0.40354944171E+03  0.25344730279E+03  0.28258404576E+03  0.56159650630E+03  0.91919561392E+02 0.  0.
          4    1    3    3  502    0 -0.49387467453E+03 -0.17068776841E+03  0.14157125246E+04  0.15090687396E+04  0.00000000000E+00 0. -1.
         -3    1    3    3    0  502 -0.97226841059E+01 -0.10668843350E+02  0.83478813283E+02  0.84717572391E+02  0.00000000000E+00 0.  1.
         13    1    5    5    0    0  0.11136825771E+02  0.22116011787E+02 -0.77939498253E+02  0.81778433915E+02  0.00000000000E+00 0.  1.
        -13    1    5    5    0    0  0.88911091152E+02 -0.94206702822E+02 -0.39840919376E+03  0.41893910137E+03  0.00000000000E+00 0. -1.
          3    1    6    6  503    0  0.38897707380E+03  0.26146675306E+03  0.27306081275E+03  0.54242993497E+03  0.00000000000E+00 0. -1.
         -3    1    6    6    0  503  0.14572367916E+02 -0.80194502689E+01  0.95232330119E+01  0.19166571323E+02  0.00000000000E+00 0.  1.
<mgrwt>
<rscale>  0 0.23131646E+04</rscale>
<asrwt>0</asrwt>
<pdfrwt beam="1">  1        2 0.30473285E+00 0.23131646E+04</pdfrwt>
<pdfrwt beam="2">  1       -1 0.10389797E+00 0.23131646E+04</pdfrwt>
<totfact> 0.61582993E+00</totfact>
</mgrwt>
</event>
<event>
12    7  0.1606355E-007  0.1424594E+04  0.7818608E-02  0.8936206E-01
          2   -1    0    0  501    0  0.00000000000E+00  0.00000000000E+00  0.23794950754E+04  0.23794950754E+04  0.00000000000E+00 0. -1.
         -1   -1    0    0    0  501 -0.00000000000E+00 -0.00000000000E+00 -0.21322455074E+03  0.21322455074E+03  0.00000000000E+00 0.  1.
         24    2    1    2    0    0  0.25810519814E+03  0.26687597640E+03  0.28907799834E+03  0.47688086358E+03  0.77512507638E+02 0.  0.
        254    2    1    2    0    0 -0.25810519814E+03 -0.26687597640E+03  0.18771925263E+04  0.21158387625E+04  0.90281825865E+03 0.  0.
         23    2    4    4    0    0  0.10204784980E+03 -0.42937519520E+03  0.14839011930E+04  0.15508218242E+04  0.91152389182E+02 0.  0.
         23    2    4    4    0    0 -0.36015304794E+03  0.16249921880E+03  0.39329133331E+03  0.56501693830E+03  0.91923085552E+02 0.  0.
          4    1    3    3  502    0  0.10475073524E+03  0.67247240390E+02  0.12492738305E+03  0.17635690775E+03  0.00000000000E+00 0. -1.
         -3    1    3    3    0  502  0.15335446291E+03  0.19962873601E+03  0.16415061528E+03  0.30052395583E+03  0.00000000000E+00 0.  1.
         13    1    5    5    0    0  0.44059891963E+02 -0.14404190612E+03  0.66044358040E+03  0.67740317956E+03  0.00000000000E+00 0. -1.
        -13    1    5    5    0    0  0.57987957835E+02 -0.28533328908E+03  0.82345761259E+03  0.87341864467E+03  0.00000000000E+00 0.  1.
          3    1    6    6  503    0 -0.60376525202E+01  0.74039593823E+00  0.36300648403E+02  0.36806772592E+02  0.00000000000E+00 0. -1.
         -3    1    6    6    0  503 -0.35411539542E+03  0.16175882286E+03  0.35699068490E+03  0.52821016571E+03  0.00000000000E+00 0.  1.
<mgrwt>
<rscale>  0 0.14245937E+04</rscale>
<asrwt>0</asrwt>
<pdfrwt beam="1">  1        2 0.36607615E+00 0.14245937E+04</pdfrwt>
<pdfrwt beam="2">  1       -1 0.32803779E-01 0.14245937E+04</pdfrwt>
<totfact> 0.39478460E+01</totfact>
</mgrwt>
</event>
<event>
12    7  0.1606355E-007  0.2432076E+04  0.7818608E-02  0.8427592E-01
          2   -1    0    0  501    0  0.00000000000E+00  0.00000000000E+00  0.13698712425E+04  0.13698712425E+04  0.00000000000E+00 0. -1.
         -1   -1    0    0    0  501 -0.00000000000E+00 -0.00000000000E+00 -0.10794796479E+04  0.10794796479E+04  0.00000000000E+00 0.  1.
         24    2    1    2    0    0  0.51898297287E+03 -0.89986573857E+03 -0.11632798221E+02  0.10414419118E+04  0.73241108540E+02 0.  0.
        254    2    1    2    0    0 -0.51898297287E+03  0.89986573857E+03  0.30202439280E+03  0.14079089787E+04  0.90104788157E+03 0.  0.
         23    2    4    4    0    0 -0.20711758854E+03  0.86630539026E+03 -0.87394116031E+02  0.89966561641E+03  0.91530132515E+02 0.  0.
         23    2    4    4    0    0 -0.31186538433E+03  0.33560348316E+02  0.38941850883E+03  0.50824336230E+03  0.90984753535E+02 0.  0.
          2    1    3    3  502    0  0.19063331777E+03 -0.31742741922E+03  0.30316395094E+02  0.37151085062E+03  0.00000000000E+00 0. -1.
         -1    1    3    3    0  502  0.32834965510E+03 -0.58243831935E+03 -0.41949193315E+02  0.66993106113E+03  0.00000000000E+00 0.  1.
         13    1    5    5    0    0 -0.21116366228E+03  0.79459347615E+03 -0.66479546382E+02  0.82485660251E+03  0.00000000000E+00 0.  1.
        -13    1    5    5    0    0  0.40460737397E+01  0.71711914105E+02 -0.20914569649E+02  0.74809013901E+02  0.00000000000E+00 0. -1.
          3    1    6    6  503    0 -0.27955538159E+02  0.13028113197E+02  0.89880684173E+02  0.95025161061E+02  0.00000000000E+00 0. -1.
         -3    1    6    6    0  503 -0.28390984617E+03  0.20532235119E+02  0.29953782466E+03  0.41321820123E+03  0.00000000000E+00 0.  1.
<mgrwt>
<rscale>  0 0.24320758E+04</rscale>
<asrwt>0</asrwt>
<pdfrwt beam="1">  1        2 0.21074942E+00 0.24320758E+04</pdfrwt>
<pdfrwt beam="2">  1       -1 0.16607379E+00 0.24320758E+04</pdfrwt>
<totfact> 0.40486882E+00</totfact>
</mgrwt>
</event>
<event>
12    7  0.1606355E-007  0.2136204E+04  0.7818608E-02  0.8545461E-01
         -1   -1    0    0    0  501 -0.00000000000E+00  0.00000000000E+00  0.65017674986E+03  0.65017674986E+03  0.00000000000E+00 0.  1.
          2   -1    0    0  501    0  0.00000000000E+00 -0.00000000000E+00 -0.17546635363E+04  0.17546635363E+04  0.00000000000E+00 0. -1.
         24    2    1    2    0    0  0.83018453237E+02  0.25274667131E+03  0.48516180901E+03  0.55910474456E+03  0.80269490047E+02 0.  0.
        254    2    1    2    0    0 -0.83018453237E+02 -0.25274667131E+03 -0.15896485954E+04  0.18457355416E+04  0.89943542796E+03 0.  0.
         23    2    4    4    0    0  0.16236325593E+03  0.44901717704E+02 -0.13843179622E+04  0.13973731718E+04  0.89093038806E+02 0.  0.
         23    2    4    4    0    0 -0.24538170917E+03 -0.29764838901E+03 -0.20533063317E+03  0.44836236977E+03  0.10030652533E+03 0.  0.
          2    1    3    3  502    0 -0.25435418310E+01 -0.35769893572E+01  0.25669455988E+02  0.26041993561E+02  0.00000000000E+00 0. -1.
         -1    1    3    3    0  502  0.85561995068E+02  0.25632366067E+03  0.45949235302E+03  0.53306275100E+03  0.00000000000E+00 0.  1.
         13    1    5    5    0    0  0.37575354034E+02 -0.74559796909E+01 -0.12327963227E+03  0.12909440963E+03  0.00000000000E+00 0.  1.
        -13    1    5    5    0    0  0.12478790190E+03  0.52357697395E+02 -0.12610383300E+04  0.12682787622E+04  0.00000000000E+00 0. -1.
          2    1    6    6  503    0 -0.21445414180E+03 -0.19076830886E+03 -0.15561991515E+03  0.32649760273E+03  0.00000000000E+00 0. -1.
         -2    1    6    6    0  503 -0.30927567375E+02 -0.10688008016E+03 -0.49710718022E+02  0.12186476703E+03  0.00000000000E+00 0.  1.
<mgrwt>
<rscale>  0 0.21362036E+04</rscale>
<asrwt>0</asrwt>
<pdfrwt beam="1">  1        2 0.26994824E+00 0.21362036E+04</pdfrwt>
<pdfrwt beam="2">  1       -1 0.10002719E+00 0.21362036E+04</pdfrwt>
<totfact> 0.91127309E+00</totfact>
</mgrwt>
</event>
<event>
12    7  0.1606355E-007  0.1155583E+04  0.7818608E-02  0.9152649E-01
          2   -1    0    0  501    0  0.00000000000E+00  0.00000000000E+00  0.14189482608E+04  0.14189482608E+04  0.00000000000E+00 0. -1.
         -1   -1    0    0    0  501 -0.00000000000E+00 -0.00000000000E+00 -0.23527485493E+03  0.23527485493E+03  0.00000000000E+00 0.  1.
         24    2    1    2    0    0  0.10457793254E+03  0.16393431895E+03  0.93754925684E+02  0.23015380726E+03  0.79810926588E+02 0.  0.
        254    2    1    2    0    0 -0.10457793254E+03 -0.16393431895E+03  0.10899184802E+04  0.14240693085E+04  0.89567856790E+03 0.  0.
         23    2    4    4    0    0 -0.43742931987E+03 -0.27707088552E+03  0.46553520084E+03  0.70191040977E+03  0.88557973365E+02 0.  0.
         23    2    4    4    0    0  0.33285138733E+03  0.11313656656E+03  0.62438327938E+03  0.72215889874E+03  0.89827984016E+02 0.  0.
          4    1    3    3  502    0  0.68070277771E+01  0.71678447729E+02  0.53911088843E+02  0.89947434628E+02  0.00000000000E+00 0. -1.
         -3    1    3    3    0  502  0.97770904760E+02  0.92255871225E+02  0.39843836842E+02  0.14020637263E+03  0.00000000000E+00 0.  1.
         13    1    5    5    0    0 -0.36116199864E+03 -0.18738100800E+03  0.37587907599E+03  0.55392662979E+03  0.00000000000E+00 0. -1.
        -13    1    5    5    0    0 -0.76267321226E+02 -0.89689877511E+02  0.89656124851E+02  0.14798377998E+03  0.00000000000E+00 0.  1.
          1    1    6    6  503    0  0.32107378162E+03  0.88511487247E+02  0.59623606671E+03  0.68294956173E+03  0.00000000000E+00 0. -1.
         -1    1    6    6    0  503  0.11777605709E+02  0.24625079316E+02  0.28147212678E+02  0.39209337014E+02  0.00000000000E+00 0.  1.
<mgrwt>
<rscale>  0 0.11555827E+04</rscale>
<asrwt>0</asrwt>
<pdfrwt beam="1">  1        2 0.21829973E+00 0.11555827E+04</pdfrwt>
<pdfrwt beam="2">  1       -1 0.36196132E-01 0.11555827E+04</pdfrwt>
<totfact> 0.11616712E+02</totfact>
</mgrwt>
</event>
<event>
12    7  0.1606355E-007  0.1938797E+04  0.7818608E-02  0.8635782E-01
          2   -1    0    0  501    0  0.00000000000E+00  0.00000000000E+00  0.26789612043E+04  0.26789612043E+04  0.00000000000E+00 0. -1.
         -1   -1    0    0    0  501 -0.00000000000E+00 -0.00000000000E+00 -0.35078294922E+03  0.35078294922E+03  0.00000000000E+00 0.  1.
         24    2    1    2    0    0 -0.57212482411E+03  0.94073926982E+02  0.16915766536E+04  0.17899915520E+04  0.80383226461E+02 0.  0.
        254    2    1    2    0    0  0.57212482411E+03 -0.94073926982E+02  0.63660160144E+03  0.12397526015E+04  0.89193508499E+03 0.  0.
         23    2    4    4    0    0  0.51950095751E+03 -0.27404059618E+03  0.78453411462E+03  0.98427792594E+03  0.91267547802E+02 0.  0.
         23    2    4    4    0    0  0.52623866600E+02  0.17996666920E+03 -0.14793251318E+03  0.25547467554E+03  0.90697343006E+02 0.  0.
          4    1    3    3  502    0 -0.52601806295E+03  0.64502322557E+02  0.15076170472E+04  0.15980502849E+04  0.00000000000E+00 0. -1.
         -3    1    3    3    0  502 -0.46106761156E+02  0.29571604425E+02  0.18395960646E+03  0.19194126712E+03  0.00000000000E+00 0.  1.
         13    1    5    5    0    0  0.28124682971E+03 -0.13861210433E+03  0.49206809526E+03  0.58347588216E+03  0.00000000000E+00 0.  1.
        -13    1    5    5    0    0  0.23825412780E+03 -0.13542849185E+03  0.29246601936E+03  0.40080204378E+03  0.00000000000E+00 0. -1.
          2    1    6    6  503    0  0.65696274153E+01  0.15203238187E+03 -0.12500312836E+03  0.19693345892E+03  0.00000000000E+00 0. -1.
         -2    1    6    6    0  503  0.46054239185E+02  0.27934287329E+02 -0.22929384819E+02  0.58541216623E+02  0.00000000000E+00 0.  1.
<mgrwt>
<rscale>  0 0.19387975E+04</rscale>
<asrwt>0</asrwt>
<pdfrwt beam="1">  1        2 0.41214786E+00 0.19387975E+04</pdfrwt>
<pdfrwt beam="2">  1       -1 0.53966609E-01 0.19387975E+04</pdfrwt>
<totfact> 0.10082625E+01</totfact>
</mgrwt>
</event>
<event>
12    7  0.1606355E-007  0.1392239E+04  0.7818608E-02  0.8959456E-01
          2   -1    0    0  501    0  0.00000000000E+00  0.00000000000E+00  0.10215797456E+04  0.10215797456E+04  0.00000000000E+00 0. -1.
         -1   -1    0    0    0  501 -0.00000000000E+00 -0.00000000000E+00 -0.47434599538E+03  0.47434599538E+03  0.00000000000E+00 0.  1.
         24    2    1    2    0    0 -0.25066285656E+03 -0.10618494764E+02  0.43172279445E+03  0.50926465990E+03  0.10010645578E+03 0.  0.
        254    2    1    2    0    0  0.25066285656E+03  0.10618494764E+02  0.11551095573E+03  0.98666108105E+03  0.94721311639E+03 0.  0.
         23    2    4    4    0    0  0.17826394466E+03  0.23916228887E+03  0.46072197987E+03  0.55650319178E+03  0.91947949090E+02 0.  0.
         23    2    4    4    0    0  0.72398911898E+02 -0.22854379410E+03 -0.34521102414E+03  0.43015788927E+03  0.91603985971E+02 0.  0.
          4    1    3    3  502    0 -0.13069034908E+03  0.43334045817E+02  0.24138900075E+03  0.27789648532E+03  0.00000000000E+00 0. -1.
         -3    1    3    3    0  502 -0.11997250748E+03 -0.53952540582E+02  0.19033379370E+03  0.23136817458E+03  0.00000000000E+00 0.  1.
         13    1    5    5    0    0  0.17963427969E+03  0.23300451491E+03  0.40586308987E+03  0.50128278060E+03  0.00000000000E+00 0.  1.
        -13    1    5    5    0    0 -0.13703350332E+01  0.61577739549E+01  0.54858890005E+02  0.55220411179E+02  0.00000000000E+00 0. -1.
          1    1    6    6  503    0  0.20024332260E+02  0.39187093030E+00 -0.15346991721E+02  0.25232074829E+02  0.00000000000E+00 0. -1.
         -1    1    6    6    0  503  0.52374579638E+02 -0.22893566503E+03 -0.32986403242E+03  0.40492581444E+03  0.00000000000E+00 0.  1.
<mgrwt>
<rscale>  0 0.13922389E+04</rscale>
<asrwt>0</asrwt>
<pdfrwt beam="1">  1        2 0.15716611E+00 0.13922389E+04</pdfrwt>
<pdfrwt beam="2">  1       -1 0.72976308E-01 0.13922389E+04</pdfrwt>
<totfact> 0.51322240E+01</totfact>
</mgrwt>
</event>
<event>
12    7  0.1606355E-007  0.1420921E+04  0.7818608E-02  0.8938812E-01
         -1   -1    0    0    0  501 -0.00000000000E+00  0.00000000000E+00  0.35814546730E+03  0.35814546730E+03  0.00000000000E+00 0.  1.
          2   -1    0    0  501    0  0.00000000000E+00 -0.00000000000E+00 -0.14093557534E+04  0.14093557534E+04  0.00000000000E+00 0. -1.
         24    2    1    2    0    0 -0.92578400395E+02 -0.20267644726E+03 -0.76849532897E+03  0.80412848139E+03  0.79931479657E+02 0.  0.
        254    2    1    2    0    0  0.92578400395E+02  0.20267644726E+03 -0.28271495710E+03  0.96337273927E+03  0.89359430689E+03 0.  0.
         23    2    4    4    0    0  0.88380448284E+02 -0.22966539919E+03  0.18427959624E+03  0.32073299978E+03  0.91396872672E+02 0.  0.
         23    2    4    4    0    0  0.41979521117E+01  0.43234184645E+03 -0.46699455334E+03  0.64263973950E+03  0.89245879127E+02 0.  0.
          4    1    3    3  502    0 -0.62600622792E+02 -0.19614877087E+03 -0.65898123057E+03  0.69039803051E+03  0.00000000000E+00 0. -1.
         -3    1    3    3    0  502 -0.29977777603E+02 -0.65276763901E+01 -0.10951409840E+03  0.11373045088E+03  0.00000000000E+00 0.  1.
         13    1    5    5    0    0  0.31076493952E+02 -0.12492259352E+03  0.14756177854E+03  0.19582104416E+03  0.00000000000E+00 0. -1.
        -13    1    5    5    0    0  0.57303954332E+02 -0.10474280566E+03  0.36717817698E+02  0.12491195562E+03  0.00000000000E+00 0.  1.
          2    1    6    6  503    0 -0.45527016395E+01  0.11559872058E+03 -0.18646622337E+03  0.21943892943E+03  0.00000000000E+00 0. -1.
         -2    1    6    6    0  503  0.87506537512E+01  0.31674312587E+03 -0.28052832997E+03  0.42320081007E+03  0.00000000000E+00 0.  1.
<mgrwt>
<rscale>  0 0.14209214E+04</rscale>
<asrwt>0</asrwt>
<pdfrwt beam="1">  1        2 0.21682396E+00 0.14209214E+04</pdfrwt>
<pdfrwt beam="2">  1       -1 0.55099302E-01 0.14209214E+04</pdfrwt>
<totfact> 0.52701671E+01</totfact>
</mgrwt>
</event>
<event>
12    7  0.1606355E-007  0.2002995E+04  0.7818608E-02  0.8605222E-01
          2   -1    0    0  501    0  0.00000000000E+00  0.00000000000E+00  0.18855077041E+04  0.18855077041E+04  0.00000000000E+00 0. -1.
         -1   -1    0    0    0  501 -0.00000000000E+00 -0.00000000000E+00 -0.53195064983E+03  0.53195064983E+03  0.00000000000E+00 0.  1.
         24    2    1    2    0    0 -0.37810369440E+03 -0.70351571956E+03  0.51558589599E+03  0.95428327794E+03  0.83252549652E+02 0.  0.
        254    2    1    2    0    0  0.37810369440E+03  0.70351571956E+03  0.83797115824E+03  0.14631750760E+04  0.89486807378E+03 0.  0.
         23    2    4    4    0    0  0.48318902662E+03  0.53355823997E+03  0.96657951519E+03  0.12086611179E+04  0.91813440855E+02 0.  0.
         23    2    4    4    0    0 -0.10508533222E+03  0.16995747959E+03 -0.12860835695E+03  0.25451395802E+03  0.91152473558E+02 0.  0.
          4    1    3    3  502    0 -0.14490499012E+03 -0.28010972391E+03  0.25215483683E+03  0.40378332720E+03  0.00000000000E+00 0. -1.
         -3    1    3    3    0  502 -0.23319870428E+03 -0.42340599564E+03  0.26343105916E+03  0.55049995073E+03  0.00000000000E+00 0.  1.
         13    1    5    5    0    0  0.28698675062E+03  0.25760168000E+03  0.47680244571E+03  0.61323779466E+03  0.00000000000E+00 0. -1.
        -13    1    5    5    0    0  0.19620227600E+03  0.27595655997E+03  0.48977706949E+03  0.59542332327E+03  0.00000000000E+00 0.  1.
          3    1    6    6  503    0 -0.31583075412E+02  0.34499919200E+02  0.93184636941E+01  0.47692440103E+02  0.00000000000E+00 0. -1.
         -3    1    6    6    0  503 -0.73502256809E+02  0.13545756039E+03 -0.13792682065E+03  0.20682151792E+03  0.00000000000E+00 0.  1.
<mgrwt>
<rscale>  0 0.20029948E+04</rscale>
<asrwt>0</asrwt>
<pdfrwt beam="1">  1        2 0.29007811E+00 0.20029948E+04</pdfrwt>
<pdfrwt beam="2">  1       -1 0.81838562E-01 0.20029948E+04</pdfrwt>
<totfact> 0.12155583E+01</totfact>
</mgrwt>
</event>
<event>
12    7  0.1606355E-007  0.1461526E+04  0.7818608E-02  0.8910448E-01
          2   -1    0    0  501    0  0.00000000000E+00  0.00000000000E+00  0.15128627736E+04  0.15128627736E+04  0.00000000000E+00 0. -1.
         -1   -1    0    0    0  501 -0.00000000000E+00 -0.00000000000E+00 -0.35298297185E+03  0.35298297185E+03  0.00000000000E+00 0.  1.
         24    2    1    2    0    0 -0.12033188674E+03  0.33516836073E+03  0.71081745009E+03  0.79894711082E+03  0.78977500178E+02 0.  0.
        254    2    1    2    0    0  0.12033188674E+03 -0.33516836073E+03  0.44906235169E+03  0.10668986347E+04  0.89988783075E+03 0.  0.
         23    2    4    4    0    0  0.38617669725E+02 -0.55260469494E+03  0.95051456297E+01  0.56137145088E+03  0.90467037011E+02 0.  0.
         23    2    4    4    0    0  0.81714217012E+02  0.21743633421E+03  0.43955720606E+03  0.50552718378E+03  0.91604713011E+02 0.  0.
          4    1    3    3  502    0 -0.14995971593E+02  0.22965483037E+02  0.11361562324E+03  0.11687943540E+03  0.00000000000E+00 0. -1.
         -3    1    3    3    0  502 -0.10533591514E+03  0.31220287770E+03  0.59720182684E+03  0.68206767542E+03  0.00000000000E+00 0.  1.
         13    1    5    5    0    0 -0.15259006349E+02 -0.10927899284E+03 -0.26044442373E+02  0.11337128618E+03  0.00000000000E+00 0. -1.
        -13    1    5    5    0    0  0.53876676074E+02 -0.44332570210E+03  0.35549588003E+02  0.44800016470E+03  0.00000000000E+00 0.  1.
          3    1    6    6  503    0  0.26196764253E+02  0.17911183080E+02  0.19655334677E+02  0.37328449177E+02  0.00000000000E+00 0. -1.
         -3    1    6    6    0  503  0.55517452759E+02  0.19952515113E+03  0.41990187139E+03  0.46819873461E+03  0.00000000000E+00 0.  1.
<mgrwt>
<rscale>  0 0.14615263E+04</rscale>
<asrwt>0</asrwt>
<pdfrwt beam="1">  1        2 0.23274811E+00 0.14615263E+04</pdfrwt>
<pdfrwt beam="2">  1       -1 0.54305074E-01 0.14615263E+04</pdfrwt>
<totfact> 0.47196133E+01</totfact>
</mgrwt>
</event>
<event>
12    7  0.1606355E-007  0.1336927E+04  0.7818608E-02  0.9000783E-01
         -1   -1    0    0    0  501 -0.00000000000E+00  0.00000000000E+00  0.87651564127E+03  0.87651564127E+03  0.00000000000E+00 0.  1.
          2   -1    0    0  501    0  0.00000000000E+00 -0.00000000000E+00 -0.50979539086E+03  0.50979539086E+03  0.00000000000E+00 0. -1.
         24    2    1    2    0    0  0.21966982083E+03 -0.24612092903E+03  0.24553269480E+03  0.41796552921E+03  0.74689607744E+02 0.  0.
        254    2    1    2    0    0 -0.21966982083E+03  0.24612092903E+03  0.12118755561E+03  0.96834550291E+03  0.90231715460E+03 0.  0.
         23    2    4    4    0    0 -0.17315067777E+03  0.26736412815E+03 -0.35192297811E+03  0.48339713400E+03  0.91423587781E+02 0.  0.
         23    2    4    4    0    0 -0.46519143055E+02 -0.21243199124E+02  0.47311053372E+03  0.48494836891E+03  0.93413271069E+02 0.  0.
          4    1    3    3  502    0  0.22441402652E+03 -0.23770110475E+03  0.23011945256E+03  0.39977297675E+03  0.00000000000E+00 0. -1.
         -3    1    3    3    0  502 -0.47442056894E+01 -0.84198242794E+01  0.15413242243E+02  0.18192552459E+02  0.00000000000E+00 0.  1.
         13    1    5    5    0    0 -0.15341755089E+03  0.15805960670E+03 -0.23797681899E+03  0.32427264850E+03  0.00000000000E+00 0.  1.
        -13    1    5    5    0    0 -0.19733126882E+02  0.10930452145E+03 -0.11394615912E+03  0.15912448550E+03  0.00000000000E+00 0. -1.
          1    1    6    6  503    0 -0.54840347715E+02 -0.25169814337E+02  0.14965112248E+03  0.16135811647E+03  0.00000000000E+00 0. -1.
         -1    1    6    6    0  503  0.83212046601E+01  0.39266152122E+01  0.32345941125E+03  0.32359025245E+03  0.00000000000E+00 0.  1.
<mgrwt>
<rscale>  0 0.13369273E+04</rscale>
<asrwt>0</asrwt>
<pdfrwt beam="1">  1        2 0.78430060E-01 0.13369273E+04</pdfrwt>
<pdfrwt beam="2">  1       -1 0.13484856E+00 0.13369273E+04</pdfrwt>
<totfact> 0.31097042E+01</totfact>
</mgrwt>
</event>
<event>
12    7  0.1606355E-007  0.1162190E+04  0.7818608E-02  0.9146611E-01
          2   -1    0    0  501    0  0.00000000000E+00  0.00000000000E+00  0.49111948959E+03  0.49111948959E+03  0.00000000000E+00 0. -1.
         -1   -1    0    0    0  501 -0.00000000000E+00 -0.00000000000E+00 -0.68755406632E+03  0.68755406632E+03  0.00000000000E+00 0.  1.
         24    2    1    2    0    0 -0.12891156715E+03 -0.26319291789E+02 -0.22095753643E+03  0.26969955444E+03  0.81269425351E+02 0.  0.
        254    2    1    2    0    0  0.12891156715E+03  0.26319291789E+02  0.24522959697E+02  0.90897400147E+03  0.89906699557E+03 0.  0.
         23    2    4    4    0    0 -0.25391846160E+03  0.14105374627E+03  0.28948376922E+03  0.41987384221E+03  0.90124615122E+02 0.  0.
         23    2    4    4    0    0  0.38283002875E+03 -0.11473445448E+03 -0.26496080952E+03  0.48910015926E+03  0.96394549904E+02 0.  0.
          2    1    3    3  502    0 -0.31314810891E+02 -0.33005311365E+02 -0.28168324763E+02  0.53510956630E+02  0.00000000000E+00 0. -1.
         -1    1    3    3    0  502 -0.97596756260E+02  0.66860195767E+01 -0.19278921166E+03  0.21618859781E+03  0.00000000000E+00 0.  1.
         13    1    5    5    0    0 -0.82879985807E+02  0.50615160924E+01  0.56383843035E+02  0.10036856454E+03  0.00000000000E+00 0.  1.
        -13    1    5    5    0    0 -0.17103847579E+03  0.13599223017E+03  0.23309992618E+03  0.31950527766E+03  0.00000000000E+00 0. -1.
          4    1    6    6  503    0  0.30725398553E+03 -0.53372847060E+02 -0.18120183775E+03  0.36067683378E+03  0.00000000000E+00 0. -1.
         -4    1    6    6    0  503  0.75576043221E+02 -0.61361607416E+02 -0.83758971776E+02  0.12842332548E+03  0.00000000000E+00 0.  1.
<mgrwt>
<rscale>  0 0.11621897E+04</rscale>
<asrwt>0</asrwt>
<pdfrwt beam="1">  1        2 0.75556845E-01 0.11621897E+04</pdfrwt>
<pdfrwt beam="2">  1       -1 0.10577755E+00 0.11621897E+04</pdfrwt>
<totfact> 0.59554356E+01</totfact>
</mgrwt>
</event>
<event>
12    7  0.1606355E-007  0.2443996E+04  0.7818608E-02  0.8423213E-01
          2   -1    0    0  501    0  0.00000000000E+00  0.00000000000E+00  0.17285639818E+04  0.17285639818E+04  0.00000000000E+00 0. -1.
         -1   -1    0    0    0  501 -0.00000000000E+00 -0.00000000000E+00 -0.86388451775E+03  0.86388451775E+03  0.00000000000E+00 0.  1.
         24    2    1    2    0    0  0.34323479422E+03  0.57424890295E+03  0.12356105697E+04  0.14077513119E+04  0.86361737674E+02 0.  0.
        254    2    1    2    0    0 -0.34323479422E+03 -0.57424890295E+03 -0.37093110564E+03  0.11846971877E+04  0.90462457119E+03 0.  0.
         23    2    4    4    0    0  0.16582843666E+03  0.11090660800E+03 -0.22371289066E+03  0.31380840181E+03  0.92891923719E+02 0.  0.
         23    2    4    4    0    0 -0.50906323088E+03 -0.68515551095E+03 -0.14721821498E+03  0.87088878584E+03  0.90502084330E+02 0.  0.
          2    1    3    3  502    0  0.33824444505E+03  0.52237488258E+03  0.11327421341E+04  0.12924355168E+04  0.00000000000E+00 0. -1.
         -1    1    3    3    0  502  0.49903491692E+01  0.51874020375E+02  0.10286843557E+03  0.11531579515E+03  0.00000000000E+00 0.  1.
         13    1    5    5    0    0  0.16924594629E+03  0.11627999934E+03 -0.22744657585E+03  0.30642645683E+03  0.00000000000E+00 0. -1.
        -13    1    5    5    0    0 -0.34175096262E+01 -0.53733913374E+01  0.37336851886E+01  0.73819449739E+01  0.00000000000E+00 0.  1.
          2    1    6    6  503    0 -0.40188315826E+03 -0.59337372181E+03 -0.13487599642E+03  0.72924205929E+03  0.00000000000E+00 0. -1.
         -2    1    6    6    0  503 -0.10718007262E+03 -0.91781789140E+02 -0.12342218565E+02  0.14164672656E+03  0.00000000000E+00 0.  1.
<mgrwt>
<rscale>  0 0.24439964E+04</rscale>
<asrwt>0</asrwt>
<pdfrwt beam="1">  1        2 0.26593292E+00 0.24439964E+04</pdfrwt>
<pdfrwt beam="2">  1       -1 0.13290531E+00 0.24439964E+04</pdfrwt>
<totfact> 0.46240469E+00</totfact>
</mgrwt>
</event>
<event>
12    7  0.1606355E-007  0.1262020E+04  0.7818608E-02  0.9060238E-01
          2   -1    0    0  501    0  0.00000000000E+00  0.00000000000E+00  0.26165305889E+03  0.26165305889E+03  0.00000000000E+00 0. -1.
         -1   -1    0    0    0  501 -0.00000000000E+00 -0.00000000000E+00 -0.15217612043E+04  0.15217612043E+04  0.00000000000E+00 0.  1.
         24    2    1    2    0    0  0.24352178637E+03  0.11724149341E+03 -0.50616637929E+03  0.57962101511E+03  0.81900484892E+02 0.  0.
        254    2    1    2    0    0 -0.24352178637E+03 -0.11724149341E+03 -0.75394176615E+03  0.12037932481E+04  0.89868880556E+03 0.  0.
         23    2    4    4    0    0 -0.52530233415E+03 -0.22005185652E+03 -0.29442422592E+03  0.64809047374E+03  0.94711538514E+02 0.  0.
         23    2    4    4    0    0  0.28178054778E+03  0.10281036311E+03 -0.45951754023E+03  0.55570277437E+03  0.87629651301E+02 0.  0.
          2    1    3    3  502    0  0.15500495384E+02  0.27795344595E+02 -0.10376582329E+03  0.10853659577E+03  0.00000000000E+00 0. -1.
         -1    1    3    3    0  502  0.22802129098E+03  0.89446148810E+02 -0.40240055600E+03  0.47108441935E+03  0.00000000000E+00 0.  1.
         13    1    5    5    0    0 -0.38482276802E+03 -0.11770974878E+03 -0.22394710352E+03  0.46053930660E+03  0.00000000000E+00 0.  1.
        -13    1    5    5    0    0 -0.14047956613E+03 -0.10234210774E+03 -0.70477122397E+02  0.18755116715E+03  0.00000000000E+00 0. -1.
          3    1    6    6  503    0  0.45926451224E+02  0.51562024841E+02 -0.77205135222E+02  0.10357854137E+03  0.00000000000E+00 0. -1.
         -3    1    6    6    0  503  0.23585409656E+03  0.51248338271E+02 -0.38231240501E+03  0.45212423300E+03  0.00000000000E+00 0.  1.
<mgrwt>
<rscale>  0 0.12620198E+04</rscale>
<asrwt>0</asrwt>
<pdfrwt beam="1">  1        2 0.40254317E-01 0.12620198E+04</pdfrwt>
<pdfrwt beam="2">  1       -1 0.23411711E+00 0.12620198E+04</pdfrwt>
<totfact> 0.12785220E+01</totfact>
</mgrwt>
</event>
<event>
12    7  0.1606355E-007  0.1362349E+04  0.7818608E-02  0.8981533E-01
         -1   -1    0    0    0  501 -0.00000000000E+00  0.00000000000E+00  0.57577207518E+03  0.57577207518E+03  0.00000000000E+00 0.  1.
          2   -1    0    0  501    0  0.00000000000E+00 -0.00000000000E+00 -0.80587193373E+03  0.80587193373E+03  0.00000000000E+00 0. -1.
         24    2    1    2    0    0 -0.30597775394E+03 -0.22917867955E+03 -0.89498310936E+02  0.40102224522E+03  0.81631124161E+02 0.  0.
        254    2    1    2    0    0  0.30597775394E+03  0.22917867955E+03 -0.14060154761E+03  0.98062176370E+03  0.89202297907E+03 0.  0.
         23    2    4    4    0    0 -0.23591160264E+03 -0.11337364260E+03 -0.18249951842E+03  0.33184851393E+03  0.91156430799E+02 0.  0.
         23    2    4    4    0    0  0.54188935659E+03  0.34255232215E+03  0.41897970808E+02  0.64877324977E+03  0.90361061696E+02 0.  0.
          4    1    3    3  502    0 -0.30413485618E+03 -0.23100557423E+03 -0.78733940309E+02  0.38994950882E+03  0.00000000000E+00 0. -1.
         -3    1    3    3    0  502 -0.18428977644E+01  0.18268946886E+01 -0.10764370627E+02  0.11072736399E+02  0.00000000000E+00 0.  1.
         13    1    5    5    0    0 -0.15930546053E+03 -0.96851424552E+02 -0.80131638022E+02  0.20292734563E+03  0.00000000000E+00 0.  1.
        -13    1    5    5    0    0 -0.76606142114E+02 -0.16522218048E+02 -0.10236788040E+03  0.12892116830E+03  0.00000000000E+00 0. -1.
          2    1    6    6  503    0  0.19389575875E+03  0.98145934542E+02  0.51813620484E+02  0.22341181929E+03  0.00000000000E+00 0. -1.
         -2    1    6    6    0  503  0.34799359783E+03  0.24440638760E+03 -0.99156496750E+01  0.42536143048E+03  0.00000000000E+00 0.  1.
<mgrwt>
<rscale>  0 0.13623488E+04</rscale>
<asrwt>0</asrwt>
<pdfrwt beam="1">  1        2 0.12398030E+00 0.13623488E+04</pdfrwt>
<pdfrwt beam="2">  1       -1 0.88580319E-01 0.13623488E+04</pdfrwt>
<totfact> 0.47568471E+01</totfact>
</mgrwt>
</event>
<event>
12    7  0.1606355E-007  0.1865444E+04  0.7818608E-02  0.8672251E-01
         -1   -1    0    0    0  501 -0.00000000000E+00  0.00000000000E+00  0.65315353555E+03  0.65315353555E+03  0.00000000000E+00 0.  1.
          2   -1    0    0  501    0  0.00000000000E+00 -0.00000000000E+00 -0.13319538127E+04  0.13319538127E+04  0.00000000000E+00 0. -1.
         24    2    1    2    0    0  0.26753674196E+03 -0.25133286651E+03 -0.90704212353E+03  0.98194505065E+03  0.82137388366E+02 0.  0.
        254    2    1    2    0    0 -0.26753674196E+03  0.25133286651E+03  0.22824184639E+03  0.10031622976E+04  0.90526025913E+03 0.  0.
         23    2    4    4    0    0 -0.12118145642E+03  0.92416023574E+02  0.56533585248E+03  0.59271422612E+03  0.92086160488E+02 0.  0.
         23    2    4    4    0    0 -0.14635528554E+03  0.15891684293E+03 -0.33709400609E+03  0.41044807146E+03  0.90337245118E+02 0.  0.
          2    1    3    3  502    0  0.20277702867E+03 -0.19657013706E+03 -0.77659096472E+03  0.82634851523E+03  0.00000000000E+00 0. -1.
         -1    1    3    3    0  502  0.64759713289E+02 -0.54762729445E+02 -0.13045115881E+03  0.15559653542E+03  0.00000000000E+00 0.  1.
         13    1    5    5    0    0 -0.97845911784E+02  0.39666569159E+02  0.23845827418E+03  0.26078651745E+03  0.00000000000E+00 0.  1.
        -13    1    5    5    0    0 -0.23335544636E+02  0.52749454415E+02  0.32687757830E+03  0.33192770866E+03  0.00000000000E+00 0. -1.
          3    1    6    6  503    0 -0.52313871100E+02  0.37828849134E+01 -0.67081300776E+02  0.85152523401E+02  0.00000000000E+00 0. -1.
         -3    1    6    6    0  503 -0.94041414443E+02  0.15513395802E+03 -0.27001270531E+03  0.32529554806E+03  0.00000000000E+00 0.  1.
<mgrwt>
<rscale>  0 0.18654440E+04</rscale>
<asrwt>0</asrwt>
<pdfrwt beam="1">  1        2 0.20491597E+00 0.18654440E+04</pdfrwt>
<pdfrwt beam="2">  1       -1 0.10048516E+00 0.18654440E+04</pdfrwt>
<totfact> 0.15982734E+01</totfact>
</mgrwt>
</event>
<event>
12    7  0.1606355E-007  0.1762983E+04  0.7818608E-02  0.8726236E-01
         -3   -1    0    0    0  501 -0.00000000000E+00  0.00000000000E+00  0.41453737255E+03  0.41453737255E+03  0.00000000000E+00 0.  1.
          4   -1    0    0  501    0  0.00000000000E+00 -0.00000000000E+00 -0.18744447071E+04  0.18744447071E+04  0.00000000000E+00 0. -1.
         24    2    1    2    0    0  0.11441250067E+02 -0.77958919844E+02  0.29284735362E+03  0.31328947405E+03  0.78627136792E+02 0.  0.
        254    2    1    2    0    0 -0.11441250067E+02  0.77958919844E+02 -0.17527546882E+04  0.19756926056E+04  0.90829718679E+03 0.  0.
         23    2    4    4    0    0  0.12446566637E+03 -0.36403643123E+03 -0.49909272637E+03  0.63640262800E+03  0.88884925847E+02 0.  0.
         23    2    4    4    0    0 -0.13590691644E+03  0.44199535108E+03 -0.12536619618E+04  0.13392899776E+04  0.90546945396E+02 0.  0.
          2    1    3    3  502    0 -0.68799359407E+01 -0.85154046480E+00 -0.25945308464E+01  0.74020422874E+01  0.00000000000E+00 0. -1.
         -1    1    3    3    0  502  0.18321186007E+02 -0.77107379379E+02  0.29544188447E+03  0.30588743176E+03  0.00000000000E+00 0.  1.
         13    1    5    5    0    0  0.54409454896E+02 -0.13838277183E+03 -0.12658223534E+03  0.19527734795E+03  0.00000000000E+00 0. -1.
        -13    1    5    5    0    0  0.70056211478E+02 -0.22565365941E+03 -0.37251049103E+03  0.44112528005E+03  0.00000000000E+00 0.  1.
          4    1    6    6  503    0 -0.39851312795E+02  0.74325759319E+02 -0.32783177523E+03  0.33850571410E+03  0.00000000000E+00 0. -1.
         -4    1    6    6    0  503 -0.96055603646E+02  0.36766959176E+03 -0.92583018655E+03  0.10007842635E+04  0.00000000000E+00 0.  1.
<mgrwt>
<rscale>  0 0.17629831E+04</rscale>
<asrwt>0</asrwt>
<pdfrwt beam="1">  1        4 0.28837610E+00 0.17629831E+04</pdfrwt>
<pdfrwt beam="2">  1       -3 0.63774982E-01 0.17629831E+04</pdfrwt>
<totfact> 0.18868042E-01</totfact>
</mgrwt>
</event>
<event>
12    7  0.1606355E-007  0.1848923E+04  0.7818608E-02  0.8680707E-01
         -1   -1    0    0    0  501 -0.00000000000E+00  0.00000000000E+00  0.49392235103E+03  0.49392235103E+03  0.00000000000E+00 0.  1.
          2   -1    0    0  501    0  0.00000000000E+00 -0.00000000000E+00 -0.17302905826E+04  0.17302905826E+04  0.00000000000E+00 0. -1.
         24    2    1    2    0    0  0.43968480617E+03 -0.51044309072E+03 -0.72146789879E+03  0.99051818939E+03  0.82069951260E+02 0.  0.
        254    2    1    2    0    0 -0.43968480617E+03  0.51044309072E+03 -0.51490033278E+03  0.12336947442E+04  0.89610573686E+03 0.  0.
         23    2    4    4    0    0 -0.25249472524E+02  0.62432918790E+03 -0.12112400963E+03  0.64456835282E+03  0.10184726319E+03 0.  0.
         23    2    4    4    0    0 -0.41443533364E+03 -0.11388609718E+03 -0.39377632315E+03  0.58912639143E+03  0.85342975674E+02 0.  0.
          4    1    3    3  502    0  0.20459995483E+02 -0.34545193217E+01 -0.24540727598E+02  0.32137088075E+02  0.00000000000E+00 0. -1.
         -3    1    3    3    0  502  0.41922481069E+03 -0.50698857139E+03 -0.69692717119E+03  0.95838110132E+03  0.00000000000E+00 0.  1.
         13    1    5    5    0    0  0.19365864895E+02  0.88185073805E+02 -0.46069675683E+02  0.10136103286E+03  0.00000000000E+00 0. -1.
        -13    1    5    5    0    0 -0.44615337419E+02  0.53614411409E+03 -0.75054333947E+02  0.54320731995E+03  0.00000000000E+00 0.  1.
          1    1    6    6  503    0 -0.26657943208E+03 -0.65887158636E+02 -0.19505737221E+03  0.33682798241E+03  0.00000000000E+00 0. -1.
         -1    1    6    6    0  503 -0.14785590156E+03 -0.47998938545E+02 -0.19871895094E+03  0.25229840902E+03  0.00000000000E+00 0.  1.
<mgrwt>
<rscale>  0 0.18489231E+04</rscale>
<asrwt>0</asrwt>
<pdfrwt beam="1">  1        2 0.26619855E+00 0.18489231E+04</pdfrwt>
<pdfrwt beam="2">  1       -1 0.75988055E-01 0.18489231E+04</pdfrwt>
<totfact> 0.17575499E+01</totfact>
</mgrwt>
</event>
<event>
12    7  0.1606355E-007  0.1620731E+04  0.7818608E-02  0.8807913E-01
         -1   -1    0    0    0  501 -0.00000000000E+00  0.00000000000E+00  0.10804872469E+04  0.10804872469E+04  0.00000000000E+00 0.  1.
          2   -1    0    0  501    0  0.00000000000E+00 -0.00000000000E+00 -0.60777406672E+03  0.60777406672E+03  0.00000000000E+00 0. -1.
         24    2    1    2    0    0 -0.23792040679E+03  0.41947788548E+01  0.68238308039E+03  0.72701403058E+03  0.79240243074E+02 0.  0.
        254    2    1    2    0    0  0.23792040679E+03 -0.41947788548E+01 -0.20966990023E+03  0.96124728302E+03  0.90742005483E+03 0.  0.
         23    2    4    4    0    0 -0.26798834610E+02 -0.31909251413E+02  0.33409049039E+03  0.34884611187E+03  0.91327849721E+02 0.  0.
         23    2    4    4    0    0  0.26471924140E+03  0.27714472558E+02 -0.54376039062E+03  0.61240117114E+03  0.92279267723E+02 0.  0.
          4    1    3    3  502    0 -0.10791831163E+03 -0.29036588697E+02  0.38224439146E+03  0.39824648180E+03  0.00000000000E+00 0. -1.
         -1    1    3    3    0  502 -0.13000209515E+03  0.33231367552E+02  0.30013868893E+03  0.32876754877E+03  0.00000000000E+00 0.  1.
         13    1    5    5    0    0 -0.42517124931E+02 -0.24218024988E+02  0.32585083165E+03  0.32950414737E+03  0.00000000000E+00 0. -1.
        -13    1    5    5    0    0  0.15718290321E+02 -0.76912264246E+01  0.82396587402E+01  0.19341964499E+02  0.00000000000E+00 0.  1.
          3    1    6    6  503    0  0.11057120643E+03  0.54158673820E+02 -0.27782176097E+03  0.30388169492E+03  0.00000000000E+00 0. -1.
         -3    1    6    6    0  503  0.15414803497E+03 -0.26444201262E+02 -0.26593862965E+03  0.30851947622E+03  0.00000000000E+00 0.  1.
<mgrwt>
<rscale>  0 0.16207309E+04</rscale>
<asrwt>0</asrwt>
<pdfrwt beam="1">  1        2 0.93503703E-01 0.16207309E+04</pdfrwt>
<pdfrwt beam="2">  1       -1 0.16622881E+00 0.16207309E+04</pdfrwt>
<totfact> 0.14013371E+01</totfact>
</mgrwt>
</event>
<event>
12    7  0.1606355E-007  0.1527703E+04  0.7818608E-02  0.8866237E-01
         -1   -1    0    0    0  501 -0.00000000000E+00  0.00000000000E+00  0.45787878286E+03  0.45787878286E+03  0.00000000000E+00 0.  1.
          2   -1    0    0  501    0  0.00000000000E+00 -0.00000000000E+00 -0.12742875335E+04  0.12742875335E+04  0.00000000000E+00 0. -1.
         24    2    1    2    0    0 -0.19298065754E+02 -0.90498531099E+02  0.28631210613E+03  0.31134523028E+03  0.79992692343E+02 0.  0.
        254    2    1    2    0    0  0.19298065754E+02  0.90498531099E+02 -0.11027208568E+04  0.14208210861E+04  0.89116601778E+03 0.  0.
         23    2    4    4    0    0 -0.11206968455E+03  0.30876850220E+03 -0.63283041894E+02  0.34684208334E+03  0.91635611206E+02 0.  0.
         23    2    4    4    0    0  0.13136775030E+03 -0.21826997110E+03 -0.10394378149E+04  0.10739790028E+04  0.90003673410E+02 0.  0.
          4    1    3    3  502    0  0.27987652583E+02 -0.11934339405E+02  0.63983031019E+02  0.70848891399E+02  0.00000000000E+00 0. -1.
         -3    1    3    3    0  502 -0.47285718337E+02 -0.78564191694E+02  0.22232907511E+03  0.24049633888E+03  0.00000000000E+00 0.  1.
         13    1    5    5    0    0 -0.12738318543E+03  0.25987393772E+03 -0.47946983308E+02  0.29335959613E+03  0.00000000000E+00 0.  1.
        -13    1    5    5    0    0  0.15313500883E+02  0.48894564484E+02 -0.15336058585E+02  0.53482487211E+02  0.00000000000E+00 0. -1.
          2    1    6    6  503    0  0.32946550803E+01 -0.66347308213E+02 -0.17991238309E+03  0.19178447707E+03  0.00000000000E+00 0. -1.
         -2    1    6    6    0  503  0.12807309522E+03 -0.15192266289E+03 -0.85952543180E+03  0.88219452568E+03  0.00000000000E+00 0.  1.
<mgrwt>
<rscale>  0 0.15277031E+04</rscale>
<asrwt>0</asrwt>
<pdfrwt beam="1">  1        2 0.19604423E+00 0.15277031E+04</pdfrwt>
<pdfrwt beam="2">  1       -1 0.70442890E-01 0.15277031E+04</pdfrwt>
<totfact> 0.38315585E+01</totfact>
</mgrwt>
</event>
<event>
12    7  0.1606355E-007  0.2700855E+04  0.7818608E-02  0.8334728E-01
          2   -1    0    0  501    0  0.00000000000E+00  0.00000000000E+00  0.40303769126E+04  0.40303769126E+04  0.00000000000E+00 0. -1.
         -1   -1    0    0    0  501 -0.00000000000E+00 -0.00000000000E+00 -0.45247748868E+03  0.45247748868E+03  0.00000000000E+00 0.  1.
         24    2    1    2    0    0 -0.26888879972E+03  0.97358762903E+02  0.34726996307E+04  0.34853904503E+04  0.80770976723E+02 0.  0.
        254    2    1    2    0    0  0.26888879972E+03 -0.97358762903E+02  0.10519979329E+03  0.99746395104E+03  0.94978282875E+03 0.  0.
         23    2    4    4    0    0  0.37469126264E+03 -0.36472096693E+03  0.32684165862E+03  0.62354237600E+03  0.92545658131E+02 0.  0.
         23    2    4    4    0    0 -0.10580246293E+03  0.26736220403E+03 -0.22164186533E+03  0.37392157504E+03  0.89529428156E+02 0.  0.
          4    1    3    3  502    0 -0.21261358632E+03  0.10971089104E+03  0.27353076362E+04  0.27457510596E+04  0.00000000000E+00 0. -1.
         -3    1    3    3    0  502 -0.56275213393E+02 -0.12352128137E+02  0.73739199448E+03  0.73963939067E+03  0.00000000000E+00 0.  1.
         13    1    5    5    0    0  0.17998797324E+02 -0.29096122948E+02  0.51071709708E+02  0.61472437793E+02  0.00000000000E+00 0. -1.
        -13    1    5    5    0    0  0.35669246532E+03 -0.33562484399E+03  0.27576994891E+03  0.56206993821E+03  0.00000000000E+00 0.  1.
          3    1    6    6  503    0 -0.57958665987E+02  0.14598825666E+03 -0.17553399232E+03  0.23555033540E+03  0.00000000000E+00 0. -1.
         -3    1    6    6    0  503 -0.47843796941E+02  0.12137394737E+03 -0.46107873008E+02  0.13837123964E+03  0.00000000000E+00 0.  1.
<mgrwt>
<rscale>  0 0.27008553E+04</rscale>
<asrwt>0</asrwt>
<pdfrwt beam="1">  1        2 0.62005796E+00 0.27008553E+04</pdfrwt>
<pdfrwt beam="2">  1       -1 0.69611924E-01 0.27008553E+04</pdfrwt>
<totfact> 0.67364070E-01</totfact>
</mgrwt>
</event>
<event>
12    7  0.1606355E-007  0.1580567E+04  0.7818608E-02  0.8832576E-01
         -1   -1    0    0    0  501 -0.00000000000E+00  0.00000000000E+00  0.25718999102E+03  0.25718999102E+03  0.00000000000E+00 0.  1.
          2   -1    0    0  501    0  0.00000000000E+00 -0.00000000000E+00 -0.24283523998E+04  0.24283523998E+04  0.00000000000E+00 0. -1.
         24    2    1    2    0    0  0.13100024586E+03 -0.40057649454E+03 -0.22631099623E+03  0.48510977008E+03  0.80574373209E+02 0.  0.
        254    2    1    2    0    0 -0.13100024586E+03  0.40057649454E+03 -0.19448514126E+04  0.22004326208E+04  0.93906022658E+03 0.  0.
         23    2    4    4    0    0 -0.89873780125E+02  0.19588076203E+03  0.63212701469E+01  0.23607589604E+03  0.96152487991E+02 0.  0.
         23    2    4    4    0    0 -0.41126465736E+02  0.20469573252E+03 -0.19511726827E+04  0.19643567247E+04  0.89614592059E+02 0.  0.
          2    1    3    3  502    0  0.20867854741E+01 -0.62087465839E+01 -0.21369998380E+02  0.22351287179E+02  0.00000000000E+00 0. -1.
         -1    1    3    3    0  502  0.12891346039E+03 -0.39436774796E+03 -0.20494099785E+03  0.46275848291E+03  0.00000000000E+00 0.  1.
         13    1    5    5    0    0 -0.25826996784E+02  0.13716305377E+03 -0.28526885922E+02  0.14245883723E+03  0.00000000000E+00 0. -1.
        -13    1    5    5    0    0 -0.64046783342E+02  0.58717708253E+02  0.34848156068E+02  0.93617058810E+02  0.00000000000E+00 0.  1.
          3    1    6    6  503    0 -0.18221946847E+02  0.51656443762E+02 -0.92092111200E+03  0.92254870985E+03  0.00000000000E+00 0. -1.
         -3    1    6    6    0  503 -0.22904518890E+02  0.15303928875E+03 -0.10302515707E+04  0.10418080149E+04  0.00000000000E+00 0.  1.
<mgrwt>
<rscale>  0 0.15805669E+04</rscale>
<asrwt>0</asrwt>
<pdfrwt beam="1">  1        2 0.37359268E+00 0.15805669E+04</pdfrwt>
<pdfrwt beam="2">  1       -1 0.39567690E-01 0.15805669E+04</pdfrwt>
<totfact> 0.26069401E+01</totfact>
</mgrwt>
</event>
<event>
12    7  0.1606355E-007  0.1233875E+04  0.7818608E-02  0.9083712E-01
          2   -1    0    0  501    0  0.00000000000E+00  0.00000000000E+00  0.92755603880E+03  0.92755603880E+03  0.00000000000E+00 0. -1.
         -1   -1    0    0    0  501 -0.00000000000E+00 -0.00000000000E+00 -0.41033844129E+03  0.41033844129E+03  0.00000000000E+00 0.  1.
         24    2    1    2    0    0  0.15849624687E+03  0.22174960337E+03  0.18213707874E+03  0.33703090929E+03  0.78243028406E+02 0.  0.
        254    2    1    2    0    0 -0.15849624687E+03 -0.22174960337E+03  0.33508051877E+03  0.10008635708E+04  0.90285933923E+03 0.  0.
         23    2    4    4    0    0 -0.64738666185E+02  0.88106035006E+02  0.57170729575E+03  0.58908875895E+03  0.90678363514E+02 0.  0.
         23    2    4    4    0    0 -0.93757580690E+02 -0.30985563838E+03 -0.23662677698E+03  0.41177481185E+03  0.93622986070E+02 0.  0.
          4    1    3    3  502    0  0.16668684613E+02  0.50446101417E+02  0.62626423338E+01  0.53496494127E+02  0.00000000000E+00 0. -1.
         -3    1    3    3    0  502  0.14182756226E+03  0.17130350196E+03  0.17587443641E+03  0.28353441516E+03  0.00000000000E+00 0.  1.
         13    1    5    5    0    0 -0.53651688488E+02  0.95538690118E+02  0.56200585987E+03  0.57258775006E+03  0.00000000000E+00 0. -1.
        -13    1    5    5    0    0 -0.11086977698E+02 -0.74326551126E+01  0.97014358777E+01  0.16501008896E+02  0.00000000000E+00 0.  1.
          3    1    6    6  503    0 -0.74313209412E+02 -0.30640692966E+03 -0.23211986547E+03  0.39151920973E+03  0.00000000000E+00 0. -1.
         -3    1    6    6    0  503 -0.19444371278E+02 -0.34487087163E+01 -0.45069115106E+01  0.20255602128E+02  0.00000000000E+00 0.  1.
<mgrwt>
<rscale>  0 0.12338750E+04</rscale>
<asrwt>0</asrwt>
<pdfrwt beam="1">  1        2 0.14270093E+00 0.12338750E+04</pdfrwt>
<pdfrwt beam="2">  1       -1 0.63128991E-01 0.12338750E+04</pdfrwt>
<totfact> 0.80340558E+01</totfact>
</mgrwt>
</event>
<event>
12    7  0.1606355E-007  0.1260350E+04  0.7818608E-02  0.9061613E-01
          2   -1    0    0  501    0  0.00000000000E+00  0.00000000000E+00  0.32680135495E+04  0.32680135495E+04  0.00000000000E+00 0. -1.
         -1   -1    0    0    0  501 -0.00000000000E+00 -0.00000000000E+00 -0.12151732847E+03  0.12151732847E+03  0.00000000000E+00 0.  1.
         24    2    1    2    0    0 -0.13883577151E+03 -0.77072936579E+02  0.94485301194E+02  0.20345655323E+03  0.85155668685E+02 0.  0.
        254    2    1    2    0    0  0.13883577151E+03  0.77072936579E+02  0.30520109199E+04  0.31860743248E+04  0.90060165387E+03 0.  0.
         23    2    4    4    0    0  0.38282292468E+03  0.30745742034E+03  0.11714385047E+04  0.12736658366E+04  0.94196794594E+02 0.  0.
         23    2    4    4    0    0 -0.24398715317E+03 -0.23038448376E+03  0.18805724152E+04  0.19124084882E+04  0.90260044057E+02 0.  0.
          2    1    3    3  502    0 -0.39890114826E+02  0.17243701509E+02  0.21151043929E+02  0.48331492444E+02  0.00000000000E+00 0. -1.
         -1    1    3    3    0  502 -0.98945656681E+02 -0.94316638089E+02  0.73334257264E+02  0.15512506079E+03  0.00000000000E+00 0.  1.
         13    1    5    5    0    0  0.32576115698E+03  0.29556837381E+03  0.10660688592E+04  0.11532492391E+04  0.00000000000E+00 0.  1.
        -13    1    5    5    0    0  0.57061767697E+02  0.11889046534E+02  0.10536964550E+03  0.12041659750E+03  0.00000000000E+00 0. -1.
          1    1    6    6  503    0  0.11522349554E+01 -0.18963065761E+02  0.20308485443E+03  0.20397152647E+03  0.00000000000E+00 0. -1.
         -1    1    6    6    0  503 -0.24513938812E+03 -0.21142141800E+03  0.16774875608E+04  0.17084369617E+04  0.00000000000E+00 0.  1.
<mgrwt>
<rscale>  0 0.12603496E+04</rscale>
<asrwt>0</asrwt>
<pdfrwt beam="1">  1        2 0.50277125E+00 0.12603496E+04</pdfrwt>
<pdfrwt beam="2">  1       -1 0.18694976E-01 0.12603496E+04</pdfrwt>
<totfact> 0.30510692E+01</totfact>
</mgrwt>
</event>
<event>
12    7  0.1606355E-007  0.2083384E+04  0.7818608E-02  0.8568598E-01
         -1   -1    0    0    0  501 -0.00000000000E+00  0.00000000000E+00  0.35297558891E+03  0.35297558891E+03  0.00000000000E+00 0.  1.
          2   -1    0    0  501    0  0.00000000000E+00 -0.00000000000E+00 -0.30742141463E+04  0.30742141463E+04  0.00000000000E+00 0. -1.
         24    2    1    2    0    0  0.31187436061E+03  0.76906352622E+03 -0.13537374561E+04  0.15898789660E+04  0.79910588560E+02 0.  0.
        254    2    1    2    0    0 -0.31187436061E+03 -0.76906352622E+03 -0.13675011013E+04  0.18373107693E+04  0.90384029377E+03 0.  0.
         23    2    4    4    0    0 -0.12465195963E+03  0.17530638958E+03 -0.12969802061E+03  0.26655337457E+03  0.89211454843E+02 0.  0.
         23    2    4    4    0    0 -0.18722240097E+03 -0.94436991580E+03 -0.12378030807E+04  0.15707573947E+04  0.90749992464E+02 0.  0.
          2    1    3    3  502    0  0.23440831485E+03  0.54079196048E+03 -0.89471184469E+03  0.10714067797E+04  0.00000000000E+00 0. -1.
         -1    1    3    3    0  502  0.77466045761E+02  0.22827156574E+03 -0.45902561145E+03  0.51847218627E+03  0.00000000000E+00 0.  1.
         13    1    5    5    0    0 -0.18292680660E+02  0.12952324419E+01 -0.39512995551E+02  0.43561182378E+02  0.00000000000E+00 0. -1.
        -13    1    5    5    0    0 -0.10635927897E+03  0.17401115714E+03 -0.90185025059E+02  0.22299219219E+03  0.00000000000E+00 0.  1.
          1    1    6    6  503    0 -0.28054710003E+02 -0.12558497864E+03 -0.21954851827E+03  0.25448026542E+03  0.00000000000E+00 0. -1.
         -1    1    6    6    0  503 -0.15916769097E+03 -0.81878493716E+03 -0.10182545624E+04  0.13162771293E+04  0.00000000000E+00 0.  1.
<mgrwt>
<rscale>  0 0.20833843E+04</rscale>
<asrwt>0</asrwt>
<pdfrwt beam="1">  1        2 0.47295600E+00 0.20833843E+04</pdfrwt>
<pdfrwt beam="2">  1       -1 0.54303939E-01 0.20833843E+04</pdfrwt>
<totfact> 0.56339070E+00</totfact>
</mgrwt>
</event>
<event>
12    7  0.1606355E-007  0.1162190E+04  0.7818608E-02  0.9146611E-01
          2   -1    0    0  501    0  0.00000000000E+00  0.00000000000E+00  0.21993494262E+03  0.21993494262E+03  0.00000000000E+00 0. -1.
         -1   -1    0    0    0  501 -0.00000000000E+00 -0.00000000000E+00 -0.15353249726E+04  0.15353249726E+04  0.00000000000E+00 0.  1.
         24    2    1    2    0    0 -0.33424197353E+02  0.18965490736E+03 -0.19303014352E+03  0.28360411257E+03  0.78003176233E+02 0.  0.
        254    2    1    2    0    0  0.33424197353E+02 -0.18965490736E+03 -0.11223598865E+04  0.14716558027E+04  0.93219790061E+03 0.  0.
         23    2    4    4    0    0  0.43504669073E+03 -0.87938146691E+02 -0.86116255328E+03  0.97372361105E+03  0.97662617215E+02 0.  0.
         23    2    4    4    0    0 -0.40162249337E+03 -0.10171676067E+03 -0.26119733321E+03  0.49793219163E+03  0.89808095372E+02 0.  0.
          2    1    3    3  502    0 -0.54714290253E+02  0.16754233193E+03 -0.15482372275E+03  0.23459427033E+03  0.00000000000E+00 0. -1.
         -1    1    3    3    0  502  0.21290092900E+02  0.22112575436E+02 -0.38206420769E+02  0.49009842237E+02  0.00000000000E+00 0.  1.
         13    1    5    5    0    0  0.42420713283E+03 -0.88395646217E+02 -0.85976035392E+03  0.96278416480E+03  0.00000000000E+00 0. -1.
        -13    1    5    5    0    0  0.10839557899E+02  0.45749952513E+00 -0.14021993509E+01  0.10939446251E+02  0.00000000000E+00 0.  1.
          2    1    6    6  503    0 -0.21265169591E+03 -0.95514410580E+02 -0.12173205602E+03  0.26298752796E+03  0.00000000000E+00 0.  1.
         -2    1    6    6    0  503 -0.18897079746E+03 -0.62023500938E+01 -0.13946527719E+03  0.23494466366E+03  0.00000000000E+00 0. -1.
<mgrwt>
<rscale>  0 0.11621904E+04</rscale>
<asrwt>0</asrwt>
<pdfrwt beam="1">  1        2 0.33836144E-01 0.11621904E+04</pdfrwt>
<pdfrwt beam="2">  1       -1 0.23620385E+00 0.11621904E+04</pdfrwt>
<totfact> 0.15176878E+01</totfact>
</mgrwt>
</event>
<event>
12    7  0.1606355E-007  0.1728419E+04  0.7818608E-02  0.8745320E-01
          2   -1    0    0  501    0  0.00000000000E+00  0.00000000000E+00  0.26757176296E+04  0.26757176296E+04  0.00000000000E+00 0. -1.
         -3   -1    0    0    0  501 -0.00000000000E+00 -0.00000000000E+00 -0.27912449455E+03  0.27912449455E+03  0.00000000000E+00 0.  1.
         24    2    1    2    0    0 -0.86940712506E+02 -0.60158200873E+03  0.11912872517E+04  0.13397436086E+04  0.79297037613E+02 0.  0.
        254    2    1    2    0    0  0.86940712506E+02  0.60158200873E+03  0.12053058834E+04  0.16150985155E+04  0.88674762001E+03 0.  0.
         23    2    4    4    0    0  0.26170605373E+03  0.45212009571E+02  0.84267977347E+01  0.28107908670E+03  0.91652919728E+02 0.  0.
         23    2    4    4    0    0 -0.17476534122E+03  0.55636999916E+03  0.11968790857E+04  0.13340194288E+04  0.83652796316E+02 0.  0.
          4    1    3    3  502    0 -0.51590330820E+02 -0.31086828399E+03  0.70249316607E+03  0.76993330919E+03  0.00000000000E+00 0. -1.
         -3    1    3    3    0  502 -0.35350381686E+02 -0.29071372474E+03  0.48879408558E+03  0.56981029943E+03  0.00000000000E+00 0.  1.
         13    1    5    5    0    0  0.19988452780E+03  0.62943976811E+02 -0.20495656259E+02  0.21056077649E+03  0.00000000000E+00 0.  1.
        -13    1    5    5    0    0  0.61821525926E+02 -0.17731967241E+02  0.28922453994E+02  0.70518310212E+02  0.00000000000E+00 0. -1.
          2    1    6    6  503    0 -0.78618776415E+02  0.13759896521E+03  0.35792673210E+03  0.39144084200E+03  0.00000000000E+00 0. -1.
         -2    1    6    6    0  503 -0.96146564806E+02  0.41877103395E+03  0.83895235357E+03  0.94257858683E+03  0.00000000000E+00 0.  1.
<mgrwt>
<rscale>  0 0.17284193E+04</rscale>
<asrwt>0</asrwt>
<pdfrwt beam="1">  1        2 0.41164885E+00 0.17284193E+04</pdfrwt>
<pdfrwt beam="2">  1       -3 0.42942232E-01 0.17284193E+04</pdfrwt>
<totfact> 0.91073422E+00</totfact>
</mgrwt>
</event>
<event>
12    7  0.1606355E-007  0.3493289E+04  0.7818608E-02  0.8115382E-01
         -1   -1    0    0    0  501 -0.00000000000E+00  0.00000000000E+00  0.16152292064E+04  0.16152292064E+04  0.00000000000E+00 0.  1.
          2   -1    0    0  501    0  0.00000000000E+00 -0.00000000000E+00 -0.18887514666E+04  0.18887514666E+04  0.00000000000E+00 0. -1.
         24    2    1    2    0    0 -0.10075025138E+03 -0.82902047488E+03 -0.15306843850E+04  0.17455555796E+04  0.80895204164E+02 0.  0.
        254    2    1    2    0    0  0.10075025138E+03  0.82902047488E+03  0.12571621248E+04  0.17584250934E+04  0.90231737219E+03 0.  0.
         23    2    4    4    0    0 -0.18366433440E+03  0.10937414824E+02 -0.27275736782E+02  0.20667107248E+03  0.90093016431E+02 0.  0.
         23    2    4    4    0    0  0.28441458577E+03  0.81808306005E+03  0.12844378616E+04  0.15517540209E+04  0.89489504574E+02 0.  0.
          2    1    3    3  502    0 -0.65067910273E+02 -0.67593783915E+03 -0.12953960573E+04  0.14625924725E+04  0.00000000000E+00 0. -1.
         -1    1    3    3    0  502 -0.35682341102E+02 -0.15308263573E+03 -0.23528832777E+03  0.28296310716E+03  0.00000000000E+00 0.  1.
         13    1    5    5    0    0 -0.11336980346E+03 -0.32642292107E+02 -0.36396520882E+02  0.12346229507E+03  0.00000000000E+00 0.  1.
        -13    1    5    5    0    0 -0.70294530937E+02  0.43579706931E+02  0.91207840996E+01  0.83208777412E+02  0.00000000000E+00 0. -1.
          3    1    6    6  503    0  0.39415317398E+02  0.21243086800E+03  0.35737513150E+03  0.41760917799E+03  0.00000000000E+00 0. -1.
         -3    1    6    6    0  503  0.24499926837E+03  0.60565219205E+03  0.92706273010E+03  0.11341448429E+04  0.00000000000E+00 0.  1.
<mgrwt>
<rscale>  0 0.34932887E+04</rscale>
<asrwt>0</asrwt>
<pdfrwt beam="1">  1        2 0.29057715E+00 0.34932887E+04</pdfrwt>
<pdfrwt beam="2">  1       -1 0.24849680E+00 0.34932887E+04</pdfrwt>
<totfact> 0.51388463E-01</totfact>
</mgrwt>
</event>
<event>
12    7  0.1606355E-007  0.1273808E+04  0.7818608E-02  0.9050598E-01
         -1   -1    0    0    0  501 -0.00000000000E+00  0.00000000000E+00  0.19677553792E+03  0.19677553792E+03  0.00000000000E+00 0.  1.
          2   -1    0    0  501    0  0.00000000000E+00 -0.00000000000E+00 -0.20614685945E+04  0.20614685945E+04  0.00000000000E+00 0. -1.
         24    2    1    2    0    0  0.16478032524E+02 -0.55832024689E+02 -0.10129830157E+04  0.10178510337E+04  0.80606427985E+02 0.  0.
        254    2    1    2    0    0 -0.16478032524E+02  0.55832024689E+02 -0.85171004090E+03  0.12403930987E+04  0.89987571644E+03 0.  0.
         23    2    4    4    0    0 -0.23558761442E+03  0.33965700855E+03 -0.15411310562E+03  0.45083145083E+03  0.92896395017E+02 0.  0.
         23    2    4    4    0    0  0.21910958190E+03 -0.28382498386E+03 -0.69759693528E+03  0.78956164788E+03  0.90556509179E+02 0.  0.
          2    1    3    3  502    0  0.72994438542E+01 -0.56500389946E+02 -0.10015741835E+04  0.10031931125E+04  0.00000000000E+00 0. -1.
         -1    1    3    3    0  502  0.91785886697E+01  0.66836525739E+00 -0.11408832185E+02  0.14657921200E+02  0.00000000000E+00 0.  1.
         13    1    5    5    0    0 -0.19799254010E+03  0.26367364975E+03 -0.15868815056E+03  0.36593273786E+03  0.00000000000E+00 0.  1.
        -13    1    5    5    0    0 -0.37595074323E+02  0.75983358799E+02  0.45750449438E+01  0.84898712970E+02  0.00000000000E+00 0. -1.
          4    1    6    6  503    0  0.43046852928E+02 -0.66026864006E+02 -0.24456872633E+03  0.25695610562E+03  0.00000000000E+00 0. -1.
         -4    1    6    6    0  503  0.17606272897E+03 -0.21779811985E+03 -0.45302820895E+03  0.53260554226E+03  0.00000000000E+00 0.  1.
<mgrwt>
<rscale>  0 0.12738078E+04</rscale>
<asrwt>0</asrwt>
<pdfrwt beam="1">  1        2 0.31714903E+00 0.12738078E+04</pdfrwt>
<pdfrwt beam="2">  1       -1 0.30273158E-01 0.12738078E+04</pdfrwt>
<totfact> 0.69448027E+01</totfact>
</mgrwt>
</event>
<event>
12    7  0.1606355E-007  0.1367234E+04  0.7818608E-02  0.8977884E-01
         -1   -1    0    0    0  501 -0.00000000000E+00  0.00000000000E+00  0.16634434440E+03  0.16634434440E+03  0.00000000000E+00 0.  1.
          2   -1    0    0  501    0  0.00000000000E+00 -0.00000000000E+00 -0.28094254216E+04  0.28094254216E+04  0.00000000000E+00 0. -1.
         24    2    1    2    0    0 -0.21963134971E+03 -0.51005767208E+02 -0.77867144550E+02  0.24977280359E+03  0.74051624870E+02 0.  0.
        254    2    1    2    0    0  0.21963134971E+03  0.51005767208E+02 -0.25652139326E+04  0.27259969624E+04  0.89436983444E+03 0.  0.
         23    2    4    4    0    0  0.37104869346E+02 -0.81509653060E+02  0.17576183833E+02  0.13177578801E+03  0.95054411763E+02 0.  0.
         23    2    4    4    0    0  0.18252648037E+03  0.13251542027E+03 -0.25827901165E+04  0.25942211744E+04  0.91117853846E+02 0.  0.
          4    1    3    3  502    0  0.36271631339E+01  0.29652979534E+01  0.37630331319E+01  0.60091366022E+01  0.00000000000E+00 0. -1.
         -3    1    3    3    0  502 -0.22325851285E+03 -0.53971065162E+02 -0.81630177682E+02  0.24376366699E+03  0.00000000000E+00 0.  1.
         13    1    5    5    0    0  0.55478772800E+02 -0.30832909392E+02 -0.19444534016E+02  0.66382621491E+02  0.00000000000E+00 0. -1.
        -13    1    5    5    0    0 -0.18373903454E+02 -0.50676743668E+02  0.37020717849E+02  0.65393166516E+02  0.00000000000E+00 0.  1.
          4    1    6    6  503    0 -0.40298408879E+00 -0.99274457573E+01 -0.61941744720E+02  0.62733534210E+02  0.00000000000E+00 0. -1.
         -4    1    6    6    0  503  0.18292946446E+03  0.14244286603E+03 -0.25208483718E+04  0.25314876402E+04  0.00000000000E+00 0.  1.
<mgrwt>
<rscale>  0 0.13672337E+04</rscale>
<asrwt>0</asrwt>
<pdfrwt beam="1">  1        2 0.43221931E+00 0.13672337E+04</pdfrwt>
<pdfrwt beam="2">  1       -1 0.25591437E-01 0.13672337E+04</pdfrwt>
<totfact> 0.34367860E+01</totfact>
</mgrwt>
</event>
<event>
12    7  0.1606355E-007  0.1640922E+04  0.7818608E-02  0.8795795E-01
         -1   -1    0    0    0  501 -0.00000000000E+00  0.00000000000E+00  0.22067920053E+04  0.22067920053E+04  0.00000000000E+00 0.  1.
          2   -1    0    0  501    0  0.00000000000E+00 -0.00000000000E+00 -0.30503826358E+03  0.30503826358E+03  0.00000000000E+00 0. -1.
         24    2    1    2    0    0  0.14620006489E+03 -0.23362141500E+03  0.12605933254E+04  0.12929498260E+04  0.81671880144E+02 0.  0.
        254    2    1    2    0    0 -0.14620006489E+03  0.23362141500E+03  0.64116041633E+03  0.12188804429E+04  0.99931448005E+03 0.  0.
         23    2    4    4    0    0  0.18002974409E+03  0.33628014550E+03  0.75103837702E+03  0.84755939650E+03  0.93825592553E+02 0.  0.
         23    2    4    4    0    0 -0.32622980898E+03 -0.10265873050E+03 -0.10987796069E+03  0.37132104637E+03  0.94028984992E+02 0.  0.
          4    1    3    3  502    0  0.14745923584E+02 -0.39290064424E+01  0.17089991720E+03  0.17157989700E+03  0.00000000000E+00 0. -1.
         -3    1    3    3    0  502  0.13145414131E+03 -0.22969240856E+03  0.10896934082E+04  0.11213699290E+04  0.00000000000E+00 0.  1.
         13    1    5    5    0    0  0.13275846526E+03  0.17264816736E+03  0.48520468170E+03  0.53184187776E+03  0.00000000000E+00 0. -1.
        -13    1    5    5    0    0  0.47271278832E+02  0.16363197814E+03  0.26583369532E+03  0.31571751874E+03  0.00000000000E+00 0.  1.
          3    1    6    6  503    0 -0.14291842188E+03 -0.42630108017E+02 -0.97191205097E+02  0.17801441450E+03  0.00000000000E+00 0. -1.
         -3    1    6    6    0  503 -0.18331138710E+03 -0.60028622483E+02 -0.12686755597E+02  0.19330663188E+03  0.00000000000E+00 0.  1.
<mgrwt>
<rscale>  0 0.16409217E+04</rscale>
<asrwt>0</asrwt>
<pdfrwt beam="1">  1        2 0.46928965E-01 0.16409217E+04</pdfrwt>
<pdfrwt beam="2">  1       -1 0.33950645E+00 0.16409217E+04</pdfrwt>
<totfact> 0.21566633E+00</totfact>
</mgrwt>
</event>
<event>
12    7  0.1606355E-007  0.1532515E+04  0.7818608E-02  0.8863114E-01
         -1   -1    0    0    0  501 -0.00000000000E+00  0.00000000000E+00  0.26920808312E+03  0.26920808312E+03  0.00000000000E+00 0.  1.
          2   -1    0    0  501    0  0.00000000000E+00 -0.00000000000E+00 -0.21810289450E+04  0.21810289450E+04  0.00000000000E+00 0. -1.
         24    2    1    2    0    0  0.29491580898E+03 -0.37109382097E+03 -0.39110576823E+03  0.61950796404E+03  0.78360941881E+02 0.  0.
        254    2    1    2    0    0 -0.29491580898E+03  0.37109382097E+03 -0.15207150937E+04  0.18307290641E+04  0.90239046519E+03 0.  0.
         23    2    4    4    0    0 -0.47941544356E+03  0.16712475550E+03 -0.34757900004E+03  0.62214636596E+03  0.92114537330E+02 0.  0.
         23    2    4    4    0    0  0.18449963458E+03  0.20396906547E+03 -0.11731360936E+04  0.12085826981E+04  0.93703517615E+02 0.  0.
          4    1    3    3  502    0 -0.29551243312E+00 -0.22373781701E+02 -0.99024177652E+01  0.24468986754E+02  0.00000000000E+00 0. -1.
         -3    1    3    3    0  502  0.29521132142E+03 -0.34872003927E+03 -0.38120335047E+03  0.59503897729E+03  0.00000000000E+00 0.  1.
         13    1    5    5    0    0 -0.40031726028E+03  0.12208983103E+03 -0.24479969998E+03  0.48485743145E+03  0.00000000000E+00 0. -1.
        -13    1    5    5    0    0 -0.79098183280E+02  0.45034924471E+02 -0.10277930005E+03  0.13728893451E+03  0.00000000000E+00 0.  1.
          3    1    6    6  503    0  0.62025816764E+02  0.13647504248E+03 -0.65186910540E+03  0.66888412280E+03  0.00000000000E+00 0. -1.
         -3    1    6    6    0  503  0.12247381782E+03  0.67494022987E+02 -0.52126698823E+03  0.53969857532E+03  0.00000000000E+00 0.  1.
<mgrwt>
<rscale>  0 0.15325151E+04</rscale>
<asrwt>0</asrwt>
<pdfrwt beam="1">  1        2 0.33554291E+00 0.15325151E+04</pdfrwt>
<pdfrwt beam="2">  1       -1 0.41416629E-01 0.15325151E+04</pdfrwt>
<totfact> 0.33222699E+01</totfact>
</mgrwt>
</event>
<event>
12    7  0.1606355E-007  0.3006076E+04  0.7818608E-02  0.8241998E-01
         -1   -1    0    0    0  501 -0.00000000000E+00  0.00000000000E+00  0.61103735808E+03  0.61103735808E+03  0.00000000000E+00 0.  1.
          2   -1    0    0  501    0  0.00000000000E+00 -0.00000000000E+00 -0.36971941206E+04  0.36971941206E+04  0.00000000000E+00 0. -1.
         24    2    1    2    0    0 -0.48301861174E+03 -0.10094794228E+04 -0.25971534527E+04  0.28291537253E+04  0.80926263543E+02 0.  0.
        254    2    1    2    0    0  0.48301861174E+03  0.10094794228E+04 -0.48900330976E+03  0.14790777533E+04  0.83438065597E+03 0.  0.
         23    2    4    4    0    0  0.27257322594E+03 -0.44430099484E+02  0.94382175215E+01  0.29081994132E+03  0.90647454878E+02 0.  0.
         23    2    4    4    0    0  0.21044538580E+03  0.10539095223E+04 -0.49844152728E+03  0.11882578120E+04  0.92196150086E+02 0.  0.
          2    1    3    3  502    0 -0.45504624959E+03 -0.97374764239E+03 -0.24562149352E+04  0.26810899590E+04  0.00000000000E+00 0. -1.
         -1    1    3    3    0  502 -0.27972362152E+02 -0.35731780409E+02 -0.14093851750E+03  0.14806376630E+03  0.00000000000E+00 0.  1.
         13    1    5    5    0    0  0.18326007709E+03  0.14047800331E+02  0.99068589324E+01  0.18406450610E+03  0.00000000000E+00 0.  1.
        -13    1    5    5    0    0  0.89313148849E+02 -0.58477899815E+02 -0.46864141097E+00  0.10675543522E+03  0.00000000000E+00 0. -1.
          4    1    6    6  503    0  0.11996916380E+03  0.37611181743E+03 -0.17588218973E+03  0.43218889867E+03  0.00000000000E+00 0. -1.
         -4    1    6    6    0  503  0.90476222002E+02  0.67779770486E+03 -0.32255933756E+03  0.75606891333E+03  0.00000000000E+00 0.  1.
<mgrwt>
<rscale>  0 0.30060763E+04</rscale>
<asrwt>0</asrwt>
<pdfrwt beam="1">  1        2 0.56879911E+00 0.30060763E+04</pdfrwt>
<pdfrwt beam="2">  1       -1 0.94005746E-01 0.30060763E+04</pdfrwt>
<totfact> 0.62448646E-01</totfact>
</mgrwt>
</event>
<event>
12    7  0.1606355E-007  0.3006332E+04  0.7818608E-02  0.8241925E-01
         -1   -1    0    0    0  501 -0.00000000000E+00  0.00000000000E+00  0.84401810250E+03  0.84401810250E+03  0.00000000000E+00 0.  1.
          2   -1    0    0  501    0  0.00000000000E+00 -0.00000000000E+00 -0.26770847139E+04  0.26770847139E+04  0.00000000000E+00 0. -1.
         24    2    1    2    0    0 -0.30616645033E+03  0.14213297046E+03 -0.23848352478E+04  0.24098115772E+04  0.76243045722E+02 0.  0.
        254    2    1    2    0    0  0.30616645033E+03 -0.14213297046E+03  0.55176863641E+03  0.11112912392E+04  0.90364811376E+03 0.  0.
         23    2    4    4    0    0  0.25776752749E+03  0.22306233896E+03  0.63260991818E+03  0.72437515254E+03  0.91231287106E+02 0.  0.
         23    2    4    4    0    0  0.48398922835E+02 -0.36519530941E+03 -0.80841281768E+02  0.38691608662E+03  0.86363623686E+02 0.  0.
          2    1    3    3  502    0 -0.24850527103E+03  0.13779325633E+03 -0.18235854283E+04  0.18455908716E+04  0.00000000000E+00 0. -1.
         -1    1    3    3    0  502 -0.57661179301E+02  0.43397141240E+01 -0.56124981952E+03  0.56422070560E+03  0.00000000000E+00 0.  1.
         13    1    5    5    0    0  0.83653427787E+02  0.11000847946E+03  0.32612678790E+03  0.35420113399E+03  0.00000000000E+00 0.  1.
        -13    1    5    5    0    0  0.17411409971E+03  0.11305385949E+03  0.30648313028E+03  0.37017401855E+03  0.00000000000E+00 0. -1.
          3    1    6    6  503    0 -0.17583467864E+02 -0.19399010933E+02 -0.27729903249E+01  0.26328491082E+02  0.00000000000E+00 0. -1.
         -3    1    6    6    0  503  0.65982390699E+02 -0.34579629848E+03 -0.78068291443E+02  0.36058759554E+03  0.00000000000E+00 0.  1.
<mgrwt>
<rscale>  0 0.30063320E+04</rscale>
<asrwt>0</asrwt>
<pdfrwt beam="1">  1        2 0.41185918E+00 0.30063320E+04</pdfrwt>
<pdfrwt beam="2">  1       -1 0.12984894E+00 0.30063320E+04</pdfrwt>
<totfact> 0.13546603E+00</totfact>
</mgrwt>
</event>
<event>
12    7  0.1606355E-007  0.2430201E+04  0.7818608E-02  0.8428282E-01
         -1   -1    0    0    0  501 -0.00000000000E+00  0.00000000000E+00  0.40856323773E+03  0.40856323773E+03  0.00000000000E+00 0.  1.
          2   -1    0    0  501    0  0.00000000000E+00 -0.00000000000E+00 -0.36138093521E+04  0.36138093521E+04  0.00000000000E+00 0. -1.
         24    2    1    2    0    0  0.77841224385E+03 -0.66129060919E+03 -0.10013687291E+04  0.14321945934E+04  0.72188161420E+02 0.  0.
        254    2    1    2    0    0 -0.77841224385E+03  0.66129060919E+03 -0.22038773853E+04  0.25901779965E+04  0.89928617945E+03 0.  0.
         23    2    4    4    0    0 -0.60750990582E+03  0.22332284392E+03 -0.19315109476E+04  0.20391075136E+04  0.91013917437E+02 0.  0.
         23    2    4    4    0    0 -0.17090233804E+03  0.43796776527E+03 -0.27236643776E+03  0.55107048285E+03  0.92042534113E+02 0.  0.
          2    1    3    3  502    0  0.35468919812E+03 -0.25986807449E+03 -0.45367582987E+03  0.63178920694E+03  0.00000000000E+00 0. -1.
         -1    1    3    3    0  502  0.42372304574E+03 -0.40142253470E+03 -0.54769289920E+03  0.80040538647E+03  0.00000000000E+00 0.  1.
         13    1    5    5    0    0 -0.22246507311E+03  0.12636175451E+03 -0.71089642801E+03  0.75553407145E+03  0.00000000000E+00 0.  1.
        -13    1    5    5    0    0 -0.38504483271E+03  0.96961089413E+02 -0.12206145196E+04  0.12835734422E+04  0.00000000000E+00 0. -1.
          4    1    6    6  503    0 -0.86104288980E+02  0.24772081147E+03 -0.20262263187E+03  0.33141436294E+03  0.00000000000E+00 0. -1.
         -4    1    6    6    0  503 -0.84798049056E+02  0.19024695380E+03 -0.69743805894E+02  0.21965611991E+03  0.00000000000E+00 0.  1.
<mgrwt>
<rscale>  0 0.24302013E+04</rscale>
<asrwt>0</asrwt>
<pdfrwt beam="1">  1        2 0.55597067E+00 0.24302013E+04</pdfrwt>
<pdfrwt beam="2">  1       -1 0.62855882E-01 0.24302013E+04</pdfrwt>
<totfact> 0.17712617E+00</totfact>
</mgrwt>
</event>
<event>
12    7  0.1606355E-007  0.1177423E+04  0.7818608E-02  0.9132851E-01
          2   -1    0    0  501    0  0.00000000000E+00  0.00000000000E+00  0.15646859650E+04  0.15646859650E+04  0.00000000000E+00 0. -1.
         -3   -1    0    0    0  501 -0.00000000000E+00 -0.00000000000E+00 -0.22150216253E+03  0.22150216253E+03  0.00000000000E+00 0.  1.
         24    2    1    2    0    0 -0.22629446461E+03 -0.49323469624E+02  0.38097595613E+03  0.45273503131E+03  0.78640575177E+02 0.  0.
        254    2    1    2    0    0  0.22629446461E+03  0.49323469624E+02  0.96220784639E+03  0.13334530963E+04  0.89365050826E+03 0.  0.
         23    2    4    4    0    0  0.80313439276E+02  0.41131346040E+03  0.78532839089E+03  0.89411871270E+03  0.84134295248E+02 0.  0.
         23    2    4    4    0    0  0.14598102533E+03 -0.36198999077E+03  0.17687945550E+03  0.43933438356E+03  0.96856314329E+02 0.  0.
          4    1    3    3  502    0 -0.99412973839E+02 -0.61043916355E+02  0.19677196725E+03  0.22875424846E+03  0.00000000000E+00 0. -1.
         -3    1    3    3    0  502 -0.12688149077E+03  0.11720446731E+02  0.18420398887E+03  0.22398078285E+03  0.00000000000E+00 0.  1.
         13    1    5    5    0    0  0.51741651821E+02  0.82962959729E+02  0.17265106594E+03  0.19841482251E+03  0.00000000000E+00 0.  1.
        -13    1    5    5    0    0  0.28571787455E+02  0.32835050067E+03  0.61267732495E+03  0.69570389020E+03  0.00000000000E+00 0. -1.
          1    1    6    6  503    0  0.12837656429E+02  0.53403014586E+00 -0.31573787850E+01  0.13231010981E+02  0.00000000000E+00 0.  1.
         -1    1    6    6    0  503  0.13314336890E+03 -0.36252402092E+03  0.18003683429E+03  0.42610337258E+03  0.00000000000E+00 0. -1.
<mgrwt>
<rscale>  0 0.11774232E+04</rscale>
<asrwt>0</asrwt>
<pdfrwt beam="1">  1        2 0.24072091E+00 0.11774232E+04</pdfrwt>
<pdfrwt beam="2">  1       -3 0.34077257E-01 0.11774232E+04</pdfrwt>
<totfact> 0.63072590E+01</totfact>
</mgrwt>
</event>
<event>
12    7  0.1606355E-007  0.2069554E+04  0.7818608E-02  0.8574775E-01
         -1   -1    0    0    0  501 -0.00000000000E+00  0.00000000000E+00  0.77403606910E+03  0.77403606910E+03  0.00000000000E+00 0.  1.
          2   -1    0    0  501    0  0.00000000000E+00 -0.00000000000E+00 -0.13833510707E+04  0.13833510707E+04  0.00000000000E+00 0. -1.
         24    2    1    2    0    0 -0.13117828667E+03 -0.66680140236E+03  0.26286331555E+03  0.73314734071E+03  0.81092832224E+02 0.  0.
        254    2    1    2    0    0  0.13117828667E+03  0.66680140236E+03 -0.87217831719E+03  0.14242397991E+04  0.89773723068E+03 0.  0.
         23    2    4    4    0    0  0.18597237439E+03  0.43400174468E+03 -0.10210219910E+04  0.11284915144E+04  0.89799518857E+02 0.  0.
         23    2    4    4    0    0 -0.54794087721E+02  0.23279965769E+03  0.14884367376E+03  0.29574828475E+03  0.90080719631E+02 0.  0.
          2    1    3    3  502    0  0.83544968389E+01 -0.37153294130E+02  0.43008523955E+01  0.38323128962E+02  0.00000000000E+00 0. -1.
         -1    1    3    3    0  502 -0.13953278350E+03 -0.62964810823E+03  0.25856246316E+03  0.69482421174E+03  0.00000000000E+00 0.  1.
         13    1    5    5    0    0  0.75766587396E+02  0.26429171054E+03 -0.65272678370E+03  0.70826756116E+03  0.00000000000E+00 0. -1.
        -13    1    5    5    0    0  0.11020578699E+03  0.16971003414E+03 -0.36829520725E+03  0.42022395321E+03  0.00000000000E+00 0.  1.
          1    1    6    6  503    0  0.21982461311E+01  0.81018258166E+02  0.95083899737E+02  0.12493893881E+03  0.00000000000E+00 0. -1.
         -1    1    6    6    0  503 -0.56992333852E+02  0.15178139952E+03  0.53759774019E+02  0.17080934594E+03  0.00000000000E+00 0.  1.
<mgrwt>
<rscale>  0 0.20695542E+04</rscale>
<asrwt>0</asrwt>
<pdfrwt beam="1">  1        2 0.21282324E+00 0.20695542E+04</pdfrwt>
<pdfrwt beam="2">  1       -1 0.11908247E+00 0.20695542E+04</pdfrwt>
<totfact> 0.98251265E+00</totfact>
</mgrwt>
</event>
<event>
12    7  0.1606355E-007  0.2167455E+04  0.7818608E-02  0.8532097E-01
          2   -1    0    0  501    0  0.00000000000E+00  0.00000000000E+00  0.28995671789E+04  0.28995671789E+04  0.00000000000E+00 0. -1.
         -1   -1    0    0    0  501 -0.00000000000E+00 -0.00000000000E+00 -0.40504842932E+03  0.40504842932E+03  0.00000000000E+00 0.  1.
         24    2    1    2    0    0  0.20842390284E+02 -0.49670609044E+03 -0.10146510881E+03  0.51328979658E+03  0.77588023900E+02 0.  0.
        254    2    1    2    0    0 -0.20842390284E+02  0.49670609044E+03  0.25959838584E+04  0.27913258117E+04  0.89733842456E+03 0.  0.
         23    2    4    4    0    0  0.28067069287E+03 -0.11378213604E+03  0.11165180816E+04  0.11605135942E+04  0.91960662506E+02 0.  0.
         23    2    4    4    0    0 -0.30151308315E+03  0.61048822648E+03  0.14794657768E+04  0.16308122175E+04  0.84400769600E+02 0.  0.
          4    1    3    3  502    0 -0.22952673905E+02 -0.85779021177E+02 -0.50666044933E+01  0.88941195149E+02  0.00000000000E+00 0. -1.
         -3    1    3    3    0  502  0.43795064189E+02 -0.41092706926E+03 -0.96398504318E+02  0.42434860143E+03  0.00000000000E+00 0.  1.
         13    1    5    5    0    0  0.25971814176E+03 -0.12850208138E+03  0.10495627391E+04  0.10888288393E+04  0.00000000000E+00 0. -1.
        -13    1    5    5    0    0  0.20952551104E+02  0.14719945338E+02  0.66955342527E+02  0.71684754874E+02  0.00000000000E+00 0.  1.
          2    1    6    6  503    0 -0.23269153906E+03  0.51247218559E+03  0.11521224051E+04  0.12822476865E+04  0.00000000000E+00 0. -1.
         -2    1    6    6    0  503 -0.68821544089E+02  0.98016040886E+02  0.32734337179E+03  0.34856453098E+03  0.00000000000E+00 0.  1.
<mgrwt>
<rscale>  0 0.21674548E+04</rscale>
<asrwt>0</asrwt>
<pdfrwt beam="1">  1        2 0.44608725E+00 0.21674548E+04</pdfrwt>
<pdfrwt beam="2">  1       -1 0.62315145E-01 0.21674548E+04</pdfrwt>
<totfact> 0.54820594E+00</totfact>
</mgrwt>
</event>
<event>
12    7  0.1606355E-007  0.1263610E+04  0.7818608E-02  0.9058931E-01
          2   -1    0    0  501    0  0.00000000000E+00  0.00000000000E+00  0.18135948080E+04  0.18135948080E+04  0.00000000000E+00 0. -1.
         -1   -1    0    0    0  501 -0.00000000000E+00 -0.00000000000E+00 -0.22010300654E+03  0.22010300654E+03  0.00000000000E+00 0.  1.
         24    2    1    2    0    0 -0.92067279411E+02 -0.26223167469E+03  0.14044598076E+03  0.32164899916E+03  0.80567797548E+02 0.  0.
        254    2    1    2    0    0  0.92067279411E+02  0.26223167469E+03  0.14530458207E+04  0.17120488154E+04  0.86170015320E+03 0.  0.
         23    2    4    4    0    0 -0.26579041121E+03  0.41378654703E+03  0.71154726460E+03  0.86996173868E+03  0.93113198967E+02 0.  0.
         23    2    4    4    0    0  0.35785769062E+03 -0.15155487234E+03  0.74149855614E+03  0.84208707673E+03  0.90881956215E+02 0.  0.
          4    1    3    3  502    0  0.83302100593E+01 -0.30419438762E+02 -0.20601862736E+01  0.31606629395E+02  0.00000000000E+00 0. -1.
         -3    1    3    3    0  502 -0.10039748947E+03 -0.23181223593E+03  0.14250616703E+03  0.29004236976E+03  0.00000000000E+00 0.  1.
         13    1    5    5    0    0 -0.45512948052E+02  0.42107426268E+02  0.49176683938E+02  0.79137917779E+02  0.00000000000E+00 0. -1.
        -13    1    5    5    0    0 -0.22027746316E+03  0.37167912076E+03  0.66237058066E+03  0.79082382090E+03  0.00000000000E+00 0.  1.
          4    1    6    6  503    0  0.25023001695E+03 -0.11024415151E+03  0.42620962192E+03  0.50638273682E+03  0.00000000000E+00 0.  1.
         -4    1    6    6    0  503  0.10762767367E+03 -0.41310720830E+02  0.31528893422E+03  0.33570433991E+03  0.00000000000E+00 0. -1.
<mgrwt>
<rscale>  0 0.12636102E+04</rscale>
<asrwt>0</asrwt>
<pdfrwt beam="1">  1        2 0.27901458E+00 0.12636102E+04</pdfrwt>
<pdfrwt beam="2">  1       -1 0.33862002E-01 0.12636102E+04</pdfrwt>
<totfact> 0.78168307E+01</totfact>
</mgrwt>
</event>
<event>
12    7  0.1606355E-007  0.2227537E+04  0.7818608E-02  0.8507053E-01
         -3   -1    0    0    0  501 -0.00000000000E+00  0.00000000000E+00  0.17321717799E+04  0.17321717799E+04  0.00000000000E+00 0.  1.
          4   -1    0    0  501    0  0.00000000000E+00 -0.00000000000E+00 -0.71614129318E+03  0.71614129318E+03  0.00000000000E+00 0. -1.
         24    2    1    2    0    0  0.58309988357E+03  0.70962987799E+03  0.39350203180E+03  0.10023101765E+04  0.78751526054E+02 0.  0.
        254    2    1    2    0    0 -0.58309988357E+03 -0.70962987799E+03  0.62252845496E+03  0.14460028967E+04  0.92725544590E+03 0.  0.
         23    2    4    4    0    0  0.13874579039E+03 -0.48665284397E+02 -0.12290266830E+03  0.21183955172E+03  0.90289675711E+02 0.  0.
         23    2    4    4    0    0 -0.72184567395E+03 -0.66096459360E+03  0.74543112326E+03  0.12341633449E+04  0.97755979242E+02 0.  0.
          2    1    3    3  502    0  0.78103234906E+02  0.61075171499E+02  0.30371248159E+02  0.10369524864E+03  0.00000000000E+00 0. -1.
         -1    1    3    3    0  502  0.50499664866E+03  0.64855470649E+03  0.36313078364E+03  0.89861492782E+03  0.00000000000E+00 0.  1.
         13    1    5    5    0    0  0.12328700183E+03 -0.20002939141E+02 -0.54881889490E+02  0.13642515966E+03  0.00000000000E+00 0. -1.
        -13    1    5    5    0    0  0.15458788560E+02 -0.28662345255E+02 -0.68020778812E+02  0.75414392058E+02  0.00000000000E+00 0.  1.
          1    1    6    6  503    0 -0.67837474198E+03 -0.62729421981E+03  0.72857274871E+03  0.11766514263E+04  0.00000000000E+00 0. -1.
         -1    1    6    6    0  503 -0.43470931975E+02 -0.33670373781E+02  0.16858374550E+02  0.57511918676E+02  0.00000000000E+00 0.  1.
<mgrwt>
<rscale>  0 0.22275365E+04</rscale>
<asrwt>0</asrwt>
<pdfrwt beam="1">  1        4 0.11017558E+00 0.22275365E+04</pdfrwt>
<pdfrwt beam="2">  1       -3 0.26648796E+00 0.22275365E+04</pdfrwt>
<totfact> 0.80074308E-02</totfact>
</mgrwt>
</event>
<event>
12    7  0.1606355E-007  0.2516167E+04  0.7818608E-02  0.8397249E-01
          2   -1    0    0  501    0  0.00000000000E+00  0.00000000000E+00  0.20095943346E+04  0.20095943346E+04  0.00000000000E+00 0. -1.
         -1   -1    0    0    0  501 -0.00000000000E+00 -0.00000000000E+00 -0.78760861635E+03  0.78760861635E+03  0.00000000000E+00 0.  1.
         24    2    1    2    0    0  0.13618790125E+03 -0.90748803354E+03 -0.13162385571E+03  0.92897418586E+03  0.59887587471E+02 0.  0.
        254    2    1    2    0    0 -0.13618790125E+03  0.90748803354E+03  0.13536095740E+04  0.18682287651E+04  0.90329295607E+03 0.  0.
         23    2    4    4    0    0 -0.49236792453E+03  0.51359443403E+03  0.56812973949E+03  0.91535730808E+03  0.94351390025E+02 0.  0.
         23    2    4    4    0    0  0.35618002328E+03  0.39389359951E+03  0.78547983447E+03  0.95287145699E+03  0.94705155466E+02 0.  0.
          4    1    3    3  502    0  0.17651600708E+02 -0.59048502488E+02  0.33747421665E+01  0.61722714930E+02  0.00000000000E+00 0. -1.
         -1    1    3    3    0  502  0.11853630054E+03 -0.84843953105E+03 -0.13499859788E+03  0.86725147093E+03  0.00000000000E+00 0.  1.
         13    1    5    5    0    0 -0.48207217662E+03  0.51083587864E+03  0.54217650307E+03  0.88730053469E+03  0.00000000000E+00 0.  1.
        -13    1    5    5    0    0 -0.10295747908E+02  0.27585553885E+01  0.25953236411E+02  0.28056773389E+02  0.00000000000E+00 0. -1.
          4    1    6    6  503    0  0.60089567935E+02  0.62813759106E+02  0.74145511686E+02  0.11425358380E+03  0.00000000000E+00 0. -1.
         -4    1    6    6    0  503  0.29609045535E+03  0.33107984041E+03  0.71133432278E+03  0.83861787319E+03  0.00000000000E+00 0.  1.
<mgrwt>
<rscale>  0 0.25161668E+04</rscale>
<asrwt>0</asrwt>
<pdfrwt beam="1">  1        2 0.30916836E+00 0.25161668E+04</pdfrwt>
<pdfrwt beam="2">  1       -1 0.12117056E+00 0.25161668E+04</pdfrwt>
<totfact> 0.40428476E+00</totfact>
</mgrwt>
</event>
<event>
12    7  0.1606355E-007  0.1950899E+04  0.7818608E-02  0.8629927E-01
          2   -1    0    0  501    0  0.00000000000E+00  0.00000000000E+00  0.78993519035E+03  0.78993519035E+03  0.00000000000E+00 0. -1.
         -1   -1    0    0    0  501 -0.00000000000E+00 -0.00000000000E+00 -0.12045317388E+04  0.12045317388E+04  0.00000000000E+00 0.  1.
         24    2    1    2    0    0  0.18939413064E+03  0.41293186723E+03 -0.79111358178E+03  0.91564081861E+03  0.78450912804E+02 0.  0.
        254    2    1    2    0    0 -0.18939413064E+03 -0.41293186723E+03  0.37651703330E+03  0.10788261106E+04  0.90317098978E+03 0.  0.
         23    2    4    4    0    0 -0.33412871937E+02  0.10030551769E+03 -0.22671094066E+03  0.26659490973E+03  0.92181225784E+02 0.  0.
         23    2    4    4    0    0 -0.15598125870E+03 -0.51323738492E+03  0.60322797396E+03  0.81223120084E+03  0.89959817151E+02 0.  0.
          2    1    3    3  502    0  0.59050738995E+02  0.16084738904E+03 -0.22959534513E+03  0.28648367290E+03  0.00000000000E+00 0. -1.
         -1    1    3    3    0  502  0.13034339165E+03  0.25208447819E+03 -0.56151823666E+03  0.62915714570E+03  0.00000000000E+00 0.  1.
         13    1    5    5    0    0  0.27848529619E+02  0.35285005520E+02 -0.11555222139E+03  0.12398745132E+03  0.00000000000E+00 0. -1.
        -13    1    5    5    0    0 -0.61261401556E+02  0.65020512169E+02 -0.11115871927E+03  0.14260745840E+03  0.00000000000E+00 0.  1.
          1    1    6    6  503    0 -0.76558627305E+02 -0.12711046932E+03  0.14048269326E+03  0.20433717707E+03  0.00000000000E+00 0. -1.
         -1    1    6    6    0  503 -0.79422631399E+02 -0.38612691560E+03  0.46274528070E+03  0.60789402377E+03  0.00000000000E+00 0.  1.
<mgrwt>
<rscale>  0 0.19508993E+04</rscale>
<asrwt>0</asrwt>
<pdfrwt beam="1">  1        2 0.12152849E+00 0.19508993E+04</pdfrwt>
<pdfrwt beam="2">  1       -1 0.18531258E+00 0.19508993E+04</pdfrwt>
<totfact> 0.71111703E+00</totfact>
</mgrwt>
</event>
<event>
12    7  0.1606355E-007  0.2099625E+04  0.7818608E-02  0.8561409E-01
          2   -1    0    0  501    0  0.00000000000E+00  0.00000000000E+00  0.15455151207E+04  0.15455151207E+04  0.00000000000E+00 0. -1.
         -1   -1    0    0    0  501 -0.00000000000E+00 -0.00000000000E+00 -0.71309964630E+03  0.71309964630E+03  0.00000000000E+00 0.  1.
         24    2    1    2    0    0 -0.68578342474E+03 -0.33782752000E+03  0.75346599375E+03  0.10764904090E+04  0.81818445291E+02 0.  0.
        254    2    1    2    0    0  0.68578342474E+03  0.33782752000E+03  0.78949480662E+02  0.11821243580E+04  0.89819743845E+03 0.  0.
         23    2    4    4    0    0  0.59850173375E+03  0.61467344992E+03  0.13452149244E+03  0.87315118191E+03  0.90935027403E+02 0.  0.
         23    2    4    4    0    0  0.87281690991E+02 -0.27684592992E+03 -0.55572011777E+02  0.30897317612E+03  0.90080034288E+02 0.  0.
          4    1    3    3  502    0 -0.13477963680E+03 -0.63720712477E+02  0.19493435040E+03  0.24540839566E+03  0.00000000000E+00 0. -1.
         -3    1    3    3    0  502 -0.55100378794E+03 -0.27410680752E+03  0.55853164334E+03  0.83108201332E+03  0.00000000000E+00 0.  1.
         13    1    5    5    0    0  0.55242477231E+03  0.59039404929E+03  0.14074129717E+03  0.82069871160E+03  0.00000000000E+00 0.  1.
        -13    1    5    5    0    0  0.46076961435E+02  0.24279400626E+02 -0.62198047341E+01  0.52452470302E+02  0.00000000000E+00 0. -1.
          4    1    6    6  503    0  0.57177370684E+00 -0.14423712841E+03 -0.40500700184E+02  0.14981649726E+03  0.00000000000E+00 0.  1.
         -4    1    6    6    0  503  0.86709917284E+02 -0.13260880151E+03 -0.15071311593E+02  0.15915667886E+03  0.00000000000E+00 0. -1.
<mgrwt>
<rscale>  0 0.20996250E+04</rscale>
<asrwt>0</asrwt>
<pdfrwt beam="1">  1        2 0.23777156E+00 0.20996250E+04</pdfrwt>
<pdfrwt beam="2">  1       -1 0.10970764E+00 0.20996250E+04</pdfrwt>
<totfact> 0.96477326E+00</totfact>
</mgrwt>
</event>
<event>
12    7  0.1606355E-007  0.1931541E+04  0.7818608E-02  0.8639314E-01
          2   -1    0    0  501    0  0.00000000000E+00  0.00000000000E+00  0.30692591588E+04  0.30692591588E+04  0.00000000000E+00 0. -1.
         -1   -1    0    0    0  501 -0.00000000000E+00 -0.00000000000E+00 -0.30388854397E+03  0.30388854397E+03  0.00000000000E+00 0.  1.
         24    2    1    2    0    0 -0.55928533637E+03 -0.48559658043E+03  0.11511882067E+04  0.13715203195E+04  0.85026896597E+02 0.  0.
        254    2    1    2    0    0  0.55928533637E+03  0.48559658043E+03  0.16141824082E+04  0.20016273833E+04  0.92321352262E+03 0.  0.
         23    2    4    4    0    0  0.15876441624E+03  0.40261268027E+03  0.13265357354E+03  0.46194130528E+03  0.92139507101E+02 0.  0.
         23    2    4    4    0    0  0.40052092013E+03  0.82983900159E+02  0.14815288347E+04  0.15396860781E+04  0.91663492640E+02 0.  0.
          2    1    3    3  502    0 -0.48086173834E+03 -0.40175710085E+03  0.10209802242E+04  0.11979304644E+04  0.00000000000E+00 0. -1.
         -1    1    3    3    0  502 -0.78423598037E+02 -0.83839479583E+02  0.13020798251E+03  0.17358985505E+03  0.00000000000E+00 0.  1.
         13    1    5    5    0    0 -0.10642578590E+02  0.47580057173E+02  0.20472625552E+02  0.52879624778E+02  0.00000000000E+00 0. -1.
        -13    1    5    5    0    0  0.16940699483E+03  0.35503262310E+03  0.11218094799E+03  0.40906168050E+03  0.00000000000E+00 0.  1.
          1    1    6    6  503    0  0.83667233153E+02  0.39419497643E+02  0.22911669661E+03  0.24708007480E+03  0.00000000000E+00 0. -1.
         -1    1    6    6    0  503  0.31685368698E+03  0.43564402517E+02  0.12524121381E+04  0.12926060033E+04  0.00000000000E+00 0.  1.
<mgrwt>
<rscale>  0 0.19315410E+04</rscale>
<asrwt>0</asrwt>
<pdfrwt beam="1">  1        2 0.47219370E+00 0.19315410E+04</pdfrwt>
<pdfrwt beam="2">  1       -1 0.46752086E-01 0.19315410E+04</pdfrwt>
<totfact> 0.76567956E+00</totfact>
</mgrwt>
</event>
<event>
12    7  0.1606355E-007  0.2295956E+04  0.7818608E-02  0.8479517E-01
          2   -1    0    0  501    0  0.00000000000E+00  0.00000000000E+00  0.17926155626E+04  0.17926155626E+04  0.00000000000E+00 0. -1.
         -1   -1    0    0    0  501 -0.00000000000E+00 -0.00000000000E+00 -0.73515685718E+03  0.73515685718E+03  0.00000000000E+00 0.  1.
         24    2    1    2    0    0  0.75843335272E+03  0.43012833253E+03 -0.68951233195E+01  0.87557423167E+03  0.79694162131E+02 0.  0.
        254    2    1    2    0    0 -0.75843335272E+03 -0.43012833253E+03  0.10643538287E+04  0.16521981881E+04  0.91470117911E+03 0.  0.
         23    2    4    4    0    0 -0.53938037418E+03  0.20331425905E+03  0.56047126907E+03  0.80826194372E+03  0.83014759108E+02 0.  0.
         23    2    4    4    0    0 -0.21905297854E+03 -0.63344259158E+03  0.50388255964E+03  0.84393624436E+03  0.95378333049E+02 0.  0.
          4    1    3    3  502    0  0.14044182845E+03  0.11473489133E+03 -0.11836755792E+02  0.18173637846E+03  0.00000000000E+00 0. -1.
         -3    1    3    3    0  502  0.61799152426E+03  0.31539344119E+03  0.49416324724E+01  0.69383785320E+03  0.00000000000E+00 0.  1.
         13    1    5    5    0    0 -0.28270863336E+02  0.26535657738E+02  0.59807206075E+02  0.71276116224E+02  0.00000000000E+00 0. -1.
        -13    1    5    5    0    0 -0.51110951084E+03  0.17677860131E+03  0.50066406299E+03  0.73698582749E+03  0.00000000000E+00 0.  1.
          2    1    6    6  503    0 -0.96334974465E+02 -0.16403682791E+03  0.11644714047E+03  0.22304359381E+03  0.00000000000E+00 0. -1.
         -2    1    6    6    0  503 -0.12271800407E+03 -0.46940576367E+03  0.38743541917E+03  0.62089265056E+03  0.00000000000E+00 0.  1.
<mgrwt>
<rscale>  0 0.22959561E+04</rscale>
<asrwt>0</asrwt>
<pdfrwt beam="1">  1        2 0.27578701E+00 0.22959561E+04</pdfrwt>
<pdfrwt beam="2">  1       -1 0.11310106E+00 0.22959561E+04</pdfrwt>
<totfact> 0.64244440E+00</totfact>
</mgrwt>
</event>
<event>
12    7  0.1606355E-007  0.1892779E+04  0.7818608E-02  0.8658459E-01
          2   -1    0    0  501    0  0.00000000000E+00  0.00000000000E+00  0.10014792611E+04  0.10014792611E+04  0.00000000000E+00 0. -1.
         -1   -1    0    0    0  501 -0.00000000000E+00 -0.00000000000E+00 -0.89433027538E+03  0.89433027538E+03  0.00000000000E+00 0.  1.
         24    2    1    2    0    0 -0.18476884338E+02  0.58636284201E+03 -0.46876841362E+03  0.75522568788E+03  0.80369374029E+02 0.  0.
        254    2    1    2    0    0  0.18476884338E+02 -0.58636284201E+03  0.57591739937E+03  0.11405838486E+04  0.79062499780E+03 0.  0.
         23    2    4    4    0    0  0.25966279126E+03 -0.62872006081E+03  0.27040286507E+03  0.73778550717E+03  0.92174102207E+02 0.  0.
         23    2    4    4    0    0 -0.24118590692E+03  0.42357218805E+02  0.30551453430E+03  0.40279834148E+03  0.94565308361E+02 0.  0.
          2    1    3    3  502    0 -0.37082081599E+02  0.12487729119E+03 -0.10457176629E+03  0.16704691837E+03  0.00000000000E+00 0. -1.
         -1    1    3    3    0  502  0.18605197261E+02  0.46148555082E+03 -0.36419664732E+03  0.58817876951E+03  0.00000000000E+00 0.  1.
         13    1    5    5    0    0  0.18067612219E+03 -0.52929062473E+03  0.21368753253E+03  0.59871093870E+03  0.00000000000E+00 0.  1.
        -13    1    5    5    0    0  0.78986669070E+02 -0.99429436080E+02  0.56715332538E+02  0.13907456847E+03  0.00000000000E+00 0. -1.
          4    1    6    6  503    0 -0.95254245669E+02 -0.28776303600E+02  0.10251982079E+03  0.14286973305E+03  0.00000000000E+00 0. -1.
         -4    1    6    6    0  503 -0.14593166125E+03  0.71133522405E+02  0.20299471351E+03  0.25992860843E+03  0.00000000000E+00 0.  1.
<mgrwt>
<rscale>  0 0.18927791E+04</rscale>
<asrwt>0</asrwt>
<pdfrwt beam="1">  1        2 0.15407373E+00 0.18927791E+04</pdfrwt>
<pdfrwt beam="2">  1       -1 0.13758927E+00 0.18927791E+04</pdfrwt>
<totfact> 0.11785497E+01</totfact>
</mgrwt>
</event>
<event>
12    7  0.1606355E-007  0.1369964E+04  0.7818608E-02  0.8975851E-01
         -1   -1    0    0    0  501 -0.00000000000E+00  0.00000000000E+00  0.32358428127E+03  0.32358428127E+03  0.00000000000E+00 0.  1.
          2   -1    0    0  501    0  0.00000000000E+00 -0.00000000000E+00 -0.14500104296E+04  0.14500104296E+04  0.00000000000E+00 0. -1.
         24    2    1    2    0    0 -0.11188055313E+03  0.10486472200E+03 -0.78085936594E+03  0.79997830519E+03  0.81915025014E+02 0.  0.
        254    2    1    2    0    0  0.11188055313E+03 -0.10486472200E+03 -0.34556678239E+03  0.97361640567E+03  0.89721716224E+03 0.  0.
         23    2    4    4    0    0  0.48698829284E+03 -0.59184424622E+02 -0.30010752407E+03  0.58234394466E+03  0.91649061056E+02 0.  0.
         23    2    4    4    0    0 -0.37510773972E+03 -0.45680297379E+02 -0.45459258318E+02  0.39127246101E+03  0.90747389026E+02 0.  0.
          4    1    3    3  502    0 -0.50076058595E+02  0.33773539974E+02 -0.50237771424E+03  0.50599568319E+03  0.00000000000E+00 0. -1.
         -3    1    3    3    0  502 -0.61804494530E+02  0.71091182027E+02 -0.27848165170E+03  0.29398262200E+03  0.00000000000E+00 0.  1.
         13    1    5    5    0    0  0.34538601026E+03  0.26447706744E+00 -0.21303163785E+03  0.40580049871E+03  0.00000000000E+00 0. -1.
        -13    1    5    5    0    0  0.14160228258E+03 -0.59448901689E+02 -0.87075886222E+02  0.17654344594E+03  0.00000000000E+00 0.  1.
          2    1    6    6  503    0 -0.36226659184E+03 -0.52945876320E+02 -0.26255621584E+02  0.36705545501E+03  0.00000000000E+00 0. -1.
         -2    1    6    6    0  503 -0.12841147875E+02  0.72655789408E+01 -0.19203636735E+02  0.24217006006E+02  0.00000000000E+00 0.  1.
<mgrwt>
<rscale>  0 0.13699644E+04</rscale>
<asrwt>0</asrwt>
<pdfrwt beam="1">  1        2 0.22307853E+00 0.13699644E+04</pdfrwt>
<pdfrwt beam="2">  1       -1 0.49782197E-01 0.13699644E+04</pdfrwt>
<totfact> 0.60948783E+01</totfact>
</mgrwt>
</event>
<event>
12    7  0.1606355E-007  0.2228412E+04  0.7818608E-02  0.8506695E-01
         -1   -1    0    0    0  501 -0.00000000000E+00  0.00000000000E+00  0.41148020650E+03  0.41148020650E+03  0.00000000000E+00 0.  1.
          2   -1    0    0  501    0  0.00000000000E+00 -0.00000000000E+00 -0.30170466231E+04  0.30170466231E+04  0.00000000000E+00 0. -1.
         24    2    1    2    0    0 -0.42727418168E+03  0.14039574668E+03 -0.23463244956E+04  0.23903812913E+04  0.80061771294E+02 0.  0.
        254    2    1    2    0    0  0.42727418168E+03 -0.14039574668E+03 -0.25924192105E+03  0.10381455383E+04  0.89903592425E+03 0.  0.
         23    2    4    4    0    0  0.31942707681E+02 -0.11850335566E+03  0.30646529583E+03  0.34233278172E+03  0.90594558413E+02 0.  0.
         23    2    4    4    0    0  0.39533147400E+03 -0.21892391011E+02 -0.56570721687E+03  0.69581275661E+03  0.85816583002E+02 0.  0.
          4    1    3    3  502    0 -0.38331338495E+03  0.11477270577E+03 -0.19361807748E+04  0.19770933002E+04  0.00000000000E+00 0. -1.
         -3    1    3    3    0  502 -0.43960796728E+02  0.25623040910E+02 -0.41014372084E+03  0.41328799113E+03  0.00000000000E+00 0.  1.
         13    1    5    5    0    0 -0.13322919386E+02 -0.82402336649E+02  0.11363932052E+03  0.14100191642E+03  0.00000000000E+00 0. -1.
        -13    1    5    5    0    0  0.45265627066E+02 -0.36101019015E+02  0.19282597531E+03  0.20133086530E+03  0.00000000000E+00 0.  1.
          2    1    6    6  503    0  0.18279814623E+03  0.28090134611E+02 -0.22650683518E+03  0.29242018451E+03  0.00000000000E+00 0. -1.
         -2    1    6    6    0  503  0.21253332776E+03 -0.49982525622E+02 -0.33920038170E+03  0.40339257210E+03  0.00000000000E+00 0.  1.
<mgrwt>
<rscale>  0 0.22284120E+04</rscale>
<asrwt>0</asrwt>
<pdfrwt beam="1">  1        2 0.46416102E+00 0.22284120E+04</pdfrwt>
<pdfrwt beam="2">  1       -1 0.63304647E-01 0.22284120E+04</pdfrwt>
<totfact> 0.44659385E+00</totfact>
</mgrwt>
</event>
<event>
12    7  0.1606355E-007  0.2005338E+04  0.7818608E-02  0.8604129E-01
         -1   -1    0    0    0  501 -0.00000000000E+00  0.00000000000E+00  0.56560472483E+03  0.56560472483E+03  0.00000000000E+00 0.  1.
          2   -1    0    0  501    0  0.00000000000E+00 -0.00000000000E+00 -0.17774698215E+04  0.17774698215E+04  0.00000000000E+00 0. -1.
         24    2    1    2    0    0  0.28456023667E+03  0.27814403568E+03 -0.13169745384E+04  0.13781121979E+04  0.80203879607E+02 0.  0.
        254    2    1    2    0    0 -0.28456023667E+03 -0.27814403568E+03  0.10510944170E+03  0.96496234846E+03  0.87279190323E+03 0.  0.
         23    2    4    4    0    0 -0.19128239410E+03 -0.58678824753E+03  0.73960588475E+02  0.62794753923E+03  0.89098494078E+02 0.  0.
         23    2    4    4    0    0 -0.93277842570E+02  0.30864421185E+03  0.31148853227E+02  0.33701480923E+03  0.92987768883E+02 0.  0.
          2    1    3    3  502    0  0.21695716158E+03  0.18411875188E+03 -0.10318696062E+04  0.10703854488E+04  0.00000000000E+00 0. -1.
         -1    1    3    3    0  502  0.67603075082E+02  0.94025283801E+02 -0.28510493219E+03  0.30772674911E+03  0.00000000000E+00 0.  1.
         13    1    5    5    0    0 -0.12735135318E+03 -0.32112303127E+03  0.80142780539E+02  0.35462830349E+03  0.00000000000E+00 0. -1.
        -13    1    5    5    0    0 -0.63931040920E+02 -0.26566521626E+03 -0.61821920637E+01  0.27331923574E+03  0.00000000000E+00 0.  1.
          3    1    6    6  503    0 -0.11239981182E+03  0.25891188348E+03  0.27935496255E+02  0.28363616317E+03  0.00000000000E+00 0. -1.
         -3    1    6    6    0  503  0.19121969248E+02  0.49732328371E+02  0.32133569720E+01  0.53378646069E+02  0.00000000000E+00 0.  1.
<mgrwt>
<rscale>  0 0.20053382E+04</rscale>
<asrwt>0</asrwt>
<pdfrwt beam="1">  1        2 0.27345689E+00 0.20053382E+04</pdfrwt>
<pdfrwt beam="2">  1       -1 0.87016113E-01 0.20053382E+04</pdfrwt>
<totfact> 0.12217826E+01</totfact>
</mgrwt>
</event>
<event>
12    7  0.1606355E-007  0.1610801E+04  0.7818608E-02  0.8813940E-01
         -1   -1    0    0    0  501 -0.00000000000E+00  0.00000000000E+00  0.12662180243E+04  0.12662180243E+04  0.00000000000E+00 0.  1.
          2   -1    0    0  501    0  0.00000000000E+00 -0.00000000000E+00 -0.51228918709E+03  0.51228918709E+03  0.00000000000E+00 0. -1.
         24    2    1    2    0    0  0.33148866048E+03 -0.27770955649E+03  0.65582869002E+03  0.78954855127E+03  0.79172686964E+02 0.  0.
        254    2    1    2    0    0 -0.33148866048E+03  0.27770955649E+03  0.98100147172E+02  0.98895866010E+03  0.88397299887E+03 0.  0.
         23    2    4    4    0    0  0.19451196436E+03 -0.14826011759E+03 -0.97102084255E+02  0.27837034501E+03  0.90803455134E+02 0.  0.
         23    2    4    4    0    0 -0.52600062484E+03  0.42596967408E+03  0.19520223143E+03  0.71058831510E+03  0.93300706490E+02 0.  0.
          2    1    3    3  502    0  0.13798558382E+02  0.34256196137E+01  0.12442577072E+02  0.18893194736E+02  0.00000000000E+00 0. -1.
         -1    1    3    3    0  502  0.31769010209E+03 -0.28113517611E+03  0.64338611295E+03  0.77065535653E+03  0.00000000000E+00 0.  1.
         13    1    5    5    0    0  0.12992294757E+03 -0.14655803252E+03 -0.66122271346E+02  0.20671570809E+03  0.00000000000E+00 0. -1.
        -13    1    5    5    0    0  0.64589016789E+02 -0.17020850620E+01 -0.30979812910E+02  0.71654636914E+02  0.00000000000E+00 0.  1.
          1    1    6    6  503    0 -0.22551498850E+03  0.24172179977E+03  0.86088642434E+02  0.34161044023E+03  0.00000000000E+00 0. -1.
         -1    1    6    6    0  503 -0.30048563634E+03  0.18424787431E+03  0.10911358899E+03  0.36897787487E+03  0.00000000000E+00 0.  1.
<mgrwt>
<rscale>  0 0.16108008E+04</rscale>
<asrwt>0</asrwt>
<pdfrwt beam="1">  1        2 0.78813722E-01 0.16108008E+04</pdfrwt>
<pdfrwt beam="2">  1       -1 0.19480277E+00 0.16108008E+04</pdfrwt>
<totfact> 0.10718761E+01</totfact>
</mgrwt>
</event>
<event>
12    7  0.1606355E-007  0.1374832E+04  0.7818608E-02  0.8972241E-01
         -1   -1    0    0    0  501 -0.00000000000E+00  0.00000000000E+00  0.26684912103E+03  0.26684912103E+03  0.00000000000E+00 0.  1.
          2   -1    0    0  501    0  0.00000000000E+00 -0.00000000000E+00 -0.17708153792E+04  0.17708153792E+04  0.00000000000E+00 0. -1.
         24    2    1    2    0    0  0.18176784602E+03  0.32908791808E+03 -0.55899517293E+03  0.67868929715E+03  0.82493339339E+02 0.  0.
        254    2    1    2    0    0 -0.18176784602E+03 -0.32908791808E+03 -0.94497108520E+03  0.13589752030E+04  0.90139050523E+03 0.  0.
         23    2    4    4    0    0  0.12469655045E+03 -0.11107328353E+03  0.12116083562E+03  0.22481847728E+03  0.89313468340E+02 0.  0.
         23    2    4    4    0    0 -0.30646439647E+03 -0.21801463456E+03 -0.10661319208E+04  0.11341567258E+04  0.90682957558E+02 0.  0.
          2    1    3    3  502    0  0.89389574499E+02  0.15198362066E+03 -0.19076766743E+03  0.25977263119E+03  0.00000000000E+00 0. -1.
         -1    1    3    3    0  502  0.92378271517E+02  0.17710429742E+03 -0.36822750550E+03  0.41891666596E+03  0.00000000000E+00 0.  1.
         13    1    5    5    0    0  0.38005412568E+02 -0.37769772189E+02  0.93822521807E+02  0.10804458651E+03  0.00000000000E+00 0. -1.
        -13    1    5    5    0    0  0.86691137887E+02 -0.73303511338E+02  0.27338313816E+02  0.11677389077E+03  0.00000000000E+00 0.  1.
          2    1    6    6  503    0 -0.19842918839E+03 -0.90404330423E+02 -0.55138370336E+03  0.59293429155E+03  0.00000000000E+00 0.  1.
         -2    1    6    6    0  503 -0.10803520809E+03 -0.12761030413E+03 -0.51474821746E+03  0.54122243421E+03  0.00000000000E+00 0. -1.
<mgrwt>
<rscale>  0 0.13748317E+04</rscale>
<asrwt>0</asrwt>
<pdfrwt beam="1">  1        2 0.27243313E+00 0.13748317E+04</pdfrwt>
<pdfrwt beam="2">  1       -1 0.41053712E-01 0.13748317E+04</pdfrwt>
<totfact> 0.57776682E+01</totfact>
</mgrwt>
</event>
<event>
12    7  0.1606355E-007  0.2398014E+04  0.7818608E-02  0.8440247E-01
          2   -1    0    0  501    0  0.00000000000E+00  0.00000000000E+00  0.33994402788E+04  0.33994402788E+04  0.00000000000E+00 0. -1.
         -1   -1    0    0    0  501 -0.00000000000E+00 -0.00000000000E+00 -0.42289839965E+03  0.42289839965E+03  0.00000000000E+00 0.  1.
         24    2    1    2    0    0  0.23930123559E+03  0.64310455151E+03  0.46002196108E+02  0.69227478121E+03  0.79244085737E+02 0.  0.
        254    2    1    2    0    0 -0.23930123559E+03 -0.64310455151E+03  0.29305396830E+04  0.31300638972E+04  0.85929542145E+03 0.  0.
         23    2    4    4    0    0 -0.74761328987E+02 -0.82546021501E+03  0.23106917647E+04  0.24569487486E+04  0.10162135144E+03 0.  0.
         23    2    4    4    0    0 -0.16453990661E+03  0.18235566350E+03  0.61984791838E+03  0.67311514864E+03  0.92442374081E+02 0.  0.
          4    1    3    3  502    0  0.80014809884E+01  0.23753681354E+02  0.17422885693E+02  0.30525694452E+02  0.00000000000E+00 0. -1.
         -3    1    3    3    0  502  0.23129975461E+03  0.61935087016E+03  0.28579310416E+02  0.66174908676E+03  0.00000000000E+00 0.  1.
         13    1    5    5    0    0 -0.23136633799E+02 -0.46669313286E+02  0.19653398779E+03  0.20331978995E+03  0.00000000000E+00 0. -1.
        -13    1    5    5    0    0 -0.51624695188E+02 -0.77879090172E+03  0.21141577769E+04  0.22536289586E+04  0.00000000000E+00 0.  1.
          2    1    6    6  503    0 -0.28325887724E+02  0.18461582983E+01  0.13735423811E+03  0.14025673225E+03  0.00000000000E+00 0. -1.
         -2    1    6    6    0  503 -0.13621401888E+03  0.18050950520E+03  0.48249368028E+03  0.53285841639E+03  0.00000000000E+00 0.  1.
<mgrwt>
<rscale>  0 0.23980141E+04</rscale>
<asrwt>0</asrwt>
<pdfrwt beam="1">  1        2 0.52299079E+00 0.23980141E+04</pdfrwt>
<pdfrwt beam="2">  1       -1 0.65061295E-01 0.23980141E+04</pdfrwt>
<totfact> 0.23418109E+00</totfact>
</mgrwt>
</event>
<event>
12    7  0.1606355E-007  0.1805404E+04  0.7818608E-02  0.8703431E-01
         -1   -1    0    0    0  501 -0.00000000000E+00  0.00000000000E+00  0.59689615527E+03  0.59689615527E+03  0.00000000000E+00 0.  1.
          2   -1    0    0  501    0  0.00000000000E+00 -0.00000000000E+00 -0.13651803971E+04  0.13651803971E+04  0.00000000000E+00 0. -1.
         24    2    1    2    0    0 -0.57854572268E+03  0.11515338920E+03  0.11000808705E+03  0.60540895793E+03  0.80266872622E+02 0.  0.
        254    2    1    2    0    0  0.57854572268E+03 -0.11515338920E+03 -0.87829232890E+03  0.13566675945E+04  0.84921969511E+03 0.  0.
         23    2    4    4    0    0  0.20170315886E+03 -0.10790451849E+03 -0.93338615785E+03  0.96653080824E+03  0.10317235194E+03 0.  0.
         23    2    4    4    0    0  0.37684256383E+03 -0.72488707099E+01  0.55093828954E+02  0.39013678622E+03  0.84312027203E+02 0.  0.
          2    1    3    3  502    0 -0.37493286360E+03  0.11110929686E+03  0.85488760353E+02  0.40028521857E+03  0.00000000000E+00 0. -1.
         -1    1    3    3    0  502 -0.20361285908E+03  0.40440923381E+01  0.24519326699E+02  0.20512373936E+03  0.00000000000E+00 0.  1.
         13    1    5    5    0    0  0.14562845259E+03 -0.90850289499E+02 -0.48802439839E+03  0.51732894249E+03  0.00000000000E+00 0.  1.
        -13    1    5    5    0    0  0.56074706264E+02 -0.17054228990E+02 -0.44536175946E+03  0.44920186576E+03  0.00000000000E+00 0. -1.
          3    1    6    6  503    0  0.16500903196E+03 -0.44600038816E+02  0.18231208119E+02  0.17189974125E+03  0.00000000000E+00 0. -1.
         -3    1    6    6    0  503  0.21183353186E+03  0.37351168106E+02  0.36862620835E+02  0.21823704497E+03  0.00000000000E+00 0.  1.
<mgrwt>
<rscale>  0 0.18054040E+04</rscale>
<asrwt>0</asrwt>
<pdfrwt beam="1">  1        2 0.21002775E+00 0.18054040E+04</pdfrwt>
<pdfrwt beam="2">  1       -1 0.91830178E-01 0.18054040E+04</pdfrwt>
<totfact> 0.18828774E+01</totfact>
</mgrwt>
</event>
<event>
12    7  0.1606355E-007  0.2067441E+04  0.7818608E-02  0.8575723E-01
         -1   -1    0    0    0  501 -0.00000000000E+00  0.00000000000E+00  0.39452586339E+03  0.39452586339E+03  0.00000000000E+00 0.  1.
          2   -1    0    0  501    0  0.00000000000E+00 -0.00000000000E+00 -0.27085116097E+04  0.27085116097E+04  0.00000000000E+00 0. -1.
         24    2    1    2    0    0  0.42306948677E+02  0.83480975236E+03 -0.81318533506E+03  0.11689546947E+04  0.80544947081E+02 0.  0.
        254    2    1    2    0    0 -0.42306948677E+02 -0.83480975236E+03 -0.15008004113E+04  0.19340827785E+04  0.88858152065E+03 0.  0.
         23    2    4    4    0    0 -0.30835899663E+02 -0.40211676336E+03 -0.14265048917E+04  0.14853002909E+04  0.92477046051E+02 0.  0.
         23    2    4    4    0    0 -0.11471049014E+02 -0.43269298900E+03 -0.74295519580E+02  0.44878248753E+03  0.92363895510E+02 0.  0.
          4    1    3    3  502    0  0.58628615834E+02  0.57852540823E+03 -0.53174761802E+03  0.78796224010E+03  0.00000000000E+00 0. -1.
         -3    1    3    3    0  502 -0.16321667157E+02  0.25628434413E+03 -0.28143771704E+03  0.38099245457E+03  0.00000000000E+00 0.  1.
         13    1    5    5    0    0 -0.11692166833E+02 -0.38782492388E+03 -0.13045470289E+04  0.13610245512E+04  0.00000000000E+00 0. -1.
        -13    1    5    5    0    0 -0.19143732830E+02 -0.14291839478E+02 -0.12195786277E+03  0.12427573968E+03  0.00000000000E+00 0.  1.
          2    1    6    6  503    0  0.25606225870E+00 -0.41043233133E+03 -0.88533581375E+02  0.41987255114E+03  0.00000000000E+00 0. -1.
         -2    1    6    6    0  503 -0.11727111273E+02 -0.22260657665E+02  0.14238061796E+02  0.28909936392E+02  0.00000000000E+00 0.  1.
<mgrwt>
<rscale>  0 0.20674408E+04</rscale>
<asrwt>0</asrwt>
<pdfrwt beam="1">  1        2 0.41669408E+00 0.20674408E+04</pdfrwt>
<pdfrwt beam="2">  1       -1 0.60696288E-01 0.20674408E+04</pdfrwt>
<totfact> 0.76050353E+00</totfact>
</mgrwt>
</event>
<event>
12    7  0.1606355E-007  0.3029037E+04  0.7818608E-02  0.8235487E-01
         -1   -1    0    0    0  501 -0.00000000000E+00  0.00000000000E+00  0.12951147131E+04  0.12951147131E+04  0.00000000000E+00 0.  1.
          2   -1    0    0  501    0  0.00000000000E+00 -0.00000000000E+00 -0.17710917648E+04  0.17710917648E+04  0.00000000000E+00 0. -1.
         24    2    1    2    0    0 -0.39982078124E+03 -0.94951228472E+02  0.11131600464E+04  0.11892197255E+04  0.79030839841E+02 0.  0.
        254    2    1    2    0    0  0.39982078124E+03  0.94951228472E+02 -0.15891370981E+04  0.18769867525E+04  0.91041208235E+03 0.  0.
         23    2    4    4    0    0  0.47519578844E+03 -0.22268169217E+03 -0.13788472121E+04  0.14781566883E+04  0.91265477480E+02 0.  0.
         23    2    4    4    0    0 -0.75375007199E+02  0.31763292064E+03 -0.21028988598E+03  0.39883006423E+03  0.90947897209E+02 0.  0.
          4    1    3    3  502    0 -0.16177615959E+03 -0.13977979910E+02  0.35304735223E+03  0.38859920567E+03  0.00000000000E+00 0. -1.
         -3    1    3    3    0  502 -0.23804462165E+03 -0.80973248562E+02  0.76011269416E+03  0.80062051978E+03  0.00000000000E+00 0.  1.
         13    1    5    5    0    0  0.24237918846E+03 -0.65791802148E+02 -0.61162333403E+03  0.66118025905E+03  0.00000000000E+00 0.  1.
        -13    1    5    5    0    0  0.23281659998E+03 -0.15688989002E+03 -0.76722387807E+03  0.81697642922E+03  0.00000000000E+00 0. -1.
          1    1    6    6  503    0  0.75143250045E+00  0.18227005411E+03 -0.13096468951E+03  0.22444305998E+03  0.00000000000E+00 0. -1.
         -1    1    6    6    0  503 -0.76126439700E+02  0.13536286653E+03 -0.79325196468E+02  0.17438700425E+03  0.00000000000E+00 0.  1.
<mgrwt>
<rscale>  0 0.30290375E+04</rscale>
<asrwt>0</asrwt>
<pdfrwt beam="1">  1        2 0.27247566E+00 0.30290375E+04</pdfrwt>
<pdfrwt beam="2">  1       -1 0.19924842E+00 0.30290375E+04</pdfrwt>
<totfact> 0.13254484E+00</totfact>
</mgrwt>
</event>
<event>
12    7  0.1606355E-007  0.1600536E+04  0.7818608E-02  0.8820219E-01
         -1   -1    0    0    0  501 -0.00000000000E+00  0.00000000000E+00  0.91131033906E+03  0.91131033906E+03  0.00000000000E+00 0.  1.
          2   -1    0    0  501    0  0.00000000000E+00 -0.00000000000E+00 -0.70275585854E+03  0.70275585854E+03  0.00000000000E+00 0. -1.
         24    2    1    2    0    0 -0.42910275614E+03  0.11829628869E+03  0.38842916335E+03  0.59589207122E+03  0.78018961519E+02 0.  0.
        254    2    1    2    0    0  0.42910275614E+03 -0.11829628869E+03 -0.17987468283E+03  0.10181741264E+04  0.89788666481E+03 0.  0.
         23    2    4    4    0    0  0.32226242590E+03 -0.47192049045E+03  0.38249545547E+02  0.57994202294E+03  0.91146595049E+02 0.  0.
         23    2    4    4    0    0  0.10684033024E+03  0.35362420176E+03 -0.21812422838E+03  0.43823210343E+03  0.89466559300E+02 0.  0.
          4    1    3    3  502    0 -0.41956918117E+02 -0.92918295460E+01  0.24632487580E+02  0.49532620752E+02  0.00000000000E+00 0. -1.
         -3    1    3    3    0  502 -0.38714583802E+03  0.12758811823E+03  0.36379667577E+03  0.54635945047E+03  0.00000000000E+00 0.  1.
         13    1    5    5    0    0  0.23643410584E+03 -0.28242222081E+03 -0.55049246465E+00  0.36832553571E+03  0.00000000000E+00 0. -1.
        -13    1    5    5    0    0  0.85828320053E+02 -0.18949826964E+03  0.38800038011E+02  0.21161648723E+03  0.00000000000E+00 0.  1.
          1    1    6    6  503    0  0.63305526723E+02  0.30020792463E+03 -0.15069729119E+03  0.34182168056E+03  0.00000000000E+00 0. -1.
         -1    1    6    6    0  503  0.43534803520E+02  0.53416277127E+02 -0.67426937194E+02  0.96410422875E+02  0.00000000000E+00 0.  1.
<mgrwt>
<rscale>  0 0.16005358E+04</rscale>
<asrwt>0</asrwt>
<pdfrwt beam="1">  1        2 0.10811629E+00 0.16005358E+04</pdfrwt>
<pdfrwt beam="2">  1       -1 0.14020159E+00 0.16005358E+04</pdfrwt>
<totfact> 0.18646532E+01</totfact>
</mgrwt>
</event>
<event>
12    7  0.1606355E-007  0.1289161E+04  0.7818608E-02  0.9038205E-01
          2   -1    0    0  501    0  0.00000000000E+00  0.00000000000E+00  0.68266811985E+03  0.68266811985E+03  0.00000000000E+00 0. -1.
         -1   -1    0    0    0  501 -0.00000000000E+00 -0.00000000000E+00 -0.60861803335E+03  0.60861803335E+03  0.00000000000E+00 0.  1.
         24    2    1    2    0    0 -0.22035627218E+03  0.10487476920E+03 -0.25685394709E+03  0.36903084041E+03  0.10321921882E+03 0.  0.
        254    2    1    2    0    0  0.22035627218E+03 -0.10487476920E+03  0.33090403359E+03  0.92225531279E+03  0.82553120996E+03 0.  0.
         23    2    4    4    0    0  0.30897300805E+03 -0.10075891374E+03  0.56325837241E+03  0.65694996945E+03  0.93309109209E+02 0.  0.
         23    2    4    4    0    0 -0.88616735876E+02 -0.41158554663E+01 -0.23235433882E+03  0.26530534335E+03  0.92349988061E+02 0.  0.
          4    1    3    3  502    0 -0.25259917926E+02  0.35067804898E+02 -0.10066251629E+03  0.10954796474E+03  0.00000000000E+00 0. -1.
         -3    1    3    3    0  502 -0.19509635425E+03  0.69806964303E+02 -0.15619143080E+03  0.25948287566E+03  0.00000000000E+00 0.  1.
         13    1    5    5    0    0  0.18409163889E+03 -0.30386627883E+02  0.38804107359E+03  0.43056817516E+03  0.00000000000E+00 0.  1.
        -13    1    5    5    0    0  0.12488136916E+03 -0.70372285852E+02  0.17521729882E+03  0.22638179429E+03  0.00000000000E+00 0. -1.
          3    1    6    6  503    0 -0.87145937767E+02  0.31238133401E+02 -0.16342790466E+03  0.18782682308E+03  0.00000000000E+00 0. -1.
         -3    1    6    6    0  503 -0.14707981087E+01 -0.35353988867E+02 -0.68926434163E+02  0.77478520264E+02  0.00000000000E+00 0.  1.
<mgrwt>
<rscale>  0 0.12891612E+04</rscale>
<asrwt>0</asrwt>
<pdfrwt beam="1">  1        2 0.10502586E+00 0.12891612E+04</pdfrwt>
<pdfrwt beam="2">  1       -1 0.93633544E-01 0.12891612E+04</pdfrwt>
<totfact> 0.52444764E+01</totfact>
</mgrwt>
</event>
<event>
12    7  0.1606355E-007  0.1401416E+04  0.7818608E-02  0.8952794E-01
          2   -1    0    0  501    0  0.00000000000E+00  0.00000000000E+00  0.32679831181E+04  0.32679831181E+04  0.00000000000E+00 0. -1.
         -1   -1    0    0    0  501 -0.00000000000E+00 -0.00000000000E+00 -0.15024302603E+03  0.15024302603E+03  0.00000000000E+00 0.  1.
         24    2    1    2    0    0  0.51292605606E+02  0.29940351321E+02  0.19088867211E+04  0.19112839517E+04  0.75036484426E+02 0.  0.
        254    2    1    2    0    0 -0.51292605606E+02 -0.29940351321E+02  0.12088533709E+04  0.15069421924E+04  0.89778669114E+03 0.  0.
         23    2    4    4    0    0  0.15508273852E+03  0.18190238403E+03 -0.25026788779E+01  0.25628834872E+03  0.92403036652E+02 0.  0.
         23    2    4    4    0    0 -0.20637534413E+03 -0.21184273535E+03  0.12113560498E+04  0.12506538437E+04  0.96350558529E+02 0.  0.
          2    1    3    3  502    0  0.69486959170E+01  0.17408603959E+02  0.14434464633E+04  0.14435681612E+04  0.00000000000E+00 0. -1.
         -1    1    3    3    0  502  0.44343909690E+02  0.12531747362E+02  0.46544025785E+03  0.46771579046E+03  0.00000000000E+00 0.  1.
         13    1    5    5    0    0  0.41352516687E+02  0.11479145293E+02 -0.25810808347E+02  0.50079928520E+02  0.00000000000E+00 0. -1.
        -13    1    5    5    0    0  0.11373022184E+03  0.17042323874E+03  0.23308129469E+02  0.20620842020E+03  0.00000000000E+00 0.  1.
          4    1    6    6  503    0 -0.13244244409E+03 -0.11063300264E+03  0.87151909594E+03  0.88844031699E+03  0.00000000000E+00 0. -1.
         -4    1    6    6    0  503 -0.73932900034E+02 -0.10120973271E+03  0.33983695385E+03  0.36221352668E+03  0.00000000000E+00 0.  1.
<mgrwt>
<rscale>  0 0.14014160E+04</rscale>
<asrwt>0</asrwt>
<pdfrwt beam="1">  1        2 0.50276658E+00 0.14014160E+04</pdfrwt>
<pdfrwt beam="2">  1       -1 0.23114314E-01 0.14014160E+04</pdfrwt>
<totfact> 0.21041915E+01</totfact>
</mgrwt>
</event>
<event>
12    7  0.1606355E-007  0.2388547E+04  0.7818608E-02  0.8443804E-01
         -1   -1    0    0    0  501 -0.00000000000E+00  0.00000000000E+00  0.22835661722E+04  0.22835661722E+04  0.00000000000E+00 0.  1.
          2   -1    0    0  501    0  0.00000000000E+00 -0.00000000000E+00 -0.62458871061E+03  0.62458871061E+03  0.00000000000E+00 0. -1.
         24    2    1    2    0    0 -0.63017671326E+03  0.25106894756E+02 -0.26262520262E+03  0.68786014963E+03  0.80165717704E+02 0.  0.
        254    2    1    2    0    0  0.63017671326E+03 -0.25106894756E+02  0.19216026642E+04  0.22202947332E+04  0.91618712992E+03 0.  0.
         23    2    4    4    0    0  0.54836439365E+03 -0.37259774492E+03  0.81980235104E+03  0.10583840984E+04  0.92565745642E+02 0.  0.
         23    2    4    4    0    0  0.81812319616E+02  0.34749085017E+03  0.11018003132E+04  0.11619106348E+04  0.92893737709E+02 0.  0.
          2    1    3    3  502    0 -0.13604420891E+03 -0.23066902746E+01 -0.22952414494E+02  0.13798608963E+03  0.00000000000E+00 0. -1.
         -1    1    3    3    0  502 -0.49413250435E+03  0.27413585031E+02 -0.23967278812E+03  0.54987406000E+03  0.00000000000E+00 0.  1.
         13    1    5    5    0    0  0.19603544255E+03 -0.81483764852E+02  0.25290669434E+03  0.33019887146E+03  0.00000000000E+00 0. -1.
        -13    1    5    5    0    0  0.35232895110E+03 -0.29111398007E+03  0.56689565670E+03  0.72818522696E+03  0.00000000000E+00 0.  1.
          3    1    6    6  503    0 -0.20506860573E+02  0.65368820584E+02  0.18809183935E+03  0.20018030389E+03  0.00000000000E+00 0. -1.
         -3    1    6    6    0  503  0.10231918019E+03  0.28212202958E+03  0.91370847385E+03  0.96173033091E+03  0.00000000000E+00 0.  1.
<mgrwt>
<rscale>  0 0.23885474E+04</rscale>
<asrwt>0</asrwt>
<pdfrwt beam="1">  1        2 0.96090572E-01 0.23885474E+04</pdfrwt>
<pdfrwt beam="2">  1       -1 0.35131787E+00 0.23885474E+04</pdfrwt>
<totfact> 0.73905050E-01</totfact>
</mgrwt>
</event>
<event>
12    7  0.1606355E-007  0.3324552E+04  0.7818608E-02  0.8156676E-01
          2   -1    0    0  501    0  0.00000000000E+00  0.00000000000E+00  0.87703295643E+03  0.87703295643E+03  0.00000000000E+00 0. -1.
         -3   -1    0    0    0  501 -0.00000000000E+00 -0.00000000000E+00 -0.31505782392E+04  0.31505782392E+04  0.00000000000E+00 0.  1.
         24    2    1    2    0    0  0.12366269864E+04 -0.53171630604E+03 -0.19563922806E+04  0.23760616642E+04  0.78928720188E+02 0.  0.
        254    2    1    2    0    0 -0.12366269864E+04  0.53171630604E+03 -0.31715300221E+03  0.16515495315E+04  0.90280745159E+03 0.  0.
         23    2    4    4    0    0 -0.13611362048E+04  0.52475214468E+03 -0.25355855118E+03  0.14836823525E+04  0.94682643843E+02 0.  0.
         23    2    4    4    0    0  0.12450921841E+03  0.69641613608E+01 -0.63594451027E+02  0.16786717896E+03  0.92650367288E+02 0.  0.
          2    1    3    3  502    0  0.99347404494E+03 -0.45465847313E+03 -0.15540165208E+04  0.18996505868E+04  0.00000000000E+00 0. -1.
         -1    1    3    3    0  502  0.24315294143E+03 -0.77057832909E+02 -0.40237575981E+03  0.47641107735E+03  0.00000000000E+00 0.  1.
         13    1    5    5    0    0 -0.19693643713E+03  0.10773961009E+03 -0.21997836558E+02  0.22555639797E+03  0.00000000000E+00 0. -1.
        -13    1    5    5    0    0 -0.11641997676E+04  0.41701253459E+03 -0.23156071463E+03  0.12581259546E+04  0.00000000000E+00 0.  1.
          1    1    6    6  503    0  0.24173477012E+00 -0.21526613384E+02 -0.28342774648E+02  0.35591661864E+02  0.00000000000E+00 0. -1.
         -1    1    6    6    0  503  0.12426748364E+03  0.28490774745E+02 -0.35251676378E+02  0.13227551710E+03  0.00000000000E+00 0.  1.
<mgrwt>
<rscale>  0 0.33245517E+04</rscale>
<asrwt>0</asrwt>
<pdfrwt beam="1">  1        2 0.13492815E+00 0.33245517E+04</pdfrwt>
<pdfrwt beam="2">  1       -3 0.48470435E+00 0.33245517E+04</pdfrwt>
<totfact> 0.57606012E-02</totfact>
</mgrwt>
</event>
<event>
12    7  0.1606355E-007  0.1512137E+04  0.7818608E-02  0.8876422E-01
          2   -1    0    0  501    0  0.00000000000E+00  0.00000000000E+00  0.99690282167E+03  0.99690282167E+03  0.00000000000E+00 0. -1.
         -1   -1    0    0    0  501 -0.00000000000E+00 -0.00000000000E+00 -0.57341528968E+03  0.57341528968E+03  0.00000000000E+00 0.  1.
         24    2    1    2    0    0  0.30508205866E+03  0.38195959534E+03  0.11104154756E+03  0.50748930581E+03  0.79037808948E+02 0.  0.
        254    2    1    2    0    0 -0.30508205866E+03 -0.38195959534E+03  0.31244598442E+03  0.10628288055E+04  0.89051354943E+03 0.  0.
         23    2    4    4    0    0 -0.36282001533E+03  0.15198114238E+03  0.32391129729E+03  0.51768836502E+03  0.91356902334E+02 0.  0.
         23    2    4    4    0    0  0.57737956671E+02 -0.53394073771E+03 -0.11465312868E+02  0.54514044052E+03  0.92845373928E+02 0.  0.
          4    1    3    3  502    0  0.94322738133E+02  0.12416369438E+03  0.73543315810E+02  0.17240075763E+03  0.00000000000E+00 0. -1.
         -3    1    3    3    0  502  0.21075932053E+03  0.25779590095E+03  0.37498231753E+02  0.33508854818E+03  0.00000000000E+00 0.  1.
         13    1    5    5    0    0 -0.10251895225E+03  0.37237458935E+02  0.41100450275E+02  0.11655904482E+03  0.00000000000E+00 0. -1.
        -13    1    5    5    0    0 -0.26030106308E+03  0.11474368344E+03  0.28281084701E+03  0.40112932019E+03  0.00000000000E+00 0.  1.
          3    1    6    6  503    0 -0.68731829682E+01 -0.11931310986E+03 -0.35933410854E+02  0.12479610909E+03  0.00000000000E+00 0. -1.
         -3    1    6    6    0  503  0.64611139639E+02 -0.41462762786E+03  0.24468097987E+02  0.42034433143E+03  0.00000000000E+00 0.  1.
<mgrwt>
<rscale>  0 0.15121367E+04</rscale>
<asrwt>0</asrwt>
<pdfrwt beam="1">  1        2 0.15336966E+00 0.15121367E+04</pdfrwt>
<pdfrwt beam="2">  1       -1 0.88217737E-01 0.15121367E+04</pdfrwt>
<totfact> 0.35190026E+01</totfact>
</mgrwt>
</event>
<event>
12    7  0.1606355E-007  0.2630780E+04  0.7818608E-02  0.8357820E-01
          2   -1    0    0  501    0  0.00000000000E+00  0.00000000000E+00  0.15114398824E+04  0.15114398824E+04  0.00000000000E+00 0. -1.
         -1   -1    0    0    0  501 -0.00000000000E+00 -0.00000000000E+00 -0.11447699822E+04  0.11447699822E+04  0.00000000000E+00 0.  1.
         24    2    1    2    0    0  0.10236450755E+03  0.48550178203E+03 -0.89722132126E+03  0.10284445221E+04  0.80632269811E+02 0.  0.
        254    2    1    2    0    0 -0.10236450755E+03 -0.48550178203E+03  0.12638912215E+04  0.16277653425E+04  0.89777977128E+03 0.  0.
         23    2    4    4    0    0 -0.27058842865E+03 -0.57224809003E+03  0.43482317863E+03  0.77353049930E+03  0.92694457219E+02 0.  0.
         23    2    4    4    0    0  0.16822392110E+03  0.86746308007E+02  0.82906804283E+03  0.85423484318E+03  0.80864937212E+02 0.  0.
          4    1    3    3  502    0  0.76941962001E+02  0.38165081595E+03 -0.62955079057E+03  0.74021051650E+03  0.00000000000E+00 0. -1.
         -3    1    3    3    0  502  0.25422545551E+02  0.10385096607E+03 -0.26767053069E+03  0.28823400559E+03  0.00000000000E+00 0.  1.
         13    1    5    5    0    0 -0.27514862777E+03 -0.54005768665E+03  0.40183732930E+03  0.72721545053E+03  0.00000000000E+00 0.  1.
        -13    1    5    5    0    0  0.45601991157E+01 -0.32190403386E+02  0.32985849335E+02  0.46315048769E+02  0.00000000000E+00 0. -1.
          2    1    6    6  503    0  0.13616759303E+03  0.48307728879E+02  0.47032624799E+03  0.49201832243E+03  0.00000000000E+00 0. -1.
         -2    1    6    6    0  503  0.32056328075E+02  0.38438579127E+02  0.35874179484E+03  0.36221652075E+03  0.00000000000E+00 0.  1.
<mgrwt>
<rscale>  0 0.26307801E+04</rscale>
<asrwt>0</asrwt>
<pdfrwt beam="1">  1        2 0.23252921E+00 0.26307801E+04</pdfrwt>
<pdfrwt beam="2">  1       -1 0.17611846E+00 0.26307801E+04</pdfrwt>
<totfact> 0.27898677E+00</totfact>
</mgrwt>
</event>
<event>
12    7  0.1606355E-007  0.2673600E+04  0.7818608E-02  0.8343622E-01
          2   -1    0    0  501    0  0.00000000000E+00  0.00000000000E+00  0.14926975222E+04  0.14926975222E+04  0.00000000000E+00 0. -1.
         -1   -1    0    0    0  501 -0.00000000000E+00 -0.00000000000E+00 -0.11971846276E+04  0.11971846276E+04  0.00000000000E+00 0.  1.
         24    2    1    2    0    0  0.30331413572E+02 -0.68837122017E+03 -0.83584298862E+03  0.10861232458E+04  0.79090277463E+02 0.  0.
        254    2    1    2    0    0 -0.30331413572E+02  0.68837122017E+03  0.11313558832E+04  0.16037589039E+04  0.90404731958E+03 0.  0.
         23    2    4    4    0    0  0.24952642171E+03  0.70560730326E+03  0.49012529229E+03  0.89851045302E+03  0.83385433333E+02 0.  0.
         23    2    4    4    0    0 -0.27985783528E+03 -0.17236083096E+02  0.64123059094E+03  0.70524845092E+03  0.87070179921E+02 0.  0.
          2    1    3    3  502    0  0.41001978145E+02 -0.17228886472E+03 -0.22689545533E+03  0.28783009358E+03  0.00000000000E+00 0. -1.
         -3    1    3    3    0  502 -0.10670564572E+02 -0.51608235545E+03 -0.60894753329E+03  0.79829315220E+03  0.00000000000E+00 0.  1.
         13    1    5    5    0    0  0.27605691603E+02  0.17882461498E+03  0.10406106961E+03  0.20873194135E+03  0.00000000000E+00 0.  1.
        -13    1    5    5    0    0  0.22192073011E+03  0.52678268828E+03  0.38606422267E+03  0.68977851166E+03  0.00000000000E+00 0. -1.
          3    1    6    6  503    0 -0.12563449381E+02  0.19702789349E+02  0.41904266193E+02  0.47979242321E+02  0.00000000000E+00 0. -1.
         -3    1    6    6    0  503 -0.26729438590E+03 -0.36938872445E+02  0.59932632475E+03  0.65726920860E+03  0.00000000000E+00 0.  1.
<mgrwt>
<rscale>  0 0.26736002E+04</rscale>
<asrwt>0</asrwt>
<pdfrwt beam="1">  1        2 0.22964577E+00 0.26736002E+04</pdfrwt>
<pdfrwt beam="2">  1       -1 0.18418225E+00 0.26736002E+04</pdfrwt>
<totfact> 0.24927417E+00</totfact>
</mgrwt>
</event>
<event>
12    7  0.1606355E-007  0.1173050E+04  0.7818608E-02  0.9136779E-01
          2   -1    0    0  501    0  0.00000000000E+00  0.00000000000E+00  0.14464657942E+04  0.14464657942E+04  0.00000000000E+00 0. -1.
         -1   -1    0    0    0  501 -0.00000000000E+00 -0.00000000000E+00 -0.23782893741E+03  0.23782893741E+03  0.00000000000E+00 0.  1.
         24    2    1    2    0    0 -0.24180272811E+02  0.17511611816E+03  0.38191703763E+02  0.19644621469E+03  0.76695297085E+02 0.  0.
        254    2    1    2    0    0  0.24180272811E+02 -0.17511611816E+03  0.11704451531E+04  0.14878485169E+04  0.90138838058E+03 0.  0.
         23    2    4    4    0    0  0.25468892429E+03  0.22182659104E+03  0.85355592589E+03  0.92249261805E+03  0.91440839299E+02 0.  0.
         23    2    4    4    0    0 -0.23050865147E+03 -0.39694270920E+03  0.31688922716E+03  0.56535589890E+03  0.92253765932E+02 0.  0.
          2    1    3    3  502    0 -0.35105566985E+02  0.56770983031E+02  0.39558338078E+02  0.77589995870E+02  0.00000000000E+00 0. -1.
         -1    1    3    3    0  502  0.10925294173E+02  0.11834513513E+03 -0.13666343151E+01  0.11885621882E+03  0.00000000000E+00 0.  1.
         13    1    5    5    0    0  0.15816933814E+03  0.16898630389E+03  0.66558753886E+03  0.70468481062E+03  0.00000000000E+00 0.  1.
        -13    1    5    5    0    0  0.96519586149E+02  0.52840287147E+02  0.18796838702E+03  0.21780780743E+03  0.00000000000E+00 0. -1.
          3    1    6    6  503    0 -0.42467048561E+02 -0.20617076232E+02  0.38227485796E+02  0.60744174339E+02  0.00000000000E+00 0. -1.
         -3    1    6    6    0  503 -0.18804160291E+03 -0.37632563297E+03  0.27866174137E+03  0.50461172456E+03  0.00000000000E+00 0.  1.
<mgrwt>
<rscale>  0 0.11730497E+04</rscale>
<asrwt>0</asrwt>
<pdfrwt beam="1">  1        2 0.22253319E+00 0.11730497E+04</pdfrwt>
<pdfrwt beam="2">  1       -1 0.36589068E-01 0.11730497E+04</pdfrwt>
<totfact> 0.10976627E+02</totfact>
</mgrwt>
</event>
<event>
12    7  0.1606355E-007  0.2444269E+04  0.7818608E-02  0.8423113E-01
          2   -1    0    0  501    0  0.00000000000E+00  0.00000000000E+00  0.17260582924E+04  0.17260582924E+04  0.00000000000E+00 0. -1.
         -1   -1    0    0    0  501 -0.00000000000E+00 -0.00000000000E+00 -0.86533169891E+03  0.86533169891E+03  0.00000000000E+00 0.  1.
         24    2    1    2    0    0 -0.88182366122E+03  0.41859838772E+03  0.79731985398E+03  0.12629280448E+04  0.80191751797E+02 0.  0.
        254    2    1    2    0    0  0.88182366122E+03 -0.41859838772E+03  0.63406739523E+02  0.13284619465E+04  0.89886214130E+03 0.  0.
         23    2    4    4    0    0  0.33103422339E+03  0.84424084919E+02 -0.32787405984E+03  0.48118622391E+03  0.85601984719E+02 0.  0.
         23    2    4    4    0    0  0.55078943783E+03 -0.50302247264E+03  0.39128079937E+03  0.84727572262E+03  0.91514334263E+02 0.  0.
          2    1    3    3  502    0 -0.33944942003E+03  0.14709188061E+03  0.35007725664E+03  0.50932898574E+03  0.00000000000E+00 0. -1.
         -1    1    3    3    0  502 -0.54237424120E+03  0.27150650712E+03  0.44724259734E+03  0.75359905905E+03  0.00000000000E+00 0.  1.
         13    1    5    5    0    0  0.51991602465E+02  0.12768289633E+02 -0.14412029122E+02  0.55442425365E+02  0.00000000000E+00 0.  1.
        -13    1    5    5    0    0  0.27904262093E+03  0.71655795286E+02 -0.31346203072E+03  0.42574379854E+03  0.00000000000E+00 0. -1.
          1    1    6    6  503    0  0.28882309153E+03 -0.28287216596E+03  0.26058495678E+03  0.48097812859E+03  0.00000000000E+00 0. -1.
         -1    1    6    6    0  503  0.26196634630E+03 -0.22015030668E+03  0.13069584259E+03  0.36629759403E+03  0.00000000000E+00 0.  1.
<mgrwt>
<rscale>  0 0.24442692E+04</rscale>
<asrwt>0</asrwt>
<pdfrwt beam="1">  1        2 0.26554743E+00 0.24442692E+04</pdfrwt>
<pdfrwt beam="2">  1       -1 0.13312795E+00 0.24442692E+04</pdfrwt>
<totfact> 0.46190537E+00</totfact>
</mgrwt>
</event>
<event>
12    7  0.1606355E-007  0.1454821E+04  0.7818608E-02  0.8915065E-01
          2   -1    0    0  501    0  0.00000000000E+00  0.00000000000E+00  0.32088932511E+04  0.32088932511E+04  0.00000000000E+00 0. -1.
         -1   -1    0    0    0  501 -0.00000000000E+00 -0.00000000000E+00 -0.16489370394E+03  0.16489370394E+03  0.00000000000E+00 0.  1.
         24    2    1    2    0    0  0.98193552507E+02  0.17330707620E+03  0.28564988265E+02  0.21757882136E+03  0.82748223769E+02 0.  0.
        254    2    1    2    0    0 -0.98193552507E+02 -0.17330707620E+03  0.30154345589E+04  0.31562081337E+04  0.91056404917E+03 0.  0.
         23    2    4    4    0    0  0.18001399917E+03  0.30785838155E+03  0.11806466786E+04  0.12368368245E+04  0.93042612913E+02 0.  0.
         23    2    4    4    0    0 -0.27820755167E+03 -0.48116545775E+03  0.18347878804E+04  0.19193713092E+04  0.92844047513E+02 0.  0.
          4    1    3    3  502    0  0.63937336842E+02  0.50019227430E+02 -0.14710857290E+02  0.82500396831E+02  0.00000000000E+00 0. -1.
         -3    1    3    3    0  502  0.34256215665E+02  0.12328784877E+03  0.43275845555E+02  0.13507842453E+03  0.00000000000E+00 0.  1.
         13    1    5    5    0    0  0.13191703520E+03  0.23117927826E+03  0.99951346569E+03  0.10343467170E+04  0.00000000000E+00 0.  1.
        -13    1    5    5    0    0  0.48096963971E+02  0.76679103294E+02  0.18113321288E+03  0.20249010750E+03  0.00000000000E+00 0. -1.
          2    1    6    6  503    0 -0.19355560022E+03 -0.33309699057E+03  0.11159724251E+04  0.11805980811E+04  0.00000000000E+00 0.  1.
         -2    1    6    6    0  503 -0.84651951456E+02 -0.14806846718E+03  0.71881545523E+03  0.73877322809E+03  0.00000000000E+00 0. -1.
<mgrwt>
<rscale>  0 0.14548214E+04</rscale>
<asrwt>0</asrwt>
<pdfrwt beam="1">  1        2 0.49367584E+00 0.14548214E+04</pdfrwt>
<pdfrwt beam="2">  1       -1 0.25368264E-01 0.14548214E+04</pdfrwt>
<totfact> 0.19505810E+01</totfact>
</mgrwt>
</event>
<event>
12    7  0.1606355E-007  0.3475473E+04  0.7818608E-02  0.8119627E-01
          2   -1    0    0  501    0  0.00000000000E+00  0.00000000000E+00  0.21339488989E+04  0.21339488989E+04  0.00000000000E+00 0. -1.
         -1   -1    0    0    0  501 -0.00000000000E+00 -0.00000000000E+00 -0.14150895440E+04  0.14150895440E+04  0.00000000000E+00 0.  1.
         24    2    1    2    0    0  0.52370474982E+03 -0.14872653429E+04  0.79598485481E+03  0.17682463220E+04  0.82935522746E+02 0.  0.
        254    2    1    2    0    0 -0.52370474982E+03  0.14872653429E+04 -0.77125499869E+02  0.17807921208E+04  0.82404330565E+03 0.  0.
         23    2    4    4    0    0 -0.69508283904E+03  0.82458940107E+03  0.26775096627E+02  0.10824964122E+04  0.89407735309E+02 0.  0.
         23    2    4    4    0    0  0.17137808922E+03  0.66267594187E+03 -0.10390059650E+03  0.69829570863E+03  0.91168576531E+02 0.  0.
          2    1    3    3  502    0  0.48033131282E+03 -0.14048043283E+04  0.73266218535E+03  0.16555927183E+04  0.00000000000E+00 0. -1.
         -1    1    3    3    0  502  0.43373437002E+02 -0.82461014627E+02  0.63322669460E+02  0.11265360375E+03  0.00000000000E+00 0.  1.
         13    1    5    5    0    0 -0.33731414838E+02  0.70857755009E+02  0.13716317258E+02  0.79666599971E+02  0.00000000000E+00 0.  1.
        -13    1    5    5    0    0 -0.66135142420E+03  0.75373164606E+03  0.13058779368E+02  0.10028298122E+04  0.00000000000E+00 0. -1.
          1    1    6    6  503    0  0.97302864781E+02  0.31409442978E+03 -0.66049419761E+01  0.32888718974E+03  0.00000000000E+00 0. -1.
         -1    1    6    6    0  503  0.74075224438E+02  0.34858151209E+03 -0.97295654519E+02  0.36940851890E+03  0.00000000000E+00 0.  1.
<mgrwt>
<rscale>  0 0.34754734E+04</rscale>
<asrwt>0</asrwt>
<pdfrwt beam="1">  1        2 0.32829983E+00 0.34754734E+04</pdfrwt>
<pdfrwt beam="2">  1       -1 0.21770608E+00 0.34754734E+04</pdfrwt>
<totfact> 0.60046012E-01</totfact>
</mgrwt>
</event>
<event>
12    7  0.1606355E-007  0.1933424E+04  0.7818608E-02  0.8638395E-01
         -1   -1    0    0    0  501 -0.00000000000E+00  0.00000000000E+00  0.16018236286E+04  0.16018236286E+04  0.00000000000E+00 0.  1.
          2   -1    0    0  501    0  0.00000000000E+00 -0.00000000000E+00 -0.58341786465E+03  0.58341786465E+03  0.00000000000E+00 0. -1.
         24    2    1    2    0    0 -0.38867359927E+03 -0.54906373372E+03  0.23496976170E+01  0.67818822758E+03  0.85997677239E+02 0.  0.
        254    2    1    2    0    0  0.38867359927E+03  0.54906373372E+03  0.10160560663E+04  0.15070532657E+04  0.88673641246E+03 0.  0.
         23    2    4    4    0    0 -0.42598196238E+02 -0.40331419595E+02 -0.11425639374E+03  0.15832060566E+03  0.92572463157E+02 0.  0.
         23    2    4    4    0    0  0.43127179550E+03  0.58939515332E+03  0.11303124601E+04  0.13487326600E+04  0.89952890051E+02 0.  0.
          4    1    3    3  502    0 -0.15548491453E+03 -0.16584732026E+03 -0.25360661711E+02  0.22874452004E+03  0.00000000000E+00 0. -1.
         -3    1    3    3    0  502 -0.23318868474E+03 -0.38321641346E+03  0.27710359328E+02  0.44944370754E+03  0.00000000000E+00 0.  1.
         13    1    5    5    0    0 -0.66980336443E+02 -0.38110694679E+02 -0.56400616974E+02  0.95497749261E+02  0.00000000000E+00 0. -1.
        -13    1    5    5    0    0  0.24382140204E+02 -0.22207249160E+01 -0.57855776770E+02  0.62822856397E+02  0.00000000000E+00 0.  1.
          3    1    6    6  503    0  0.21946351981E+03  0.26112841456E+03  0.45658057733E+03  0.56992816128E+03  0.00000000000E+00 0. -1.
         -3    1    6    6    0  503  0.21180827569E+03  0.32826673876E+03  0.67373188274E+03  0.77880449873E+03  0.00000000000E+00 0.  1.
<mgrwt>
<rscale>  0 0.19334244E+04</rscale>
<asrwt>0</asrwt>
<pdfrwt beam="1">  1        2 0.89756595E-01 0.19334244E+04</pdfrwt>
<pdfrwt beam="2">  1       -1 0.24643440E+00 0.19334244E+04</pdfrwt>
<totfact> 0.40264226E+00</totfact>
</mgrwt>
</event>
<event>
12    7  0.1606355E-007  0.1811017E+04  0.7818608E-02  0.8700463E-01
         -3   -1    0    0    0  501 -0.00000000000E+00  0.00000000000E+00  0.34689786030E+03  0.34689786030E+03  0.00000000000E+00 0.  1.
          2   -1    0    0  501    0  0.00000000000E+00 -0.00000000000E+00 -0.23636511741E+04  0.23636511741E+04  0.00000000000E+00 0. -1.
         24    2    1    2    0    0 -0.59198449626E+03  0.98366223377E+01 -0.13412136853E+04  0.14682295135E+04  0.79381054891E+02 0.  0.
        254    2    1    2    0    0  0.59198449626E+03 -0.98366223377E+01 -0.67553962854E+03  0.12423195209E+04  0.85817340864E+03 0.  0.
         23    2    4    4    0    0  0.34735694744E+03  0.40692485819E+03 -0.43017630504E+03  0.69297062528E+03  0.94403098126E+02 0.  0.
         23    2    4    4    0    0  0.24462754881E+03 -0.41676148053E+03 -0.24536332350E+03  0.54934889560E+03  0.89712202569E+02 0.  0.
          4    1    3    3  502    0  0.13717391175E+01  0.42161958468E+00  0.16538335760E+00  0.14445701560E+01  0.00000000000E+00 0. -1.
         -3    1    3    3    0  502 -0.59335623537E+03  0.94150027530E+01 -0.13413790686E+04  0.14667849434E+04  0.00000000000E+00 0.  1.
         13    1    5    5    0    0  0.87241034605E+02  0.53314528269E+02 -0.58598772416E+02  0.11784419023E+03  0.00000000000E+00 0. -1.
        -13    1    5    5    0    0  0.26011591284E+03  0.35361032992E+03 -0.37157753262E+03  0.57512643505E+03  0.00000000000E+00 0.  1.
          2    1    6    6  503    0 -0.56467514648E+01 -0.34480520963E+00 -0.32419532596E+01  0.65203491989E+01  0.00000000000E+00 0. -1.
         -2    1    6    6    0  503  0.25027430028E+03 -0.41641667532E+03 -0.24212137024E+03  0.54282854640E+03  0.00000000000E+00 0.  1.
<mgrwt>
<rscale>  0 0.18110169E+04</rscale>
<asrwt>0</asrwt>
<pdfrwt beam="1">  1        2 0.36363863E+00 0.18110169E+04</pdfrwt>
<pdfrwt beam="2">  1       -3 0.53368903E-01 0.18110169E+04</pdfrwt>
<totfact> 0.87838949E+00</totfact>
</mgrwt>
</event>
<event>
12    7  0.2043245E-007  0.2424110E+04  0.7818608E-02  0.8430532E-01
          2   -1    0    0  501    0  0.00000000000E+00  0.00000000000E+00  0.15450178656E+04  0.15450178656E+04  0.00000000000E+00 0. -1.
         -1   -1    0    0    0  501 -0.00000000000E+00 -0.00000000000E+00 -0.95084801637E+03  0.95084801637E+03  0.00000000000E+00 0.  1.
         24    2    1    2    0    0 -0.88105232710E+03 -0.25101854065E+03 -0.26040820468E+03  0.95542128918E+03  0.75854439064E+02 0.  0.
        254    2    1    2    0    0  0.88105232710E+03  0.25101854065E+03  0.85457805391E+03  0.15404445928E+04  0.89632716261E+03 0.  0.
         23    2    4    4    0    0  0.39433411345E+03  0.37379789934E+03  0.72997578316E+01  0.55131363217E+03  0.93108388287E+02 0.  0.
         23    2    4    4    0    0  0.48671821365E+03 -0.12277935869E+03  0.84727829608E+03  0.98913096063E+03  0.92358842921E+02 0.  0.
          4    1    3    3  502    0 -0.16049684065E+03 -0.35031412654E+02 -0.75517393660E+02  0.18080185971E+03  0.00000000000E+00 0. -1.
         -3    1    3    3    0  502 -0.72055548645E+03 -0.21598712800E+03 -0.18489081101E+03  0.77461942947E+03  0.00000000000E+00 0.  1.
         13    1    5    5    0    0  0.24932426972E+02  0.15822331684E+02 -0.20848261248E+02  0.36147227995E+02  0.00000000000E+00 0. -1.
        -13    1    5    5    0    0  0.36940168647E+03  0.35797556766E+03  0.28148019080E+02  0.51516640417E+03  0.00000000000E+00 0.  1.
          2    1    6    6  503    0  0.61980218825E+02 -0.70620890483E+00  0.59838974923E+02  0.86155378105E+02  0.00000000000E+00 0. -1.
         -2    1    6    6    0  503  0.42473799482E+03 -0.12207314978E+03  0.78743932115E+03  0.90297558253E+03  0.00000000000E+00 0.  1.
<mgrwt>
<rscale>  0 0.24241099E+04</rscale>
<asrwt>0</asrwt>
<pdfrwt beam="1">  1        2 0.23769506E+00 0.24241099E+04</pdfrwt>
<pdfrwt beam="2">  1       -1 0.14628431E+00 0.24241099E+04</pdfrwt>
<totfact> 0.45675986E+00</totfact>
</mgrwt>
</event>
<event>
12    7  0.1606355E-007  0.1139069E+04  0.7818608E-02  0.9167928E-01
         -1   -1    0    0    0  501 -0.00000000000E+00  0.00000000000E+00  0.82116890561E+03  0.82116890561E+03  0.00000000000E+00 0.  1.
          2   -1    0    0  501    0  0.00000000000E+00 -0.00000000000E+00 -0.39500936769E+03  0.39500936769E+03  0.00000000000E+00 0. -1.
         24    2    1    2    0    0 -0.12440734730E+03  0.93882430985E+02  0.21544097377E+03  0.27742196902E+03  0.79101433666E+02 0.  0.
        254    2    1    2    0    0  0.12440734730E+03 -0.93882430985E+02  0.21071856416E+03  0.93875630428E+03  0.90142663963E+03 0.  0.
         23    2    4    4    0    0 -0.21421271705E+03  0.25622918206E+03  0.26996119884E+03  0.43937830799E+03  0.92918064817E+02 0.  0.
         23    2    4    4    0    0  0.33862006435E+03 -0.35011161304E+03 -0.59242634680E+02  0.49937799629E+03  0.92881665817E+02 0.  0.
          4    1    3    3  502    0 -0.36006484329E+02  0.25796031736E+02  0.12824037173E+02  0.46112450558E+02  0.00000000000E+00 0. -1.
         -3    1    3    3    0  502 -0.88400862969E+02  0.68086399249E+02  0.20261693660E+03  0.23130951846E+03  0.00000000000E+00 0.  1.
         13    1    5    5    0    0 -0.99428710539E+02  0.12364674157E+03  0.70023045347E+02  0.17342955936E+03  0.00000000000E+00 0. -1.
        -13    1    5    5    0    0 -0.11478400651E+03  0.13258244049E+03  0.19993815349E+03  0.26594874863E+03  0.00000000000E+00 0.  1.
          4    1    6    6  503    0  0.78618945793E+02 -0.13146316935E+03  0.66807945152E+01  0.15332363337E+03  0.00000000000E+00 0. -1.
         -4    1    6    6    0  503  0.26000111856E+03 -0.21864844369E+03 -0.65923429195E+02  0.34605436292E+03  0.00000000000E+00 0.  1.
<mgrwt>
<rscale>  0 0.11390688E+04</rscale>
<asrwt>0</asrwt>
<pdfrwt beam="1">  1        2 0.60770672E-01 0.11390688E+04</pdfrwt>
<pdfrwt beam="2">  1       -1 0.12633368E+00 0.11390688E+04</pdfrwt>
<totfact> 0.49855074E+01</totfact>
</mgrwt>
</event>
<event>
12    7  0.1606355E-007  0.4606115E+04  0.7818608E-02  0.7892318E-01
         -1   -1    0    0    0  501 -0.00000000000E+00  0.00000000000E+00  0.16864608691E+04  0.16864608691E+04  0.00000000000E+00 0.  1.
          2   -1    0    0  501    0  0.00000000000E+00 -0.00000000000E+00 -0.31450920468E+04  0.31450920468E+04  0.00000000000E+00 0. -1.
         24    2    1    2    0    0  0.18557175648E+04 -0.18286873104E+02  0.56373107792E+03  0.19412677049E+04  0.81887017960E+02 0.  0.
        254    2    1    2    0    0 -0.18557175648E+04  0.18286873104E+02 -0.20223622556E+04  0.28902852111E+04  0.90541560543E+03 0.  0.
         23    2    4    4    0    0 -0.16454007781E+04  0.17565905621E+03 -0.20188887051E+04  0.26119495666E+04  0.90383130099E+02 0.  0.
         23    2    4    4    0    0 -0.21031678665E+03 -0.15737218310E+03 -0.34735505087E+01  0.27833564448E+03  0.91975598257E+02 0.  0.
          2    1    3    3  502    0  0.67843499262E+03 -0.17200270230E+02  0.24599934323E+03  0.72186256682E+03  0.00000000000E+00 0. -1.
         -1    1    3    3    0  502  0.11772825722E+04 -0.10866028737E+01  0.31773173470E+03  0.12194051380E+04  0.00000000000E+00 0.  1.
         13    1    5    5    0    0 -0.12157281713E+04  0.96785426806E+02 -0.15215425821E+04  0.19499882652E+04  0.00000000000E+00 0.  1.
        -13    1    5    5    0    0 -0.42967260681E+03  0.78873629401E+02 -0.49734612301E+03  0.66196130138E+03  0.00000000000E+00 0. -1.
          1    1    6    6  503    0 -0.75343973140E+02 -0.86170176553E+02 -0.40303121529E+02  0.12135219496E+03  0.00000000000E+00 0. -1.
         -1    1    6    6    0  503 -0.13497281351E+03 -0.71202006551E+02  0.36829571020E+02  0.15698344953E+03  0.00000000000E+00 0.  1.
<mgrwt>
<rscale>  0 0.46061154E+04</rscale>
<asrwt>0</asrwt>
<pdfrwt beam="1">  1        2 0.48386031E+00 0.46061154E+04</pdfrwt>
<pdfrwt beam="2">  1       -1 0.25945552E+00 0.46061154E+04</pdfrwt>
<totfact> 0.72606492E-02</totfact>
</mgrwt>
</event>
<event>
12    7  0.1606355E-007  0.2629856E+04  0.7818608E-02  0.8358130E-01
          2   -1    0    0  501    0  0.00000000000E+00  0.00000000000E+00  0.16091760187E+04  0.16091760187E+04  0.00000000000E+00 0. -1.
         -1   -1    0    0    0  501 -0.00000000000E+00 -0.00000000000E+00 -0.10744848055E+04  0.10744848055E+04  0.00000000000E+00 0.  1.
         24    2    1    2    0    0  0.17709468029E+03 -0.54205597411E+03 -0.79627777723E+03  0.98259799845E+03  0.79077956342E+02 0.  0.
        254    2    1    2    0    0 -0.17709468029E+03  0.54205597411E+03  0.13309689905E+04  0.17010628257E+04  0.89272004497E+03 0.  0.
         23    2    4    4    0    0 -0.17650049435E+03  0.54717804958E+03  0.27979622935E+03  0.64591793239E+03  0.91475696125E+02 0.  0.
         23    2    4    4    0    0 -0.59418594156E+00 -0.51220754698E+01  0.10511727611E+04  0.10551448934E+04  0.91323510335E+02 0.  0.
          4    1    3    3  502    0  0.34436047776E+02 -0.21895132084E+03 -0.28102874013E+03  0.35791434039E+03  0.00000000000E+00 0. -1.
         -3    1    3    3    0  502  0.14265863252E+03 -0.32310465327E+03 -0.51524903711E+03  0.62468365805E+03  0.00000000000E+00 0.  1.
         13    1    5    5    0    0 -0.11314929747E+03  0.21533244318E+03  0.13663684251E+03  0.27899901673E+03  0.00000000000E+00 0. -1.
        -13    1    5    5    0    0 -0.63351196879E+02  0.33184560640E+03  0.14315938684E+03  0.36691891566E+03  0.00000000000E+00 0.  1.
          3    1    6    6  503    0  0.21896259178E+02 -0.39382822567E+02  0.72643976487E+03  0.72783596013E+03  0.00000000000E+00 0. -1.
         -3    1    6    6    0  503 -0.22490445120E+02  0.34260747098E+02  0.32473299624E+03  0.32730893322E+03  0.00000000000E+00 0.  1.
<mgrwt>
<rscale>  0 0.26298556E+04</rscale>
<asrwt>0</asrwt>
<pdfrwt beam="1">  1        2 0.24756554E+00 0.26298556E+04</pdfrwt>
<pdfrwt beam="2">  1       -1 0.16530536E+00 0.26298556E+04</pdfrwt>
<totfact> 0.29519224E+00</totfact>
</mgrwt>
</event>
<event>
12    7  0.1606355E-007  0.1205619E+04  0.7818608E-02  0.9107953E-01
          2   -1    0    0  501    0  0.00000000000E+00  0.00000000000E+00  0.76444695101E+03  0.76444695101E+03  0.00000000000E+00 0. -1.
         -1   -1    0    0    0  501 -0.00000000000E+00 -0.00000000000E+00 -0.47534887133E+03  0.47534887133E+03  0.00000000000E+00 0.  1.
         24    2    1    2    0    0  0.11778224735E+03  0.27149369493E+03 -0.18778190602E+02  0.30675139372E+03  0.78500400811E+02 0.  0.
        254    2    1    2    0    0 -0.11778224735E+03 -0.27149369493E+03  0.30787627028E+03  0.93304442862E+03  0.82957978749E+03 0.  0.
         23    2    4    4    0    0 -0.11919694315E+03  0.28138310150E+03  0.87293054938E+02  0.33081921551E+03  0.91852680118E+02 0.  0.
         23    2    4    4    0    0  0.14146957976E+01 -0.55287679643E+03  0.22058321534E+03  0.60222521311E+03  0.91342755735E+02 0.  0.
          4    1    3    3  502    0  0.31618297884E+02  0.31535513981E+02  0.19873633547E+02  0.48879103035E+02  0.00000000000E+00 0. -1.
         -3    1    3    3    0  502  0.86163949471E+02  0.23995818095E+03 -0.38651824149E+02  0.25787229068E+03  0.00000000000E+00 0.  1.
         13    1    5    5    0    0 -0.12240919494E+03  0.19196247881E+03  0.78875096751E+02  0.24094581376E+03  0.00000000000E+00 0. -1.
        -13    1    5    5    0    0  0.32122517911E+01  0.89420622686E+02  0.84179581870E+01  0.89873401755E+02  0.00000000000E+00 0.  1.
          2    1    6    6  503    0  0.34129984208E+02 -0.10410110552E+03  0.56590932331E+02  0.12330624321E+03  0.00000000000E+00 0. -1.
         -2    1    6    6    0  503 -0.32715288410E+02 -0.44877569090E+03  0.16399228301E+03  0.47891896990E+03  0.00000000000E+00 0.  1.
<mgrwt>
<rscale>  0 0.12056185E+04</rscale>
<asrwt>0</asrwt>
<pdfrwt beam="1">  1        2 0.11760722E+00 0.12056185E+04</pdfrwt>
<pdfrwt beam="2">  1       -1 0.73130595E-01 0.12056185E+04</pdfrwt>
<totfact> 0.77671938E+01</totfact>
</mgrwt>
</event>
<event>
12    7  0.1606355E-007  0.2152128E+04  0.7818608E-02  0.8538622E-01
          2   -1    0    0  501    0  0.00000000000E+00  0.00000000000E+00  0.19363722496E+04  0.19363722496E+04  0.00000000000E+00 0. -1.
         -1   -1    0    0    0  501 -0.00000000000E+00 -0.00000000000E+00 -0.59798095702E+03  0.59798095702E+03  0.00000000000E+00 0.  1.
         24    2    1    2    0    0 -0.27141313164E+03 -0.81198047565E+03  0.29436409374E+03  0.90908625151E+03  0.82524009477E+02 0.  0.
        254    2    1    2    0    0  0.27141313164E+03  0.81198047565E+03  0.10440271989E+04  0.16252669552E+04  0.90472233457E+03 0.  0.
         23    2    4    4    0    0  0.27238536926E+03  0.99416958994E+03  0.89948287372E+03  0.13710425995E+04  0.90118846580E+02 0.  0.
         23    2    4    4    0    0 -0.97223762594E+00 -0.18218911429E+03  0.14454432517E+03  0.25422435569E+03  0.10267980557E+03 0.  0.
          4    1    3    3  502    0 -0.17692635830E+03 -0.62312750796E+03  0.24229357531E+03  0.69159019952E+03  0.00000000000E+00 0. -1.
         -3    1    3    3    0  502 -0.94486773336E+02 -0.18885296769E+03  0.52070518423E+02  0.21749605199E+03  0.00000000000E+00 0.  1.
         13    1    5    5    0    0  0.75547966562E+02  0.15531220347E+03  0.16440440765E+03  0.23844954404E+03  0.00000000000E+00 0. -1.
        -13    1    5    5    0    0  0.19683740270E+03  0.83885738648E+03  0.73507846606E+03  0.11325930554E+04  0.00000000000E+00 0.  1.
          1    1    6    6  503    0  0.49425059738E+02 -0.70419600123E+02  0.68260714700E+02  0.10982386709E+03  0.00000000000E+00 0.  1.
         -1    1    6    6    0  503 -0.50397297364E+02 -0.11176951417E+03  0.76283610472E+02  0.14440048859E+03  0.00000000000E+00 0. -1.
<mgrwt>
<rscale>  0 0.21521280E+04</rscale>
<asrwt>0</asrwt>
<pdfrwt beam="1">  1        2 0.29790342E+00 0.21521280E+04</pdfrwt>
<pdfrwt beam="2">  1       -1 0.91997071E-01 0.21521280E+04</pdfrwt>
<totfact> 0.87112412E+00</totfact>
</mgrwt>
</event>
<event>
12    7  0.1606355E-007  0.1280537E+04  0.7818608E-02  0.9045144E-01
         -1   -1    0    0    0  501 -0.00000000000E+00  0.00000000000E+00  0.27662916290E+04  0.27662916290E+04  0.00000000000E+00 0.  1.
          2   -1    0    0  501    0  0.00000000000E+00 -0.00000000000E+00 -0.14819243444E+03  0.14819243444E+03  0.00000000000E+00 0. -1.
         24    2    1    2    0    0  0.91067059398E+02 -0.30597110030E+03  0.61763193753E+03  0.69977618778E+03  0.79410195850E+02 0.  0.
        254    2    1    2    0    0 -0.91067059398E+02  0.30597110030E+03  0.20004672570E+04  0.22147078757E+04  0.89506994394E+03 0.  0.
         23    2    4    4    0    0  0.73665960863E+01  0.19209161766E+02 -0.73228801581E+02  0.11697584327E+03  0.88868621534E+02 0.  0.
         23    2    4    4    0    0 -0.98433655484E+02  0.28676193854E+03  0.20736960586E+04  0.20977320324E+04  0.91338613527E+02 0.  0.
          4    1    3    3  502    0  0.59048782968E+02 -0.28401154511E+03  0.54874449570E+03  0.62070108594E+03  0.00000000000E+00 0. -1.
         -3    1    3    3    0  502  0.32018276430E+02 -0.21959555192E+02  0.68887441829E+02  0.79075101843E+02  0.00000000000E+00 0.  1.
         13    1    5    5    0    0  0.47855645779E+02  0.60076463913E+01 -0.44336079673E+02  0.65512919405E+02  0.00000000000E+00 0.  1.
        -13    1    5    5    0    0 -0.40489049693E+02  0.13201515375E+02 -0.28892721907E+02  0.51462923862E+02  0.00000000000E+00 0. -1.
          2    1    6    6  503    0 -0.86520209117E+02  0.12710457177E+03  0.87743472979E+03  0.89080470575E+03  0.00000000000E+00 0.  1.
         -2    1    6    6    0  503 -0.11913446367E+02  0.15965736677E+03  0.11962613288E+04  0.12069273266E+04  0.00000000000E+00 0. -1.
<mgrwt>
<rscale>  0 0.12805366E+04</rscale>
<asrwt>0</asrwt>
<pdfrwt beam="1">  1        2 0.22798838E-01 0.12805366E+04</pdfrwt>
<pdfrwt beam="2">  1       -1 0.42558329E+00 0.12805366E+04</pdfrwt>
<totfact> 0.13295478E+00</totfact>
</mgrwt>
</event>
<event>
12    7  0.1606355E-007  0.1553868E+04  0.7818608E-02  0.8849401E-01
          2   -1    0    0  501    0  0.00000000000E+00  0.00000000000E+00  0.10681943493E+04  0.10681943493E+04  0.00000000000E+00 0. -1.
         -1   -1    0    0    0  501 -0.00000000000E+00 -0.00000000000E+00 -0.56509068305E+03  0.56509068305E+03  0.00000000000E+00 0.  1.
         24    2    1    2    0    0  0.11832892678E+03  0.34610605752E+03  0.45645229809E+03  0.59049891753E+03  0.80926715023E+02 0.  0.
        254    2    1    2    0    0 -0.11832892678E+03 -0.34610605752E+03  0.46651368178E+02  0.10427861148E+04  0.97541549771E+03 0.  0.
         23    2    4    4    0    0 -0.12996068838E+03 -0.20278095833E+03  0.49796893923E+03  0.56066454746E+03  0.91442729372E+02 0.  0.
         23    2    4    4    0    0  0.11631761604E+02 -0.14332509918E+03 -0.45131757105E+03  0.48212156738E+03  0.89868091452E+02 0.  0.
          2    1    3    3  502    0  0.71738564292E+02  0.20319227952E+03  0.32971003330E+03  0.39388098471E+03  0.00000000000E+00 0. -1.
         -1    1    3    3    0  502  0.46590362487E+02  0.14291377800E+03  0.12674226480E+03  0.19661793281E+03  0.00000000000E+00 0.  1.
         13    1    5    5    0    0  0.30344458989E+01 -0.66960871631E+02  0.11485853905E+03  0.13298665416E+03  0.00000000000E+00 0. -1.
        -13    1    5    5    0    0 -0.13299513428E+03 -0.13582008670E+03  0.38311040018E+03  0.42767789330E+03  0.00000000000E+00 0.  1.
          4    1    6    6  503    0 -0.20735088001E+02 -0.18618289097E+02 -0.27491984906E+02  0.39145801785E+02  0.00000000000E+00 0. -1.
         -4    1    6    6    0  503  0.32366849605E+02 -0.12470681009E+03 -0.42382558614E+03  0.44297576559E+03  0.00000000000E+00 0.  1.
<mgrwt>
<rscale>  0 0.15538683E+04</rscale>
<asrwt>0</asrwt>
<pdfrwt beam="1">  1        2 0.16433759E+00 0.15538683E+04</pdfrwt>
<pdfrwt beam="2">  1       -1 0.86937028E-01 0.15538683E+04</pdfrwt>
<totfact> 0.32630108E+01</totfact>
</mgrwt>
</event>
<event>
12    7  0.1606355E-007  0.2073012E+04  0.7818608E-02  0.8573226E-01
          2   -1    0    0  501    0  0.00000000000E+00  0.00000000000E+00  0.10624702261E+04  0.10624702261E+04  0.00000000000E+00 0. -1.
         -1   -1    0    0    0  501 -0.00000000000E+00 -0.00000000000E+00 -0.10111761533E+04  0.10111761533E+04  0.00000000000E+00 0.  1.
         24    2    1    2    0    0  0.81056421375E+03 -0.14109463677E+02  0.19957101181E+03  0.83875934058E+03  0.80468758410E+02 0.  0.
        254    2    1    2    0    0 -0.81056421375E+03  0.14109463677E+02 -0.14827693902E+03  0.12348870388E+04  0.91964478270E+03 0.  0.
         23    2    4    4    0    0 -0.92144033758E+03  0.21890452256E+03 -0.15221868142E+02  0.95111190607E+03  0.86085230297E+02 0.  0.
         23    2    4    4    0    0  0.11087612383E+03 -0.20479505888E+03 -0.13305507088E+03  0.28377513272E+03  0.92683024803E+02 0.  0.
          2    1    3    3  502    0  0.50899944432E+03 -0.33860937826E+02  0.94496975248E+02  0.51880311849E+03  0.00000000000E+00 0. -1.
         -1    1    3    3    0  502  0.30156476943E+03  0.19751474149E+02  0.10507403657E+03  0.31995622209E+03  0.00000000000E+00 0.  1.
         13    1    5    5    0    0 -0.69288431013E+03  0.12592081656E+03 -0.93431628594E+01  0.70429540248E+03  0.00000000000E+00 0. -1.
        -13    1    5    5    0    0 -0.22855602745E+03  0.92983705999E+02 -0.58787052831E+01  0.24681650359E+03  0.00000000000E+00 0.  1.
          2    1    6    6  503    0  0.13006450595E+00 -0.88379454557E+02 -0.32175064851E+02  0.94054131769E+02  0.00000000000E+00 0.  1.
         -2    1    6    6    0  503  0.11074605933E+03 -0.11641560432E+03 -0.10088000602E+03  0.18972100095E+03  0.00000000000E+00 0. -1.
<mgrwt>
<rscale>  0 0.20730119E+04</rscale>
<asrwt>0</asrwt>
<pdfrwt beam="1">  1        2 0.16345696E+00 0.20730119E+04</pdfrwt>
<pdfrwt beam="2">  1       -1 0.15556556E+00 0.20730119E+04</pdfrwt>
<totfact> 0.76510554E+00</totfact>
</mgrwt>
</event>
<event>
12    7  0.1606355E-007  0.2555762E+04  0.7818608E-02  0.8383385E-01
         -1   -1    0    0    0  501 -0.00000000000E+00  0.00000000000E+00  0.66995267769E+03  0.66995267769E+03  0.00000000000E+00 0.  1.
          2   -1    0    0  501    0  0.00000000000E+00 -0.00000000000E+00 -0.24374557846E+04  0.24374557846E+04  0.00000000000E+00 0. -1.
         24    2    1    2    0    0  0.59250626079E+03 -0.44666974691E+03  0.24061876275E+03  0.78417564860E+03  0.80352517008E+02 0.  0.
        254    2    1    2    0    0 -0.59250626079E+03  0.44666974691E+03 -0.20081218697E+04  0.23232328137E+04  0.90237449618E+03 0.  0.
         23    2    4    4    0    0 -0.74492494622E+03  0.73673899228E+02 -0.13460056330E+04  0.15428539066E+04  0.91246884522E+02 0.  0.
         23    2    4    4    0    0  0.15241868542E+03  0.37299584768E+03 -0.66211623664E+03  0.78037890714E+03  0.90752244251E+02 0.  0.
          4    1    3    3  502    0  0.10790553324E+03 -0.69737805836E+02  0.11933193101E+02  0.12903242525E+03  0.00000000000E+00 0. -1.
         -3    1    3    3    0  502  0.48460072755E+03 -0.37693194107E+03  0.22868556965E+03  0.65514322335E+03  0.00000000000E+00 0.  1.
         13    1    5    5    0    0 -0.70864722740E+03  0.59943535721E+02 -0.13063085991E+04  0.14873521024E+04  0.00000000000E+00 0.  1.
        -13    1    5    5    0    0 -0.36277718816E+02  0.13730363507E+02 -0.39697033910E+02  0.55501804167E+02  0.00000000000E+00 0. -1.
          1    1    6    6  503    0  0.10138684413E+03  0.20096443313E+03 -0.44515364014E+03  0.49882638150E+03  0.00000000000E+00 0. -1.
         -1    1    6    6    0  503  0.51031841292E+02  0.17203141455E+03 -0.21696259650E+03  0.28155252564E+03  0.00000000000E+00 0.  1.
<mgrwt>
<rscale>  0 0.25557621E+04</rscale>
<asrwt>0</asrwt>
<pdfrwt beam="1">  1        2 0.37499319E+00 0.25557621E+04</pdfrwt>
<pdfrwt beam="2">  1       -1 0.10306964E+00 0.25557621E+04</pdfrwt>
<totfact> 0.33948750E+00</totfact>
</mgrwt>
</event>
<event>
12    7  0.1606355E-007  0.1374593E+04  0.7818608E-02  0.8972418E-01
          2   -1    0    0  501    0  0.00000000000E+00  0.00000000000E+00  0.10177625960E+04  0.10177625960E+04  0.00000000000E+00 0. -1.
         -1   -1    0    0    0  501 -0.00000000000E+00 -0.00000000000E+00 -0.46413203487E+03  0.46413203487E+03  0.00000000000E+00 0.  1.
         24    2    1    2    0    0 -0.24691124452E+03  0.28524459792E+03  0.25485678942E+03  0.46176762090E+03  0.77121393188E+02 0.  0.
        254    2    1    2    0    0  0.24691124452E+03 -0.28524459792E+03  0.29877377176E+03  0.10201270100E+04  0.89947968657E+03 0.  0.
         23    2    4    4    0    0  0.48262274261E+03  0.94372619489E+02  0.57018383636E+02  0.50379267522E+03  0.93408032530E+02 0.  0.
         23    2    4    4    0    0 -0.23571149808E+03 -0.37961721741E+03  0.24175538812E+03  0.51633433480E+03  0.92121308736E+02 0.  0.
          4    1    3    3  502    0 -0.82360313625E+02  0.96258459112E+02  0.43483532106E+02  0.13393927645E+03  0.00000000000E+00 0. -1.
         -3    1    3    3    0  502 -0.16455093090E+03  0.18898613880E+03  0.21137325731E+03  0.32782834445E+03  0.00000000000E+00 0.  1.
         13    1    5    5    0    0  0.31940074958E+03  0.26148477749E+02  0.63790422839E+02  0.32675648389E+03  0.00000000000E+00 0. -1.
        -13    1    5    5    0    0  0.16322199303E+03  0.68224141740E+02 -0.67720392031E+01  0.17703619133E+03  0.00000000000E+00 0.  1.
          2    1    6    6  503    0 -0.23359406424E+03 -0.32628431704E+03  0.19883198586E+03  0.44784126763E+03  0.00000000000E+00 0. -1.
         -2    1    6    6    0  503 -0.21174338429E+01 -0.53332900364E+02  0.42923402264E+02  0.68493067162E+02  0.00000000000E+00 0.  1.
<mgrwt>
<rscale>  0 0.13745926E+04</rscale>
<asrwt>0</asrwt>
<pdfrwt beam="1">  1        2 0.15657886E+00 0.13745926E+04</pdfrwt>
<pdfrwt beam="2">  1       -1 0.71404929E-01 0.13745926E+04</pdfrwt>
<totfact> 0.54061839E+01</totfact>
</mgrwt>
</event>
<event>
12    7  0.1606355E-007  0.1106291E+04  0.7818608E-02  0.9199082E-01
         -1   -1    0    0    0  501 -0.00000000000E+00  0.00000000000E+00  0.29014049246E+03  0.29014049246E+03  0.00000000000E+00 0.  1.
          2   -1    0    0  501    0  0.00000000000E+00 -0.00000000000E+00 -0.10545575615E+04  0.10545575615E+04  0.00000000000E+00 0. -1.
         24    2    1    2    0    0 -0.76124608896E+02  0.13301649780E+03 -0.19070345215E+02  0.17391273681E+03  0.79960097486E+02 0.  0.
        254    2    1    2    0    0  0.76124608896E+02 -0.13301649780E+03 -0.74534672386E+03  0.11707853172E+04  0.88977984660E+03 0.  0.
         23    2    4    4    0    0  0.33463388080E+03 -0.39301802507E+03 -0.40704933769E+03  0.66386696963E+03  0.92667080720E+02 0.  0.
         23    2    4    4    0    0 -0.25850927190E+03  0.26000152727E+03 -0.33829738617E+03  0.50691834756E+03  0.89962501969E+02 0.  0.
          2    1    3    3  502    0 -0.23285985248E+02 -0.66451345937E+00  0.12938417207E+02  0.26647351218E+02  0.00000000000E+00 0. -1.
         -1    1    3    3    0  502 -0.52838623648E+02  0.13368101126E+03 -0.32008762422E+02  0.14726538559E+03  0.00000000000E+00 0.  1.
         13    1    5    5    0    0  0.33367644215E+03 -0.36958561933E+03 -0.37135879623E+03  0.62116089188E+03  0.00000000000E+00 0. -1.
        -13    1    5    5    0    0  0.95743864874E+00 -0.23432405737E+02 -0.35690541463E+02  0.42706077757E+02  0.00000000000E+00 0.  1.
          1    1    6    6  503    0 -0.25329686809E+03  0.22643460624E+03 -0.32580830841E+03  0.47072602234E+03  0.00000000000E+00 0. -1.
         -1    1    6    6    0  503 -0.52124038121E+01  0.33566921030E+02 -0.12489077764E+02  0.36192325213E+02  0.00000000000E+00 0.  1.
<mgrwt>
<rscale>  0 0.11062908E+04</rscale>
<asrwt>0</asrwt>
<pdfrwt beam="1">  1        2 0.16223963E+00 0.11062908E+04</pdfrwt>
<pdfrwt beam="2">  1       -1 0.44636998E-01 0.11062908E+04</pdfrwt>
<totfact> 0.13077888E+02</totfact>
</mgrwt>
</event>
<event>
12    7  0.1606355E-007  0.1397636E+04  0.7818608E-02  0.8955532E-01
         -1   -1    0    0    0  501 -0.00000000000E+00  0.00000000000E+00  0.44356847239E+03  0.44356847239E+03  0.00000000000E+00 0.  1.
          2   -1    0    0  501    0  0.00000000000E+00 -0.00000000000E+00 -0.11009497503E+04  0.11009497503E+04  0.00000000000E+00 0. -1.
         24    2    1    2    0    0 -0.36154839593E+03 -0.71055982499E+02 -0.19122367605E+02  0.37738084220E+03  0.79274459126E+02 0.  0.
        254    2    1    2    0    0  0.36154839593E+03  0.71055982499E+02 -0.63825891034E+03  0.11671373805E+04  0.90502432738E+03 0.  0.
         23    2    4    4    0    0 -0.28271638209E+03  0.12309941576E+03 -0.22791506437E+03  0.39474388167E+03  0.93783989474E+02 0.  0.
         23    2    4    4    0    0  0.64426477802E+03 -0.52043433262E+02 -0.41034384597E+03  0.77239349886E+03  0.10209809997E+03 0.  0.
          4    1    3    3  502    0 -0.55646392735E+02 -0.37318712032E+02  0.11952057929E+02  0.68059231415E+02  0.00000000000E+00 0. -1.
         -3    1    3    3    0  502 -0.30590200320E+03 -0.33737270468E+02 -0.31074425534E+02  0.30932161079E+03  0.00000000000E+00 0.  1.
         13    1    5    5    0    0 -0.25066796391E+03  0.71266080771E+02 -0.17376989410E+03  0.31322397497E+03  0.00000000000E+00 0. -1.
        -13    1    5    5    0    0 -0.32048418178E+02  0.51833334990E+02 -0.54145170267E+02  0.81519906693E+02  0.00000000000E+00 0.  1.
          1    1    6    6  503    0  0.18163598310E+02 -0.20200212206E+02 -0.12528076912E+02  0.29915173204E+02  0.00000000000E+00 0. -1.
         -1    1    6    6    0  503  0.62610117971E+03 -0.31843221057E+02 -0.39781576905E+03  0.74247832566E+03  0.00000000000E+00 0.  1.
<mgrwt>
<rscale>  0 0.13976360E+04</rscale>
<asrwt>0</asrwt>
<pdfrwt beam="1">  1        2 0.16937688E+00 0.13976360E+04</pdfrwt>
<pdfrwt beam="2">  1       -1 0.68241304E-01 0.13976360E+04</pdfrwt>
<totfact> 0.52514380E+01</totfact>
</mgrwt>
</event>
<event>
12    7  0.1606355E-007  0.1464770E+04  0.7818608E-02  0.8908224E-01
         -1   -1    0    0    0  501 -0.00000000000E+00  0.00000000000E+00  0.22525415793E+03  0.22525415793E+03  0.00000000000E+00 0.  1.
          2   -1    0    0  501    0  0.00000000000E+00 -0.00000000000E+00 -0.23812565541E+04  0.23812565541E+04  0.00000000000E+00 0. -1.
         24    2    1    2    0    0  0.27172858794E+03 -0.29062348100E+03 -0.29138177455E+03  0.49977636012E+03  0.81084143845E+02 0.  0.
        254    2    1    2    0    0 -0.27172858794E+03  0.29062348100E+03 -0.18646206216E+04  0.21067343519E+04  0.89622605055E+03 0.  0.
         23    2    4    4    0    0  0.45135457943E+02 -0.28905800063E+03 -0.46935339465E+03  0.56041369309E+03  0.90438714261E+02 0.  0.
         23    2    4    4    0    0 -0.31686404589E+03  0.57968148164E+03 -0.13952672269E+04  0.15463206588E+04  0.88901639371E+02 0.  0.
          2    1    3    3  502    0  0.16160735067E+03 -0.15667680182E+03 -0.21148164132E+03  0.30885116259E+03  0.00000000000E+00 0. -1.
         -1    1    3    3    0  502  0.11012123727E+03 -0.13394667919E+03 -0.79900133233E+02  0.19092519753E+03  0.00000000000E+00 0.  1.
         13    1    5    5    0    0 -0.25813889019E+02 -0.95524388321E+02 -0.17548071835E+03  0.20145656640E+03  0.00000000000E+00 0.  1.
        -13    1    5    5    0    0  0.70949346962E+02 -0.19353361231E+03 -0.29387267629E+03  0.35895712669E+03  0.00000000000E+00 0. -1.
          2    1    6    6  503    0 -0.27372430912E+03  0.50204953162E+03 -0.12696733981E+04  0.13924974928E+04  0.00000000000E+00 0. -1.
         -2    1    6    6    0  503 -0.43139736764E+02  0.77631950022E+02 -0.12559382884E+03  0.15382316599E+03  0.00000000000E+00 0.  1.
<mgrwt>
<rscale>  0 0.14647702E+04</rscale>
<asrwt>0</asrwt>
<pdfrwt beam="1">  1        2 0.36634719E+00 0.14647702E+04</pdfrwt>
<pdfrwt beam="2">  1       -1 0.34654484E-01 0.14647702E+04</pdfrwt>
<totfact> 0.35594450E+01</totfact>
</mgrwt>
</event>
<event>
12    7  0.1606355E-007  0.1848359E+04  0.7818608E-02  0.8680997E-01
         -1   -1    0    0    0  501 -0.00000000000E+00  0.00000000000E+00  0.47021679003E+03  0.47021679003E+03  0.00000000000E+00 0.  1.
          2   -1    0    0  501    0  0.00000000000E+00 -0.00000000000E+00 -0.18164131425E+04  0.18164131425E+04  0.00000000000E+00 0. -1.
         24    2    1    2    0    0  0.34557394615E+02  0.38194666345E+03 -0.11030235056E+04  0.11703719405E+04  0.77666968158E+02 0.  0.
        254    2    1    2    0    0 -0.34557394615E+02 -0.38194666345E+03 -0.24317284684E+03  0.11162579920E+04  0.10197163351E+04 0.  0.
         23    2    4    4    0    0 -0.49750716754E+02 -0.68626272334E+03 -0.35405329156E+03  0.77917250390E+03  0.91238140626E+02 0.  0.
         23    2    4    4    0    0  0.15193322139E+02  0.30431605989E+03  0.11088044472E+03  0.33708548811E+03  0.92157755643E+02 0.  0.
          2    1    3    3  502    0  0.38351547772E+01  0.31718482114E+03 -0.94588592592E+03  0.99765780909E+03  0.00000000000E+00 0. -1.
         -1    1    3    3    0  502  0.30722239838E+02  0.64761842310E+02 -0.15713757966E+03  0.17271413139E+03  0.00000000000E+00 0.  1.
         13    1    5    5    0    0 -0.37016628867E+02 -0.43552955762E+03 -0.27303067845E+03  0.51536586786E+03  0.00000000000E+00 0.  1.
        -13    1    5    5    0    0 -0.12734087887E+02 -0.25073316572E+03 -0.81022613106E+02  0.26380663604E+03  0.00000000000E+00 0. -1.
          1    1    6    6  503    0 -0.44710459730E+01  0.88761772317E+02 -0.95542185584E+01  0.89386383579E+02  0.00000000000E+00 0. -1.
         -1    1    6    6    0  503  0.19664368112E+02  0.21555428757E+03  0.12043466328E+03  0.24769910453E+03  0.00000000000E+00 0.  1.
<mgrwt>
<rscale>  0 0.18483592E+04</rscale>
<asrwt>0</asrwt>
<pdfrwt beam="1">  1        2 0.27944817E+00 0.18483592E+04</pdfrwt>
<pdfrwt beam="2">  1       -1 0.72341045E-01 0.18483592E+04</pdfrwt>
<totfact> 0.17444494E+01</totfact>
</mgrwt>
</event>
<event>
12    7  0.1740370E-007  0.2360178E+04  0.7818608E-02  0.8454565E-01
         -1   -1    0    0    0  501 -0.00000000000E+00  0.00000000000E+00  0.10181146226E+04  0.10181146226E+04  0.00000000000E+00 0.  1.
          2   -1    0    0  501    0  0.00000000000E+00 -0.00000000000E+00 -0.13678318906E+04  0.13678318906E+04  0.00000000000E+00 0. -1.
         24    2    1    2    0    0  0.63552461904E+03 -0.25659640359E+03  0.59561768966E+03  0.91154548199E+03  0.80134123630E+02 0.  0.
        254    2    1    2    0    0 -0.63552461904E+03  0.25659640359E+03 -0.94533495767E+03  0.14744010313E+04  0.90025938654E+03 0.  0.
         23    2    4    4    0    0 -0.55739429934E+03  0.17040574570E+03 -0.11074716961E+04  0.12548901379E+04  0.92353546045E+02 0.  0.
         23    2    4    4    0    0 -0.78130319699E+02  0.86190657894E+02  0.16213673841E+03  0.21951089336E+03  0.91452359171E+02 0.  0.
          4    1    3    3  502    0  0.23495201577E+03 -0.61171019023E+02  0.23964980923E+03  0.34113981642E+03  0.00000000000E+00 0. -1.
         -3    1    3    3    0  502  0.40057260327E+03 -0.19542538457E+03  0.35596788043E+03  0.57040566557E+03  0.00000000000E+00 0.  1.
         13    1    5    5    0    0 -0.41845344626E+03  0.16192538652E+03 -0.79651103439E+03  0.91419524468E+03  0.00000000000E+00 0. -1.
        -13    1    5    5    0    0 -0.13894085307E+03  0.84803591803E+01 -0.31096066169E+03  0.34069489322E+03  0.00000000000E+00 0.  1.
          3    1    6    6  503    0 -0.29972590939E+02  0.31325223879E+02  0.13472919790E+03  0.14153297363E+03  0.00000000000E+00 0. -1.
         -3    1    6    6    0  503 -0.48157728760E+02  0.54865434014E+02  0.27407540516E+02  0.77977919734E+02  0.00000000000E+00 0.  1.
<mgrwt>
<rscale>  0 0.23601777E+04</rscale>
<asrwt>0</asrwt>
<pdfrwt beam="1">  1        2 0.21043567E+00 0.23601777E+04</pdfrwt>
<pdfrwt beam="2">  1       -1 0.15663302E+00 0.23601777E+04</pdfrwt>
<totfact> 0.48126157E+00</totfact>
</mgrwt>
</event>
<event>
12    7  0.1606355E-007  0.3725566E+04  0.7818608E-02  0.8062319E-01
          2   -1    0    0  501    0  0.00000000000E+00  0.00000000000E+00  0.21790655297E+04  0.21790655297E+04  0.00000000000E+00 0. -1.
         -1   -1    0    0    0  501 -0.00000000000E+00 -0.00000000000E+00 -0.15924080114E+04  0.15924080114E+04  0.00000000000E+00 0.  1.
         24    2    1    2    0    0  0.48940503438E+03  0.41682959360E+03 -0.13738996548E+04  0.15188407344E+04  0.77541712808E+02 0.  0.
        254    2    1    2    0    0 -0.48940503438E+03 -0.41682959360E+03  0.19605571731E+04  0.22526328068E+04  0.90404974161E+03 0.  0.
         23    2    4    4    0    0 -0.26769567903E+03  0.10019771165E+03  0.11654405084E+03  0.32211842858E+03  0.92071756000E+02 0.  0.
         23    2    4    4    0    0 -0.22170935535E+03 -0.51702730524E+03  0.18440131223E+04  0.19305143782E+04  0.10014537773E+03 0.  0.
          2    1    3    3  502    0  0.11012504264E+03  0.10406564201E+03 -0.25342818632E+03  0.29526772341E+03  0.00000000000E+00 0. -1.
         -1    1    3    3    0  502  0.37927999175E+03  0.31276395158E+03 -0.11204714685E+04  0.12235730110E+04  0.00000000000E+00 0.  1.
         13    1    5    5    0    0 -0.27832639765E+02  0.24854924457E+02 -0.12711718973E+02  0.39420945008E+02  0.00000000000E+00 0. -1.
        -13    1    5    5    0    0 -0.23986303926E+03  0.75342787190E+02  0.12925576982E+03  0.28269748357E+03  0.00000000000E+00 0.  1.
          3    1    6    6  503    0 -0.12839733377E+03 -0.17881626965E+03  0.74713424081E+03  0.77889069028E+03  0.00000000000E+00 0. -1.
         -3    1    6    6    0  503 -0.93312021583E+02 -0.33821103560E+03  0.10968788814E+04  0.11516236879E+04  0.00000000000E+00 0.  1.
<mgrwt>
<rscale>  0 0.37255665E+04</rscale>
<asrwt>0</asrwt>
<pdfrwt beam="1">  1        2 0.33524085E+00 0.37255665E+04</pdfrwt>
<pdfrwt beam="2">  1       -1 0.24498585E+00 0.37255665E+04</pdfrwt>
<totfact> 0.36598453E-01</totfact>
</mgrwt>
</event>
<event>
12    7  0.1606355E-007  0.2198061E+04  0.7818608E-02  0.8519235E-01
         -1   -1    0    0    0  501 -0.00000000000E+00  0.00000000000E+00  0.62911023303E+03  0.62911023303E+03  0.00000000000E+00 0.  1.
          2   -1    0    0  501    0  0.00000000000E+00 -0.00000000000E+00 -0.19199631191E+04  0.19199631191E+04  0.00000000000E+00 0. -1.
         24    2    1    2    0    0 -0.14194244458E+03  0.10368121055E+03  0.49914580700E+03  0.53530339840E+03  0.80658171936E+02 0.  0.
        254    2    1    2    0    0  0.14194244458E+03 -0.10368121055E+03 -0.17899986930E+04  0.20137699537E+04  0.90569125772E+03 0.  0.
         23    2    4    4    0    0  0.27709724165E+03 -0.42820813213E+03 -0.13310243365E+04  0.14286040030E+04  0.95595643768E+02 0.  0.
         23    2    4    4    0    0 -0.13515479707E+03  0.32452692158E+03 -0.45897435649E+03  0.58516595071E+03  0.90427805185E+02 0.  0.
          2    1    3    3  502    0 -0.68425401036E+02  0.90484917328E+02  0.23746233846E+03  0.26316899125E+03  0.00000000000E+00 0. -1.
         -1    1    3    3    0  502 -0.73517043544E+02  0.13196293223E+02  0.26168346855E+03  0.27213440715E+03  0.00000000000E+00 0.  1.
         13    1    5    5    0    0  0.19313321011E+03 -0.25912164097E+03 -0.72293203514E+03  0.79188079223E+03  0.00000000000E+00 0.  1.
        -13    1    5    5    0    0  0.83964031539E+02 -0.16908649116E+03 -0.60809230140E+03  0.63672321075E+03  0.00000000000E+00 0. -1.
          4    1    6    6  503    0 -0.73908585921E+02  0.10566998498E+03 -0.22264489729E+03  0.25729239221E+03  0.00000000000E+00 0.  1.
         -4    1    6    6    0  503 -0.61246211148E+02  0.21885693660E+03 -0.23632945920E+03  0.32787355850E+03  0.00000000000E+00 0. -1.
<mgrwt>
<rscale>  0 0.21980614E+04</rscale>
<asrwt>0</asrwt>
<pdfrwt beam="1">  1        2 0.29537894E+00 0.21980614E+04</pdfrwt>
<pdfrwt beam="2">  1       -1 0.96786191E-01 0.21980614E+04</pdfrwt>
<totfact> 0.79082495E+00</totfact>
</mgrwt>
</event>
<event>
12    7  0.1606355E-007  0.2929569E+04  0.7818608E-02  0.8264134E-01
          4   -1    0    0  501    0  0.00000000000E+00  0.00000000000E+00  0.19477684551E+04  0.19477684551E+04  0.00000000000E+00 0. -1.
         -3   -1    0    0    0  501 -0.00000000000E+00 -0.00000000000E+00 -0.11015652265E+04  0.11015652265E+04  0.00000000000E+00 0.  1.
         24    2    1    2    0    0 -0.44414529376E+03 -0.33530421679E+03 -0.86818626968E+03  0.10342364656E+04  0.78763621353E+02 0.  0.
        254    2    1    2    0    0  0.44414529376E+03  0.33530421679E+03  0.17143894983E+04  0.20150972160E+04  0.90099471599E+03 0.  0.
         23    2    4    4    0    0 -0.24781701719E+03  0.13732507061E+03  0.75302125729E+03  0.81073169510E+03  0.99867003994E+02 0.  0.
         23    2    4    4    0    0  0.69196231095E+03  0.19797914618E+03  0.96136824099E+03  0.12043655209E+04  0.90883612288E+02 0.  0.
          2    1    3    3  502    0 -0.11494255024E+03 -0.11989415434E+03 -0.21439929804E+03  0.27120740606E+03  0.00000000000E+00 0. -1.
         -1    1    3    3    0  502 -0.32920274353E+03 -0.21541006245E+03 -0.65378697164E+03  0.76302905949E+03  0.00000000000E+00 0.  1.
         13    1    5    5    0    0 -0.19390793229E+03  0.13515821802E+03  0.68023047835E+03  0.72012605410E+03  0.00000000000E+00 0.  1.
        -13    1    5    5    0    0 -0.53909084892E+02  0.21668525876E+01  0.72790778937E+02  0.90605641007E+02  0.00000000000E+00 0. -1.
          2    1    6    6  503    0  0.20081326417E+03  0.95625212341E+02  0.32951994249E+03  0.39755948083E+03  0.00000000000E+00 0. -1.
         -2    1    6    6    0  503  0.49114904678E+03  0.10235393384E+03  0.63184829850E+03  0.80680604004E+03  0.00000000000E+00 0.  1.
<mgrwt>
<rscale>  0 0.29295693E+04</rscale>
<asrwt>0</asrwt>
<pdfrwt beam="1">  1        4 0.29965669E+00 0.29295693E+04</pdfrwt>
<pdfrwt beam="2">  1       -3 0.16947157E+00 0.29295693E+04</pdfrwt>
<totfact> 0.14119181E-02</totfact>
</mgrwt>
</event>
<event>
12    7  0.1606355E-007  0.1685998E+04  0.7818608E-02  0.8769391E-01
          2   -1    0    0  501    0  0.00000000000E+00  0.00000000000E+00  0.73630912958E+03  0.73630912958E+03  0.00000000000E+00 0. -1.
         -1   -1    0    0    0  501 -0.00000000000E+00 -0.00000000000E+00 -0.96514838398E+03  0.96514838398E+03  0.00000000000E+00 0.  1.
         24    2    1    2    0    0  0.16510897054E+03  0.29948062571E+03 -0.57111200286E+03  0.67127642461E+03  0.86565010873E+02 0.  0.
        254    2    1    2    0    0 -0.16510897054E+03 -0.29948062571E+03  0.34227274845E+03  0.10301810889E+04  0.90949042016E+03 0.  0.
         23    2    4    4    0    0 -0.11548672925E+03  0.28735132460E+03 -0.34915044756E+02  0.32483125614E+03  0.91587751527E+02 0.  0.
         23    2    4    4    0    0 -0.49622241285E+02 -0.58683195031E+03  0.37718779321E+03  0.70534983281E+03  0.91725953572E+02 0.  0.
          4    1    3    3  502    0  0.19157482111E+02  0.39495945937E+02 -0.14290972749E+03  0.14949959558E+03  0.00000000000E+00 0. -1.
         -3    1    3    3    0  502  0.14595148843E+03  0.25998467977E+03 -0.42820227537E+03  0.52177682904E+03  0.00000000000E+00 0.  1.
         13    1    5    5    0    0 -0.10569032321E+03  0.14646945458E+03 -0.32914883725E+02  0.18359503020E+03  0.00000000000E+00 0. -1.
        -13    1    5    5    0    0 -0.97964060465E+01  0.14088187002E+03 -0.20001610316E+01  0.14123622593E+03  0.00000000000E+00 0.  1.
          4    1    6    6  503    0 -0.43867903508E+02 -0.43514441318E+03  0.23100562552E+03  0.49460959584E+03  0.00000000000E+00 0.  1.
         -4    1    6    6    0  503 -0.57543377775E+01 -0.15168753713E+03  0.14618216769E+03  0.21074023696E+03  0.00000000000E+00 0. -1.
<mgrwt>
<rscale>  0 0.16859983E+04</rscale>
<asrwt>0</asrwt>
<pdfrwt beam="1">  1        2 0.11327833E+00 0.16859983E+04</pdfrwt>
<pdfrwt beam="2">  1       -1 0.14848437E+00 0.16859983E+04</pdfrwt>
<totfact> 0.14980480E+01</totfact>
</mgrwt>
</event>
<event>
12    7  0.1606355E-007  0.3142630E+04  0.7818608E-02  0.8204135E-01
         -1   -1    0    0    0  501 -0.00000000000E+00  0.00000000000E+00  0.16680186907E+04  0.16680186907E+04  0.00000000000E+00 0.  1.
          2   -1    0    0  501    0  0.00000000000E+00 -0.00000000000E+00 -0.14802174799E+04  0.14802174799E+04  0.00000000000E+00 0. -1.
         24    2    1    2    0    0  0.97429650002E+03  0.94780045196E+03  0.42793928729E+03  0.14272219353E+04  0.79063595736E+02 0.  0.
        254    2    1    2    0    0 -0.97429650002E+03 -0.94780045196E+03 -0.24013807651E+03  0.17210142353E+04  0.10279320676E+04 0.  0.
         23    2    4    4    0    0 -0.77673394377E+03 -0.71764151239E+03 -0.61777947664E+03  0.12280033955E+04  0.89531547309E+02 0.  0.
         23    2    4    4    0    0 -0.19756255626E+03 -0.23015893956E+03  0.37764140013E+03  0.49301083978E+03  0.91883404120E+02 0.  0.
          4    1    3    3  502    0  0.48857087524E+03  0.45592539845E+03  0.17156146574E+03  0.68992956569E+03  0.00000000000E+00 0. -1.
         -3    1    3    3    0  502  0.48572562478E+03  0.49187505351E+03  0.25637782155E+03  0.73729236956E+03  0.00000000000E+00 0.  1.
         13    1    5    5    0    0 -0.67448751364E+03 -0.65418277663E+03 -0.52749392260E+03  0.10775612974E+04  0.00000000000E+00 0. -1.
        -13    1    5    5    0    0 -0.10224643013E+03 -0.63458735765E+02 -0.90285554036E+02  0.15044209812E+03  0.00000000000E+00 0.  1.
          3    1    6    6  503    0 -0.71291796418E+01 -0.28348181580E+02  0.84312055545E+02  0.89235459944E+02  0.00000000000E+00 0. -1.
         -3    1    6    6    0  503 -0.19043337661E+03 -0.20181075798E+03  0.29332934459E+03  0.40377537984E+03  0.00000000000E+00 0.  1.
<mgrwt>
<rscale>  0 0.31426297E+04</rscale>
<asrwt>0</asrwt>
<pdfrwt beam="1">  1        2 0.22772577E+00 0.31426297E+04</pdfrwt>
<pdfrwt beam="2">  1       -1 0.25661826E+00 0.31426297E+04</pdfrwt>
<totfact> 0.79198289E-01</totfact>
</mgrwt>
</event>
<event>
12    7  0.1606355E-007  0.2082019E+04  0.7818608E-02  0.8569206E-01
         -1   -1    0    0    0  501 -0.00000000000E+00  0.00000000000E+00  0.63609184923E+03  0.63609184923E+03  0.00000000000E+00 0.  1.
          2   -1    0    0  501    0  0.00000000000E+00 -0.00000000000E+00 -0.17036857723E+04  0.17036857723E+04  0.00000000000E+00 0. -1.
         24    2    1    2    0    0 -0.14367992444E+03  0.48812572940E+03 -0.11895599566E+04  0.12963623073E+04  0.81189242962E+02 0.  0.
        254    2    1    2    0    0  0.14367992444E+03 -0.48812572940E+03  0.12196603354E+03  0.10434153142E+04  0.90273426661E+03 0.  0.
         23    2    4    4    0    0 -0.77407561431E+01 -0.57056397346E+03  0.40053656144E+03  0.70317027986E+03  0.91737333267E+02 0.  0.
         23    2    4    4    0    0  0.15142068058E+03  0.82438244057E+02 -0.27857052790E+03  0.34024503431E+03  0.91874140895E+02 0.  0.
          4    1    3    3  502    0 -0.12835604147E+03  0.46178309126E+03 -0.11537306351E+04  0.12493251279E+04  0.00000000000E+00 0. -1.
         -3    1    3    3    0  502 -0.15323882974E+02  0.26342638139E+02 -0.35829321462E+02  0.47037179443E+02  0.00000000000E+00 0.  1.
         13    1    5    5    0    0  0.28736925308E+02 -0.33485329120E+03  0.27110065101E+03  0.43179636460E+03  0.00000000000E+00 0.  1.
        -13    1    5    5    0    0 -0.36477681451E+02 -0.23571068226E+03  0.12943591043E+03  0.27137391526E+03  0.00000000000E+00 0. -1.
          4    1    6    6  503    0  0.56842663139E+02  0.65043730899E+02 -0.72247436078E+02  0.11261202112E+03  0.00000000000E+00 0. -1.
         -4    1    6    6    0  503  0.94578017443E+02  0.17394513158E+02 -0.20632309182E+03  0.22763301318E+03  0.00000000000E+00 0.  1.
<mgrwt>
<rscale>  0 0.20820189E+04</rscale>
<asrwt>0</asrwt>
<pdfrwt beam="1">  1        2 0.26210551E+00 0.20820189E+04</pdfrwt>
<pdfrwt beam="2">  1       -1 0.97860284E-01 0.20820189E+04</pdfrwt>
<totfact> 0.10272307E+01</totfact>
</mgrwt>
</event>
<event>
12    7  0.1606355E-007  0.1721742E+04  0.7818608E-02  0.8749060E-01
          2   -1    0    0  501    0  0.00000000000E+00  0.00000000000E+00  0.11187467625E+04  0.11187467625E+04  0.00000000000E+00 0. -1.
         -1   -1    0    0    0  501 -0.00000000000E+00 -0.00000000000E+00 -0.66243659958E+03  0.66243659958E+03  0.00000000000E+00 0.  1.
         24    2    1    2    0    0  0.32903525337E+03  0.28008481558E+03  0.63113603242E+03  0.76918747370E+03  0.81271005900E+02 0.  0.
        254    2    1    2    0    0 -0.32903525337E+03 -0.28008481558E+03 -0.17482586945E+03  0.10119958884E+04  0.89825380137E+03 0.  0.
         23    2    4    4    0    0 -0.49954824738E+03 -0.41499313499E+03 -0.32630235232E+03  0.73240235949E+03  0.90400428700E+02 0.  0.
         23    2    4    4    0    0  0.17051299402E+03  0.13490831940E+03  0.15147648287E+03  0.27959352893E+03  0.89176682974E+02 0.  0.
          2    1    3    3  502    0  0.31452340696E+03  0.23877506049E+03  0.55136434904E+03  0.67818961097E+03  0.00000000000E+00 0. -1.
         -1    1    3    3    0  502  0.14511846410E+02  0.41309755096E+02  0.79771683377E+02  0.90997862728E+02  0.00000000000E+00 0.  1.
         13    1    5    5    0    0 -0.49790191508E+03 -0.41918833067E+03 -0.32195504132E+03  0.72614063530E+03  0.00000000000E+00 0. -1.
        -13    1    5    5    0    0 -0.16463323016E+01  0.41951956807E+01 -0.43473110026E+01  0.62617241875E+01  0.00000000000E+00 0.  1.
          1    1    6    6  503    0  0.32910629096E+02  0.72856276991E+02  0.78082105703E+02  0.11174954960E+03  0.00000000000E+00 0. -1.
         -1    1    6    6    0  503  0.13760236492E+03  0.62052042413E+02  0.73394377165E+02  0.16784397933E+03  0.00000000000E+00 0.  1.
<mgrwt>
<rscale>  0 0.17217419E+04</rscale>
<asrwt>0</asrwt>
<pdfrwt beam="1">  1        2 0.17211489E+00 0.17217419E+04</pdfrwt>
<pdfrwt beam="2">  1       -1 0.10191332E+00 0.17217419E+04</pdfrwt>
<totfact> 0.20974419E+01</totfact>
</mgrwt>
</event>
<event>
12    7  0.1606355E-007  0.1169252E+04  0.7818608E-02  0.9140204E-01
         -1   -1    0    0    0  501 -0.00000000000E+00  0.00000000000E+00  0.40598385396E+03  0.40598385396E+03  0.00000000000E+00 0.  1.
          2   -1    0    0  501    0  0.00000000000E+00 -0.00000000000E+00 -0.84187496790E+03  0.84187496790E+03  0.00000000000E+00 0. -1.
         24    2    1    2    0    0  0.41431382001E+02 -0.22204968803E+03 -0.15698762353E+03  0.28645861051E+03  0.79942468232E+02 0.  0.
        254    2    1    2    0    0 -0.41431382001E+02  0.22204968803E+03 -0.27890349041E+03  0.96140021135E+03  0.89189718357E+03 0.  0.
         23    2    4    4    0    0 -0.11740373682E+03 -0.58520310023E+02  0.27947106810E+03  0.32469395092E+03  0.10056748854E+03 0.  0.
         23    2    4    4    0    0  0.75972354819E+02  0.28056999805E+03 -0.55837455852E+03  0.63670626044E+03  0.95505978764E+02 0.  0.
          4    1    3    3  502    0  0.47676789961E+02 -0.21946111067E+03 -0.13184192456E+03  0.26041994638E+03  0.00000000000E+00 0. -1.
         -3    1    3    3    0  502 -0.62454079605E+01 -0.25885773517E+01 -0.25145698964E+02  0.26038664130E+02  0.00000000000E+00 0.  1.
         13    1    5    5    0    0 -0.59565746402E+02 -0.40957404632E+02  0.24427768181E+03  0.25474923546E+03  0.00000000000E+00 0.  1.
        -13    1    5    5    0    0 -0.57837990418E+02 -0.17562905391E+02  0.35193386298E+02  0.69944715458E+02  0.00000000000E+00 0. -1.
          1    1    6    6  503    0 -0.34670441393E+01  0.55165558313E+02 -0.48244157794E+02  0.73367281402E+02  0.00000000000E+00 0. -1.
         -1    1    6    6    0  503  0.79439398958E+02  0.22540443974E+03 -0.51013040072E+03  0.56333897904E+03  0.00000000000E+00 0.  1.
<mgrwt>
<rscale>  0 0.11692521E+04</rscale>
<asrwt>0</asrwt>
<pdfrwt beam="1">  1        2 0.12951923E+00 0.11692521E+04</pdfrwt>
<pdfrwt beam="2">  1       -1 0.62459054E-01 0.11692521E+04</pdfrwt>
<totfact> 0.94361438E+01</totfact>
</mgrwt>
</event>
<event>
12    7  0.1606355E-007  0.2347592E+04  0.7818608E-02  0.8459389E-01
         -1   -1    0    0    0  501 -0.00000000000E+00  0.00000000000E+00  0.50007448960E+03  0.50007448960E+03  0.00000000000E+00 0.  1.
          2   -1    0    0  501    0  0.00000000000E+00 -0.00000000000E+00 -0.27551833545E+04  0.27551833545E+04  0.00000000000E+00 0. -1.
         24    2    1    2    0    0 -0.82047075107E+02  0.32932968880E+03 -0.22722895764E+04  0.22988095859E+04  0.77690583432E+02 0.  0.
        254    2    1    2    0    0  0.82047075107E+02 -0.32932968880E+03  0.17180711438E+02  0.95644825826E+03  0.89404045067E+03 0.  0.
         23    2    4    4    0    0 -0.31204075748E+02 -0.49868918544E+03  0.30492808494E+03  0.59221808212E+03  0.89869470858E+02 0.  0.
         23    2    4    4    0    0  0.11325115086E+03  0.16935949664E+03 -0.28774737350E+03  0.36423017614E+03  0.91414484529E+02 0.  0.
          4    1    3    3  502    0  0.95824614455E+01  0.11048154689E+03 -0.71175159032E+03  0.72033903274E+03  0.00000000000E+00 0. -1.
         -3    1    3    3    0  502 -0.91629536553E+02  0.21884814191E+03 -0.15605379861E+04  0.15784705531E+04  0.00000000000E+00 0.  1.
         13    1    5    5    0    0 -0.28567933876E+02 -0.22891967566E+03  0.19045224134E+03  0.29915280540E+03  0.00000000000E+00 0. -1.
        -13    1    5    5    0    0 -0.26361418718E+01 -0.26976950979E+03  0.11447584360E+03  0.29306527673E+03  0.00000000000E+00 0.  1.
          1    1    6    6  503    0  0.73189818969E+02  0.65650615182E+02 -0.19904246098E+03  0.22200147330E+03  0.00000000000E+00 0. -1.
         -1    1    6    6    0  503  0.40061331886E+02  0.10370888146E+03 -0.88704912520E+02  0.14222870284E+03  0.00000000000E+00 0.  1.
<mgrwt>
<rscale>  0 0.23475919E+04</rscale>
<asrwt>0</asrwt>
<pdfrwt beam="1">  1        2 0.42387437E+00 0.23475919E+04</pdfrwt>
<pdfrwt beam="2">  1       -1 0.76934536E-01 0.23475919E+04</pdfrwt>
<totfact> 0.42855569E+00</totfact>
</mgrwt>
</event>
<event>
12    7  0.1606355E-007  0.1745824E+04  0.7818608E-02  0.8735652E-01
          2   -1    0    0  501    0  0.00000000000E+00  0.00000000000E+00  0.78686437332E+03  0.78686437332E+03  0.00000000000E+00 0. -1.
         -1   -1    0    0    0  501 -0.00000000000E+00 -0.00000000000E+00 -0.96836966088E+03  0.96836966088E+03  0.00000000000E+00 0.  1.
         24    2    1    2    0    0  0.13313224659E+03 -0.34276427375E+03  0.45599944452E+03  0.59125968340E+03  0.80255699930E+02 0.  0.
        254    2    1    2    0    0 -0.13313224659E+03  0.34276427375E+03 -0.63750473208E+03  0.11639743508E+04  0.90178293588E+03 0.  0.
         23    2    4    4    0    0 -0.22914861007E+03  0.51486340257E+03 -0.93708055591E+02  0.57904234241E+03  0.94421532620E+02 0.  0.
         23    2    4    4    0    0  0.96016363486E+02 -0.17209912882E+03 -0.54379667649E+03  0.58493200838E+03  0.87139984316E+02 0.  0.
          4    1    3    3  502    0  0.11091436529E+03 -0.17535055297E+03  0.25056456053E+03  0.32531893866E+03  0.00000000000E+00 0. -1.
         -1    1    3    3    0  502  0.22217881293E+02 -0.16741372078E+03  0.20543488399E+03  0.26594074474E+03  0.00000000000E+00 0.  1.
         13    1    5    5    0    0 -0.21057050857E+03  0.39890134016E+03 -0.97725768993E+02  0.46153282027E+03  0.00000000000E+00 0. -1.
        -13    1    5    5    0    0 -0.18578101504E+02  0.11596206241E+03  0.40177134014E+01  0.11750952215E+03  0.00000000000E+00 0.  1.
          2    1    6    6  503    0  0.96786001746E+02 -0.14822704415E+03 -0.52643783467E+03  0.55540578006E+03  0.00000000000E+00 0. -1.
         -2    1    6    6    0  503 -0.76963825970E+00 -0.23872084667E+02 -0.17358841820E+02  0.29526228319E+02  0.00000000000E+00 0.  1.
<mgrwt>
<rscale>  0 0.17458243E+04</rscale>
<asrwt>0</asrwt>
<pdfrwt beam="1">  1        2 0.12105606E+00 0.17458243E+04</pdfrwt>
<pdfrwt beam="2">  1       -1 0.14897995E+00 0.17458243E+04</pdfrwt>
<totfact> 0.13545607E+01</totfact>
</mgrwt>
</event>
<event>
12    7  0.1606355E-007  0.1441676E+04  0.7818608E-02  0.8924192E-01
          2   -1    0    0  501    0  0.00000000000E+00  0.00000000000E+00  0.82341483353E+03  0.82341483353E+03  0.00000000000E+00 0. -1.
         -1   -1    0    0    0  501 -0.00000000000E+00 -0.00000000000E+00 -0.63103999405E+03  0.63103999405E+03  0.00000000000E+00 0.  1.
         24    2    1    2    0    0 -0.11632880562E+03  0.40520184617E+03  0.50516456652E+02  0.43202406789E+03  0.79824530645E+02 0.  0.
        254    2    1    2    0    0  0.11632880562E+03 -0.40520184617E+03  0.14185838283E+03  0.10224307597E+04  0.92060845663E+03 0.  0.
         23    2    4    4    0    0  0.96076311353E+02 -0.27247278821E+03  0.52543143999E+03  0.60641940858E+03  0.90521947891E+02 0.  0.
         23    2    4    4    0    0  0.20252494272E+02 -0.13272905796E+03 -0.38357305716E+03  0.41601135111E+03  0.88938111750E+02 0.  0.
          4    1    3    3  502    0 -0.84130173157E+02  0.24039100290E+03  0.66822040770E+02  0.26330762512E+03  0.00000000000E+00 0. -1.
         -3    1    3    3    0  502 -0.32198632468E+02  0.16481084326E+03 -0.16305584118E+02  0.16871644278E+03  0.00000000000E+00 0.  1.
         13    1    5    5    0    0  0.51535716941E+02 -0.87088533152E+02  0.11082191634E+03  0.15007278191E+03  0.00000000000E+00 0. -1.
        -13    1    5    5    0    0  0.44540594412E+02 -0.18538425506E+03  0.41460952365E+03  0.45634662667E+03  0.00000000000E+00 0.  1.
          3    1    6    6  503    0 -0.11028821825E+02  0.38118227639E+01 -0.89753496060E+02  0.90508866740E+02  0.00000000000E+00 0. -1.
         -3    1    6    6    0  503  0.31281316097E+02 -0.13654088072E+03 -0.29381956110E+03  0.32550248437E+03  0.00000000000E+00 0.  1.
<mgrwt>
<rscale>  0 0.14416764E+04</rscale>
<asrwt>0</asrwt>
<pdfrwt beam="1">  1        2 0.12667921E+00 0.14416764E+04</pdfrwt>
<pdfrwt beam="2">  1       -1 0.97083076E-01 0.14416764E+04</pdfrwt>
<totfact> 0.37444457E+01</totfact>
</mgrwt>
</event>
<event>
12    7  0.1606355E-007  0.1639161E+04  0.7818608E-02  0.8796845E-01
         -1   -1    0    0    0  501 -0.00000000000E+00  0.00000000000E+00  0.38704698356E+03  0.38704698356E+03  0.00000000000E+00 0.  1.
          2   -1    0    0  501    0  0.00000000000E+00 -0.00000000000E+00 -0.17354789998E+04  0.17354789998E+04  0.00000000000E+00 0. -1.
         24    2    1    2    0    0 -0.40315106867E+03  0.35368601605E+03 -0.76453242767E+03  0.93727822715E+03  0.79724902116E+02 0.  0.
        254    2    1    2    0    0  0.40315106867E+03 -0.35368601605E+03 -0.58389958862E+03  0.11852477563E+04  0.88104990324E+03 0.  0.
         23    2    4    4    0    0  0.42728312501E+03 -0.49781414404E+03 -0.97689611573E+02  0.66953914730E+03  0.91376247628E+02 0.  0.
         23    2    4    4    0    0 -0.24132056342E+02  0.14412812799E+03 -0.48620997704E+03  0.51570860896E+03  0.90553598235E+02 0.  0.
          4    1    3    3  502    0 -0.32569414877E+03  0.27891195568E+03 -0.55148021527E+03  0.69856924166E+03  0.00000000000E+00 0. -1.
         -3    1    3    3    0  502 -0.77456919896E+02  0.74774060366E+02 -0.21305221240E+03  0.23870898549E+03  0.00000000000E+00 0.  1.
         13    1    5    5    0    0  0.11361234345E+02  0.24100060982E+01  0.47966828991E+00  0.11623934657E+02  0.00000000000E+00 0.  1.
        -13    1    5    5    0    0  0.41592189066E+03 -0.50022415014E+03 -0.98169279863E+02  0.65791521264E+03  0.00000000000E+00 0. -1.
          4    1    6    6  503    0 -0.27388251705E+02  0.12126614524E+03 -0.25861177361E+03  0.28694188220E+03  0.00000000000E+00 0. -1.
         -4    1    6    6    0  503  0.32561953631E+01  0.22861982756E+02 -0.22759820343E+03  0.22876672675E+03  0.00000000000E+00 0.  1.
<mgrwt>
<rscale>  0 0.16391607E+04</rscale>
<asrwt>0</asrwt>
<pdfrwt beam="1">  1        2 0.26699676E+00 0.16391607E+04</pdfrwt>
<pdfrwt beam="2">  1       -1 0.59545691E-01 0.16391607E+04</pdfrwt>
<totfact> 0.29181112E+01</totfact>
</mgrwt>
</event>
<event>
12    7  0.1606355E-007  0.3226108E+04  0.7818608E-02  0.8181956E-01
         -1   -1    0    0    0  501 -0.00000000000E+00  0.00000000000E+00  0.11804349264E+04  0.11804349264E+04  0.00000000000E+00 0.  1.
          2   -1    0    0  501    0  0.00000000000E+00 -0.00000000000E+00 -0.22042242545E+04  0.22042242545E+04  0.00000000000E+00 0. -1.
         24    2    1    2    0    0 -0.10302930775E+04 -0.10653368888E+04 -0.37022674818E+03  0.15296953815E+04  0.80334319782E+02 0.  0.
        254    2    1    2    0    0  0.10302930775E+04  0.10653368888E+04 -0.65356257988E+03  0.18549637994E+04  0.90404653590E+03 0.  0.
         23    2    4    4    0    0  0.87704192080E+03  0.11539124811E+04 -0.35394132122E+03  0.14950657848E+04  0.96076517934E+02 0.  0.
         23    2    4    4    0    0  0.15325115674E+03 -0.88575592314E+02 -0.29962125865E+03  0.35989801456E+03  0.91772161616E+02 0.  0.
          2    1    3    3  502    0 -0.95526795619E+03 -0.96102042002E+03 -0.32482381160E+03  0.13934158117E+04  0.00000000000E+00 0. -1.
         -1    1    3    3    0  502 -0.75025121345E+02 -0.10431646875E+03 -0.45402936587E+02  0.13627956977E+03  0.00000000000E+00 0.  1.
         13    1    5    5    0    0  0.24759192131E+02  0.25904972852E+02  0.56265791374E+01  0.36273180261E+02  0.00000000000E+00 0.  1.
        -13    1    5    5    0    0  0.85228272867E+03  0.11280075082E+04 -0.35956790036E+03  0.14587926046E+04  0.00000000000E+00 0. -1.
          4    1    6    6  503    0  0.15614390722E+03 -0.73750202265E+02 -0.22427985956E+03  0.28305735726E+03  0.00000000000E+00 0. -1.
         -4    1    6    6    0  503 -0.28927504842E+01 -0.14825390050E+02 -0.75341399095E+02  0.76840657292E+02  0.00000000000E+00 0.  1.
<mgrwt>
<rscale>  0 0.32261081E+04</rscale>
<asrwt>0</asrwt>
<pdfrwt beam="1">  1        2 0.33911142E+00 0.32261081E+04</pdfrwt>
<pdfrwt beam="2">  1       -1 0.18160537E+00 0.32261081E+04</pdfrwt>
<totfact> 0.99430969E-01</totfact>
</mgrwt>
</event>
<event>
12    7  0.1606355E-007  0.3026179E+04  0.7818608E-02  0.8236294E-01
         -1   -1    0    0    0  501 -0.00000000000E+00  0.00000000000E+00  0.94128171099E+03  0.94128171099E+03  0.00000000000E+00 0.  1.
          2   -1    0    0  501    0  0.00000000000E+00 -0.00000000000E+00 -0.24322583931E+04  0.24322583931E+04  0.00000000000E+00 0. -1.
         24    2    1    2    0    0  0.72674172120E+03  0.85748356075E+03 -0.15487112112E+04  0.19152256523E+04  0.78430205219E+02 0.  0.
        254    2    1    2    0    0 -0.72674172120E+03 -0.85748356075E+03  0.57734529116E+02  0.14583144518E+04  0.92731665476E+03 0.  0.
         23    2    4    4    0    0  0.20793205331E+03 -0.90932737809E+02  0.67328764134E+00  0.24447364903E+03  0.90897800611E+02 0.  0.
         23    2    4    4    0    0 -0.93467377451E+03 -0.76655082294E+03  0.57061241475E+02  0.12138408028E+04  0.94542478628E+02 0.  0.
          2    1    3    3  502    0  0.46113781187E+03  0.54267456976E+03 -0.10444301167E+04  0.12641115611E+04  0.00000000000E+00 0. -1.
         -1    1    3    3    0  502  0.26560390933E+03  0.31480899099E+03 -0.50428109455E+03  0.65111409122E+03  0.00000000000E+00 0.  1.
         13    1    5    5    0    0  0.16644141766E+03 -0.49453895501E+02  0.34101652304E+02  0.17695015113E+03  0.00000000000E+00 0. -1.
        -13    1    5    5    0    0  0.41490635651E+02 -0.41478842308E+02 -0.33428364662E+02  0.67523497910E+02  0.00000000000E+00 0.  1.
          2    1    6    6  503    0 -0.81045425684E+03 -0.69941557257E+03  0.64326600700E+02  0.10724533356E+04  0.00000000000E+00 0. -1.
         -2    1    6    6    0  503 -0.12421951768E+03 -0.67135250373E+02 -0.72653592248E+01  0.14138746712E+03  0.00000000000E+00 0.  1.
<mgrwt>
<rscale>  0 0.30261793E+04</rscale>
<asrwt>0</asrwt>
<pdfrwt beam="1">  1        2 0.37419360E+00 0.30261793E+04</pdfrwt>
<pdfrwt beam="2">  1       -1 0.14481257E+00 0.30261793E+04</pdfrwt>
<totfact> 0.14178181E+00</totfact>
</mgrwt>
</event>
<event>
12    7  0.1606355E-007  0.2543103E+04  0.7818608E-02  0.8387789E-01
         -1   -1    0    0    0  501 -0.00000000000E+00  0.00000000000E+00  0.15378427392E+04  0.15378427392E+04  0.00000000000E+00 0.  1.
          2   -1    0    0  501    0  0.00000000000E+00 -0.00000000000E+00 -0.10513713557E+04  0.10513713557E+04  0.00000000000E+00 0. -1.
         24    2    1    2    0    0  0.87874066171E+03  0.35520859330E+03 -0.37183229809E+03  0.10212539162E+04  0.79636726781E+02 0.  0.
        254    2    1    2    0    0 -0.87874066171E+03 -0.35520859330E+03  0.85830368168E+03  0.15679601786E+04  0.90744455288E+03 0.  0.
         23    2    4    4    0    0 -0.19064786639E+03  0.97062942003E+02  0.68242317142E+03  0.72103663761E+03  0.91785751654E+02 0.  0.
         23    2    4    4    0    0 -0.68809279532E+03 -0.45227153530E+03  0.17588051026E+03  0.84692354104E+03  0.91237568319E+02 0.  0.
          4    1    3    3  502    0  0.61944116729E+03  0.28398998882E+03 -0.28555235139E+03  0.73884898245E+03  0.00000000000E+00 0. -1.
         -3    1    3    3    0  502  0.25929949442E+03  0.71218604478E+02 -0.86279946701E+02  0.28240493380E+03  0.00000000000E+00 0.  1.
         13    1    5    5    0    0  0.39202055809E+01  0.41882216921E+01  0.40309751469E+00  0.57507999744E+01  0.00000000000E+00 0.  1.
        -13    1    5    5    0    0 -0.19456807197E+03  0.92874720311E+02  0.68202007391E+03  0.71528583763E+03  0.00000000000E+00 0. -1.
          2    1    6    6  503    0 -0.13820849105E+03 -0.13204525578E+03  0.23371213474E+02  0.19257141582E+03  0.00000000000E+00 0. -1.
         -2    1    6    6    0  503 -0.54988430427E+03 -0.32022627952E+03  0.15250929678E+03  0.65435212522E+03  0.00000000000E+00 0.  1.
<mgrwt>
<rscale>  0 0.25431035E+04</rscale>
<asrwt>0</asrwt>
<pdfrwt beam="1">  1        2 0.16174944E+00 0.25431035E+04</pdfrwt>
<pdfrwt beam="2">  1       -1 0.23659119E+00 0.25431035E+04</pdfrwt>
<totfact> 0.20205553E+00</totfact>
</mgrwt>
</event>
<event>
12    7  0.1606355E-007  0.1433852E+04  0.7818608E-02  0.8929672E-01
         -1   -1    0    0    0  501 -0.00000000000E+00  0.00000000000E+00  0.20260502965E+03  0.20260502965E+03  0.00000000000E+00 0.  1.
          2   -1    0    0  501    0  0.00000000000E+00 -0.00000000000E+00 -0.25368728549E+04  0.25368728549E+04  0.00000000000E+00 0. -1.
         24    2    1    2    0    0  0.19797040783E+03 -0.17440979296E+02  0.16253261298E+02  0.21468210522E+03  0.79547266868E+02 0.  0.
        254    2    1    2    0    0 -0.19797040783E+03  0.17440979296E+02 -0.23505210866E+04  0.25247957794E+04  0.90008215120E+03 0.  0.
         23    2    4    4    0    0 -0.30859441775E+03 -0.34642714601E+03 -0.83229541603E+03  0.95699991477E+03  0.88830710707E+02 0.  0.
         23    2    4    4    0    0  0.11062400992E+03  0.36386812531E+03 -0.15182256705E+04  0.15677958646E+04  0.91307185648E+02 0.  0.
          2    1    3    3  502    0  0.20051914193E+03 -0.27490145883E+02  0.10144397141E+02  0.20264881740E+03  0.00000000000E+00 0. -1.
         -1    1    3    3    0  502 -0.25487340985E+01  0.10049166588E+02  0.61088641562E+01  0.12033287825E+02  0.00000000000E+00 0.  1.
         13    1    5    5    0    0 -0.12383457678E+03 -0.77512042692E+02 -0.25995961103E+03  0.29819811961E+03  0.00000000000E+00 0.  1.
        -13    1    5    5    0    0 -0.18475984097E+03 -0.26891510332E+03 -0.57233580499E+03  0.65880179516E+03  0.00000000000E+00 0. -1.
          2    1    6    6  503    0 -0.29038688539E+01  0.32424482647E+02 -0.62096505078E+02  0.70112448767E+02  0.00000000000E+00 0. -1.
         -2    1    6    6    0  503  0.11352787877E+03  0.33144364266E+03 -0.14561291655E+04  0.14976834158E+04  0.00000000000E+00 0.  1.
<mgrwt>
<rscale>  0 0.14338524E+04</rscale>
<asrwt>0</asrwt>
<pdfrwt beam="1">  1        2 0.39028810E+00 0.14338524E+04</pdfrwt>
<pdfrwt beam="2">  1       -1 0.31170007E-01 0.14338524E+04</pdfrwt>
<totfact> 0.35076305E+01</totfact>
</mgrwt>
</event>
<event>
12    7  0.1606355E-007  0.2699542E+04  0.7818608E-02  0.8335154E-01
         -1   -1    0    0    0  501 -0.00000000000E+00  0.00000000000E+00  0.57985566027E+03  0.57985566027E+03  0.00000000000E+00 0.  1.
          2   -1    0    0  501    0  0.00000000000E+00 -0.00000000000E+00 -0.31419574173E+04  0.31419574173E+04  0.00000000000E+00 0. -1.
         24    2    1    2    0    0 -0.88986025732E+03  0.77709619153E+03 -0.85707182193E+03  0.14615842720E+04  0.76985114136E+02 0.  0.
        254    2    1    2    0    0  0.88986025732E+03 -0.77709619153E+03 -0.17050299351E+04  0.22602288055E+04  0.89765104877E+03 0.  0.
         23    2    4    4    0    0  0.47552926392E+03 -0.55707457684E+03 -0.33714900359E+03  0.81137293654E+03  0.90534117971E+02 0.  0.
         23    2    4    4    0    0  0.41433099340E+03 -0.22002161469E+03 -0.13678809315E+04  0.14488558690E+04  0.89472919685E+02 0.  0.
          2    1    3    3  502    0 -0.74884700445E+03  0.65626208332E+03 -0.68652398957E+03  0.12094490259E+04  0.00000000000E+00 0. -1.
         -1    1    3    3    0  502 -0.14101325287E+03  0.12083410821E+03 -0.17054783237E+03  0.25213524608E+03  0.00000000000E+00 0.  1.
         13    1    5    5    0    0  0.13603382446E+03 -0.21655693543E+03 -0.93235252447E+02  0.27220382065E+03  0.00000000000E+00 0.  1.
        -13    1    5    5    0    0  0.33949543946E+03 -0.34051764142E+03 -0.24391375114E+03  0.53916911589E+03  0.00000000000E+00 0. -1.
          1    1    6    6  503    0  0.40301817467E+03 -0.22264132455E+03 -0.12816016498E+04  0.13617986625E+04  0.00000000000E+00 0.  1.
         -1    1    6    6    0  503  0.11312818732E+02  0.26197098622E+01 -0.86279281671E+02  0.87057206440E+02  0.00000000000E+00 0. -1.
<mgrwt>
<rscale>  0 0.26995420E+04</rscale>
<asrwt>0</asrwt>
<pdfrwt beam="1">  1        2 0.48337807E+00 0.26995420E+04</pdfrwt>
<pdfrwt beam="2">  1       -1 0.89208561E-01 0.26995420E+04</pdfrwt>
<totfact> 0.17369595E+00</totfact>
</mgrwt>
</event>
<event>
12    7  0.1606355E-007  0.1860995E+04  0.7818608E-02  0.8674519E-01
         -1   -1    0    0    0  501 -0.00000000000E+00  0.00000000000E+00  0.53933868175E+03  0.53933868175E+03  0.00000000000E+00 0.  1.
          2   -1    0    0  501    0  0.00000000000E+00 -0.00000000000E+00 -0.16053464118E+04  0.16053464118E+04  0.00000000000E+00 0. -1.
         24    2    1    2    0    0  0.19758297320E+03 -0.41739312604E+03  0.20691323506E+03  0.51241565056E+03  0.80626665191E+02 0.  0.
        254    2    1    2    0    0 -0.19758297320E+03  0.41739312604E+03 -0.12729209651E+04  0.16322694430E+04  0.91143825797E+03 0.  0.
         23    2    4    4    0    0 -0.32590679461E+03  0.39784623124E+03 -0.21871969020E+03  0.56621641182E+03  0.90916773167E+02 0.  0.
         23    2    4    4    0    0  0.12832382141E+03  0.19546894795E+02 -0.10542012749E+04  0.10660530311E+04  0.90992598530E+02 0.  0.
          4    1    3    3  502    0  0.10882295534E+03 -0.17220926291E+03  0.56559109747E+02  0.21141759325E+03  0.00000000000E+00 0. -1.
         -3    1    3    3    0  502  0.88760017861E+02 -0.24518386313E+03  0.15035412531E+03  0.30099805731E+03  0.00000000000E+00 0.  1.
         13    1    5    5    0    0 -0.18330652722E+03  0.15863221245E+03 -0.12218162796E+03  0.27146604200E+03  0.00000000000E+00 0. -1.
        -13    1    5    5    0    0 -0.14260026739E+03  0.23921401879E+03 -0.96538062232E+02  0.29475036982E+03  0.00000000000E+00 0.  1.
          4    1    6    6  503    0  0.23319739852E+01  0.25437918874E+02 -0.87321195808E+02  0.90980860936E+02  0.00000000000E+00 0. -1.
         -4    1    6    6    0  503  0.12599184743E+03 -0.58910240789E+01 -0.96688007908E+03  0.97507217021E+03  0.00000000000E+00 0.  1.
<mgrwt>
<rscale>  0 0.18609948E+04</rscale>
<asrwt>0</asrwt>
<pdfrwt beam="1">  1        2 0.24697637E+00 0.18609948E+04</pdfrwt>
<pdfrwt beam="2">  1       -1 0.82975183E-01 0.18609948E+04</pdfrwt>
<totfact> 0.17097477E+01</totfact>
</mgrwt>
</event>
<event>
12    7  0.1606355E-007  0.1547228E+04  0.7818608E-02  0.8853640E-01
          2   -1    0    0  501    0  0.00000000000E+00  0.00000000000E+00  0.23011144511E+04  0.23011144511E+04  0.00000000000E+00 0. -1.
         -1   -1    0    0    0  501 -0.00000000000E+00 -0.00000000000E+00 -0.26008216147E+03  0.26008216147E+03  0.00000000000E+00 0.  1.
         24    2    1    2    0    0 -0.23713524991E+03  0.37086325816E+03  0.25863294086E+03  0.51676611005E+03  0.79897004949E+02 0.  0.
        254    2    1    2    0    0  0.23713524991E+03 -0.37086325816E+03  0.17823993488E+04  0.20444305026E+04  0.89943090793E+03 0.  0.
         23    2    4    4    0    0 -0.75869089525E+02  0.19621076481E+03  0.99585387924E+03  0.10216015851E+04  0.87693026068E+02 0.  0.
         23    2    4    4    0    0  0.31300433944E+03 -0.56707402297E+03  0.78654546958E+03  0.10228289175E+04  0.89333950665E+02 0.  0.
          4    1    3    3  502    0 -0.12933404808E+03  0.23533018075E+03  0.11641964307E+03  0.29267921563E+03  0.00000000000E+00 0. -1.
         -3    1    3    3    0  502 -0.10780120183E+03  0.13553307740E+03  0.14221329778E+03  0.22408689443E+03  0.00000000000E+00 0.  1.
         13    1    5    5    0    0 -0.11963945193E+02  0.12858343422E+03  0.68718668465E+03  0.69921554266E+03  0.00000000000E+00 0. -1.
        -13    1    5    5    0    0 -0.63905144332E+02  0.67627330588E+02  0.30866719459E+03  0.32238604239E+03  0.00000000000E+00 0.  1.
          2    1    6    6  503    0  0.30886319221E+03 -0.50996896086E+03  0.70723812114E+03  0.92501382289E+03  0.00000000000E+00 0. -1.
         -2    1    6    6    0  503  0.41411472292E+01 -0.57105062106E+02  0.79307348440E+02  0.97815094618E+02  0.00000000000E+00 0.  1.
<mgrwt>
<rscale>  0 0.15472283E+04</rscale>
<asrwt>0</asrwt>
<pdfrwt beam="1">  1        2 0.35401759E+00 0.15472283E+04</pdfrwt>
<pdfrwt beam="2">  1       -1 0.40012642E-01 0.15472283E+04</pdfrwt>
<totfact> 0.30258204E+01</totfact>
</mgrwt>
</event>
<event>
12    7  0.1606355E-007  0.1258012E+04  0.7818608E-02  0.9063541E-01
         -1   -1    0    0    0  501 -0.00000000000E+00  0.00000000000E+00  0.44519242841E+03  0.44519242841E+03  0.00000000000E+00 0.  1.
          2   -1    0    0  501    0  0.00000000000E+00 -0.00000000000E+00 -0.88871368837E+03  0.88871368837E+03  0.00000000000E+00 0. -1.
         24    2    1    2    0    0  0.19383790694E+03  0.18808841314E+03 -0.23697487272E+03  0.36793062271E+03  0.79154706148E+02 0.  0.
        254    2    1    2    0    0 -0.19383790694E+03 -0.18808841314E+03 -0.20654638724E+03  0.96597549407E+03  0.90415532943E+03 0.  0.
         23    2    4    4    0    0  0.98482480631E+02 -0.41182669574E+03 -0.35295303092E+03  0.55877028889E+03  0.91369400756E+02 0.  0.
         23    2    4    4    0    0 -0.29232038758E+03  0.22373828260E+03  0.14640664367E+03  0.40720520518E+03  0.94186759803E+02 0.  0.
          2    1    3    3  502    0  0.19369389677E+03  0.15524239426E+03 -0.20290285726E+03  0.32060426714E+03  0.00000000000E+00 0. -1.
         -1    1    3    3    0  502  0.14401017573E+00  0.32846018873E+02 -0.34072015458E+02  0.47326355576E+02  0.00000000000E+00 0.  1.
         13    1    5    5    0    0  0.80841706453E+01 -0.63934380443E+02 -0.16718788823E+02  0.66576848208E+02  0.00000000000E+00 0. -1.
        -13    1    5    5    0    0  0.90398309986E+02 -0.34789231529E+03 -0.33623424209E+03  0.49219344068E+03  0.00000000000E+00 0.  1.
          3    1    6    6  503    0 -0.96370780451E+02  0.95904549661E+02  0.99776432560E+02  0.16864265909E+03  0.00000000000E+00 0. -1.
         -3    1    6    6    0  503 -0.19594960712E+03  0.12783373294E+03  0.46630211112E+02  0.23856254609E+03  0.00000000000E+00 0.  1.
<mgrwt>
<rscale>  0 0.12580121E+04</rscale>
<asrwt>0</asrwt>
<pdfrwt beam="1">  1        2 0.13672518E+00 0.12580121E+04</pdfrwt>
<pdfrwt beam="2">  1       -1 0.68491143E-01 0.12580121E+04</pdfrwt>
<totfact> 0.72251197E+01</totfact>
</mgrwt>
</event>
<event>
12    7  0.1606355E-007  0.1152424E+04  0.7818608E-02  0.9155551E-01
         -3   -1    0    0    0  501 -0.00000000000E+00  0.00000000000E+00  0.14939177739E+03  0.14939177739E+03  0.00000000000E+00 0.  1.
          4   -1    0    0  501    0  0.00000000000E+00 -0.00000000000E+00 -0.22224789335E+04  0.22224789335E+04  0.00000000000E+00 0. -1.
         24    2    1    2    0    0  0.18349602840E+03 -0.11263133776E+03 -0.49655816082E+03  0.54699700837E+03  0.79240831662E+02 0.  0.
        254    2    1    2    0    0 -0.18349602840E+03  0.11263133776E+03 -0.15765289953E+04  0.18248737025E+04  0.89351202927E+03 0.  0.
         23    2    4    4    0    0 -0.25729251566E+03  0.19015632747E+03 -0.10820060572E+03  0.34988415686E+03  0.91393023005E+02 0.  0.
         23    2    4    4    0    0  0.73796487256E+02 -0.77524989704E+02 -0.14683283896E+04  0.14749895457E+04  0.90276545145E+02 0.  0.
          2    1    3    3  502    0  0.16143655394E+01  0.75254563246E+01 -0.44081073407E+02  0.44747957514E+02  0.00000000000E+00 0. -1.
         -1    1    3    3    0  502  0.18188166286E+03 -0.12015679409E+03 -0.45247708741E+03  0.50224905085E+03  0.00000000000E+00 0.  1.
         13    1    5    5    0    0 -0.10523911725E+03  0.12563165925E+03 -0.79803485370E+02  0.18228324630E+03  0.00000000000E+00 0.  1.
        -13    1    5    5    0    0 -0.15205339841E+03  0.64524668221E+02 -0.28397120347E+02  0.16760091056E+03  0.00000000000E+00 0. -1.
          2    1    6    6  503    0  0.62755841299E+02 -0.65244533082E+02 -0.14344194110E+04  0.14372731791E+04  0.00000000000E+00 0. -1.
         -2    1    6    6    0  503  0.11040645957E+02 -0.12280456622E+02 -0.33908978574E+02  0.37716366552E+02  0.00000000000E+00 0.  1.
<mgrwt>
<rscale>  0 0.11524237E+04</rscale>
<asrwt>0</asrwt>
<pdfrwt beam="1">  1        4 0.34191983E+00 0.11524237E+04</pdfrwt>
<pdfrwt beam="2">  1       -3 0.22983351E-01 0.11524237E+04</pdfrwt>
<totfact> 0.68862958E-01</totfact>
</mgrwt>
</event>
<event>
12    7  0.1606355E-007  0.1489766E+04  0.7818608E-02  0.8891287E-01
          2   -1    0    0  501    0  0.00000000000E+00  0.00000000000E+00  0.11704017495E+04  0.11704017495E+04  0.00000000000E+00 0. -1.
         -1   -1    0    0    0  501 -0.00000000000E+00 -0.00000000000E+00 -0.47406861415E+03  0.47406861415E+03  0.00000000000E+00 0.  1.
         24    2    1    2    0    0 -0.20088968386E+03  0.88983449311E+02  0.67697726677E+03  0.71623953043E+03  0.80163120469E+02 0.  0.
        254    2    1    2    0    0  0.20088968386E+03 -0.88983449311E+02  0.19355868610E+02  0.92823083326E+03  0.90164466994E+03 0.  0.
         23    2    4    4    0    0 -0.11942461672E+03 -0.26262742260E+03 -0.30663868950E+03  0.43103777819E+03  0.92362753036E+02 0.  0.
         23    2    4    4    0    0  0.32031430058E+03  0.17364397329E+03  0.32599455811E+03  0.49719305507E+03  0.90415714784E+02 0.  0.
          4    1    3    3  502    0 -0.19839805712E+03  0.77524320239E+02  0.56788711788E+03  0.60652088831E+03  0.00000000000E+00 0. -1.
         -3    1    3    3    0  502 -0.24916267387E+01  0.11459129072E+02  0.10909014889E+03  0.10971864212E+03  0.00000000000E+00 0.  1.
         13    1    5    5    0    0 -0.21975365368E+02 -0.30209912050E+02 -0.45591804614E+01  0.37634314071E+02  0.00000000000E+00 0.  1.
        -13    1    5    5    0    0 -0.97449251349E+02 -0.23241751055E+03 -0.30207950904E+03  0.39340346412E+03  0.00000000000E+00 0. -1.
          4    1    6    6  503    0  0.29255971560E+03  0.18405099775E+03  0.29670052068E+03  0.45551855718E+03  0.00000000000E+00 0. -1.
         -4    1    6    6    0  503  0.27754584979E+02 -0.10407024462E+02  0.29294037436E+02  0.41674497895E+02  0.00000000000E+00 0.  1.
<mgrwt>
<rscale>  0 0.14897661E+04</rscale>
<asrwt>0</asrwt>
<pdfrwt beam="1">  1        2 0.18006181E+00 0.14897661E+04</pdfrwt>
<pdfrwt beam="2">  1       -1 0.72933634E-01 0.14897661E+04</pdfrwt>
<totfact> 0.41241592E+01</totfact>
</mgrwt>
</event>
<event>
12    7  0.1606355E-007  0.1409307E+04  0.7818608E-02  0.8947109E-01
         -1   -1    0    0    0  501 -0.00000000000E+00  0.00000000000E+00  0.20141647202E+03  0.20141647202E+03  0.00000000000E+00 0.  1.
          2   -1    0    0  501    0  0.00000000000E+00 -0.00000000000E+00 -0.24652248783E+04  0.24652248783E+04  0.00000000000E+00 0. -1.
         24    2    1    2    0    0 -0.48151050243E+02  0.33429669542E+03 -0.24403233670E+03  0.42426462980E+03  0.79849173695E+02 0.  0.
        254    2    1    2    0    0  0.48151050243E+02 -0.33429669542E+03 -0.20197760696E+04  0.22423767205E+04  0.91361106673E+03 0.  0.
         23    2    4    4    0    0 -0.20517101554E+03 -0.70406451188E+02 -0.17803603278E+04  0.17958287455E+04  0.90916293525E+02 0.  0.
         23    2    4    4    0    0  0.25332206579E+03 -0.26389024423E+03 -0.23941574177E+03  0.44654797498E+03  0.90967392750E+02 0.  0.
          2    1    3    3  502    0 -0.57016620389E+02  0.12308202027E+03 -0.93840386504E+02  0.16494270779E+03  0.00000000000E+00 0. -1.
         -1    1    3    3    0  502  0.88655701467E+01  0.21121467515E+03 -0.15019195020E+03  0.25932192202E+03  0.00000000000E+00 0.  1.
         13    1    5    5    0    0 -0.50012023683E+02  0.94966170473E+01 -0.65958910118E+03  0.66155058056E+03  0.00000000000E+00 0. -1.
        -13    1    5    5    0    0 -0.15515899186E+03 -0.79903068236E+02 -0.11207712266E+04  0.11342781650E+04  0.00000000000E+00 0.  1.
          1    1    6    6  503    0  0.12693228082E+03 -0.19431674584E+03 -0.13564732904E+03  0.26883266078E+03  0.00000000000E+00 0. -1.
         -1    1    6    6    0  503  0.12638978497E+03 -0.69573498392E+02 -0.10376841273E+03  0.17771531421E+03  0.00000000000E+00 0.  1.
<mgrwt>
<rscale>  0 0.14093075E+04</rscale>
<asrwt>0</asrwt>
<pdfrwt beam="1">  1        2 0.37926535E+00 0.14093075E+04</pdfrwt>
<pdfrwt beam="2">  1       -1 0.30987151E-01 0.14093075E+04</pdfrwt>
<totfact> 0.39059697E+01</totfact>
</mgrwt>
</event>
<event>
12    7  0.1606355E-007  0.1785946E+04  0.7818608E-02  0.8713809E-01
          2   -1    0    0  501    0  0.00000000000E+00  0.00000000000E+00  0.63798506070E+03  0.63798506070E+03  0.00000000000E+00 0. -1.
         -1   -1    0    0    0  501 -0.00000000000E+00 -0.00000000000E+00 -0.12498731774E+04  0.12498731774E+04  0.00000000000E+00 0.  1.
         24    2    1    2    0    0  0.16502683529E+03 -0.58248647324E+03 -0.46354135539E+03  0.76656102167E+03  0.78872453468E+02 0.  0.
        254    2    1    2    0    0 -0.16502683529E+03  0.58248647324E+03 -0.14834676135E+03  0.11212972165E+04  0.93208172292E+03 0.  0.
         23    2    4    4    0    0  0.13366053941E+03 -0.11867391525E+03  0.19476605717E+03  0.28053213191E+03  0.93892609151E+02 0.  0.
         23    2    4    4    0    0 -0.29868737470E+03  0.70116038849E+03 -0.34311281853E+03  0.84076508457E+03  0.91211199996E+02 0.  0.
          4    1    3    3  502    0  0.40085885315E+02 -0.54719222151E+02 -0.43651011268E+02  0.80662768729E+02  0.00000000000E+00 0. -1.
         -3    1    3    3    0  502  0.12494094997E+03 -0.52776725109E+03 -0.41989034412E+03  0.68589825294E+03  0.00000000000E+00 0.  1.
         13    1    5    5    0    0  0.51204896240E+02 -0.10594873397E+03  0.12610191233E+03  0.17247831145E+03  0.00000000000E+00 0. -1.
        -13    1    5    5    0    0  0.82455643170E+02 -0.12725181282E+02  0.68664144844E+02  0.10805382046E+03  0.00000000000E+00 0.  1.
          3    1    6    6  503    0 -0.50692238360E+02  0.22394862957E+03 -0.95088767398E+02  0.24852477825E+03  0.00000000000E+00 0. -1.
         -3    1    6    6    0  503 -0.24799513634E+03  0.47721175891E+03 -0.24802405113E+03  0.59224030632E+03  0.00000000000E+00 0.  1.
<mgrwt>
<rscale>  0 0.17859456E+04</rscale>
<asrwt>0</asrwt>
<pdfrwt beam="1">  1        2 0.98151548E-01 0.17859456E+04</pdfrwt>
<pdfrwt beam="2">  1       -1 0.19228818E+00 0.17859456E+04</pdfrwt>
<totfact> 0.84564373E+00</totfact>
</mgrwt>
</event>
<event>
12    7  0.1606355E-007  0.1508417E+04  0.7818608E-02  0.8878875E-01
         -1   -1    0    0    0  501 -0.00000000000E+00  0.00000000000E+00  0.23183372638E+03  0.23183372638E+03  0.00000000000E+00 0.  1.
          2   -1    0    0  501    0  0.00000000000E+00 -0.00000000000E+00 -0.24536145386E+04  0.24536145386E+04  0.00000000000E+00 0. -1.
         24    2    1    2    0    0  0.39154772968E+02  0.41545721596E+03 -0.29549584627E+03  0.51745941407E+03  0.79427045246E+02 0.  0.
        254    2    1    2    0    0 -0.39154772968E+02 -0.41545721596E+03 -0.19262849659E+04  0.21679888509E+04  0.90303050504E+03 0.  0.
         23    2    4    4    0    0  0.86653218857E+02  0.18525129016E+03 -0.11607275519E+04  0.11821956572E+04  0.92039672568E+02 0.  0.
         23    2    4    4    0    0 -0.12580799182E+03 -0.60070850611E+03 -0.76555741399E+03  0.98579319364E+03  0.95035290207E+02 0.  0.
          4    1    3    3  502    0  0.26366826284E+02  0.20663383899E+03 -0.19508782238E+03  0.28539798770E+03  0.00000000000E+00 0. -1.
         -3    1    3    3    0  502  0.12787946684E+02  0.20882337697E+03 -0.10040802389E+03  0.23206142637E+03  0.00000000000E+00 0.  1.
         13    1    5    5    0    0  0.53521504526E+01  0.10190706039E+03 -0.67732291094E+03  0.68496716721E+03  0.00000000000E+00 0. -1.
        -13    1    5    5    0    0  0.81301068404E+02  0.83344229763E+02 -0.48340464101E+03  0.49722849004E+03  0.00000000000E+00 0.  1.
          3    1    6    6  503    0 -0.12661255130E+03 -0.52684108294E+03 -0.62631221414E+03  0.82816619975E+03  0.00000000000E+00 0. -1.
         -3    1    6    6    0  503  0.80455947543E+00 -0.73867423171E+02 -0.13924519985E+03  0.15762699389E+03  0.00000000000E+00 0.  1.
<mgrwt>
<rscale>  0 0.15084172E+04</rscale>
<asrwt>0</asrwt>
<pdfrwt beam="1">  1        2 0.37747915E+00 0.15084172E+04</pdfrwt>
<pdfrwt beam="2">  1       -1 0.35666728E-01 0.15084172E+04</pdfrwt>
<totfact> 0.30618554E+01</totfact>
</mgrwt>
</event>
<event>
12    7  0.1606355E-007  0.1915629E+04  0.7818608E-02  0.8647116E-01
          2   -1    0    0  501    0  0.00000000000E+00  0.00000000000E+00  0.43727747668E+03  0.43727747668E+03  0.00000000000E+00 0. -1.
         -1   -1    0    0    0  501 -0.00000000000E+00 -0.00000000000E+00 -0.20980012826E+04  0.20980012826E+04  0.00000000000E+00 0.  1.
         24    2    1    2    0    0 -0.54340542460E+03 -0.47510033414E+03 -0.44651498847E+03  0.85257560633E+03  0.80621005852E+02 0.  0.
        254    2    1    2    0    0  0.54340542460E+03  0.47510033414E+03 -0.12142088175E+04  0.16827031530E+04  0.91442717895E+03 0.  0.
         23    2    4    4    0    0  0.63152618540E+03  0.52521923625E+03 -0.52188371296E+03  0.97663500405E+03  0.82296733247E+02 0.  0.
         23    2    4    4    0    0 -0.88120760798E+02 -0.50118902106E+02 -0.69232510453E+03  0.70606814894E+03  0.94556902203E+02 0.  0.
          4    1    3    3  502    0 -0.50396485916E+03 -0.41122019783E+03 -0.38791325850E+03  0.75733699665E+03  0.00000000000E+00 0. -1.
         -3    1    3    3    0  502 -0.39440565440E+02 -0.63880136314E+02 -0.58601729977E+02  0.95238609681E+02  0.00000000000E+00 0.  1.
         13    1    5    5    0    0  0.29341761052E+02  0.10324121312E+02 -0.34388427723E+02  0.46369067100E+02  0.00000000000E+00 0. -1.
        -13    1    5    5    0    0  0.60218442435E+03  0.51489511494E+03 -0.48749528524E+03  0.93026593695E+03  0.00000000000E+00 0.  1.
          2    1    6    6  503    0  0.17165575737E+02 -0.21943650124E+02 -0.19188214923E+03  0.19389414629E+03  0.00000000000E+00 0. -1.
         -2    1    6    6    0  503 -0.10528633654E+03 -0.28175251982E+02 -0.50044295530E+03  0.51217400265E+03  0.00000000000E+00 0.  1.
<mgrwt>
<rscale>  0 0.19156291E+04</rscale>
<asrwt>0</asrwt>
<pdfrwt beam="1">  1        2 0.67273458E-01 0.19156291E+04</pdfrwt>
<pdfrwt beam="2">  1       -1 0.32276943E+00 0.19156291E+04</pdfrwt>
<totfact> 0.18061108E+00</totfact>
</mgrwt>
</event>
<event>
12    7  0.1606355E-007  0.1967848E+04  0.7818608E-02  0.8621802E-01
          2   -1    0    0  501    0  0.00000000000E+00  0.00000000000E+00  0.27552534091E+04  0.27552534091E+04  0.00000000000E+00 0. -1.
         -1   -1    0    0    0  501 -0.00000000000E+00 -0.00000000000E+00 -0.35136734107E+03  0.35136734107E+03  0.00000000000E+00 0.  1.
         24    2    1    2    0    0  0.27286038734E+03  0.18104956999E+03  0.20651274711E+04  0.20924306577E+04  0.79264414014E+02 0.  0.
        254    2    1    2    0    0 -0.27286038734E+03 -0.18104956999E+03  0.33875859686E+03  0.10141900925E+04  0.89810490419E+03 0.  0.
         23    2    4    4    0    0  0.36719473746E+02 -0.49010869861E+03  0.25002669836E+03  0.55901457964E+03  0.91810098322E+02 0.  0.
         23    2    4    4    0    0 -0.30957986108E+03  0.30905912862E+03  0.88731898493E+02  0.45517551282E+03  0.89186110415E+02 0.  0.
          2    1    3    3  502    0  0.22696717689E+03  0.16498605174E+03  0.18885293751E+04  0.19092610344E+04  0.00000000000E+00 0. -1.
         -1    1    3    3    0  502  0.45893210448E+02  0.16063518243E+02  0.17659809602E+03  0.18316962331E+03  0.00000000000E+00 0.  1.
         13    1    5    5    0    0 -0.49021379168E+01 -0.10575435689E+03  0.95824433817E+02  0.14279473756E+03  0.00000000000E+00 0.  1.
        -13    1    5    5    0    0  0.41621611663E+02 -0.38435434171E+03  0.15420226455E+03  0.41621984208E+03  0.00000000000E+00 0. -1.
          1    1    6    6  503    0 -0.24143050743E+03  0.23506354235E+03  0.10571349339E+03  0.35315563361E+03  0.00000000000E+00 0. -1.
         -1    1    6    6    0  503 -0.68149353649E+02  0.73995586268E+02 -0.16981594898E+02  0.10201987922E+03  0.00000000000E+00 0.  1.
<mgrwt>
<rscale>  0 0.19678476E+04</rscale>
<asrwt>0</asrwt>
<pdfrwt beam="1">  1        2 0.42388513E+00 0.19678476E+04</pdfrwt>
<pdfrwt beam="2">  1       -1 0.54056516E-01 0.19678476E+04</pdfrwt>
<totfact> 0.90282879E+00</totfact>
</mgrwt>
</event>
<event>
12    7  0.1606355E-007  0.1673613E+04  0.7818608E-02  0.8776559E-01
          2   -1    0    0  501    0  0.00000000000E+00  0.00000000000E+00  0.21493967667E+04  0.21493967667E+04  0.00000000000E+00 0. -1.
         -1   -1    0    0    0  501 -0.00000000000E+00 -0.00000000000E+00 -0.32578682179E+03  0.32578682179E+03  0.00000000000E+00 0.  1.
         24    2    1    2    0    0  0.37868991742E+03  0.44942023454E+03  0.59690061760E+03  0.84129580357E+03  0.78126058672E+02 0.  0.
        254    2    1    2    0    0 -0.37868991742E+03 -0.44942023454E+03  0.12267093273E+04  0.16338877849E+04  0.90520103802E+03 0.  0.
         23    2    4    4    0    0  0.10359459354E+03  0.17751765578E+03  0.83986206761E+02  0.24112805258E+03  0.94046248675E+02 0.  0.
         23    2    4    4    0    0 -0.48228451096E+03 -0.62693789032E+03  0.11427231206E+04  0.13927597324E+04  0.91181544023E+02 0.  0.
          4    1    3    3  502    0  0.15826387767E+01  0.17681056040E+02  0.80334014830E+01  0.19484866629E+02  0.00000000000E+00 0. -1.
         -3    1    3    3    0  502  0.37710727864E+03  0.43173917850E+03  0.58886721612E+03  0.82181093694E+03  0.00000000000E+00 0.  1.
         13    1    5    5    0    0  0.18515722244E+02  0.12177051838E+03  0.58011739377E+02  0.13614790862E+03  0.00000000000E+00 0.  1.
        -13    1    5    5    0    0  0.85078871295E+02  0.55747137400E+02  0.25974467384E+02  0.10498014396E+03  0.00000000000E+00 0. -1.
          3    1    6    6  503    0 -0.48236321567E+03 -0.61150849208E+03  0.11316346238E+04  0.13737590143E+04  0.00000000000E+00 0. -1.
         -3    1    6    6    0  503  0.78704718811E-01 -0.15429398236E+02  0.11088496783E+02  0.19000718019E+02  0.00000000000E+00 0.  1.
<mgrwt>
<rscale>  0 0.16736130E+04</rscale>
<asrwt>0</asrwt>
<pdfrwt beam="1">  1        2 0.33067642E+00 0.16736130E+04</pdfrwt>
<pdfrwt beam="2">  1       -1 0.50121051E-01 0.16736130E+04</pdfrwt>
<totfact> 0.23931280E+01</totfact>
</mgrwt>
</event>
<event>
12    7  0.1606355E-007  0.1488111E+04  0.7818608E-02  0.8892398E-01
         -1   -1    0    0    0  501 -0.00000000000E+00  0.00000000000E+00  0.19429108007E+03  0.19429108007E+03  0.00000000000E+00 0.  1.
          2   -1    0    0  501    0  0.00000000000E+00 -0.00000000000E+00 -0.28494283224E+04  0.28494283224E+04  0.00000000000E+00 0. -1.
         24    2    1    2    0    0  0.34103924602E+03  0.57588614888E+02 -0.15094704187E+04  0.15506725155E+04  0.80374682256E+02 0.  0.
        254    2    1    2    0    0 -0.34103924602E+03 -0.57588614888E+02 -0.11456668236E+04  0.14930468870E+04  0.89275546484E+03 0.  0.
         23    2    4    4    0    0 -0.14155439654E+03 -0.45106407568E+03 -0.76195238817E+03  0.90125800024E+03  0.90543324442E+02 0.  0.
         23    2    4    4    0    0 -0.19948484948E+03  0.39347546079E+03 -0.38371443546E+03  0.59178888672E+03  0.91433992910E+02 0.  0.
          2    1    3    3  502    0  0.30889116687E+03  0.25968450351E+02 -0.13216545843E+04  0.13575194118E+04  0.00000000000E+00 0. -1.
         -1    1    3    3    0  502  0.32148079150E+02  0.31620164537E+02 -0.18781583444E+03  0.19315310369E+03  0.00000000000E+00 0.  1.
         13    1    5    5    0    0  0.12405266257E+02 -0.21490488665E+02 -0.45377362933E+02  0.51718824433E+02  0.00000000000E+00 0.  1.
        -13    1    5    5    0    0 -0.15395966280E+03 -0.42957358701E+03 -0.71657502524E+03  0.84953917580E+03  0.00000000000E+00 0. -1.
          1    1    6    6  503    0 -0.16080855023E+03  0.36222149744E+03 -0.31135163907E+03  0.50398774408E+03  0.00000000000E+00 0. -1.
         -1    1    6    6    0  503 -0.38676299247E+02  0.31253963353E+02 -0.72362796388E+02  0.87801142646E+02  0.00000000000E+00 0.  1.
<mgrwt>
<rscale>  0 0.14881109E+04</rscale>
<asrwt>0</asrwt>
<pdfrwt beam="1">  1        2 0.43837357E+00 0.14881109E+04</pdfrwt>
<pdfrwt beam="2">  1       -1 0.29890936E-01 0.14881109E+04</pdfrwt>
<totfact> 0.24547630E+01</totfact>
</mgrwt>
</event>
<event>
12    7  0.1606355E-007  0.2869192E+04  0.7818608E-02  0.8282103E-01
          2   -1    0    0  501    0  0.00000000000E+00  0.00000000000E+00  0.11913283763E+04  0.11913283763E+04  0.00000000000E+00 0. -1.
         -1   -1    0    0    0  501 -0.00000000000E+00 -0.00000000000E+00 -0.17275380026E+04  0.17275380026E+04  0.00000000000E+00 0.  1.
         24    2    1    2    0    0 -0.12816043860E+03 -0.48702317938E+03 -0.14509520099E+04  0.15379707416E+04  0.80471060437E+02 0.  0.
        254    2    1    2    0    0  0.12816043860E+03  0.48702317938E+03  0.91474238365E+03  0.13808956374E+04  0.90360525538E+03 0.  0.
         23    2    4    4    0    0  0.43506876798E+03  0.46509686959E+03  0.82795724239E+03  0.10485800753E+04  0.91689956413E+02 0.  0.
         23    2    4    4    0    0 -0.30690832937E+03  0.21926309784E+02  0.86785141264E+02  0.33231556207E+03  0.90711004556E+02 0.  0.
          4    1    3    3  502    0 -0.12335299892E+02 -0.13913956833E+03 -0.32268608057E+03  0.35162236234E+03  0.00000000000E+00 0. -1.
         -3    1    3    3    0  502 -0.11582513871E+03 -0.34788361104E+03 -0.11282659293E+04  0.11863483792E+04  0.00000000000E+00 0.  1.
         13    1    5    5    0    0  0.14107439454E+03  0.12553460808E+03  0.18568075938E+03  0.26483630232E+03  0.00000000000E+00 0.  1.
        -13    1    5    5    0    0  0.29399437343E+03  0.33956226152E+03  0.64227648301E+03  0.78374377298E+03  0.00000000000E+00 0. -1.
          1    1    6    6  503    0 -0.24366348161E+03  0.42401807274E+02  0.38848473949E+02  0.25035776293E+03  0.00000000000E+00 0. -1.
         -1    1    6    6    0  503 -0.63244847759E+02 -0.20475497490E+02  0.47936667315E+02  0.81957799133E+02  0.00000000000E+00 0.  1.
<mgrwt>
<rscale>  0 0.28691916E+04</rscale>
<asrwt>0</asrwt>
<pdfrwt beam="1">  1        2 0.18328129E+00 0.28691916E+04</pdfrwt>
<pdfrwt beam="2">  1       -1 0.26577508E+00 0.28691916E+04</pdfrwt>
<totfact> 0.10399994E+00</totfact>
</mgrwt>
</event>
<event>
12    7  0.1606355E-007  0.1684324E+04  0.7818608E-02  0.8770356E-01
         -3   -1    0    0    0  501 -0.00000000000E+00  0.00000000000E+00  0.55612018010E+03  0.55612018010E+03  0.00000000000E+00 0.  1.
          2   -1    0    0  501    0  0.00000000000E+00 -0.00000000000E+00 -0.12753305639E+04  0.12753305639E+04  0.00000000000E+00 0. -1.
         24    2    1    2    0    0 -0.35184933801E+03 -0.36702805846E+03  0.96087361709E+02  0.52473344372E+03  0.87205811267E+02 0.  0.
        254    2    1    2    0    0  0.35184933801E+03  0.36702805846E+03 -0.81529774545E+03  0.13067173002E+04  0.88560269684E+03 0.  0.
         23    2    4    4    0    0 -0.22727948085E+03 -0.59539916406E+02 -0.59260507804E+02  0.25907672232E+03  0.91695017334E+02 0.  0.
         23    2    4    4    0    0  0.57912881886E+03  0.42656797486E+03 -0.75603723765E+03  0.10476405779E+04  0.92779576218E+02 0.  0.
          4    1    3    3  502    0 -0.16172497263E+03 -0.18547032118E+03  0.89227765709E+02  0.26175523106E+03  0.00000000000E+00 0. -1.
         -3    1    3    3    0  502 -0.19012436538E+03 -0.18155773728E+03  0.68595959995E+01  0.26297821266E+03  0.00000000000E+00 0.  1.
         13    1    5    5    0    0 -0.15100019958E+02 -0.29817881713E+02 -0.25812803948E+02  0.42230528297E+02  0.00000000000E+00 0.  1.
        -13    1    5    5    0    0 -0.21217946089E+03 -0.29722034692E+02 -0.33447703856E+02  0.21684619403E+03  0.00000000000E+00 0. -1.
          1    1    6    6  503    0  0.12419288289E+03  0.51786902145E+02 -0.11745650672E+03  0.17861071179E+03  0.00000000000E+00 0. -1.
         -1    1    6    6    0  503  0.45493593598E+03  0.37478107272E+03 -0.63858073093E+03  0.86902986613E+03  0.00000000000E+00 0.  1.
<mgrwt>
<rscale>  0 0.16843243E+04</rscale>
<asrwt>0</asrwt>
<pdfrwt beam="1">  1        2 0.19620470E+00 0.16843243E+04</pdfrwt>
<pdfrwt beam="2">  1       -3 0.85556951E-01 0.16843243E+04</pdfrwt>
<totfact> 0.12955571E+01</totfact>
</mgrwt>
</event>
<event>
12    7  0.1606355E-007  0.1608443E+04  0.7818608E-02  0.8815378E-01
          2   -1    0    0  501    0  0.00000000000E+00  0.00000000000E+00  0.11386423999E+04  0.11386423999E+04  0.00000000000E+00 0. -1.
         -1   -1    0    0    0  501 -0.00000000000E+00 -0.00000000000E+00 -0.56802058028E+03  0.56802058028E+03  0.00000000000E+00 0.  1.
         24    2    1    2    0    0 -0.29850871915E+03 -0.41297190724E+03 -0.21709015336E+02  0.51649786305E+03  0.81519995164E+02 0.  0.
        254    2    1    2    0    0  0.29850871915E+03  0.41297190724E+03  0.59233083492E+03  0.11901651171E+04  0.89776608109E+03 0.  0.
         23    2    4    4    0    0 -0.52733477271E+02 -0.25295470190E+03  0.14197108243E+03  0.30820550206E+03  0.89821725714E+02 0.  0.
         23    2    4    4    0    0  0.35124219642E+03  0.66592660915E+03  0.45035975248E+03  0.88195961503E+03  0.90551237240E+02 0.  0.
          4    1    3    3  502    0 -0.11311872923E+01  0.37291044003E+01  0.11313630247E+01  0.40578056400E+01  0.00000000000E+00 0. -1.
         -3    1    3    3    0  502 -0.29737753185E+03 -0.41670101164E+03 -0.22840378360E+02  0.51244005741E+03  0.00000000000E+00 0.  1.
         13    1    5    5    0    0 -0.36934497368E+02 -0.24445093182E+03  0.10799699116E+03  0.26978466462E+03  0.00000000000E+00 0. -1.
        -13    1    5    5    0    0 -0.15798979903E+02 -0.85037700853E+01  0.33974091275E+02  0.38420837440E+02  0.00000000000E+00 0.  1.
          1    1    6    6  503    0  0.16797847940E+03  0.22567741593E+03  0.16000726801E+03  0.32365010647E+03  0.00000000000E+00 0.  1.
         -1    1    6    6    0  503  0.18326371701E+03  0.44024919321E+03  0.29035248448E+03  0.55830950855E+03  0.00000000000E+00 0. -1.
<mgrwt>
<rscale>  0 0.16084431E+04</rscale>
<asrwt>0</asrwt>
<pdfrwt beam="1">  1        2 0.17517575E+00 0.16084431E+04</pdfrwt>
<pdfrwt beam="2">  1       -1 0.87387782E-01 0.16084431E+04</pdfrwt>
<totfact> 0.29060841E+01</totfact>
</mgrwt>
</event>
<event>
12    7  0.1606355E-007  0.1744671E+04  0.7818608E-02  0.8736289E-01
          2   -1    0    0  501    0  0.00000000000E+00  0.00000000000E+00  0.25901163332E+04  0.25901163332E+04  0.00000000000E+00 0. -1.
         -1   -1    0    0    0  501 -0.00000000000E+00 -0.00000000000E+00 -0.29379737529E+03  0.29379737529E+03  0.00000000000E+00 0.  1.
         24    2    1    2    0    0 -0.45169720059E+03  0.42842083422E+03  0.68307347708E+03  0.92762179754E+03  0.79486174628E+02 0.  0.
        254    2    1    2    0    0  0.45169720059E+03 -0.42842083422E+03  0.16132454808E+04  0.19562919109E+04  0.91484549908E+03 0.  0.
         23    2    4    4    0    0 -0.10196532612E+03 -0.28376573969E+03  0.91448287640E+02  0.32799119862E+03  0.91079714003E+02 0.  0.
         23    2    4    4    0    0  0.55366252671E+03 -0.14465509453E+03  0.15217971931E+04  0.16283007123E+04  0.89605930167E+02 0.  0.
          4    1    3    3  502    0 -0.14917398071E+03  0.15086208050E+03  0.17959865883E+03  0.27797108142E+03  0.00000000000E+00 0. -1.
         -3    1    3    3    0  502 -0.30252321988E+03  0.27755875373E+03  0.50347481826E+03  0.64965071612E+03  0.00000000000E+00 0.  1.
         13    1    5    5    0    0 -0.29062601265E+02 -0.71708976737E+02  0.67132580676E+02  0.10243825226E+03  0.00000000000E+00 0. -1.
        -13    1    5    5    0    0 -0.72902724854E+02 -0.21205676296E+03  0.24315706964E+02  0.22555294636E+03  0.00000000000E+00 0.  1.
          1    1    6    6  503    0  0.11263959205E+03  0.62344294190E+01  0.27667607676E+03  0.29879122687E+03  0.00000000000E+00 0. -1.
         -1    1    6    6    0  503  0.44102293466E+03 -0.15088952395E+03  0.12451211164E+04  0.13295094854E+04  0.00000000000E+00 0.  1.
<mgrwt>
<rscale>  0 0.17446712E+04</rscale>
<asrwt>0</asrwt>
<pdfrwt beam="1">  1        2 0.39847942E+00 0.17446712E+04</pdfrwt>
<pdfrwt beam="2">  1       -1 0.45199598E-01 0.17446712E+04</pdfrwt>
<totfact> 0.16203284E+01</totfact>
</mgrwt>
</event>
<event>
12    7  0.1606355E-007  0.1802966E+04  0.7818608E-02  0.8704724E-01
          2   -1    0    0  501    0  0.00000000000E+00  0.00000000000E+00  0.17810125986E+04  0.17810125986E+04  0.00000000000E+00 0. -1.
         -1   -1    0    0    0  501 -0.00000000000E+00 -0.00000000000E+00 -0.45629766092E+03  0.45629766092E+03  0.00000000000E+00 0.  1.
         24    2    1    2    0    0 -0.36291080845E+03  0.53949636623E+03  0.71847642686E+03  0.97230051435E+03  0.79995813557E+02 0.  0.
        254    2    1    2    0    0  0.36291080845E+03 -0.53949636623E+03  0.60623851078E+03  0.12650097451E+04  0.89997996604E+03 0.  0.
         23    2    4    4    0    0  0.53542743571E+03 -0.14440830222E+03  0.60355885208E+03  0.82437672143E+03  0.88189535905E+02 0.  0.
         23    2    4    4    0    0 -0.17251662726E+03 -0.39508806400E+03  0.26796586973E+01  0.44063302370E+03  0.91069841384E+02 0.  0.
          2    1    3    3  502    0 -0.26492098032E+03  0.39322863546E+03  0.46861528722E+03  0.66664246263E+03  0.00000000000E+00 0. -1.
         -1    1    3    3    0  502 -0.97989828128E+02  0.14626773076E+03  0.24986113964E+03  0.30565805172E+03  0.00000000000E+00 0.  1.
         13    1    5    5    0    0  0.14212764835E+02 -0.18648611142E+02  0.13317918693E+02  0.26965539863E+02  0.00000000000E+00 0.  1.
        -13    1    5    5    0    0  0.52121467088E+03 -0.12575969108E+03  0.59024093339E+03  0.79741118156E+03  0.00000000000E+00 0. -1.
          2    1    6    6  503    0 -0.11379577215E+03 -0.27607531066E+03  0.43558694121E+02  0.30176881010E+03  0.00000000000E+00 0. -1.
         -2    1    6    6    0  503 -0.58720855105E+02 -0.11901275334E+03 -0.40879035424E+02  0.13886421360E+03  0.00000000000E+00 0.  1.
<mgrwt>
<rscale>  0 0.18029663E+04</rscale>
<asrwt>0</asrwt>
<pdfrwt beam="1">  1        2 0.27400193E+00 0.18029663E+04</pdfrwt>
<pdfrwt beam="2">  1       -1 0.70199641E-01 0.18029663E+04</pdfrwt>
<totfact> 0.19493806E+01</totfact>
</mgrwt>
</event>
<event>
12    7  0.1606355E-007  0.2290078E+04  0.7818608E-02  0.8481843E-01
          2   -1    0    0  501    0  0.00000000000E+00  0.00000000000E+00  0.14145259394E+04  0.14145259394E+04  0.00000000000E+00 0. -1.
         -1   -1    0    0    0  501 -0.00000000000E+00 -0.00000000000E+00 -0.92689324385E+03  0.92689324385E+03  0.00000000000E+00 0.  1.
         24    2    1    2    0    0  0.47072236448E+03  0.57030946555E+03 -0.43927531968E+03  0.86396151577E+03  0.81450987310E+02 0.  0.
        254    2    1    2    0    0 -0.47072236448E+03 -0.57030946555E+03  0.92690801520E+03  0.14774576674E+04  0.88141378452E+03 0.  0.
         23    2    4    4    0    0 -0.70743730937E+03 -0.35958046458E+03  0.51745264017E+03  0.95172756343E+03  0.90898091150E+02 0.  0.
         23    2    4    4    0    0  0.23671494489E+03 -0.21072900098E+03  0.40945537503E+03  0.52573010402E+03  0.91092047659E+02 0.  0.
          4    1    3    3  502    0  0.12313992207E+03  0.17948322809E+03 -0.93038621100E+02  0.23671471139E+03  0.00000000000E+00 0. -1.
         -3    1    3    3    0  502  0.34758244241E+03  0.39082623746E+03 -0.34623669858E+03  0.62724680438E+03  0.00000000000E+00 0.  1.
         13    1    5    5    0    0 -0.91697482746E+01 -0.16743665124E+02  0.23426721219E+02  0.30219958178E+02  0.00000000000E+00 0. -1.
        -13    1    5    5    0    0 -0.69826756109E+03 -0.34283679945E+03  0.49402591895E+03  0.92150760525E+03  0.00000000000E+00 0.  1.
          1    1    6    6  503    0  0.22325243017E+02 -0.83538825360E+00  0.63530496216E+01  0.23226613804E+02  0.00000000000E+00 0. -1.
         -1    1    6    6    0  503  0.21438970187E+03 -0.20989361272E+03  0.40310232541E+03  0.50250349021E+03  0.00000000000E+00 0.  1.
<mgrwt>
<rscale>  0 0.22900782E+04</rscale>
<asrwt>0</asrwt>
<pdfrwt beam="1">  1        2 0.21761937E+00 0.22900782E+04</pdfrwt>
<pdfrwt beam="2">  1       -1 0.14259896E+00 0.22900782E+04</pdfrwt>
<totfact> 0.58614439E+00</totfact>
</mgrwt>
</event>
<event>
12    7  0.1606355E-007  0.1592193E+04  0.7818608E-02  0.8825358E-01
         -1   -1    0    0    0  501 -0.00000000000E+00  0.00000000000E+00  0.66689770724E+03  0.66689770724E+03  0.00000000000E+00 0.  1.
          2   -1    0    0  501    0  0.00000000000E+00 -0.00000000000E+00 -0.95032519572E+03  0.95032519572E+03  0.00000000000E+00 0. -1.
         24    2    1    2    0    0 -0.46270919878E+03 -0.12728019860E+03 -0.34319353053E+03  0.59532612513E+03  0.79569744695E+02 0.  0.
        254    2    1    2    0    0  0.46270919878E+03  0.12728019860E+03  0.59766042040E+02  0.10218967778E+04  0.90022274641E+03 0.  0.
         23    2    4    4    0    0 -0.86951782940E+02  0.17644702214E+03 -0.29036375712E+03  0.36218971666E+03  0.90421873625E+02 0.  0.
         23    2    4    4    0    0  0.54966098172E+03 -0.49166823538E+02  0.35012979916E+03  0.65970706117E+03  0.89877466170E+02 0.  0.
          4    1    3    3  502    0 -0.29135385277E+03 -0.72541098839E+02 -0.25981733457E+03  0.39705708139E+03  0.00000000000E+00 0. -1.
         -3    1    3    3    0  502 -0.17135534602E+03 -0.54739099760E+02 -0.83376195959E+02  0.19826904374E+03  0.00000000000E+00 0.  1.
         13    1    5    5    0    0 -0.35903726470E+02  0.38710495851E+02 -0.23976233916E+02  0.57986548926E+02  0.00000000000E+00 0. -1.
        -13    1    5    5    0    0 -0.51048056470E+02  0.13773652628E+03 -0.26638752320E+03  0.30420316774E+03  0.00000000000E+00 0.  1.
          1    1    6    6  503    0  0.17524304886E+03  0.22164738189E+01  0.67581995876E+02  0.18783600585E+03  0.00000000000E+00 0. -1.
         -1    1    6    6    0  503  0.37441793287E+03 -0.51383297357E+02  0.28254780328E+03  0.47187105531E+03  0.00000000000E+00 0.  1.
<mgrwt>
<rscale>  0 0.15921931E+04</rscale>
<asrwt>0</asrwt>
<pdfrwt beam="1">  1        2 0.14620388E+00 0.15921931E+04</pdfrwt>
<pdfrwt beam="2">  1       -1 0.10259965E+00 0.15921931E+04</pdfrwt>
<totfact> 0.26698594E+01</totfact>
</mgrwt>
</event>
<event>
12    7  0.1606355E-007  0.1550521E+04  0.7818608E-02  0.8851535E-01
          2   -1    0    0  501    0  0.00000000000E+00  0.00000000000E+00  0.52932121610E+03  0.52932121610E+03  0.00000000000E+00 0. -1.
         -1   -1    0    0    0  501 -0.00000000000E+00 -0.00000000000E+00 -0.11354710365E+04  0.11354710365E+04  0.00000000000E+00 0.  1.
         24    2    1    2    0    0 -0.25066614768E+03  0.15992162114E+03  0.23864333480E+03  0.38950921542E+03  0.79739232207E+02 0.  0.
        254    2    1    2    0    0  0.25066614768E+03 -0.15992162114E+03 -0.84479315523E+03  0.12752830372E+04  0.90788925942E+03 0.  0.
         23    2    4    4    0    0  0.23021717516E+03  0.19319006160E+03  0.41545841629E+02  0.31666283672E+03  0.90702522349E+02 0.  0.
         23    2    4    4    0    0  0.20448972525E+02 -0.35311168275E+03 -0.88633899686E+03  0.95862020049E+03  0.90828687501E+02 0.  0.
          4    1    3    3  502    0 -0.21358060520E+03  0.96947758684E+02  0.17580561381E+03  0.29312651992E+03  0.00000000000E+00 0. -1.
         -3    1    3    3    0  502 -0.37085542485E+02  0.62973862460E+02  0.62837720985E+02  0.96382695507E+02  0.00000000000E+00 0.  1.
         13    1    5    5    0    0  0.27268346402E+02  0.59008417253E+02  0.33746311997E+02  0.73241856855E+02  0.00000000000E+00 0.  1.
        -13    1    5    5    0    0  0.20294882876E+03  0.13418164435E+03  0.77995296317E+01  0.24342097986E+03  0.00000000000E+00 0. -1.
          1    1    6    6  503    0 -0.27704047410E+02 -0.21941573286E+03 -0.58650341781E+03  0.62681499437E+03  0.00000000000E+00 0. -1.
         -1    1    6    6    0  503  0.48153019935E+02 -0.13369594988E+03 -0.29983557905E+03  0.33180520612E+03  0.00000000000E+00 0.  1.
<mgrwt>
<rscale>  0 0.15505211E+04</rscale>
<asrwt>0</asrwt>
<pdfrwt beam="1">  1        2 0.81434034E-01 0.15505211E+04</pdfrwt>
<pdfrwt beam="2">  1       -1 0.17468785E+00 0.15505211E+04</pdfrwt>
<totfact> 0.14408315E+01</totfact>
</mgrwt>
</event>
<event>
12    7  0.1606355E-007  0.1902028E+04  0.7818608E-02  0.8653848E-01
         -3   -1    0    0    0  501 -0.00000000000E+00  0.00000000000E+00  0.90926718551E+03  0.90926718551E+03  0.00000000000E+00 0.  1.
          2   -1    0    0  501    0  0.00000000000E+00 -0.00000000000E+00 -0.99467732308E+03  0.99467732308E+03  0.00000000000E+00 0. -1.
         24    2    1    2    0    0  0.77968957195E+02 -0.54618272212E+03 -0.52657857978E+03  0.76672739421E+03  0.78684001697E+02 0.  0.
        254    2    1    2    0    0 -0.77968957195E+02  0.54618272212E+03  0.44116844221E+03  0.11372171144E+04  0.89120056475E+03 0.  0.
         23    2    4    4    0    0  0.27068641498E+03  0.61734951887E+03  0.28511582514E+03  0.73754227880E+03  0.91027553906E+02 0.  0.
         23    2    4    4    0    0 -0.34865537217E+03 -0.71166796749E+02  0.15605261707E+03  0.39967483558E+03  0.93607015765E+02 0.  0.
          2    1    3    3  502    0  0.52333082288E+02 -0.49171255260E+03 -0.49073166028E+03  0.69666171726E+03  0.00000000000E+00 0. -1.
         -1    1    3    3    0  502  0.25635874907E+02 -0.54470169515E+02 -0.35846919493E+02  0.70065676950E+02  0.00000000000E+00 0.  1.
         13    1    5    5    0    0  0.22464813265E+03  0.55321613603E+03  0.22407513225E+03  0.63774959158E+03  0.00000000000E+00 0.  1.
        -13    1    5    5    0    0  0.46038282329E+02  0.64133382842E+02  0.61040692892E+02  0.99792687223E+02  0.00000000000E+00 0. -1.
          1    1    6    6  503    0 -0.94510638784E+02 -0.61629371574E+02  0.60226152261E+02  0.12789694953E+03  0.00000000000E+00 0. -1.
         -1    1    6    6    0  503 -0.25414473339E+03 -0.95374251751E+01  0.95826464811E+02  0.27177788605E+03  0.00000000000E+00 0.  1.
<mgrwt>
<rscale>  0 0.19020278E+04</rscale>
<asrwt>0</asrwt>
<pdfrwt beam="1">  1        2 0.15302728E+00 0.19020278E+04</pdfrwt>
<pdfrwt beam="2">  1       -3 0.13988726E+00 0.19020278E+04</pdfrwt>
<totfact> 0.57981204E+00</totfact>
</mgrwt>
</event>
<event>
12    7  0.1606355E-007  0.1269996E+04  0.7818608E-02  0.9053703E-01
         -1   -1    0    0    0  501 -0.00000000000E+00  0.00000000000E+00  0.25860664207E+04  0.25860664207E+04  0.00000000000E+00 0.  1.
          2   -1    0    0  501    0  0.00000000000E+00 -0.00000000000E+00 -0.15592110789E+03  0.15592110789E+03  0.00000000000E+00 0. -1.
         24    2    1    2    0    0 -0.64467680455E+02  0.24605450480E+03  0.23317187537E+03  0.35395121405E+03  0.78825359520E+02 0.  0.
        254    2    1    2    0    0  0.64467680455E+02 -0.24605450480E+03  0.21969734375E+04  0.23880363146E+04  0.90073650620E+03 0.  0.
         23    2    4    4    0    0 -0.35758757652E+03  0.53064524245E+02  0.12592032834E+04  0.13132835003E+04  0.91847288725E+02 0.  0.
         23    2    4    4    0    0  0.42205525698E+03 -0.29911902905E+03  0.93777015402E+03  0.10747528143E+04  0.89877230547E+02 0.  0.
          4    1    3    3  502    0 -0.76751044181E+02  0.20175247106E+03  0.16487298524E+03  0.27162084534E+03  0.00000000000E+00 0. -1.
         -3    1    3    3    0  502  0.12283363726E+02  0.44302033749E+02  0.68298890131E+02  0.82330368709E+02  0.00000000000E+00 0.  1.
         13    1    5    5    0    0 -0.13066354830E+03  0.43824753356E+01  0.31666264016E+03  0.34258925351E+03  0.00000000000E+00 0. -1.
        -13    1    5    5    0    0 -0.22692402822E+03  0.48682048910E+02  0.94254064329E+03  0.97069424677E+03  0.00000000000E+00 0.  1.
          1    1    6    6  503    0  0.10840123964E+02 -0.28577371553E+02  0.34664204090E+02  0.46214516092E+02  0.00000000000E+00 0. -1.
         -1    1    6    6    0  503  0.41121513301E+03 -0.27054165750E+03  0.90310594993E+03  0.10285382982E+04  0.00000000000E+00 0.  1.
<mgrwt>
<rscale>  0 0.12699958E+04</rscale>
<asrwt>0</asrwt>
<pdfrwt beam="1">  1        2 0.23987865E-01 0.12699958E+04</pdfrwt>
<pdfrwt beam="2">  1       -1 0.39785634E+00 0.12699958E+04</pdfrwt>
<totfact> 0.19439859E+00</totfact>
</mgrwt>
</event>
<event>
12    7  0.1606355E-007  0.2070898E+04  0.7818608E-02  0.8574173E-01
          2   -1    0    0  501    0  0.00000000000E+00  0.00000000000E+00  0.14791026598E+04  0.14791026598E+04  0.00000000000E+00 0. -1.
         -1   -1    0    0    0  501 -0.00000000000E+00 -0.00000000000E+00 -0.72486799842E+03  0.72486799842E+03  0.00000000000E+00 0.  1.
         24    2    1    2    0    0  0.83297596374E+02 -0.42259763484E+03 -0.45498322107E+03  0.63366737657E+03  0.94854426064E+02 0.  0.
        254    2    1    2    0    0 -0.83297596374E+02  0.42259763484E+03  0.12092178824E+04  0.15703032816E+04  0.90449834635E+03 0.  0.
         23    2    4    4    0    0 -0.47290973902E+03  0.31631461394E+03  0.58266384372E+03  0.81928129901E+03  0.89588703982E+02 0.  0.
         23    2    4    4    0    0  0.38961214265E+03  0.10628302090E+03  0.62655403868E+03  0.75102198259E+03  0.91489631723E+02 0.  0.
          2    1    3    3  502    0 -0.16934573644E+02 -0.11554815285E+03 -0.14268810414E+03  0.18438560268E+03  0.00000000000E+00 0. -1.
         -1    1    3    3    0  502  0.10023217002E+03 -0.30704948199E+03 -0.31229511693E+03  0.44928177389E+03  0.00000000000E+00 0.  1.
         13    1    5    5    0    0 -0.34403011310E+03  0.18623918852E+03  0.42508841815E+03  0.57770400492E+03  0.00000000000E+00 0.  1.
        -13    1    5    5    0    0 -0.12887962592E+03  0.13007542542E+03  0.15757542558E+03  0.24157729409E+03  0.00000000000E+00 0. -1.
          4    1    6    6  503    0  0.15360535337E+03  0.76722935773E+02  0.20909059219E+03  0.27055478040E+03  0.00000000000E+00 0. -1.
         -4    1    6    6    0  503  0.23600678928E+03  0.29560085128E+02  0.41746344649E+03  0.48046720219E+03  0.00000000000E+00 0.  1.
<mgrwt>
<rscale>  0 0.20708976E+04</rscale>
<asrwt>0</asrwt>
<pdfrwt beam="1">  1        2 0.22755426E+00 0.20708976E+04</pdfrwt>
<pdfrwt beam="2">  1       -1 0.11151815E+00 0.20708976E+04</pdfrwt>
<totfact> 0.10142511E+01</totfact>
</mgrwt>
</event>
<event>
12    7  0.1606355E-007  0.1725510E+04  0.7818608E-02  0.8746947E-01
          2   -1    0    0  501    0  0.00000000000E+00  0.00000000000E+00  0.63374694078E+03  0.63374694078E+03  0.00000000000E+00 0. -1.
         -1   -1    0    0    0  501 -0.00000000000E+00 -0.00000000000E+00 -0.11745162063E+04  0.11745162063E+04  0.00000000000E+00 0.  1.
         24    2    1    2    0    0  0.34000202946E+03 -0.27190714902E+03 -0.66685646615E+03  0.80059311532E+03  0.81956769924E+02 0.  0.
        254    2    1    2    0    0 -0.34000202946E+03  0.27190714902E+03  0.12608720058E+03  0.10076700318E+04  0.89998112932E+03 0.  0.
         23    2    4    4    0    0  0.11103207307E+02 -0.16188739962E+02 -0.33900018063E+03  0.35141507531E+03  0.90476937259E+02 0.  0.
         23    2    4    4    0    0 -0.35110523676E+03  0.28809588898E+03  0.46508738121E+03  0.65625495649E+03  0.89945356947E+02 0.  0.
          2    1    3    3  502    0  0.22391110828E+03 -0.12737349623E+03 -0.39101544683E+03  0.46824488424E+03  0.00000000000E+00 0. -1.
         -1    1    3    3    0  502  0.11609092117E+03 -0.14453365279E+03 -0.27584101931E+03  0.33234823108E+03  0.00000000000E+00 0.  1.
         13    1    5    5    0    0  0.42206677631E+01 -0.15833689995E+02 -0.34303697696E+03  0.34342813999E+03  0.00000000000E+00 0. -1.
        -13    1    5    5    0    0  0.68825395443E+01 -0.35504996707E+00  0.40367963376E+01  0.79869353152E+01  0.00000000000E+00 0.  1.
          1    1    6    6  503    0 -0.10938840079E+03  0.11380149150E+03  0.21795574441E+03  0.26911207371E+03  0.00000000000E+00 0. -1.
         -1    1    6    6    0  503 -0.24171683597E+03  0.17429439748E+03  0.24713163680E+03  0.38714288279E+03  0.00000000000E+00 0.  1.
<mgrwt>
<rscale>  0 0.17255098E+04</rscale>
<asrwt>0</asrwt>
<pdfrwt beam="1">  1        2 0.97499530E-01 0.17255098E+04</pdfrwt>
<pdfrwt beam="2">  1       -1 0.18069480E+00 0.17255098E+04</pdfrwt>
<totfact> 0.10351341E+01</totfact>
</mgrwt>
</event>
<event>
12    7  0.1606355E-007  0.2406421E+04  0.7818608E-02  0.8437104E-01
          2   -1    0    0  501    0  0.00000000000E+00  0.00000000000E+00  0.34413993539E+04  0.34413993539E+04  0.00000000000E+00 0. -1.
         -1   -1    0    0    0  501 -0.00000000000E+00 -0.00000000000E+00 -0.42067623839E+03  0.42067623839E+03  0.00000000000E+00 0.  1.
         24    2    1    2    0    0  0.63825255175E+03 -0.69210484417E+03  0.19838600358E+04  0.21973408124E+04  0.78933952163E+02 0.  0.
        254    2    1    2    0    0 -0.63825255175E+03  0.69210484417E+03  0.10368630797E+04  0.16647347799E+04  0.89993411223E+03 0.  0.
         23    2    4    4    0    0  0.99968855622E+02  0.52248158281E+03  0.42164449796E+03  0.68485143628E+03  0.90866003797E+02 0.  0.
         23    2    4    4    0    0 -0.73822140738E+03  0.16962326136E+03  0.61521858175E+03  0.97988334367E+03  0.89076185180E+02 0.  0.
          2    1    3    3  502    0  0.54078064245E+03 -0.59532606486E+03  0.17532666088E+04  0.19289376943E+04  0.00000000000E+00 0. -1.
         -1    1    3    3    0  502  0.97471909308E+02 -0.96778779311E+02  0.23059342697E+03  0.26840311808E+03  0.00000000000E+00 0.  1.
         13    1    5    5    0    0 -0.20178474739E+00  0.23540052713E+03  0.17458005386E+03  0.29307276246E+03  0.00000000000E+00 0. -1.
        -13    1    5    5    0    0  0.10017064037E+03  0.28708105568E+03  0.24706444410E+03  0.39177867382E+03  0.00000000000E+00 0.  1.
          2    1    6    6  503    0 -0.77073097480E+02  0.42875289392E+02  0.53764041133E+02  0.10329145615E+03  0.00000000000E+00 0. -1.
         -2    1    6    6    0  503 -0.66114830990E+03  0.12674797197E+03  0.56145454062E+03  0.87659188751E+03  0.00000000000E+00 0.  1.
<mgrwt>
<rscale>  0 0.24064205E+04</rscale>
<asrwt>0</asrwt>
<pdfrwt beam="1">  1        2 0.52944603E+00 0.24064205E+04</pdfrwt>
<pdfrwt beam="2">  1       -1 0.64719424E-01 0.24064205E+04</pdfrwt>
<totfact> 0.22135436E+00</totfact>
</mgrwt>
</event>
<event>
12    7  0.1606355E-007  0.2292223E+04  0.7818608E-02  0.8480994E-01
          2   -1    0    0  501    0  0.00000000000E+00  0.00000000000E+00  0.23205513334E+04  0.23205513334E+04  0.00000000000E+00 0. -1.
         -1   -1    0    0    0  501 -0.00000000000E+00 -0.00000000000E+00 -0.56605998485E+03  0.56605998485E+03  0.00000000000E+00 0.  1.
         24    2    1    2    0    0 -0.33725238538E+03  0.55237965093E+03 -0.16256877528E+03  0.67190874269E+03  0.78551267383E+02 0.  0.
        254    2    1    2    0    0  0.33725238538E+03 -0.55237965093E+03  0.19170601238E+04  0.22147025756E+04  0.90051403631E+03 0.  0.
         23    2    4    4    0    0 -0.10722257158E+03 -0.58673007752E+03  0.75243279087E+03  0.96495373829E+03  0.96081988631E+02 0.  0.
         23    2    4    4    0    0  0.44447495697E+03  0.34350426590E+02  0.11646273330E+04  0.12497488373E+04  0.82324919692E+02 0.  0.
          4    1    3    3  502    0 -0.21994893263E+03  0.33662493247E+03 -0.13786068889E+03  0.42508757647E+03  0.00000000000E+00 0. -1.
         -3    1    3    3    0  502 -0.11730345275E+03  0.21575471846E+03 -0.24708086389E+02  0.24682116622E+03  0.00000000000E+00 0.  1.
         13    1    5    5    0    0 -0.97388726175E+01 -0.76600034184E+02  0.15616964004E+03  0.17421643823E+03  0.00000000000E+00 0. -1.
        -13    1    5    5    0    0 -0.97483698966E+02 -0.51013004333E+03  0.59626315082E+03  0.79073730006E+03  0.00000000000E+00 0.  1.
          1    1    6    6  503    0  0.12966027582E+03  0.14218821587E+02  0.24561125736E+03  0.27809863674E+03  0.00000000000E+00 0. -1.
         -1    1    6    6    0  503  0.31481468115E+03  0.20131605003E+02  0.91901607560E+03  0.97165020053E+03  0.00000000000E+00 0.  1.
<mgrwt>
<rscale>  0 0.22922227E+04</rscale>
<asrwt>0</asrwt>
<pdfrwt beam="1">  1        2 0.35700789E+00 0.22922227E+04</pdfrwt>
<pdfrwt beam="2">  1       -1 0.87086153E-01 0.22922227E+04</pdfrwt>
<totfact> 0.59153453E+00</totfact>
</mgrwt>
</event>
<event>
12    7  0.1606355E-007  0.2135424E+04  0.7818608E-02  0.8545798E-01
          2   -1    0    0  501    0  0.00000000000E+00  0.00000000000E+00  0.32320796281E+04  0.32320796281E+04  0.00000000000E+00 0. -1.
         -1   -1    0    0    0  501 -0.00000000000E+00 -0.00000000000E+00 -0.35271671502E+03  0.35271671502E+03  0.00000000000E+00 0.  1.
         24    2    1    2    0    0  0.64067552974E+03 -0.55416886967E+03  0.13755829403E+04  0.16175428207E+04  0.81535762605E+02 0.  0.
        254    2    1    2    0    0 -0.64067552974E+03  0.55416886967E+03  0.15037799728E+04  0.19672535225E+04  0.94401480099E+03 0.  0.
         23    2    4    4    0    0 -0.46723621428E+03 -0.17406342969E+03  0.70918715391E+03  0.87173897813E+03  0.91513218854E+02 0.  0.
         23    2    4    4    0    0 -0.17343931546E+03  0.72823229936E+03  0.79459281891E+03  0.10955145443E+04  0.91492573553E+02 0.  0.
          4    1    3    3  502    0  0.18509809158E+03 -0.11631281661E+03  0.37876623303E+03  0.43732577571E+03  0.00000000000E+00 0. -1.
         -3    1    3    3    0  502  0.45557743817E+03 -0.43785605306E+03  0.99681670729E+03  0.11802170450E+04  0.00000000000E+00 0.  1.
         13    1    5    5    0    0 -0.14187921363E+03 -0.60214078136E+02  0.29535817921E+03  0.33315446942E+03  0.00000000000E+00 0. -1.
        -13    1    5    5    0    0 -0.32535700065E+03 -0.11384935155E+03  0.41382897470E+03  0.53858450871E+03  0.00000000000E+00 0.  1.
          1    1    6    6  503    0 -0.93531927073E+02  0.43719580149E+03  0.40983086390E+03  0.60650616421E+03  0.00000000000E+00 0. -1.
         -1    1    6    6    0  503 -0.79907388387E+02  0.29103649787E+03  0.38476195500E+03  0.48900838012E+03  0.00000000000E+00 0.  1.
<mgrwt>
<rscale>  0 0.21354236E+04</rscale>
<asrwt>0</asrwt>
<pdfrwt beam="1">  1        2 0.49724300E+00 0.21354236E+04</pdfrwt>
<pdfrwt beam="2">  1       -1 0.54264112E-01 0.21354236E+04</pdfrwt>
<totfact> 0.44423085E+00</totfact>
</mgrwt>
</event>
<event>
12    7  0.1606355E-007  0.2250799E+04  0.7818608E-02  0.8497577E-01
          2   -1    0    0  501    0  0.00000000000E+00  0.00000000000E+00  0.12955316386E+04  0.12955316386E+04  0.00000000000E+00 0. -1.
         -1   -1    0    0    0  501 -0.00000000000E+00 -0.00000000000E+00 -0.97760932162E+03  0.97760932162E+03  0.00000000000E+00 0.  1.
         24    2    1    2    0    0  0.71187571401E+03  0.40516462004E+03 -0.33897638166E+03  0.88993684204E+03  0.78467789284E+02 0.  0.
        254    2    1    2    0    0 -0.71187571401E+03 -0.40516462004E+03  0.65689869864E+03  0.13832041182E+04  0.90045118175E+03 0.  0.
         23    2    4    4    0    0 -0.87429945410E+02  0.79163762267E+02  0.56284088801E+03  0.58220357668E+03  0.90885878251E+02 0.  0.
         23    2    4    4    0    0 -0.62444576860E+03 -0.48432838231E+03  0.94057810624E+02  0.80100054150E+03  0.90821230437E+02 0.  0.
          4    1    3    3  502    0  0.37697855149E+03  0.20312695866E+03 -0.21810265100E+03  0.48056441399E+03  0.00000000000E+00 0. -1.
         -3    1    3    3    0  502  0.33489716253E+03  0.20203766138E+03 -0.12087373066E+03  0.40937242805E+03  0.00000000000E+00 0.  1.
         13    1    5    5    0    0 -0.71146391468E+02  0.23022604243E+02  0.17983491912E+03  0.19476254121E+03  0.00000000000E+00 0. -1.
        -13    1    5    5    0    0 -0.16283553942E+02  0.56141158024E+02  0.38300596889E+03  0.38744103546E+03  0.00000000000E+00 0.  1.
          1    1    6    6  503    0 -0.48371416054E+03 -0.40344177585E+03  0.10386943470E+03  0.63838351723E+03  0.00000000000E+00 0. -1.
         -1    1    6    6    0  503 -0.14073160807E+03 -0.80886606455E+02 -0.98116240796E+01  0.16261702426E+03  0.00000000000E+00 0.  1.
<mgrwt>
<rscale>  0 0.22507988E+04</rscale>
<asrwt>0</asrwt>
<pdfrwt beam="1">  1        2 0.19931256E+00 0.22507988E+04</pdfrwt>
<pdfrwt beam="2">  1       -1 0.15040143E+00 0.22507988E+04</pdfrwt>
<totfact> 0.59767573E+00</totfact>
</mgrwt>
</event>
<event>
12    7  0.1606355E-007  0.2318350E+04  0.7818608E-02  0.8470721E-01
         -1   -1    0    0    0  501 -0.00000000000E+00  0.00000000000E+00  0.58896606086E+03  0.58896606086E+03  0.00000000000E+00 0.  1.
          2   -1    0    0  501    0  0.00000000000E+00 -0.00000000000E+00 -0.22814329268E+04  0.22814329268E+04  0.00000000000E+00 0. -1.
         24    2    1    2    0    0 -0.57742859308E+03 -0.36437417851E+03 -0.15767006041E+04  0.17200224936E+04  0.79374185299E+02 0.  0.
        254    2    1    2    0    0  0.57742859308E+03  0.36437417851E+03 -0.11576626185E+03  0.11503764941E+04  0.91857058999E+03 0.  0.
         23    2    4    4    0    0  0.15959270580E+03 -0.25894099975E+03  0.14379722763E+03  0.35117756708E+03  0.10063681159E+03 0.  0.
         23    2    4    4    0    0  0.41783588728E+03  0.62331517826E+03 -0.25956348949E+03  0.79919892705E+03  0.90758359224E+02 0.  0.
          4    1    3    3  502    0 -0.32782732900E+03 -0.24068952693E+03 -0.10011411446E+04  0.10805951126E+04  0.00000000000E+00 0. -1.
         -3    1    3    3    0  502 -0.24960126407E+03 -0.12368465158E+03 -0.57555945954E+03  0.63942738096E+03  0.00000000000E+00 0.  1.
         13    1    5    5    0    0  0.30832324780E+02 -0.77567550683E+02 -0.49110140385E+01  0.83615041883E+02  0.00000000000E+00 0. -1.
        -13    1    5    5    0    0  0.12876038102E+03 -0.18137344907E+03  0.14870824167E+03  0.26756252519E+03  0.00000000000E+00 0.  1.
          2    1    6    6  503    0  0.12370691162E+03  0.25590312343E+03 -0.77933834225E+02  0.29472612894E+03  0.00000000000E+00 0. -1.
         -2    1    6    6    0  503  0.29412897566E+03  0.36741205483E+03 -0.18162965526E+03  0.50447279811E+03  0.00000000000E+00 0.  1.
<mgrwt>
<rscale>  0 0.23183499E+04</rscale>
<asrwt>0</asrwt>
<pdfrwt beam="1">  1        2 0.35098967E+00 0.23183499E+04</pdfrwt>
<pdfrwt beam="2">  1       -1 0.90610165E-01 0.23183499E+04</pdfrwt>
<totfact> 0.56927843E+00</totfact>
</mgrwt>
</event>
<event>
12    7  0.1606355E-007  0.5109539E+04  0.7818608E-02  0.7811828E-01
          2   -1    0    0  501    0  0.00000000000E+00  0.00000000000E+00  0.33230382297E+04  0.33230382297E+04  0.00000000000E+00 0. -1.
         -1   -1    0    0    0  501 -0.00000000000E+00 -0.00000000000E+00 -0.19641203281E+04  0.19641203281E+04  0.00000000000E+00 0.  1.
         24    2    1    2    0    0  0.24166698232E+04  0.14394451436E+03  0.11864443372E+04  0.26973181407E+04  0.82836762006E+02 0.  0.
        254    2    1    2    0    0 -0.24166698232E+04 -0.14394451436E+03  0.17247356434E+03  0.25898404171E+04  0.90361119851E+03 0.  0.
         23    2    4    4    0    0 -0.11403276284E+04 -0.49442372539E+03 -0.39577664021E+02  0.12469062838E+04  0.91689523725E+02 0.  0.
         23    2    4    4    0    0 -0.12763421948E+04  0.35047921103E+03  0.21205122836E+03  0.13429341333E+04  0.81371293169E+02 0.  0.
          2    1    3    3  502    0  0.17210753444E+04  0.13149206954E+03  0.81895809425E+03  0.19105190042E+04  0.00000000000E+00 0. -1.
         -1    1    3    3    0  502  0.69559447881E+03  0.12452444820E+02  0.36748624296E+03  0.78679913644E+03  0.00000000000E+00 0.  1.
         13    1    5    5    0    0 -0.78230720494E+03 -0.35875963005E+03  0.11005100951E+02  0.86071722842E+03  0.00000000000E+00 0.  1.
        -13    1    5    5    0    0 -0.35802042348E+03 -0.13566409534E+03 -0.50582764973E+02  0.38618905539E+03  0.00000000000E+00 0. -1.
          3    1    6    6  503    0 -0.50897202812E+02  0.30672006743E+02  0.50244391377E+01  0.59636752429E+02  0.00000000000E+00 0.  1.
         -3    1    6    6    0  503 -0.12254449920E+04  0.31980720429E+03  0.20702678922E+03  0.12832973809E+04  0.00000000000E+00 0. -1.
<mgrwt>
<rscale>  0 0.51095389E+04</rscale>
<asrwt>0</asrwt>
<pdfrwt beam="1">  1        2 0.51123665E+00 0.51095389E+04</pdfrwt>
<pdfrwt beam="2">  1       -1 0.30217236E+00 0.51095389E+04</pdfrwt>
<totfact> 0.28145864E-02</totfact>
</mgrwt>
</event>
<event>
12    7  0.1606355E-007  0.2302427E+04  0.7818608E-02  0.8476965E-01
          2   -1    0    0  501    0  0.00000000000E+00  0.00000000000E+00  0.77904655738E+03  0.77904655738E+03  0.00000000000E+00 0. -1.
         -1   -1    0    0    0  501 -0.00000000000E+00 -0.00000000000E+00 -0.17011717422E+04  0.17011717422E+04  0.00000000000E+00 0.  1.
         24    2    1    2    0    0 -0.73719535426E+03 -0.49696157686E+03  0.28758065558E+02  0.89323721856E+03  0.81350495257E+02 0.  0.
        254    2    1    2    0    0  0.73719535426E+03  0.49696157686E+03 -0.95088325033E+03  0.15869810810E+04  0.90769058407E+03 0.  0.
         23    2    4    4    0    0 -0.12743400084E+02  0.17226555440E+03 -0.70054790049E+03  0.72739222920E+03  0.92164411434E+02 0.  0.
         23    2    4    4    0    0  0.74993875434E+03  0.32469602246E+03 -0.25033534984E+03  0.85958885178E+03  0.91594565713E+02 0.  0.
          2    1    3    3  502    0 -0.51652329550E+03 -0.38085111522E+03  0.45203881546E+02  0.64334071662E+03  0.00000000000E+00 0. -1.
         -1    1    3    3    0  502 -0.22067205876E+03 -0.11611046164E+03 -0.16445815989E+02  0.24989650194E+03  0.00000000000E+00 0.  1.
         13    1    5    5    0    0 -0.79407083439E+01  0.13108549697E+03 -0.64411829470E+03  0.65736963721E+03  0.00000000000E+00 0. -1.
        -13    1    5    5    0    0 -0.48026917397E+01  0.41180057434E+02 -0.56429605791E+02  0.70022591983E+02  0.00000000000E+00 0.  1.
          3    1    6    6  503    0  0.60007996387E+03  0.27395380465E+03 -0.23649385569E+03  0.70076814561E+03  0.00000000000E+00 0. -1.
         -3    1    6    6    0  503  0.14985879047E+03  0.50742217802E+02 -0.13841494151E+02  0.15882070617E+03  0.00000000000E+00 0.  1.
<mgrwt>
<rscale>  0 0.23024265E+04</rscale>
<asrwt>0</asrwt>
<pdfrwt beam="1">  1        2 0.11985332E+00 0.23024265E+04</pdfrwt>
<pdfrwt beam="2">  1       -1 0.26171873E+00 0.23024265E+04</pdfrwt>
<totfact> 0.21577049E+00</totfact>
</mgrwt>
</event>
<event>
12    7  0.1606355E-007  0.1641867E+04  0.7818608E-02  0.8795233E-01
          2   -1    0    0  501    0  0.00000000000E+00  0.00000000000E+00  0.98637437558E+03  0.98637437558E+03  0.00000000000E+00 0. -1.
         -1   -1    0    0    0  501 -0.00000000000E+00 -0.00000000000E+00 -0.68324104103E+03  0.68324104103E+03  0.00000000000E+00 0.  1.
         24    2    1    2    0    0  0.19734424857E+03  0.20455076933E+03 -0.39361549426E+03  0.49155437969E+03  0.76855586581E+02 0.  0.
        254    2    1    2    0    0 -0.19734424857E+03 -0.20455076933E+03  0.69674882881E+03  0.11780610369E+04  0.90641221670E+03 0.  0.
         23    2    4    4    0    0 -0.17821564235E+03 -0.46384398889E+03  0.91812746785E+02  0.51348049221E+03  0.91217181478E+02 0.  0.
         23    2    4    4    0    0 -0.19128606213E+02  0.25929321956E+03  0.60493608203E+03  0.66458054471E+03  0.90115258314E+02 0.  0.
          4    1    3    3  502    0  0.66380766237E+02  0.11428625475E+03 -0.21509001075E+03  0.25245091974E+03  0.00000000000E+00 0. -1.
         -3    1    3    3    0  502  0.13096348233E+03  0.90264514580E+02 -0.17852548351E+03  0.23910345995E+03  0.00000000000E+00 0.  1.
         13    1    5    5    0    0 -0.11090826308E+03 -0.19010103409E+03  0.69051842215E+02  0.23066686562E+03  0.00000000000E+00 0. -1.
        -13    1    5    5    0    0 -0.67307379277E+02 -0.27374295480E+03  0.22760904570E+02  0.28281362659E+03  0.00000000000E+00 0.  1.
          3    1    6    6  503    0 -0.26164912063E+02  0.20198993112E+03  0.36689774216E+03  0.41964090375E+03  0.00000000000E+00 0. -1.
         -3    1    6    6    0  503  0.70363058506E+01  0.57303288435E+02  0.23803833987E+03  0.24493964096E+03  0.00000000000E+00 0.  1.
<mgrwt>
<rscale>  0 0.16418666E+04</rscale>
<asrwt>0</asrwt>
<pdfrwt beam="1">  1        2 0.15174990E+00 0.16418666E+04</pdfrwt>
<pdfrwt beam="2">  1       -1 0.10511401E+00 0.16418666E+04</pdfrwt>
<totfact> 0.23810666E+01</totfact>
</mgrwt>
</event>
<event>
12    7  0.1606355E-007  0.1429147E+04  0.7818608E-02  0.8932986E-01
          2   -1    0    0  501    0  0.00000000000E+00  0.00000000000E+00  0.27195273566E+04  0.27195273566E+04  0.00000000000E+00 0. -1.
         -1   -1    0    0    0  501 -0.00000000000E+00 -0.00000000000E+00 -0.18775889226E+03  0.18775889226E+03  0.00000000000E+00 0.  1.
         24    2    1    2    0    0 -0.35537912201E+03  0.18069546148E+03  0.11169688756E+04  0.11888047497E+04  0.81805218861E+02 0.  0.
        254    2    1    2    0    0  0.35537912201E+03 -0.18069546148E+03  0.14147995888E+04  0.17184814991E+04  0.89026716007E+03 0.  0.
         23    2    4    4    0    0  0.96820131976E+02  0.22767804566E+03  0.11082851493E+04  0.11387690137E+04  0.85366643571E+02 0.  0.
         23    2    4    4    0    0  0.25855899004E+03 -0.40837350714E+03  0.30651443945E+03  0.57971248547E+03  0.92161768394E+02 0.  0.
          2    1    3    3  502    0 -0.22352500399E+03  0.15306395411E+03  0.79046452763E+03  0.83559928847E+03  0.00000000000E+00 0. -1.
         -1    1    3    3    0  502 -0.13185411803E+03  0.27631507372E+02  0.32650434794E+03  0.35320546126E+03  0.00000000000E+00 0.  1.
         13    1    5    5    0    0  0.13641086347E+02  0.12043022635E+02  0.23963096576E+02  0.30088928669E+02  0.00000000000E+00 0.  1.
        -13    1    5    5    0    0  0.83179045629E+02  0.21563502302E+03  0.10843220528E+04  0.11086800850E+04  0.00000000000E+00 0. -1.
          3    1    6    6  503    0  0.22785426195E+03 -0.37180528301E+03  0.23975304450E+03  0.49763265117E+03  0.00000000000E+00 0. -1.
         -3    1    6    6    0  503  0.30704728091E+02 -0.36568224127E+02  0.66761394947E+02  0.82079834297E+02  0.00000000000E+00 0.  1.
<mgrwt>
<rscale>  0 0.14291472E+04</rscale>
<asrwt>0</asrwt>
<pdfrwt beam="1">  1        2 0.41838880E+00 0.14291472E+04</pdfrwt>
<pdfrwt beam="2">  1       -1 0.28885985E-01 0.14291472E+04</pdfrwt>
<totfact> 0.31348247E+01</totfact>
</mgrwt>
</event>
<event>
12    7  0.1606355E-007  0.1764819E+04  0.7818608E-02  0.8725235E-01
         -1   -1    0    0    0  501 -0.00000000000E+00  0.00000000000E+00  0.51107741550E+03  0.51107741550E+03  0.00000000000E+00 0.  1.
          2   -1    0    0  501    0  0.00000000000E+00 -0.00000000000E+00 -0.15235396191E+04  0.15235396191E+04  0.00000000000E+00 0. -1.
         24    2    1    2    0    0  0.36922263715E+03 -0.21005940895E+03  0.20345099143E+03  0.47766475037E+03  0.79504696481E+02 0.  0.
        254    2    1    2    0    0 -0.36922263715E+03  0.21005940895E+03 -0.12159131950E+04  0.15569522842E+04  0.87476008508E+03 0.  0.
         23    2    4    4    0    0  0.21172878109E+02 -0.21955020773E+03 -0.80652956015E+03  0.84075742339E+03  0.87934800298E+02 0.  0.
         23    2    4    4    0    0 -0.39039551526E+03  0.42960961668E+03 -0.40938363489E+03  0.71619486085E+03  0.91471509839E+02 0.  0.
          4    1    3    3  502    0  0.61858878104E+02 -0.57234950685E+02  0.69343997697E+02  0.10913730067E+03  0.00000000000E+00 0. -1.
         -3    1    3    3    0  502  0.30736375904E+03 -0.15282445826E+03  0.13410699373E+03  0.36852744970E+03  0.00000000000E+00 0.  1.
         13    1    5    5    0    0  0.44082416517E+02 -0.76239014064E+02 -0.23119031607E+03  0.24739565266E+03  0.00000000000E+00 0. -1.
        -13    1    5    5    0    0 -0.22909538408E+02 -0.14331119367E+03 -0.57533924408E+03  0.59336177073E+03  0.00000000000E+00 0.  1.
          1    1    6    6  503    0 -0.32960563421E+03  0.33533081850E+03 -0.36625712302E+03  0.59601251003E+03  0.00000000000E+00 0. -1.
         -1    1    6    6    0  503 -0.60789881048E+02  0.94278798177E+02 -0.43126511865E+02  0.12018235082E+03  0.00000000000E+00 0.  1.
<mgrwt>
<rscale>  0 0.17648192E+04</rscale>
<asrwt>0</asrwt>
<pdfrwt beam="1">  1        2 0.23439071E+00 0.17648192E+04</pdfrwt>
<pdfrwt beam="2">  1       -1 0.78627296E-01 0.17648192E+04</pdfrwt>
<totfact> 0.21492874E+01</totfact>
</mgrwt>
</event>
<event>
12    7  0.1606355E-007  0.2350926E+04  0.7818608E-02  0.8458108E-01
          2   -1    0    0  501    0  0.00000000000E+00  0.00000000000E+00  0.25788362772E+04  0.25788362772E+04  0.00000000000E+00 0. -1.
         -1   -1    0    0    0  501 -0.00000000000E+00 -0.00000000000E+00 -0.53578952867E+03  0.53578952867E+03  0.00000000000E+00 0.  1.
         24    2    1    2    0    0 -0.14927235747E+03  0.93648534814E+03  0.12844002389E+04  0.15983530532E+04  0.75904315767E+02 0.  0.
        254    2    1    2    0    0  0.14927235747E+03 -0.93648534814E+03  0.75864650968E+03  0.15162727527E+04  0.90788297146E+03 0.  0.
         23    2    4    4    0    0 -0.64631923068E+02 -0.80631158189E+03  0.90030815771E+03  0.12141813074E+04  0.96777144754E+02 0.  0.
         23    2    4    4    0    0  0.21390428054E+03 -0.13017376624E+03 -0.14166164803E+03  0.30209144531E+03  0.92146449492E+02 0.  0.
          2    1    3    3  502    0 -0.15726486406E+03  0.91383886074E+03  0.12492670743E+04  0.15557962347E+04  0.00000000000E+00 0. -1.
         -1    1    3    3    0  502  0.79925065907E+01  0.22646487400E+02  0.35133164536E+02  0.42556818531E+02  0.00000000000E+00 0.  1.
         13    1    5    5    0    0 -0.72474851230E+02 -0.76242528976E+03  0.81794241012E+03  0.11205243026E+04  0.00000000000E+00 0. -1.
        -13    1    5    5    0    0  0.78429281612E+01 -0.43886292138E+02  0.82365747587E+02  0.93657004732E+02  0.00000000000E+00 0.  1.
          3    1    6    6  503    0  0.19485543187E+03 -0.86727105717E+02 -0.13899430234E+03  0.25457738760E+03  0.00000000000E+00 0. -1.
         -3    1    6    6    0  503  0.19048848665E+02 -0.43446660524E+02 -0.26673456904E+01  0.47514057701E+02  0.00000000000E+00 0.  1.
<mgrwt>
<rscale>  0 0.23509262E+04</rscale>
<asrwt>0</asrwt>
<pdfrwt beam="1">  1        2 0.39674404E+00 0.23509262E+04</pdfrwt>
<pdfrwt beam="2">  1       -1 0.82429160E-01 0.23509262E+04</pdfrwt>
<totfact> 0.47058242E+00</totfact>
</mgrwt>
</event>
<event>
12    7  0.1606355E-007  0.2060771E+04  0.7818608E-02  0.8578724E-01
         -1   -1    0    0    0  501 -0.00000000000E+00  0.00000000000E+00  0.60198500073E+03  0.60198500073E+03  0.00000000000E+00 0.  1.
          2   -1    0    0  501    0  0.00000000000E+00 -0.00000000000E+00 -0.17636555994E+04  0.17636555994E+04  0.00000000000E+00 0. -1.
         24    2    1    2    0    0  0.37866973776E+03  0.72721976481E+03 -0.33105249901E+03  0.88813543869E+03  0.83363323721E+02 0.  0.
        254    2    1    2    0    0 -0.37866973776E+03 -0.72721976481E+03 -0.83061809971E+03  0.14775051615E+04  0.90601088185E+03 0.  0.
         23    2    4    4    0    0 -0.20908908816E+03  0.17636512631E+03 -0.12324030673E+03  0.31408739014E+03  0.92950583005E+02 0.  0.
         23    2    4    4    0    0 -0.16958064960E+03 -0.90358489112E+03 -0.70737779298E+03  0.11634177713E+04  0.89074780299E+02 0.  0.
          2    1    3    3  502    0  0.98507052442E+02  0.21849253615E+03 -0.13551653295E+03  0.27533136116E+03  0.00000000000E+00 0. -1.
         -1    1    3    3    0  502  0.28016268531E+03  0.50872722866E+03 -0.19553596606E+03  0.61280407753E+03  0.00000000000E+00 0.  1.
         13    1    5    5    0    0 -0.14761783806E+03  0.14534714690E+03 -0.13051746187E+03  0.24485021356E+03  0.00000000000E+00 0. -1.
        -13    1    5    5    0    0 -0.61471250093E+02  0.31017979408E+02  0.72771551416E+01  0.69237176585E+02  0.00000000000E+00 0.  1.
          2    1    6    6  503    0 -0.14632551422E+03 -0.79167763343E+03 -0.57984517857E+03  0.99216181266E+03  0.00000000000E+00 0. -1.
         -2    1    6    6    0  503 -0.23255135375E+02 -0.11190725769E+03 -0.12753261441E+03  0.17125595868E+03  0.00000000000E+00 0.  1.
<mgrwt>
<rscale>  0 0.20607709E+04</rscale>
<asrwt>0</asrwt>
<pdfrwt beam="1">  1        2 0.27133162E+00 0.20607709E+04</pdfrwt>
<pdfrwt beam="2">  1       -1 0.92613079E-01 0.20607709E+04</pdfrwt>
<totfact> 0.10787197E+01</totfact>
</mgrwt>
</event>
<event>
12    7  0.1606355E-007  0.2714087E+04  0.7818608E-02  0.8330449E-01
          2   -1    0    0  501    0  0.00000000000E+00  0.00000000000E+00  0.12790436714E+04  0.12790436714E+04  0.00000000000E+00 0. -1.
         -1   -1    0    0    0  501 -0.00000000000E+00 -0.00000000000E+00 -0.14398002540E+04  0.14398002540E+04  0.00000000000E+00 0.  1.
         24    2    1    2    0    0  0.27739308288E+03  0.69010938563E+02 -0.12449411355E+04  0.12794598455E+04  0.73686044476E+02 0.  0.
        254    2    1    2    0    0 -0.27739308288E+03 -0.69010938563E+02  0.10841845529E+04  0.14393840800E+04  0.90258570381E+03 0.  0.
         23    2    4    4    0    0  0.20102823266E+03 -0.23027680230E+03  0.10803303636E+03  0.33669417498E+03  0.90840929730E+02 0.  0.
         23    2    4    4    0    0 -0.47842131554E+03  0.16126586374E+03  0.97615151658E+03  0.11026899050E+04  0.90330555441E+02 0.  0.
          4    1    3    3  502    0  0.23150695795E+02 -0.13936429001E+02 -0.90520305578E+02  0.94467478484E+02  0.00000000000E+00 0. -1.
         -3    1    3    3    0  502  0.25424238708E+03  0.82947367564E+02 -0.11544208299E+04  0.11849923670E+04  0.00000000000E+00 0.  1.
         13    1    5    5    0    0  0.77810942747E+01 -0.55897051077E+02  0.34768276009E+02  0.66286188334E+02  0.00000000000E+00 0.  1.
        -13    1    5    5    0    0  0.19324713839E+03 -0.17437975123E+03  0.73264760348E+02  0.27040798664E+03  0.00000000000E+00 0. -1.
          3    1    6    6  503    0 -0.45852072043E+03  0.16961835011E+03  0.95271165195E+03  0.10708273098E+04  0.00000000000E+00 0. -1.
         -3    1    6    6    0  503 -0.19900595113E+02 -0.83524863734E+01  0.23439864631E+02  0.31862595129E+02  0.00000000000E+00 0.  1.
<mgrwt>
<rscale>  0 0.27140873E+04</rscale>
<asrwt>0</asrwt>
<pdfrwt beam="1">  1        2 0.19677595E+00 0.27140873E+04</pdfrwt>
<pdfrwt beam="2">  1       -1 0.22150773E+00 0.27140873E+04</pdfrwt>
<totfact> 0.18254048E+00</totfact>
</mgrwt>
</event>
<event>
12    7  0.1606355E-007  0.1509648E+04  0.7818608E-02  0.8878062E-01
          2   -1    0    0  501    0  0.00000000000E+00  0.00000000000E+00  0.23253927502E+04  0.23253927502E+04  0.00000000000E+00 0. -1.
         -1   -1    0    0    0  501 -0.00000000000E+00 -0.00000000000E+00 -0.24501639523E+03  0.24501639523E+03  0.00000000000E+00 0.  1.
         24    2    1    2    0    0  0.42435473487E+03 -0.69345768276E+02  0.10501666473E+04  0.11375785032E+04  0.79681160110E+02 0.  0.
        254    2    1    2    0    0 -0.42435473487E+03  0.69345768276E+02  0.10302097077E+04  0.14328306422E+04  0.89821257559E+03 0.  0.
         23    2    4    4    0    0  0.95572867793E+02  0.33913765371E+03  0.20098069795E+03  0.41348683802E+03  0.80184805602E+02 0.  0.
         23    2    4    4    0    0 -0.51992760267E+03 -0.26979188543E+03  0.82922900973E+03  0.10193438042E+04  0.91261531616E+02 0.  0.
          4    1    3    3  502    0  0.29693382161E+03 -0.49576209673E+02  0.82350784666E+03  0.87680822789E+03  0.00000000000E+00 0. -1.
         -3    1    3    3    0  502  0.12742091327E+03 -0.19769558603E+02  0.22665880066E+03  0.26077027534E+03  0.00000000000E+00 0.  1.
         13    1    5    5    0    0  0.10890630008E+03  0.31250332560E+03  0.19085776836E+03  0.38202826918E+03  0.00000000000E+00 0.  1.
        -13    1    5    5    0    0 -0.13333432286E+02  0.26634328104E+02  0.10122929590E+02  0.31458568842E+02  0.00000000000E+00 0. -1.
          4    1    6    6  503    0 -0.80008424729E+02 -0.39834883568E+02  0.76349702003E+02  0.11754762002E+03  0.00000000000E+00 0. -1.
         -4    1    6    6    0  503 -0.43991917794E+03 -0.22995700186E+03  0.75287930773E+03  0.90179618419E+03  0.00000000000E+00 0.  1.
<mgrwt>
<rscale>  0 0.15096481E+04</rscale>
<asrwt>0</asrwt>
<pdfrwt beam="1">  1        2 0.35775272E+00 0.15096481E+04</pdfrwt>
<pdfrwt beam="2">  1       -1 0.37694832E-01 0.15096481E+04</pdfrwt>
<totfact> 0.32784542E+01</totfact>
</mgrwt>
</event>
<event>
12    7  0.1606355E-007  0.1810863E+04  0.7818608E-02  0.8700544E-01
         -1   -1    0    0    0  501 -0.00000000000E+00  0.00000000000E+00  0.11421002042E+04  0.11421002042E+04  0.00000000000E+00 0.  1.
          2   -1    0    0  501    0  0.00000000000E+00 -0.00000000000E+00 -0.71780618235E+03  0.71780618235E+03  0.00000000000E+00 0. -1.
         24    2    1    2    0    0 -0.14118430623E+03  0.43610544695E+02  0.84587163920E+03  0.86267317269E+03  0.82893214094E+02 0.  0.
        254    2    1    2    0    0  0.14118430623E+03 -0.43610544695E+02 -0.42157761731E+03  0.99723321389E+03  0.89157809951E+03 0.  0.
         23    2    4    4    0    0  0.28404362264E+03 -0.40604167463E+03 -0.22974707813E+03  0.55383299118E+03  0.91633187823E+02 0.  0.
         23    2    4    4    0    0 -0.14285931641E+03  0.36243112994E+03 -0.19183053919E+03  0.44340022271E+03  0.89664337963E+02 0.  0.
          4    1    3    3  502    0 -0.12298418879E+03  0.53683541802E+02  0.55240251790E+03  0.56846774326E+03  0.00000000000E+00 0. -1.
         -3    1    3    3    0  502 -0.18200117440E+02 -0.10072997107E+02  0.29346912130E+03  0.29420542943E+03  0.00000000000E+00 0.  1.
         13    1    5    5    0    0  0.29268728815E+02 -0.10440985248E+03 -0.61380436382E+02  0.12460190108E+03  0.00000000000E+00 0. -1.
        -13    1    5    5    0    0  0.25477489383E+03 -0.30163182215E+03 -0.16836664174E+03  0.42923109010E+03  0.00000000000E+00 0.  1.
          4    1    6    6  503    0  0.58498323851E+01  0.43924281040E+02 -0.42778738821E+02  0.61592073345E+02  0.00000000000E+00 0. -1.
         -4    1    6    6    0  503 -0.14870914879E+03  0.31850684890E+03 -0.14905180036E+03  0.38180814936E+03  0.00000000000E+00 0.  1.
<mgrwt>
<rscale>  0 0.18108634E+04</rscale>
<asrwt>0</asrwt>
<pdfrwt beam="1">  1        2 0.11043172E+00 0.18108634E+04</pdfrwt>
<pdfrwt beam="2">  1       -1 0.17570772E+00 0.18108634E+04</pdfrwt>
<totfact> 0.95520021E+00</totfact>
</mgrwt>
</event>
<event>
12    7  0.1606355E-007  0.2477456E+04  0.7818608E-02  0.8411061E-01
         -1   -1    0    0    0  501 -0.00000000000E+00  0.00000000000E+00  0.53657144319E+03  0.53657144319E+03  0.00000000000E+00 0.  1.
          2   -1    0    0  501    0  0.00000000000E+00 -0.00000000000E+00 -0.28597263817E+04  0.28597263817E+04  0.00000000000E+00 0. -1.
         24    2    1    2    0    0  0.49589426254E+02 -0.65078884565E+03 -0.21519910868E+04  0.22502814370E+04  0.81949223174E+02 0.  0.
        254    2    1    2    0    0 -0.49589426254E+02  0.65078884565E+03 -0.17116385170E+03  0.11460163879E+04  0.92632136128E+03 0.  0.
         23    2    4    4    0    0 -0.20186516007E+03 -0.38207662872E+01  0.26004872235E+03  0.34165048463E+03  0.91299367708E+02 0.  0.
         23    2    4    4    0    0  0.15227573382E+03  0.65460961193E+03 -0.43121257406E+03  0.80436590326E+03  0.96739749587E+02 0.  0.
          2    1    3    3  502    0  0.62095956967E+02 -0.48761908697E+03 -0.15237081774E+04  0.16010355685E+04  0.00000000000E+00 0. -1.
         -1    1    3    3    0  502 -0.12506530713E+02 -0.16316975868E+03 -0.62828290939E+03  0.64924586844E+03  0.00000000000E+00 0.  1.
         13    1    5    5    0    0 -0.12874822565E+03  0.40572254396E+02  0.14266295397E+03  0.19640501997E+03  0.00000000000E+00 0.  1.
        -13    1    5    5    0    0 -0.73116934424E+02 -0.44393020683E+02  0.11738576838E+03  0.14524546466E+03  0.00000000000E+00 0. -1.
          1    1    6    6  503    0  0.33783270134E+02  0.13100901533E+03 -0.13544234654E+03  0.19144007071E+03  0.00000000000E+00 0. -1.
         -1    1    6    6    0  503  0.11849246368E+03  0.52360059660E+03 -0.29577022752E+03  0.61292583254E+03  0.00000000000E+00 0.  1.
<mgrwt>
<rscale>  0 0.24774564E+04</rscale>
<asrwt>0</asrwt>
<pdfrwt beam="1">  1        2 0.43995791E+00 0.24774564E+04</pdfrwt>
<pdfrwt beam="2">  1       -1 0.82549452E-01 0.24774564E+04</pdfrwt>
<totfact> 0.31522923E+00</totfact>
</mgrwt>
</event>
<event>
12    7  0.1606355E-007  0.2068595E+04  0.7818608E-02  0.8575205E-01
         -1   -1    0    0    0  501 -0.00000000000E+00  0.00000000000E+00  0.55111479021E+03  0.55111479021E+03  0.00000000000E+00 0.  1.
          2   -1    0    0  501    0  0.00000000000E+00 -0.00000000000E+00 -0.19411047185E+04  0.19411047185E+04  0.00000000000E+00 0. -1.
         24    2    1    2    0    0 -0.55124079811E+03 -0.53118505754E+03 -0.96550686445E+03  0.12347561926E+04  0.79971039146E+02 0.  0.
        254    2    1    2    0    0  0.55124079811E+03  0.53118505754E+03 -0.42448306380E+03  0.12574633160E+04  0.90277579547E+03 0.  0.
         23    2    4    4    0    0  0.56207097461E+02  0.27195376850E+03  0.24459075906E+03  0.38114272484E+03  0.91252656274E+02 0.  0.
         23    2    4    4    0    0  0.49503370065E+03  0.25923128904E+03 -0.66907382286E+03  0.87632059120E+03  0.89547596997E+02 0.  0.
          4    1    3    3  502    0 -0.40607122920E+03 -0.38623088679E+03 -0.64778629543E+03  0.85656011210E+03  0.00000000000E+00 0. -1.
         -3    1    3    3    0  502 -0.14516956892E+03 -0.14495417074E+03 -0.31772056902E+03  0.37819608054E+03  0.00000000000E+00 0.  1.
         13    1    5    5    0    0  0.16160526791E+02  0.21657288249E+03  0.21826818686E+03  0.30790579315E+03  0.00000000000E+00 0. -1.
        -13    1    5    5    0    0  0.40046570670E+02  0.55380886002E+02  0.26322572200E+02  0.73236931695E+02  0.00000000000E+00 0.  1.
          1    1    6    6  503    0  0.30168906525E+03  0.19885235089E+03 -0.39229731277E+03  0.53334391451E+03  0.00000000000E+00 0. -1.
         -1    1    6    6    0  503  0.19334463541E+03  0.60378938146E+02 -0.27677651009E+03  0.34297667669E+03  0.00000000000E+00 0.  1.
<mgrwt>
<rscale>  0 0.20685952E+04</rscale>
<asrwt>0</asrwt>
<pdfrwt beam="1">  1        2 0.29863149E+00 0.20685952E+04</pdfrwt>
<pdfrwt beam="2">  1       -1 0.84786891E-01 0.20685952E+04</pdfrwt>
<totfact> 0.10431554E+01</totfact>
</mgrwt>
</event>
<event>
12    7  0.1606355E-007  0.2009993E+04  0.7818608E-02  0.8601963E-01
          2   -1    0    0  501    0  0.00000000000E+00  0.00000000000E+00  0.53253868753E+03  0.53253868753E+03  0.00000000000E+00 0. -1.
         -1   -1    0    0    0  501 -0.00000000000E+00 -0.00000000000E+00 -0.18966090499E+04  0.18966090499E+04  0.00000000000E+00 0.  1.
         24    2    1    2    0    0  0.91089941264E+02 -0.79706805068E+03 -0.64970228353E+03  0.10353920251E+04  0.79427537221E+02 0.  0.
        254    2    1    2    0    0 -0.91089941264E+02  0.79706805068E+03 -0.71436807880E+03  0.13937557123E+04  0.88804187887E+03 0.  0.
         23    2    4    4    0    0 -0.11236519325E+03  0.60939178169E+03  0.23287492094E+02  0.62670458695E+03  0.90730655082E+02 0.  0.
         23    2    4    4    0    0  0.21275251987E+02  0.18767626899E+03 -0.73765557090E+03  0.76705112531E+03  0.92502266278E+02 0.  0.
          2    1    3    3  502    0 -0.42502135230E+01 -0.22403625071E+02 -0.57225417323E+01  0.23510300194E+02  0.00000000000E+00 0. -1.
         -1    1    3    3    0  502  0.95340154787E+02 -0.77466442561E+03 -0.64397974179E+03  0.10118817249E+04  0.00000000000E+00 0.  1.
         13    1    5    5    0    0  0.88413225463E+01  0.66880531522E+01 -0.26090692403E+01  0.11388866565E+02  0.00000000000E+00 0. -1.
        -13    1    5    5    0    0 -0.12120651580E+03  0.60270372854E+03  0.25896561334E+02  0.61531572039E+03  0.00000000000E+00 0.  1.
          1    1    6    6  503    0 -0.10001129730E+02 -0.74555882788E+01 -0.52718731384E+02  0.54174468444E+02  0.00000000000E+00 0. -1.
         -1    1    6    6    0  503  0.31276381717E+02  0.19513185727E+03 -0.68493683951E+03  0.71287665686E+03  0.00000000000E+00 0.  1.
<mgrwt>
<rscale>  0 0.20099927E+04</rscale>
<asrwt>0</asrwt>
<pdfrwt beam="1">  1        2 0.81929030E-01 0.20099927E+04</pdfrwt>
<pdfrwt beam="2">  1       -1 0.29178600E+00 0.20099927E+04</pdfrwt>
<totfact> 0.22651876E+00</totfact>
</mgrwt>
</event>
<event>
12    7  0.1606355E-007  0.1624402E+04  0.7818608E-02  0.8805695E-01
         -1   -1    0    0    0  501 -0.00000000000E+00  0.00000000000E+00  0.33130352511E+03  0.33130352511E+03  0.00000000000E+00 0.  1.
          2   -1    0    0  501    0  0.00000000000E+00 -0.00000000000E+00 -0.19911371192E+04  0.19911371192E+04  0.00000000000E+00 0. -1.
         24    2    1    2    0    0 -0.37685697286E+03 -0.40621832949E+03 -0.44893611667E+03  0.71767692622E+03  0.80511020146E+02 0.  0.
        254    2    1    2    0    0  0.37685697286E+03  0.40621832949E+03 -0.12108974774E+04  0.16047637180E+04  0.89552184835E+03 0.  0.
         23    2    4    4    0    0  0.13805243380E+02  0.28565683900E+03 -0.11713815792E+04  0.12092273769E+04  0.91135233133E+02 0.  0.
         23    2    4    4    0    0  0.36305172948E+03  0.12056149048E+03 -0.39515898209E+02  0.39553634112E+03  0.92443818985E+02 0.  0.
          2    1    3    3  502    0 -0.31779525952E+03 -0.37756366047E+03 -0.40791936769E+03  0.64027053284E+03  0.00000000000E+00 0. -1.
         -3    1    3    3    0  502 -0.59061713336E+02 -0.28654669015E+02 -0.41016748983E+02  0.77406393377E+02  0.00000000000E+00 0.  1.
         13    1    5    5    0    0 -0.21365753677E+02  0.46025480423E+02 -0.32260172856E+03  0.32656808716E+03  0.00000000000E+00 0.  1.
        -13    1    5    5    0    0  0.35170997057E+02  0.23963135858E+03 -0.84877985060E+03  0.88265928978E+03  0.00000000000E+00 0. -1.
          1    1    6    6  503    0  0.18808131574E+03  0.13809060055E+02 -0.19904133797E+02  0.18963503372E+03  0.00000000000E+00 0. -1.
         -1    1    6    6    0  503  0.17497041373E+03  0.10675243043E+03 -0.19611764412E+02  0.20590130740E+03  0.00000000000E+00 0.  1.
<mgrwt>
<rscale>  0 0.16244023E+04</rscale>
<asrwt>0</asrwt>
<pdfrwt beam="1">  1        2 0.30632879E+00 0.16244023E+04</pdfrwt>
<pdfrwt beam="2">  1       -1 0.50969772E-01 0.16244023E+04</pdfrwt>
<totfact> 0.28510280E+01</totfact>
</mgrwt>
</event>
<event>
12    7  0.1606355E-007  0.2290369E+04  0.7818608E-02  0.8481728E-01
         -1   -1    0    0    0  501 -0.00000000000E+00  0.00000000000E+00  0.13101325359E+04  0.13101325359E+04  0.00000000000E+00 0.  1.
          2   -1    0    0  501    0  0.00000000000E+00 -0.00000000000E+00 -0.10010034972E+04  0.10010034972E+04  0.00000000000E+00 0. -1.
         24    2    1    2    0    0 -0.83904290364E+02 -0.58001474162E+03  0.89892257085E+03  0.10760000615E+04  0.79103182598E+02 0.  0.
        254    2    1    2    0    0  0.83904290364E+02  0.58001474162E+03 -0.58979353214E+03  0.12351359716E+04  0.91337146193E+03 0.  0.
         23    2    4    4    0    0  0.36296149117E+03  0.62570829561E+03 -0.21910158497E+03  0.76003101560E+03  0.79935754636E+02 0.  0.
         23    2    4    4    0    0 -0.27905720080E+03 -0.45693553997E+02 -0.37069194717E+03  0.47510495605E+03  0.91385870724E+02 0.  0.
          2    1    3    3  502    0 -0.11124453304E+02 -0.58307229980E+01  0.17612293591E+02  0.21632005859E+02  0.00000000000E+00 0. -1.
         -1    1    3    3    0  502 -0.72779837061E+02 -0.57418401862E+03  0.88131027726E+03  0.10543680556E+04  0.00000000000E+00 0.  1.
         13    1    5    5    0    0  0.28811290521E+03  0.47071993446E+03 -0.19931642021E+03  0.58678218976E+03  0.00000000000E+00 0. -1.
        -13    1    5    5    0    0  0.74848585958E+02  0.15498836115E+03 -0.19785164756E+02  0.17324882584E+03  0.00000000000E+00 0.  1.
          1    1    6    6  503    0 -0.92824379543E+02  0.58059034932E+01 -0.65007173574E+02  0.11347249257E+03  0.00000000000E+00 0. -1.
         -1    1    6    6    0  503 -0.18623282126E+03 -0.51499457490E+02 -0.30568477360E+03  0.36163246348E+03  0.00000000000E+00 0.  1.
<mgrwt>
<rscale>  0 0.22903687E+04</rscale>
<asrwt>0</asrwt>
<pdfrwt beam="1">  1        2 0.15400054E+00 0.22903687E+04</pdfrwt>
<pdfrwt beam="2">  1       -1 0.20155885E+00 0.22903687E+04</pdfrwt>
<totfact> 0.38206950E+00</totfact>
</mgrwt>
</event>
<event>
12    7  0.1606355E-007  0.2410213E+04  0.7818608E-02  0.8435690E-01
         -1   -1    0    0    0  501 -0.00000000000E+00  0.00000000000E+00  0.91446001009E+03  0.91446001009E+03  0.00000000000E+00 0.  1.
          2   -1    0    0  501    0  0.00000000000E+00 -0.00000000000E+00 -0.15881304891E+04  0.15881304891E+04  0.00000000000E+00 0. -1.
         24    2    1    2    0    0 -0.73712966693E+03  0.19867447860E+03 -0.10145476179E+04  0.12722026409E+04  0.79755854003E+02 0.  0.
        254    2    1    2    0    0  0.73712966693E+03 -0.19867447860E+03  0.34087713890E+03  0.12303878583E+04  0.90267677693E+03 0.  0.
         23    2    4    4    0    0  0.19990383333E+03 -0.44527724594E+03 -0.74028719974E+02  0.50240651360E+03  0.93266742159E+02 0.  0.
         23    2    4    4    0    0  0.53722583360E+03  0.24660276734E+03  0.41490585887E+03  0.72798134466E+03  0.91572077050E+02 0.  0.
          2    1    3    3  502    0 -0.30314494610E+03  0.79025132598E+02 -0.48218095084E+03  0.57501330357E+03  0.00000000000E+00 0. -1.
         -1    1    3    3    0  502 -0.43398472083E+03  0.11964934600E+03 -0.53236666707E+03  0.69718933736E+03  0.00000000000E+00 0.  1.
         13    1    5    5    0    0  0.67829725562E+02 -0.24192660355E+03 -0.66078112259E+02  0.25979928809E+03  0.00000000000E+00 0.  1.
        -13    1    5    5    0    0  0.13207410777E+03 -0.20335064240E+03 -0.79506077153E+01  0.24260722551E+03  0.00000000000E+00 0. -1.
          1    1    6    6  503    0  0.19887397227E+03  0.12482006400E+03  0.20435377138E+03  0.31127378479E+03  0.00000000000E+00 0. -1.
         -1    1    6    6    0  503  0.33835186134E+03  0.12178270334E+03  0.21055208749E+03  0.41670755987E+03  0.00000000000E+00 0.  1.
<mgrwt>
<rscale>  0 0.24102131E+04</rscale>
<asrwt>0</asrwt>
<pdfrwt beam="1">  1        2 0.24432777E+00 0.24102131E+04</pdfrwt>
<pdfrwt beam="2">  1       -1 0.14068616E+00 0.24102131E+04</pdfrwt>
<totfact> 0.47951142E+00</totfact>
</mgrwt>
</event>
<event>
12    7  0.1783902E-007  0.2792316E+04  0.7818608E-02  0.8305658E-01
          2   -1    0    0  501    0  0.00000000000E+00  0.00000000000E+00  0.26348896016E+04  0.26348896016E+04  0.00000000000E+00 0. -1.
         -1   -1    0    0    0  501 -0.00000000000E+00 -0.00000000000E+00 -0.73978683432E+03  0.73978683432E+03  0.00000000000E+00 0.  1.
         24    2    1    2    0    0  0.62686997294E+03 -0.63621757585E+03  0.18952537594E+04  0.20967896899E+04  0.82470749360E+02 0.  0.
        254    2    1    2    0    0 -0.62686997294E+03  0.63621757585E+03 -0.15099214739E+00  0.12778867460E+04  0.91392327134E+03 0.  0.
         23    2    4    4    0    0 -0.59213762740E+03  0.26391264381E+03  0.36289833463E+03  0.74884667716E+03  0.93804537565E+02 0.  0.
         23    2    4    4    0    0 -0.34732345531E+02  0.37230493204E+03 -0.36304932678E+03  0.52904006879E+03  0.90891597345E+02 0.  0.
          2    1    3    3  502    0  0.51088237554E+03 -0.55142005892E+03  0.16345192004E+04  0.17990880744E+04  0.00000000000E+00 0. -1.
         -1    1    3    3    0  502  0.11598759739E+03 -0.84797516928E+02  0.26073455902E+03  0.29770161554E+03  0.00000000000E+00 0.  1.
         13    1    5    5    0    0 -0.49720626450E+03  0.24309629526E+03  0.27590376551E+03  0.61841148603E+03  0.00000000000E+00 0. -1.
        -13    1    5    5    0    0 -0.94931362904E+02  0.20816348547E+02  0.86994569120E+02  0.13043519113E+03  0.00000000000E+00 0.  1.
          2    1    6    6  503    0  0.32701137748E+01  0.22222073292E+03 -0.26467479970E+03  0.34560887920E+03  0.00000000000E+00 0. -1.
         -2    1    6    6    0  503 -0.38002459306E+02  0.15008419912E+03 -0.98374527073E+02  0.18343118959E+03  0.00000000000E+00 0.  1.
<mgrwt>
<rscale>  0 0.27923156E+04</rscale>
<asrwt>0</asrwt>
<pdfrwt beam="1">  1        2 0.40536763E+00 0.27923156E+04</pdfrwt>
<pdfrwt beam="2">  1       -1 0.11381336E+00 0.27923156E+04</pdfrwt>
<totfact> 0.20209993E+00</totfact>
</mgrwt>
</event>
<event>
12    7  0.1606355E-007  0.1922210E+04  0.7818608E-02  0.8643879E-01
          2   -1    0    0  501    0  0.00000000000E+00  0.00000000000E+00  0.88573206941E+03  0.88573206941E+03  0.00000000000E+00 0. -1.
         -1   -1    0    0    0  501 -0.00000000000E+00 -0.00000000000E+00 -0.10428917056E+04  0.10428917056E+04  0.00000000000E+00 0.  1.
         24    2    1    2    0    0  0.45289653790E+03  0.28212935832E+03  0.46046354142E+03  0.70911764050E+03  0.78159492177E+02 0.  0.
        254    2    1    2    0    0 -0.45289653790E+03 -0.28212935832E+03 -0.61762317766E+03  0.12195061346E+04  0.90610406343E+03 0.  0.
         23    2    4    4    0    0 -0.42258714304E+03  0.16093173272E+03 -0.10164316360E+02  0.46160215730E+03  0.92164647421E+02 0.  0.
         23    2    4    4    0    0 -0.30309394860E+02 -0.44306109104E+03 -0.60745886130E+03  0.75790397726E+03  0.90500722433E+02 0.  0.
          4    1    3    3  502    0  0.41446112625E+03  0.25867749645E+03  0.44681488707E+03  0.66206919250E+03  0.00000000000E+00 0. -1.
         -3    1    3    3    0  502  0.38435411649E+02  0.23451861866E+02  0.13648654350E+02  0.47048447999E+02  0.00000000000E+00 0.  1.
         13    1    5    5    0    0 -0.18400673911E+03  0.11907658337E+03 -0.24659792916E+00  0.21917521200E+03  0.00000000000E+00 0.  1.
        -13    1    5    5    0    0 -0.23858040394E+03  0.41855149354E+02 -0.99177184304E+01  0.24242694530E+03  0.00000000000E+00 0. -1.
          4    1    6    6  503    0  0.79217848856E+01 -0.51457880670E+02 -0.33089837109E+02  0.61689589711E+02  0.00000000000E+00 0. -1.
         -4    1    6    6    0  503 -0.38231179745E+02 -0.39160321037E+03 -0.57436902419E+03  0.69621438755E+03  0.00000000000E+00 0.  1.
<mgrwt>
<rscale>  0 0.19222098E+04</rscale>
<asrwt>0</asrwt>
<pdfrwt beam="1">  1        2 0.13626647E+00 0.19222098E+04</pdfrwt>
<pdfrwt beam="2">  1       -1 0.16044488E+00 0.19222098E+04</pdfrwt>
<totfact> 0.92760507E+00</totfact>
</mgrwt>
</event>
<event>
12    7  0.1606355E-007  0.3807332E+04  0.7818608E-02  0.8044583E-01
          2   -1    0    0  501    0  0.00000000000E+00  0.00000000000E+00  0.19821125569E+04  0.19821125569E+04  0.00000000000E+00 0. -1.
         -1   -1    0    0    0  501 -0.00000000000E+00 -0.00000000000E+00 -0.18283239738E+04  0.18283239738E+04  0.00000000000E+00 0.  1.
         24    2    1    2    0    0 -0.14087500612E+03 -0.50649418071E+02  0.18618000640E+04  0.18694378344E+04  0.78020557099E+02 0.  0.
        254    2    1    2    0    0  0.14087500612E+03  0.50649418071E+02 -0.17080114810E+04  0.19409986963E+04  0.90981404094E+03 0.  0.
         23    2    4    4    0    0  0.21962073591E+03 -0.15828658544E+03 -0.82310506438E+02  0.29707153462E+03  0.90490698080E+02 0.  0.
         23    2    4    4    0    0 -0.78745729792E+02  0.20893600351E+03 -0.16257009745E+04  0.16439271617E+04  0.98679840142E+02 0.  0.
          4    1    3    3  502    0 -0.58894370922E+02 -0.44157330523E+02  0.12457731478E+04  0.12479459735E+04  0.00000000000E+00 0. -1.
         -3    1    3    3    0  502 -0.81980635196E+02 -0.64920875479E+01  0.61602691618E+03  0.62149186094E+03  0.00000000000E+00 0.  1.
         13    1    5    5    0    0  0.10403495293E+02  0.11775988054E+02 -0.64533805128E+01  0.16986839877E+02  0.00000000000E+00 0. -1.
        -13    1    5    5    0    0  0.20921724062E+03 -0.17006257350E+03 -0.75857125926E+02  0.28008469475E+03  0.00000000000E+00 0.  1.
          4    1    6    6  503    0 -0.56461684947E+02  0.20041936932E+03 -0.15635735505E+04  0.15773769662E+04  0.00000000000E+00 0.  1.
         -4    1    6    6    0  503 -0.22284044845E+02  0.85166341924E+01 -0.62127424004E+02  0.66550195537E+02  0.00000000000E+00 0. -1.
<mgrwt>
<rscale>  0 0.38073318E+04</rscale>
<asrwt>0</asrwt>
<pdfrwt beam="1">  1        2 0.30494040E+00 0.38073318E+04</pdfrwt>
<pdfrwt beam="2">  1       -1 0.28128061E+00 0.38073318E+04</pdfrwt>
<totfact> 0.27212206E-01</totfact>
</mgrwt>
</event>
<event>
12    7  0.1606355E-007  0.1410294E+04  0.7818608E-02  0.8946401E-01
          2   -1    0    0  501    0  0.00000000000E+00  0.00000000000E+00  0.10827956857E+04  0.10827956857E+04  0.00000000000E+00 0. -1.
         -1   -1    0    0    0  501 -0.00000000000E+00 -0.00000000000E+00 -0.45921159486E+03  0.45921159486E+03  0.00000000000E+00 0.  1.
         24    2    1    2    0    0  0.41412832687E+03  0.43344195870E+01  0.16945050848E+03  0.45444692146E+03  0.79293576627E+02 0.  0.
        254    2    1    2    0    0 -0.41412832687E+03 -0.43344195870E+01  0.45413358241E+03  0.10875603591E+04  0.89723417556E+03 0.  0.
         23    2    4    4    0    0  0.25929838559E+03 -0.89285306341E+02  0.22395071085E+03  0.36533367996E+03  0.90040313854E+02 0.  0.
         23    2    4    4    0    0 -0.67342671246E+03  0.84950886754E+02  0.23018287155E+03  0.72222667919E+03  0.88921490958E+02 0.  0.
          4    1    3    3  502    0  0.78924046426E+02  0.15857684451E+02  0.64050848996E+02  0.10287362401E+03  0.00000000000E+00 0. -1.
         -3    1    3    3    0  502  0.33520428044E+03 -0.11523264864E+02  0.10539965948E+03  0.35157329745E+03  0.00000000000E+00 0.  1.
         13    1    5    5    0    0  0.23638386478E+03 -0.10617708772E+03  0.19182224499E+03  0.32240762888E+03  0.00000000000E+00 0. -1.
        -13    1    5    5    0    0  0.22914520813E+02  0.16891781383E+02  0.32128465862E+02  0.42926051077E+02  0.00000000000E+00 0.  1.
          2    1    6    6  503    0 -0.43438713611E+03  0.12903417367E+02  0.13547803806E+03  0.45520652565E+03  0.00000000000E+00 0. -1.
         -2    1    6    6    0  503 -0.23903957635E+03  0.72047469387E+02  0.94704833494E+02  0.26702015354E+03  0.00000000000E+00 0.  1.
<mgrwt>
<rscale>  0 0.14102941E+04</rscale>
<asrwt>0</asrwt>
<pdfrwt beam="1">  1        2 0.16658395E+00 0.14102941E+04</pdfrwt>
<pdfrwt beam="2">  1       -1 0.70647938E-01 0.14102941E+04</pdfrwt>
<totfact> 0.50149826E+01</totfact>
</mgrwt>
</event>
<event>
12    7  0.1606355E-007  0.1584268E+04  0.7818608E-02  0.8830271E-01
         -3   -1    0    0    0  501 -0.00000000000E+00  0.00000000000E+00  0.15380246559E+04  0.15380246559E+04  0.00000000000E+00 0.  1.
          2   -1    0    0  501    0  0.00000000000E+00 -0.00000000000E+00 -0.40797564682E+03  0.40797564682E+03  0.00000000000E+00 0. -1.
         24    2    1    2    0    0  0.14497120379E+03  0.25365444932E+03 -0.16215143912E+03  0.34370727248E+03  0.80525588241E+02 0.  0.
        254    2    1    2    0    0 -0.14497120379E+03 -0.25365444932E+03  0.12922004482E+04  0.16022930302E+04  0.90122346108E+03 0.  0.
         23    2    4    4    0    0 -0.20284388034E+03 -0.12442766641E+03 -0.42833456252E+02  0.25669520896E+03  0.86196527594E+02 0.  0.
         23    2    4    4    0    0  0.57872676551E+02 -0.12922678291E+03  0.13350339044E+04  0.13455978212E+04  0.90934935288E+02 0.  0.
          2    1    3    3  502    0  0.21827142969E+01  0.57619294169E+01 -0.26302778162E+02  0.27014814664E+02  0.00000000000E+00 0. -1.
         -1    1    3    3    0  502  0.14278848949E+03  0.24789251991E+03 -0.13584866095E+03  0.31669245782E+03  0.00000000000E+00 0.  1.
         13    1    5    5    0    0 -0.36169445459E+02 -0.44766309988E+02  0.20971065860E+02  0.61253872515E+02  0.00000000000E+00 0. -1.
        -13    1    5    5    0    0 -0.16667443488E+03 -0.79661356426E+02 -0.63804522112E+02  0.19544133645E+03  0.00000000000E+00 0.  1.
          2    1    6    6  503    0  0.27325495319E+02 -0.11589177430E+02  0.58739289257E+03  0.58814233139E+03  0.00000000000E+00 0. -1.
         -2    1    6    6    0  503  0.30547181232E+02 -0.11763760548E+03  0.74764101185E+03  0.75745548985E+03  0.00000000000E+00 0.  1.
<mgrwt>
<rscale>  0 0.15842684E+04</rscale>
<asrwt>0</asrwt>
<pdfrwt beam="1">  1        2 0.62765485E-01 0.15842684E+04</pdfrwt>
<pdfrwt beam="2">  1       -3 0.23661918E+00 0.15842684E+04</pdfrwt>
<totfact> 0.40801832E+00</totfact>
</mgrwt>
</event>
<event>
12    7  0.1606355E-007  0.2840357E+04  0.7818608E-02  0.8290847E-01
          2   -1    0    0  501    0  0.00000000000E+00  0.00000000000E+00  0.23525348323E+04  0.23525348323E+04  0.00000000000E+00 0. -1.
         -1   -1    0    0    0  501 -0.00000000000E+00 -0.00000000000E+00 -0.85733369114E+03  0.85733369114E+03  0.00000000000E+00 0.  1.
         24    2    1    2    0    0 -0.11094747218E+04 -0.20750232676E+03  0.13689151169E+04  0.17760184313E+04  0.79507843175E+02 0.  0.
        254    2    1    2    0    0  0.11094747218E+04  0.20750232676E+03  0.12628602420E+03  0.14338500921E+04  0.87520657725E+03 0.  0.
         23    2    4    4    0    0  0.61677259398E+03  0.83555316306E+02 -0.35982474913E+03  0.72477602574E+03  0.91850497244E+02 0.  0.
         23    2    4    4    0    0  0.49270212779E+03  0.12394701045E+03  0.48611077332E+03  0.70907406636E+03  0.91455450976E+02 0.  0.
          2    1    3    3  502    0 -0.20098214902E+03 -0.24061411986E+02  0.29026748802E+03  0.35387567079E+03  0.00000000000E+00 0. -1.
         -1    1    3    3    0  502 -0.90849257275E+03 -0.18344091477E+03  0.10786476289E+04  0.14221427605E+04  0.00000000000E+00 0.  1.
         13    1    5    5    0    0  0.25472235766E+03  0.42538887113E+01 -0.18583762041E+03  0.31533663951E+03  0.00000000000E+00 0. -1.
        -13    1    5    5    0    0  0.36205023632E+03  0.79301427594E+02 -0.17398712872E+03  0.40943938623E+03  0.00000000000E+00 0.  1.
          2    1    6    6  503    0  0.30202222021E+03  0.11742740067E+03  0.33066432080E+03  0.46297463104E+03  0.00000000000E+00 0. -1.
         -2    1    6    6    0  503  0.19067990757E+03  0.65196097791E+01  0.15544645252E+03  0.24609943532E+03  0.00000000000E+00 0.  1.
<mgrwt>
<rscale>  0 0.28403573E+04</rscale>
<asrwt>0</asrwt>
<pdfrwt beam="1">  1        2 0.36192843E+00 0.28403573E+04</pdfrwt>
<pdfrwt beam="2">  1       -1 0.13189749E+00 0.28403573E+04</pdfrwt>
<totfact> 0.20396497E+00</totfact>
</mgrwt>
</event>
<event>
12    7  0.1606355E-007  0.1028350E+04  0.7818608E-02  0.9277986E-01
          2   -1    0    0  501    0  0.00000000000E+00  0.00000000000E+00  0.30097655377E+04  0.30097655377E+04  0.00000000000E+00 0. -1.
         -1   -1    0    0    0  501 -0.00000000000E+00 -0.00000000000E+00 -0.87839358529E+02  0.87839358529E+02  0.00000000000E+00 0.  1.
         24    2    1    2    0    0  0.31339489762E+02  0.16490109182E+02  0.51898373156E+03  0.52649606659E+03  0.81239812825E+02 0.  0.
        254    2    1    2    0    0 -0.31339489762E+02 -0.16490109182E+02  0.24029424476E+04  0.25711088297E+04  0.91390049788E+03 0.  0.
         23    2    4    4    0    0  0.18725378216E+03 -0.34119965707E+03  0.18192298728E+04  0.18625843272E+04  0.90232259880E+02 0.  0.
         23    2    4    4    0    0 -0.21859327192E+03  0.32470954789E+03  0.58371257480E+03  0.70852450249E+03  0.89818102995E+02 0.  0.
          2    1    3    3  502    0  0.22607488303E+02  0.27460683909E+02  0.50642498507E+03  0.50767258464E+03  0.00000000000E+00 0. -1.
         -1    1    3    3    0  502  0.87320014584E+01 -0.10970574727E+02  0.12558746489E+02  0.18823481949E+02  0.00000000000E+00 0.  1.
         13    1    5    5    0    0  0.87746036847E+02 -0.76272139712E+02  0.49927255305E+03  0.51263036245E+03  0.00000000000E+00 0.  1.
        -13    1    5    5    0    0  0.99507745314E+02 -0.26492751735E+03  0.13199573198E+04  0.13499539647E+04  0.00000000000E+00 0. -1.
          2    1    6    6  503    0 -0.16083866489E+03  0.28880218928E+03  0.51409012097E+03  0.61119917632E+03  0.00000000000E+00 0. -1.
         -2    1    6    6    0  503 -0.57754607036E+02  0.35907358603E+02  0.69622453827E+02  0.97325326163E+02  0.00000000000E+00 0.  1.
<mgrwt>
<rscale>  0 0.10283499E+04</rscale>
<asrwt>0</asrwt>
<pdfrwt beam="1">  1        2 0.46304077E+00 0.10283499E+04</pdfrwt>
<pdfrwt beam="2">  1       -1 0.13513750E-01 0.10283499E+04</pdfrwt>
<totfact> 0.77734350E+01</totfact>
</mgrwt>
</event>
