<event>
12    1  0.1418317E-007  0.6391642E+03  0.7818608E-02  0.9827327E-01
          1   -1    0    0  501    0  0.00000000000E+00  0.00000000000E+00  0.11253750441E+04  0.11253750441E+04  0.00000000000E+00 0. -1.
         -1   -1    0    0    0  501 -0.00000000000E+00 -0.00000000000E+00 -0.97776881744E+03  0.97776881744E+03  0.00000000000E+00 0.  1.
         23    2    1    2    0    0 -0.40180962755E+03 -0.37958528834E+03  0.85598481044E+03  0.10227217783E+04  0.87828652423E+02 0.  0.
    5000000    2    1    2    0    0  0.40180962755E+03  0.37958528834E+03 -0.70837858377E+03  0.10804220832E+04  0.59997974307E+03 0.  0.
         23    2    4    4    0    0  0.41168964204E+02  0.33780134535E+03 -0.59186166318E+03  0.68846068121E+03  0.88731328727E+02 0.  0.
         23    2    4    4    0    0  0.36064066335E+03  0.41783942988E+02 -0.11651692059E+03  0.39196140203E+03  0.90829301138E+02 0.  0.
          4    1    3    3  502    0 -0.64273048450E+02 -0.10813732877E+03  0.17122443649E+03  0.21246767820E+03  0.00000000000E+00 0. -1.
         -4    1    3    3    0  502 -0.33753657910E+03 -0.27144795957E+03  0.68476037395E+03  0.81025410009E+03  0.00000000000E+00 0.  1.
         13    1    5    5    0    0  0.60275817752E+02  0.14217596019E+03 -0.23904169633E+03  0.28458410083E+03  0.00000000000E+00 0. -1.
        -13    1    5    5    0    0 -0.19106853547E+02  0.19562538516E+03 -0.35281996685E+03  0.40387658038E+03  0.00000000000E+00 0.  1.
          2    1    6    6  503    0  0.77005747270E+02 -0.16718616155E+02  0.25351096840E+01  0.78840497334E+02  0.00000000000E+00 0.  1.
         -2    1    6    6    0  503  0.28363491608E+03  0.58502559143E+02 -0.11905203027E+03  0.31312090469E+03  0.00000000000E+00 0. -1.
<mgrwt>
<rscale>  0 0.63916422E+03</rscale>
<asrwt>0</asrwt>
<pdfrwt beam="1">  1        1 0.17313462E+00 0.63916422E+03</pdfrwt>
<pdfrwt beam="2">  1       -1 0.15042597E+00 0.63916422E+03</pdfrwt>
<totfact> 0.44488171E+00</totfact>
</mgrwt>
</event>
<event>
12    1  0.1418317E-007  0.1361280E+04  0.7818608E-02  0.8982333E-01
         -2   -1    0    0    0  501 -0.00000000000E+00  0.00000000000E+00  0.22642636785E+04  0.22642636785E+04  0.00000000000E+00 0.  1.
          2   -1    0    0  501    0  0.00000000000E+00 -0.00000000000E+00 -0.93657141580E+03  0.93657141580E+03  0.00000000000E+00 0. -1.
         23    2    1    2    0    0 -0.34846208663E+03 -0.12504823864E+04  0.11907762660E+04  0.17641841524E+04  0.96257899658E+02 0.  0.
    5000000    2    1    2    0    0  0.34846208663E+03  0.12504823864E+04  0.13691599674E+03  0.14366509419E+04  0.60007325734E+03 0.  0.
         23    2    4    4    0    0 -0.10826743833E+03  0.64734881728E+03  0.12470188014E+03  0.67437324148E+03  0.91904191843E+02 0.  0.
         23    2    4    4    0    0  0.45672952496E+03  0.60313356917E+03  0.12214116597E+02  0.76227770046E+03  0.92445371676E+02 0.  0.
          2    1    3    3  502    0 -0.15938728897E+03 -0.46583175053E+03  0.40151938190E+03  0.63531200345E+03  0.00000000000E+00 0. -1.
         -2    1    3    3    0  502 -0.18907479767E+03 -0.78465063591E+03  0.78925688409E+03  0.11288721489E+04  0.00000000000E+00 0.  1.
         11    1    5    5    0    0  0.39163336381E+01  0.18975336504E+03  0.13447351430E+02  0.19026956791E+03  0.00000000000E+00 0. -1.
        -11    1    5    5    0    0 -0.11218377196E+03  0.45759545224E+03  0.11125452871E+03  0.48410367357E+03  0.00000000000E+00 0.  1.
          4    1    6    6  503    0  0.77344256121E+02  0.16746700635E+03  0.99353994743E+00  0.18446766462E+03  0.00000000000E+00 0. -1.
         -4    1    6    6    0  503  0.37938526884E+03  0.43566656282E+03  0.11220576650E+02  0.57781003583E+03  0.00000000000E+00 0.  1.
<mgrwt>
<rscale>  0 0.13612803E+04</rscale>
<asrwt>0</asrwt>
<pdfrwt beam="1">  1        2 0.14408791E+00 0.13612803E+04</pdfrwt>
<pdfrwt beam="2">  1       -2 0.34834826E+00 0.13612803E+04</pdfrwt>
<totfact> 0.42596905E-01</totfact>
</mgrwt>
</event>
<event>
12    1  0.1418317E-007  0.1025787E+04  0.7818608E-02  0.9280706E-01
         -2   -1    0    0    0  501 -0.00000000000E+00  0.00000000000E+00  0.94299613221E+03  0.94299613221E+03  0.00000000000E+00 0.  1.
          2   -1    0    0  501    0  0.00000000000E+00 -0.00000000000E+00 -0.13069086406E+04  0.13069086406E+04  0.00000000000E+00 0. -1.
         23    2    1    2    0    0  0.85118288772E+03  0.39535137459E+03 -0.59138143094E+03  0.11130163054E+04  0.90875087520E+02 0.  0.
    5000000    2    1    2    0    0 -0.85118288772E+03 -0.39535137459E+03  0.22746892260E+03  0.11368884673E+04  0.59996521458E+03 0.  0.
         23    2    4    4    0    0 -0.41175499855E+03 -0.49757960695E+03  0.14387564490E+03  0.66901740033E+03  0.98774676280E+02 0.  0.
         23    2    4    4    0    0 -0.43942788917E+03  0.10222823236E+03  0.83593277695E+02  0.46787106701E+03  0.91476871390E+02 0.  0.
          1    1    3    3  502    0  0.97230428640E+02  0.15062415042E+02 -0.57175459494E+02  0.11379659823E+03  0.00000000000E+00 0. -1.
         -1    1    3    3    0  502  0.75395245908E+03  0.38028895955E+03 -0.53420597145E+03  0.99921970719E+03  0.00000000000E+00 0.  1.
         13    1    5    5    0    0 -0.11108705174E+02 -0.45824473197E+02 -0.40968172976E+01  0.47329373400E+02  0.00000000000E+00 0.  1.
        -13    1    5    5    0    0 -0.40064629337E+03 -0.45175513375E+03  0.14797246220E+03  0.62168802693E+03  0.00000000000E+00 0. -1.
          3    1    6    6  503    0 -0.35523926989E+03  0.50088932440E+02  0.85600980533E+02  0.36882430491E+03  0.00000000000E+00 0. -1.
         -3    1    6    6    0  503 -0.84188619286E+02  0.52139299915E+02 -0.20077028382E+01  0.99046762106E+02  0.00000000000E+00 0.  1.
<mgrwt>
<rscale>  0 0.10257870E+04</rscale>
<asrwt>0</asrwt>
<pdfrwt beam="1">  1        2 0.20106287E+00 0.10257870E+04</pdfrwt>
<pdfrwt beam="2">  1       -2 0.14507633E+00 0.10257870E+04</pdfrwt>
<totfact> 0.53012988E+00</totfact>
</mgrwt>
</event>
<event>
12    1  0.1418317E-007  0.9211100E+03  0.7818608E-02  0.9399571E-01
         -2   -1    0    0    0  501 -0.00000000000E+00  0.00000000000E+00  0.69872190844E+03  0.69872190844E+03  0.00000000000E+00 0.  1.
          2   -1    0    0  501    0  0.00000000000E+00 -0.00000000000E+00 -0.26135696174E+04  0.26135696174E+04  0.00000000000E+00 0. -1.
         23    2    1    2    0    0 -0.61450901295E+03 -0.56496442550E+03  0.28289933074E+03  0.88600034909E+03  0.90324183768E+02 0.  0.
    5000000    2    1    2    0    0  0.61450901295E+03  0.56496442550E+03 -0.21977470397E+04  0.24262911768E+04  0.59999224561E+03 0.  0.
         23    2    4    4    0    0  0.34751160087E+03 -0.23507511220E+02 -0.58731568678E+03  0.68864203261E+03  0.89281673997E+02 0.  0.
         23    2    4    4    0    0  0.26699741208E+03  0.58847193673E+03 -0.16104313529E+04  0.17376491442E+04  0.91370494724E+02 0.  0.
          4    1    3    3  502    0 -0.54265460709E+03 -0.47136964772E+03  0.21692444609E+03  0.75081261490E+03  0.00000000000E+00 0. -1.
         -4    1    3    3    0  502 -0.71854405866E+02 -0.93594777789E+02  0.65974884653E+02  0.13518773419E+03  0.00000000000E+00 0.  1.
         13    1    5    5    0    0  0.43676763885E+02  0.24889019846E+02 -0.61523766081E+02  0.79449964161E+02  0.00000000000E+00 0. -1.
        -13    1    5    5    0    0  0.30383483699E+03 -0.48396531067E+02 -0.52579192070E+03  0.60919206845E+03  0.00000000000E+00 0.  1.
          4    1    6    6  503    0  0.84731887523E+02  0.14361213684E+03 -0.32543340735E+03  0.36566493027E+03  0.00000000000E+00 0. -1.
         -4    1    6    6    0  503  0.18226552456E+03  0.44485979989E+03 -0.12849979456E+04  0.13719842139E+04  0.00000000000E+00 0.  1.
<mgrwt>
<rscale>  0 0.92111005E+03</rscale>
<asrwt>0</asrwt>
<pdfrwt beam="1">  1        2 0.40208764E+00 0.92111005E+03</pdfrwt>
<pdfrwt beam="2">  1       -2 0.10749568E+00 0.92111005E+03</pdfrwt>
<totfact> 0.21223481E+00</totfact>
</mgrwt>
</event>
<event>
12    1  0.1418317E-007  0.6604262E+03  0.7818608E-02  0.9787409E-01
         -2   -1    0    0    0  501 -0.00000000000E+00  0.00000000000E+00  0.59338428245E+03  0.59338428245E+03  0.00000000000E+00 0.  1.
          2   -1    0    0  501    0  0.00000000000E+00 -0.00000000000E+00 -0.10703115913E+04  0.10703115913E+04  0.00000000000E+00 0. -1.
         23    2    1    2    0    0  0.38964344875E+03 -0.38287307298E+03  0.21793859233E+03  0.59530532746E+03  0.92072773979E+02 0.  0.
    5000000    2    1    2    0    0 -0.38964344875E+03  0.38287307298E+03 -0.69486590122E+03  0.10683905463E+04  0.60017158515E+03 0.  0.
         23    2    4    4    0    0 -0.14873046636E+03  0.47659379212E+03 -0.30391197588E+03  0.59153634803E+03  0.91051456015E+02 0.  0.
         23    2    4    4    0    0 -0.24091298239E+03 -0.93720719143E+02 -0.39095392534E+03  0.47685419829E+03  0.87876711413E+02 0.  0.
          2    1    3    3  502    0  0.92216059688E+02 -0.79283435809E+02  0.90543070003E+02  0.15161699240E+03  0.00000000000E+00 0. -1.
         -2    1    3    3    0  502  0.29742738906E+03 -0.30358963717E+03  0.12739552233E+03  0.44368833506E+03  0.00000000000E+00 0.  1.
         13    1    5    5    0    0 -0.10286227339E+03  0.38907810119E+03 -0.20469336440E+03  0.45151056415E+03  0.00000000000E+00 0. -1.
        -13    1    5    5    0    0 -0.45868192971E+02  0.87515690937E+02 -0.99218611487E+02  0.14002578388E+03  0.00000000000E+00 0.  1.
          1    1    6    6  503    0  0.48569450446E+01 -0.13663470124E+02 -0.22835124931E+02  0.27050383761E+02  0.00000000000E+00 0. -1.
         -1    1    6    6    0  503 -0.24576992744E+03 -0.80057249020E+02 -0.36811880041E+03  0.44980381453E+03  0.00000000000E+00 0.  1.
<mgrwt>
<rscale>  0 0.66042622E+03</rscale>
<asrwt>0</asrwt>
<pdfrwt beam="1">  1        2 0.16466332E+00 0.66042622E+03</pdfrwt>
<pdfrwt beam="2">  1       -2 0.91289891E-01 0.66042622E+03</pdfrwt>
<totfact> 0.23880898E+01</totfact>
</mgrwt>
</event>
<event>
12    1  0.1418317E-007  0.1213805E+04  0.7818608E-02  0.9100858E-01
          2   -1    0    0  501    0  0.00000000000E+00  0.00000000000E+00  0.28979312123E+04  0.28979312123E+04  0.00000000000E+00 0. -1.
         -2   -1    0    0    0  501 -0.00000000000E+00 -0.00000000000E+00 -0.56177778272E+03  0.56177778272E+03  0.00000000000E+00 0.  1.
         23    2    1    2    0    0 -0.88528610954E+02  0.11643643216E+04  0.71482063329E+03  0.13734915625E+04  0.10921971576E+03 0.  0.
    5000000    2    1    2    0    0  0.88528610954E+02 -0.11643643216E+04  0.16213327963E+04  0.20862174325E+04  0.60000129255E+03 0.  0.
         23    2    4    4    0    0  0.20211213278E+03 -0.10849697686E+04  0.15474916877E+04  0.19029832463E+04  0.92768524541E+02 0.  0.
         23    2    4    4    0    0 -0.11358352182E+03 -0.79394552922E+02  0.73841108627E+02  0.18323418622E+03  0.94432760284E+02 0.  0.
          1    1    3    3  502    0 -0.10803245950E+03  0.89198478164E+03  0.52107914766E+03  0.10386680611E+04  0.00000000000E+00 0. -1.
         -1    1    3    3    0  502  0.19503848546E+02  0.27237953991E+03  0.19374148563E+03  0.33482350145E+03  0.00000000000E+00 0.  1.
         13    1    5    5    0    0  0.17633587610E+03 -0.71090429261E+03  0.10370791742E+04  0.12696505299E+04  0.00000000000E+00 0. -1.
        -13    1    5    5    0    0  0.25776256671E+02 -0.37406547602E+03  0.51041251351E+03  0.63333271644E+03  0.00000000000E+00 0.  1.
          3    1    6    6  503    0 -0.31719904878E+02  0.37578146587E+01  0.56997233232E+02  0.65337264502E+02  0.00000000000E+00 0. -1.
         -3    1    6    6    0  503 -0.81863616943E+02 -0.83152367581E+02  0.16843875395E+02  0.11789692172E+03  0.00000000000E+00 0.  1.
<mgrwt>
<rscale>  0 0.12138046E+04</rscale>
<asrwt>0</asrwt>
<pdfrwt beam="1">  1        2 0.44583556E+00 0.12138046E+04</pdfrwt>
<pdfrwt beam="2">  1       -2 0.86427353E-01 0.12138046E+04</pdfrwt>
<totfact> 0.23118935E+00</totfact>
</mgrwt>
</event>
<event>
12    1  0.1418317E-007  0.8370981E+03  0.7818608E-02  0.9507819E-01
         -1   -1    0    0    0  501 -0.00000000000E+00  0.00000000000E+00  0.67758059380E+03  0.67758059380E+03  0.00000000000E+00 0.  1.
          1   -1    0    0  501    0  0.00000000000E+00 -0.00000000000E+00 -0.12101402737E+04  0.12101402737E+04  0.00000000000E+00 0. -1.
         23    2    1    2    0    0  0.73530873279E+03 -0.96974336036E+02 -0.55966644726E+03  0.93341383655E+03  0.89173447293E+02 0.  0.
    5000000    2    1    2    0    0 -0.73530873279E+03  0.96974336036E+02  0.27106767370E+02  0.95430703094E+03  0.59990347397E+03 0.  0.
         23    2    4    4    0    0 -0.81537912759E+03  0.63081948840E+02 -0.12319743394E+02  0.82290957766E+03  0.90586659880E+02 0.  0.
         23    2    4    4    0    0  0.80070394797E+02  0.33892387196E+02  0.39426510764E+02  0.13139745328E+03  0.90282218315E+02 0.  0.
          1    1    3    3  502    0  0.13848793451E+03 -0.45010434609E+02 -0.81288491843E+02  0.16677129889E+03  0.00000000000E+00 0. -1.
         -1    1    3    3    0  502  0.59682079828E+03 -0.51963901427E+02 -0.47837795541E+03  0.76664253765E+03  0.00000000000E+00 0.  1.
         11    1    5    5    0    0 -0.41412780399E+03  0.77082654914E+02 -0.52453509691E+00  0.42124084425E+03  0.00000000000E+00 0.  1.
        -11    1    5    5    0    0 -0.40125132360E+03 -0.14000706075E+02 -0.11795208297E+02  0.40166873341E+03  0.00000000000E+00 0. -1.
          3    1    6    6  503    0  0.47215910982E+02 -0.13488900527E+02  0.52908554965E+02  0.72184540421E+02  0.00000000000E+00 0. -1.
         -3    1    6    6    0  503  0.32854483815E+02  0.47381287723E+02 -0.13482044201E+02  0.59212912856E+02  0.00000000000E+00 0.  1.
<mgrwt>
<rscale>  0 0.83709807E+03</rscale>
<asrwt>0</asrwt>
<pdfrwt beam="1">  1        1 0.18617543E+00 0.83709807E+03</pdfrwt>
<pdfrwt beam="2">  1       -1 0.10424317E+00 0.83709807E+03</pdfrwt>
<totfact> 0.93030641E+00</totfact>
</mgrwt>
</event>
<event>
12    1  0.1418317E-007  0.1929853E+04  0.7818608E-02  0.8640137E-01
          2   -1    0    0  501    0  0.00000000000E+00  0.00000000000E+00  0.34982080401E+04  0.34982080401E+04  0.00000000000E+00 0.  1.
         -2   -1    0    0    0  501 -0.00000000000E+00 -0.00000000000E+00 -0.11223314247E+04  0.11223314247E+04  0.00000000000E+00 0. -1.
         23    2    1    2    0    0 -0.13000577646E+04 -0.14128157405E+04  0.14412640853E+04  0.24024099473E+04  0.90182498970E+02 0.  0.
    5000000    2    1    2    0    0  0.13000577646E+04  0.14128157405E+04  0.93461253005E+03  0.22181295175E+04  0.60033279698E+03 0.  0.
         23    2    4    4    0    0  0.74870854664E+03  0.98579006503E+03  0.86371078815E+03  0.15122122666E+04  0.91886198577E+02 0.  0.
         23    2    4    4    0    0  0.55134921792E+03  0.42702567551E+03  0.70901741901E+02  0.70591725092E+03  0.83397964556E+02 0.  0.
          1    1    3    3  502    0 -0.12678564228E+03 -0.12836533727E+03  0.16861632679E+03  0.24694882984E+03  0.00000000000E+00 0. -1.
         -1    1    3    3    0  502 -0.11732721223E+04 -0.12844504033E+04  0.12726477586E+04  0.21554611174E+04  0.00000000000E+00 0.  1.
         13    1    5    5    0    0  0.56090347177E+03  0.72393215401E+03  0.58985444724E+03  0.10893203097E+04  0.00000000000E+00 0. -1.
        -13    1    5    5    0    0  0.18780507487E+03  0.26185791102E+03  0.27385634091E+03  0.42289195685E+03  0.00000000000E+00 0.  1.
          4    1    6    6  503    0  0.23417252377E+03  0.22982076760E+03  0.16828998947E+02  0.32853853855E+03  0.00000000000E+00 0. -1.
         -4    1    6    6    0  503  0.31717669415E+03  0.19720490792E+03  0.54072742954E+02  0.37737871237E+03  0.00000000000E+00 0.  1.
<mgrwt>
<rscale>  0 0.19298535E+04</rscale>
<asrwt>0</asrwt>
<pdfrwt beam="1">  1        2 0.53818585E+00 0.19298535E+04</pdfrwt>
<pdfrwt beam="2">  1       -2 0.17266637E+00 0.19298535E+04</pdfrwt>
<totfact> 0.15052268E-01</totfact>
</mgrwt>
</event>
<event>
12    1  0.1418317E-007  0.4694782E+03  0.7818608E-02  0.1022068E+00
         -2   -1    0    0    0  501 -0.00000000000E+00  0.00000000000E+00  0.79961339410E+02  0.79961339410E+02  0.00000000000E+00 0.  1.
          2   -1    0    0  501    0  0.00000000000E+00 -0.00000000000E+00 -0.35787371713E+04  0.35787371713E+04  0.00000000000E+00 0. -1.
         23    2    1    2    0    0 -0.26382231564E+02 -0.34223043827E+03 -0.16183948155E+04  0.16552870845E+04  0.54367806100E+02 0.  0.
    5000000    2    1    2    0    0  0.26382231564E+02  0.34223043827E+03 -0.18803810164E+04  0.20034114262E+04  0.60000573394E+03 0.  0.
         23    2    4    4    0    0  0.24079331015E+03  0.12461646923E+03 -0.41796788315E+03  0.50668134593E+03  0.92293837029E+02 0.  0.
         23    2    4    4    0    0 -0.21441107859E+03  0.21761396904E+03 -0.14624131333E+04  0.14967300803E+04  0.90668686560E+02 0.  0.
          4    1    3    3  502    0 -0.10389434286E+02 -0.16610512829E+03 -0.91414218411E+03  0.92916886880E+03  0.00000000000E+00 0. -1.
         -4    1    3    3    0  502 -0.15992797278E+02 -0.17612530998E+03 -0.70425263139E+03  0.72611821572E+03  0.00000000000E+00 0.  1.
         13    1    5    5    0    0  0.11224737734E+03  0.82379320064E+01 -0.17861893394E+03  0.21112096250E+03  0.00000000000E+00 0.  1.
        -13    1    5    5    0    0  0.12854593281E+03  0.11637853722E+03 -0.23934894921E+03  0.29556038344E+03  0.00000000000E+00 0. -1.
          3    1    6    6  503    0 -0.12195532884E+03  0.15849701542E+03 -0.11012966157E+04  0.11193072151E+04  0.00000000000E+00 0. -1.
         -3    1    6    6    0  503 -0.92455749743E+02  0.59116953623E+02 -0.36111651762E+03  0.37742286518E+03  0.00000000000E+00 0.  1.
<mgrwt>
<rscale>  0 0.46947816E+03</rscale>
<asrwt>0</asrwt>
<pdfrwt beam="1">  1        2 0.55057505E+00 0.46947816E+03</pdfrwt>
<pdfrwt beam="2">  1       -2 0.12301742E-01 0.46947816E+03</pdfrwt>
<totfact> 0.39943697E+01</totfact>
</mgrwt>
</event>
<event>
12    1  0.1418317E-007  0.1459690E+04  0.7818608E-02  0.8911710E-01
          2   -1    0    0  501    0  0.00000000000E+00  0.00000000000E+00  0.13078090115E+04  0.13078090115E+04  0.00000000000E+00 0. -1.
         -2   -1    0    0    0  501 -0.00000000000E+00 -0.00000000000E+00 -0.16873010734E+04  0.16873010734E+04  0.00000000000E+00 0.  1.
         23    2    1    2    0    0  0.13284840203E+04  0.45921837291E+03  0.43748376782E+02  0.14093202675E+04  0.92295123316E+02 0.  0.
    5000000    2    1    2    0    0 -0.13284840203E+04 -0.45921837291E+03 -0.42324043872E+03  0.15857898174E+04  0.59987129438E+03 0.  0.
         23    2    4    4    0    0 -0.95564672449E+03 -0.51261517306E+02 -0.33929004377E+03  0.10194708924E+04  0.91185313986E+02 0.  0.
         23    2    4    4    0    0 -0.37283729581E+03 -0.40795685561E+03 -0.83950394951E+02  0.56631892500E+03  0.90735940037E+02 0.  0.
          2    1    3    3  502    0  0.82758385685E+03  0.33300633535E+03  0.24561470298E+02  0.89240771250E+03  0.00000000000E+00 0. -1.
         -2    1    3    3    0  502  0.50090016344E+03  0.12621203756E+03  0.19186906484E+02  0.51691255502E+03  0.00000000000E+00 0.  1.
         11    1    5    5    0    0 -0.23985171365E+03 -0.13763905594E+02 -0.12791352252E+03  0.27217670525E+03  0.00000000000E+00 0. -1.
        -11    1    5    5    0    0 -0.71579501084E+03 -0.37497611712E+02 -0.21137652125E+03  0.74729418716E+03  0.00000000000E+00 0.  1.
          4    1    6    6  503    0 -0.25206670703E+03 -0.25140445473E+03 -0.12978557713E+02  0.35624467380E+03  0.00000000000E+00 0.  1.
         -4    1    6    6    0  503 -0.12077058877E+03 -0.15655240088E+03 -0.70971837238E+02  0.21007425119E+03  0.00000000000E+00 0. -1.
<mgrwt>
<rscale>  0 0.14596897E+04</rscale>
<asrwt>0</asrwt>
<pdfrwt beam="1">  1        2 0.20120139E+00 0.14596897E+04</pdfrwt>
<pdfrwt beam="2">  1       -2 0.25958478E+00 0.14596897E+04</pdfrwt>
<totfact> 0.86867557E-01</totfact>
</mgrwt>
</event>
<event>
12    1  0.1418317E-007  0.7584995E+03  0.7818608E-02  0.9622110E-01
         -1   -1    0    0    0  501 -0.00000000000E+00  0.00000000000E+00  0.46609116425E+03  0.46609116425E+03  0.00000000000E+00 0.  1.
          1   -1    0    0  501    0  0.00000000000E+00 -0.00000000000E+00 -0.22685676766E+04  0.22685676766E+04  0.00000000000E+00 0. -1.
         23    2    1    2    0    0 -0.34934414280E+03 -0.64012660331E+03 -0.42295015761E+02  0.73741616105E+03  0.10094715373E+03 0.  0.
    5000000    2    1    2    0    0  0.34934414280E+03  0.64012660331E+03 -0.17601814966E+04  0.19972426798E+04  0.59911269618E+03 0.  0.
         23    2    4    4    0    0  0.20615848166E+03  0.16912443609E+03 -0.12521099093E+04  0.12839184655E+04  0.97790625450E+02 0.  0.
         23    2    4    4    0    0  0.14318566115E+03  0.47100216722E+03 -0.50807158728E+03  0.71332421438E+03  0.91375718498E+02 0.  0.
          1    1    3    3  502    0 -0.10240613421E+03 -0.28416508968E+03 -0.35510112249E+02  0.30413448110E+03  0.00000000000E+00 0. -1.
         -1    1    3    3    0  502 -0.24693800859E+03 -0.35596151362E+03 -0.67849035120E+01  0.43328167995E+03  0.00000000000E+00 0.  1.
         13    1    5    5    0    0  0.31906243718E+02  0.78893226052E+02 -0.30228926611E+03  0.31403972665E+03  0.00000000000E+00 0.  1.
        -13    1    5    5    0    0  0.17425223794E+03  0.90231210036E+02 -0.94982064322E+03  0.96987873881E+03  0.00000000000E+00 0. -1.
          2    1    6    6  503    0  0.77189000947E+01  0.17149615383E+03 -0.16254448141E+03  0.23641324124E+03  0.00000000000E+00 0. -1.
         -2    1    6    6    0  503  0.13546676105E+03  0.29950601339E+03 -0.34552710587E+03  0.47691097314E+03  0.00000000000E+00 0.  1.
<mgrwt>
<rscale>  0 0.75849952E+03</rscale>
<asrwt>0</asrwt>
<pdfrwt beam="1">  1        1 0.34901042E+00 0.75849952E+03</pdfrwt>
<pdfrwt beam="2">  1       -1 0.71706330E-01 0.75849952E+03</pdfrwt>
<totfact> 0.40474453E+00</totfact>
</mgrwt>
</event>
<event>
12    1  0.1418317E-007  0.4301120E+03  0.7818608E-02  0.1033825E+00
          2   -1    0    0  501    0  0.00000000000E+00  0.00000000000E+00  0.10357633678E+04  0.10357633678E+04  0.00000000000E+00 0. -1.
         -2   -1    0    0    0  501 -0.00000000000E+00 -0.00000000000E+00 -0.19649994532E+03  0.19649994532E+03  0.00000000000E+00 0.  1.
         23    2    1    2    0    0 -0.13322825140E+03 -0.17452001602E+03  0.36701245918E+03  0.43777720952E+03  0.93507951632E+02 0.  0.
    5000000    2    1    2    0    0  0.13322825140E+03  0.17452001602E+03  0.47225096327E+03  0.79448610358E+03  0.59998349436E+03 0.  0.
         23    2    4    4    0    0 -0.13137889731E+03  0.29290093251E+03  0.27487863823E+03  0.43188764137E+03  0.88979200334E+02 0.  0.
         23    2    4    4    0    0  0.26460714871E+03 -0.11838091648E+03  0.19737232503E+03  0.36259846220E+03  0.92145675794E+02 0.  0.
          3    1    3    3  502    0 -0.17809077061E+01 -0.70581198527E+02  0.12154951039E+03  0.14056728173E+03  0.00000000000E+00 0. -1.
         -3    1    3    3    0  502 -0.13144734370E+03 -0.10393881750E+03  0.24546294879E+03  0.29720992779E+03  0.00000000000E+00 0.  1.
         11    1    5    5    0    0 -0.11519572901E+03  0.20278221065E+03  0.15095822620E+03  0.27781120747E+03  0.00000000000E+00 0.  1.
        -11    1    5    5    0    0 -0.16183168293E+02  0.90118721854E+02  0.12392041203E+03  0.15407643390E+03  0.00000000000E+00 0. -1.
          2    1    6    6  503    0  0.43704278171E+02  0.54171849708E+01  0.60249423828E+02  0.74628432216E+02  0.00000000000E+00 0. -1.
         -2    1    6    6    0  503  0.22090287054E+03 -0.12379810145E+03  0.13712290121E+03  0.28797002999E+03  0.00000000000E+00 0.  1.
<mgrwt>
<rscale>  0 0.43011195E+03</rscale>
<asrwt>0</asrwt>
<pdfrwt beam="1">  1        2 0.15934821E+00 0.43011195E+03</pdfrwt>
<pdfrwt beam="2">  1       -2 0.30230761E-01 0.43011195E+03</pdfrwt>
<totfact> 0.24938077E+02</totfact>
</mgrwt>
</event>
<event>
12    1  0.1418317E-007  0.1368157E+04  0.7818608E-02  0.8977196E-01
          1   -1    0    0  501    0  0.00000000000E+00  0.00000000000E+00  0.20598837887E+04  0.20598837887E+04  0.00000000000E+00 0. -1.
         -1   -1    0    0    0  501 -0.00000000000E+00 -0.00000000000E+00 -0.92770928772E+03  0.92770928772E+03  0.00000000000E+00 0.  1.
         23    2    1    2    0    0 -0.10564881164E+04  0.77796368172E+03  0.64592764604E+03  0.14651788253E+04  0.90176692188E+02 0.  0.
    5000000    2    1    2    0    0  0.10564881164E+04 -0.77796368172E+03  0.48624685493E+03  0.15224142512E+04  0.59992876075E+03 0.  0.
         23    2    4    4    0    0  0.94299134011E+03 -0.41722186563E+03  0.45959641347E+03  0.11325864642E+04  0.90644816869E+02 0.  0.
         23    2    4    4    0    0  0.11349677632E+03 -0.36074181609E+03  0.26650441459E+02  0.38982778700E+03  0.90770487390E+02 0.  0.
          2    1    3    3  502    0 -0.66670296257E+03  0.51002600675E+03  0.36766269148E+03  0.91640341693E+03  0.00000000000E+00 0. -1.
         -2    1    3    3    0  502 -0.38978515386E+03  0.26793767497E+03  0.27826495456E+03  0.54877540832E+03  0.00000000000E+00 0.  1.
         13    1    5    5    0    0  0.14507684101E+03 -0.10063058543E+03  0.85837015012E+02  0.19632065013E+03  0.00000000000E+00 0.  1.
        -13    1    5    5    0    0  0.79791449910E+03 -0.31659128020E+03  0.37375939846E+03  0.93626581402E+03  0.00000000000E+00 0. -1.
          3    1    6    6  503    0  0.27808218044E+02 -0.23567664490E+03  0.16298787602E+02  0.23787061277E+03  0.00000000000E+00 0. -1.
         -3    1    6    6    0  503  0.85688558274E+02 -0.12506517118E+03  0.10351653857E+02  0.15195717423E+03  0.00000000000E+00 0.  1.
<mgrwt>
<rscale>  0 0.13681570E+04</rscale>
<asrwt>0</asrwt>
<pdfrwt beam="1">  1        1 0.31690520E+00 0.13681570E+04</pdfrwt>
<pdfrwt beam="2">  1       -1 0.14272451E+00 0.13681570E+04</pdfrwt>
<totfact> 0.10423375E+00</totfact>
</mgrwt>
</event>
<event>
12    1  0.1418317E-007  0.4712413E+03  0.7818608E-02  0.1021570E+00
          1   -1    0    0  501    0  0.00000000000E+00  0.00000000000E+00  0.12100791869E+04  0.12100791869E+04  0.00000000000E+00 0. -1.
         -1   -1    0    0    0  501 -0.00000000000E+00 -0.00000000000E+00 -0.39567754670E+03  0.39567754670E+03  0.00000000000E+00 0.  1.
         23    2    1    2    0    0  0.12106126668E+03 -0.26342756486E+03  0.88519626966E+03  0.93562865564E+03  0.88196560172E+02 0.  0.
    5000000    2    1    2    0    0 -0.12106126668E+03  0.26342756486E+03 -0.70794629426E+02  0.67012807798E+03  0.60000820754E+03 0.  0.
         23    2    4    4    0    0 -0.27821748164E+03 -0.53109112655E+02 -0.70354452941E+02  0.30568008107E+03  0.90912144295E+02 0.  0.
         23    2    4    4    0    0  0.15715621495E+03  0.31653667752E+03 -0.44017648446E+00  0.36444799691E+03  0.89042712114E+02 0.  0.
          2    1    3    3  502    0  0.22736655207E+02 -0.12829810315E+03  0.47882756143E+03  0.49623904758E+03  0.00000000000E+00 0. -1.
         -2    1    3    3    0  502  0.98324611477E+02 -0.13512946171E+03  0.40636870823E+03  0.43938960806E+03  0.00000000000E+00 0.  1.
         13    1    5    5    0    0 -0.12133749573E+03 -0.34704793046E+02 -0.76546763276E+02  0.14760290478E+03  0.00000000000E+00 0. -1.
        -13    1    5    5    0    0 -0.15687998591E+03 -0.18404319609E+02  0.61923103347E+01  0.15807717630E+03  0.00000000000E+00 0.  1.
          4    1    6    6  503    0  0.99826604586E+02  0.11953594690E+03  0.24901693150E+02  0.15771584545E+03  0.00000000000E+00 0. -1.
         -4    1    6    6    0  503  0.57329610368E+02  0.19700073062E+03 -0.25341869635E+02  0.20673215145E+03  0.00000000000E+00 0.  1.
<mgrwt>
<rscale>  0 0.47124127E+03</rscale>
<asrwt>0</asrwt>
<pdfrwt beam="1">  1        1 0.18616603E+00 0.47124127E+03</pdfrwt>
<pdfrwt beam="2">  1       -1 0.60873470E-01 0.47124127E+03</pdfrwt>
<totfact> 0.30819234E+01</totfact>
</mgrwt>
</event>
<event>
12    1  0.1418317E-007  0.4394388E+03  0.7818608E-02  0.1030919E+00
         -1   -1    0    0    0  501 -0.00000000000E+00  0.00000000000E+00  0.42527497370E+03  0.42527497370E+03  0.00000000000E+00 0.  1.
          1   -1    0    0  501    0  0.00000000000E+00 -0.00000000000E+00 -0.75975662345E+03  0.75975662345E+03  0.00000000000E+00 0. -1.
         23    2    1    2    0    0  0.11771403803E+03 -0.38579158691E+03 -0.13808385880E+03  0.43639846505E+03  0.93191871691E+02 0.  0.
    5000000    2    1    2    0    0 -0.11771403803E+03  0.38579158691E+03 -0.19639779095E+03  0.74863313210E+03  0.59932272684E+03 0.  0.
         23    2    4    4    0    0 -0.16934821900E+03  0.15972178889E+03 -0.36920075857E+03  0.44612407035E+03  0.92345096742E+02 0.  0.
         23    2    4    4    0    0  0.51634180968E+02  0.22606979803E+03  0.17280296762E+03  0.30250906176E+03  0.88753730073E+02 0.  0.
          4    1    3    3  502    0  0.68081329812E+02 -0.27249867467E+03 -0.13746398940E+03  0.31270903976E+03  0.00000000000E+00 0. -1.
         -4    1    3    3    0  502  0.49632708217E+02 -0.11329291224E+03 -0.61986940615E+00  0.12368942529E+03  0.00000000000E+00 0.  1.
         13    1    5    5    0    0  0.34049535941E+01  0.19622323368E+02 -0.70541126773E+01  0.21127938589E+02  0.00000000000E+00 0.  1.
        -13    1    5    5    0    0 -0.17275317259E+03  0.14009946552E+03 -0.36214664589E+03  0.42499613176E+03  0.00000000000E+00 0. -1.
          2    1    6    6  503    0  0.47770914969E+02  0.20018511526E+03  0.18203239504E+03  0.27475795445E+03  0.00000000000E+00 0. -1.
         -2    1    6    6    0  503  0.38632659986E+01  0.25884682763E+02 -0.92294274233E+01  0.27751107302E+02  0.00000000000E+00 0.  1.
<mgrwt>
<rscale>  0 0.43943876E+03</rscale>
<asrwt>0</asrwt>
<pdfrwt beam="1">  1        1 0.11688563E+00 0.43943876E+03</pdfrwt>
<pdfrwt beam="2">  1       -1 0.65426919E-01 0.43943876E+03</pdfrwt>
<totfact> 0.60162946E+01</totfact>
</mgrwt>
</event>
<event>
12    1  0.1418317E-007  0.1335779E+04  0.7818608E-02  0.9001664E-01
         -2   -1    0    0    0  501 -0.00000000000E+00  0.00000000000E+00  0.24827785682E+04  0.24827785682E+04  0.00000000000E+00 0. -1.
          2   -1    0    0  501    0  0.00000000000E+00 -0.00000000000E+00 -0.11209336766E+04  0.11209336766E+04  0.00000000000E+00 0.  1.
         23    2    1    2    0    0 -0.22381794610E+02 -0.13244298552E+04  0.16535787936E+04  0.21205807659E+04  0.89020065953E+02 0.  0.
    5000000    2    1    2    0    0  0.22381794610E+02  0.13244298552E+04 -0.29173390197E+03  0.14831314789E+04  0.59996243899E+03 0.  0.
         23    2    4    4    0    0 -0.55844647263E+02  0.26273952613E+03  0.15710094390E+03  0.32424552985E+03  0.91125045042E+02 0.  0.
         23    2    4    4    0    0  0.78226441872E+02  0.10616903291E+04 -0.44883484587E+03  0.11588859491E+04  0.90874600867E+02 0.  0.
          3    1    3    3  502    0 -0.46295960836E+02 -0.91725729237E+03  0.11878620308E+04  0.15015060641E+04  0.00000000000E+00 0. -1.
         -3    1    3    3    0  502  0.23914166226E+02 -0.40717256282E+03  0.46571676280E+03  0.61907470180E+03  0.00000000000E+00 0.  1.
         11    1    5    5    0    0 -0.34423591952E+01  0.17485462605E+03  0.64996884190E+02  0.18657594979E+03  0.00000000000E+00 0.  1.
        -11    1    5    5    0    0 -0.52402288068E+02  0.87884900081E+02  0.92104059715E+02  0.13766958006E+03  0.00000000000E+00 0. -1.
          4    1    6    6  503    0  0.94929733021E+02  0.76155440161E+03 -0.30833320491E+03  0.82707081080E+03  0.00000000000E+00 0. -1.
         -4    1    6    6    0  503 -0.16703291149E+02  0.30013592744E+03 -0.14050164096E+03  0.33181513828E+03  0.00000000000E+00 0.  1.
<mgrwt>
<rscale>  0 0.13357790E+04</rscale>
<asrwt>0</asrwt>
<pdfrwt beam="1">  1        2 0.17245134E+00 0.13357790E+04</pdfrwt>
<pdfrwt beam="2">  1       -2 0.38196593E+00 0.13357790E+04</pdfrwt>
<totfact> 0.19872564E-01</totfact>
</mgrwt>
</event>
<event>
12    1  0.1418317E-007  0.8459144E+03  0.7818608E-02  0.9495837E-01
          2   -1    0    0  501    0  0.00000000000E+00  0.00000000000E+00  0.14366111858E+04  0.14366111858E+04  0.00000000000E+00 0.  1.
         -2   -1    0    0    0  501 -0.00000000000E+00 -0.00000000000E+00 -0.11245270540E+04  0.11245270540E+04  0.00000000000E+00 0. -1.
         23    2    1    2    0    0  0.34053511932E+03 -0.72334890091E+03  0.10474530826E+04  0.13200373089E+04  0.78375613016E+02 0.  0.
    5000000    2    1    2    0    0 -0.34053511932E+03  0.72334890091E+03 -0.73536895079E+03  0.12411009309E+04  0.60030511159E+03 0.  0.
         23    2    4    4    0    0 -0.15918087229E+03  0.65055340600E+03 -0.76677085295E+03  0.10223690406E+04  0.93502032747E+02 0.  0.
         23    2    4    4    0    0 -0.18135424702E+03  0.72795494910E+02  0.31401902155E+02  0.21873189030E+03  0.93107536660E+02 0.  0.
          3    1    3    3  502    0  0.10401170809E+03 -0.30954450149E+03  0.43832821245E+03  0.54659661145E+03  0.00000000000E+00 0. -1.
         -3    1    3    3    0  502  0.23652341123E+03 -0.41380439941E+03  0.60912487013E+03  0.77344069743E+03  0.00000000000E+00 0.  1.
         11    1    5    5    0    0 -0.64042143649E+02  0.38473052753E+03 -0.49807592083E+03  0.63261251797E+03  0.00000000000E+00 0.  1.
        -11    1    5    5    0    0 -0.95138728646E+02  0.26582287847E+03 -0.26869493212E+03  0.38975652265E+03  0.00000000000E+00 0. -1.
          3    1    6    6  503    0 -0.40937155580E+02 -0.22377718014E+02  0.31165044198E+01  0.46758160468E+02  0.00000000000E+00 0. -1.
         -3    1    6    6    0  503 -0.14041709144E+03  0.95173212924E+02  0.28285397735E+02  0.17197372983E+03  0.00000000000E+00 0.  1.
<mgrwt>
<rscale>  0 0.84591437E+03</rscale>
<asrwt>0</asrwt>
<pdfrwt beam="1">  1        2 0.22101711E+00 0.84591437E+03</pdfrwt>
<pdfrwt beam="2">  1       -2 0.17300416E+00 0.84591437E+03</pdfrwt>
<totfact> 0.28336220E+00</totfact>
</mgrwt>
</event>
<event>
12    1  0.1418317E-007  0.1056349E+04  0.7818608E-02  0.9248814E-01
         -1   -1    0    0    0  501 -0.00000000000E+00  0.00000000000E+00  0.14075375915E+04  0.14075375915E+04  0.00000000000E+00 0.  1.
          1   -1    0    0  501    0  0.00000000000E+00 -0.00000000000E+00 -0.16519189411E+04  0.16519189411E+04  0.00000000000E+00 0. -1.
         23    2    1    2    0    0 -0.90237922356E+03  0.49675314970E+03 -0.11616306824E+04  0.15552794109E+04  0.91957864948E+02 0.  0.
    5000000    2    1    2    0    0  0.90237922356E+03 -0.49675314970E+03  0.91724933270E+03  0.15041771217E+04  0.60012542037E+03 0.  0.
         23    2    4    4    0    0  0.44767000200E+03 -0.85521886706E+02  0.71472030975E+03  0.85262979055E+03  0.91815111877E+02 0.  0.
         23    2    4    4    0    0  0.45470922156E+03 -0.41123126300E+03  0.20252902296E+03  0.65154733113E+03  0.87317190300E+02 0.  0.
          3    1    3    3  502    0 -0.45793900870E+03  0.30001343970E+03 -0.64319070509E+03  0.84463630209E+03  0.00000000000E+00 0. -1.
         -3    1    3    3    0  502 -0.44444021486E+03  0.19673971001E+03 -0.51843997730E+03  0.71064310884E+03  0.00000000000E+00 0.  1.
         11    1    5    5    0    0  0.19506957442E+03 -0.75604798001E+02  0.37154967445E+03  0.42640049828E+03  0.00000000000E+00 0.  1.
        -11    1    5    5    0    0  0.25260042758E+03 -0.99170887053E+01  0.34317063529E+03  0.42622929227E+03  0.00000000000E+00 0. -1.
          2    1    6    6  503    0  0.24592071259E+03 -0.26951698368E+03  0.93372426803E+02  0.37660962741E+03  0.00000000000E+00 0.  1.
         -2    1    6    6    0  503  0.20878850898E+03 -0.14171427932E+03  0.10915659615E+03  0.27493770372E+03  0.00000000000E+00 0. -1.
<mgrwt>
<rscale>  0 0.10563486E+04</rscale>
<asrwt>0</asrwt>
<pdfrwt beam="1">  1        1 0.25414137E+00 0.10563486E+04</pdfrwt>
<pdfrwt beam="2">  1       -1 0.21654425E+00 0.10563486E+04</pdfrwt>
<totfact> 0.59722877E-01</totfact>
</mgrwt>
</event>
<event>
12    1  0.1418317E-007  0.3899628E+03  0.7818608E-02  0.1047312E+00
         -2   -1    0    0    0  501 -0.00000000000E+00  0.00000000000E+00  0.54454124120E+03  0.54454124120E+03  0.00000000000E+00 0.  1.
          2   -1    0    0  501    0  0.00000000000E+00 -0.00000000000E+00 -0.31265553870E+03  0.31265553870E+03  0.00000000000E+00 0. -1.
         23    2    1    2    0    0 -0.11230959195E+03  0.13502042859E+03  0.81489003913E+02  0.21376976452E+03  0.90626121403E+02 0.  0.
    5000000    2    1    2    0    0  0.11230959195E+03 -0.13502042859E+03  0.15039669859E+03  0.64342701539E+03  0.60044583153E+03 0.  0.
         23    2    4    4    0    0  0.18899181379E+03  0.18565292881E+03  0.36732446429E+02  0.28260711815E+03  0.91283048562E+02 0.  0.
         23    2    4    4    0    0 -0.76682221838E+02 -0.32067335740E+03  0.11366425216E+03  0.36081989724E+03  0.92519569455E+02 0.  0.
          1    1    3    3  502    0 -0.17411829782E+02  0.39617705564E+02 -0.17540311933E+02  0.46694720828E+02  0.00000000000E+00 0. -1.
         -1    1    3    3    0  502 -0.94897762170E+02  0.95402723028E+02  0.99029315846E+02  0.16707504369E+03  0.00000000000E+00 0.  1.
         11    1    5    5    0    0  0.69254859326E+02  0.39762502041E+02 -0.25574654334E+02  0.83853175569E+02  0.00000000000E+00 0.  1.
        -11    1    5    5    0    0  0.11973695446E+03  0.14589042677E+03  0.62307100762E+02  0.19875394258E+03  0.00000000000E+00 0. -1.
          1    1    6    6  503    0 -0.32013266624E+02 -0.23207229879E+03  0.11632372686E+03  0.26155995591E+03  0.00000000000E+00 0. -1.
         -1    1    6    6    0  503 -0.44668955214E+02 -0.88601058611E+02 -0.26594747003E+01  0.99259941329E+02  0.00000000000E+00 0.  1.
<mgrwt>
<rscale>  0 0.38996284E+03</rscale>
<asrwt>0</asrwt>
<pdfrwt beam="1">  1        2 0.48100852E-01 0.38996284E+03</pdfrwt>
<pdfrwt beam="2">  1       -2 0.83775576E-01 0.38996284E+03</pdfrwt>
<totfact> 0.13424595E+02</totfact>
</mgrwt>
</event>
<event>
12    1  0.1418317E-007  0.1039893E+04  0.7818608E-02  0.9265842E-01
         -2   -1    0    0    0  501 -0.00000000000E+00  0.00000000000E+00  0.33553958493E+03  0.33553958493E+03  0.00000000000E+00 0.  1.
          2   -1    0    0  501    0  0.00000000000E+00 -0.00000000000E+00 -0.38022806111E+04  0.38022806111E+04  0.00000000000E+00 0. -1.
         23    2    1    2    0    0  0.84288066398E+03 -0.60015631093E+03 -0.19179773632E+04  0.21812523319E+04  0.92677713882E+02 0.  0.
    5000000    2    1    2    0    0 -0.84288066398E+03  0.60015631093E+03 -0.15487636630E+04  0.19565678641E+04  0.59904383127E+03 0.  0.
         23    2    4    4    0    0 -0.55472898637E+03  0.37509879741E+03 -0.49475892053E+03  0.83752064261E+03  0.90725306362E+02 0.  0.
         23    2    4    4    0    0 -0.28815167761E+03  0.22505751352E+03 -0.10540047424E+04  0.11190472215E+04  0.87512359754E+02 0.  0.
          1    1    3    3  502    0  0.37196153494E+03 -0.28480019138E+03 -0.95922476689E+03  0.10675105086E+04  0.00000000000E+00 0. -1.
         -1    1    3    3    0  502  0.47091912904E+03 -0.31535611955E+03 -0.95875259631E+03  0.11137418234E+04  0.00000000000E+00 0.  1.
         11    1    5    5    0    0 -0.74998998973E+02  0.81464158864E+02 -0.10978194806E+03  0.15592733931E+03  0.00000000000E+00 0. -1.
        -11    1    5    5    0    0 -0.47972998740E+03  0.29363463854E+03 -0.38497697248E+03  0.68159330330E+03  0.00000000000E+00 0.  1.
          2    1    6    6  503    0 -0.12657781615E+03  0.14011334761E+03 -0.44855346081E+03  0.48667638213E+03  0.00000000000E+00 0. -1.
         -2    1    6    6    0  503 -0.16157386146E+03  0.84944165918E+02 -0.60545128163E+03  0.63237083935E+03  0.00000000000E+00 0.  1.
<mgrwt>
<rscale>  0 0.10398928E+04</rscale>
<asrwt>0</asrwt>
<pdfrwt beam="1">  1        2 0.58496620E+00 0.10398928E+04</pdfrwt>
<pdfrwt beam="2">  1       -2 0.51621479E-01 0.10398928E+04</pdfrwt>
<totfact> 0.18036386E+00</totfact>
</mgrwt>
</event>
<event>
12    1  0.1418317E-007  0.1316741E+04  0.7818608E-02  0.9016394E-01
          2   -1    0    0  501    0  0.00000000000E+00  0.00000000000E+00  0.26266111644E+04  0.26266111644E+04  0.00000000000E+00 0. -1.
         -2   -1    0    0    0  501 -0.00000000000E+00 -0.00000000000E+00 -0.74161054606E+03  0.74161054606E+03  0.00000000000E+00 0.  1.
         23    2    1    2    0    0 -0.12140883161E+04  0.31587268527E+03  0.36858530123E+03  0.13107343820E+04  0.91561472789E+02 0.  0.
    5000000    2    1    2    0    0  0.12140883161E+04 -0.31587268527E+03  0.15164153171E+04  0.20574873285E+04  0.59996058224E+03 0.  0.
         23    2    4    4    0    0 -0.29380501451E+02  0.16747468843E+02  0.79695415797E+02  0.12634634814E+03  0.92023631808E+02 0.  0.
         23    2    4    4    0    0  0.12434688175E+04 -0.33262015412E+03  0.14367199013E+04  0.19311409803E+04  0.91052423996E+02 0.  0.
          2    1    3    3  502    0 -0.21030512918E+03  0.90847540609E+02  0.72001058731E+02  0.24013678488E+03  0.00000000000E+00 0. -1.
         -2    1    3    3    0  502 -0.10037831869E+04  0.22502514466E+03  0.29658424250E+03  0.10705975971E+04  0.00000000000E+00 0.  1.
         11    1    5    5    0    0 -0.74008857061E+01 -0.31459600778E+02  0.62984354288E+02  0.70792008557E+02  0.00000000000E+00 0.  1.
        -11    1    5    5    0    0 -0.21979615745E+02  0.48207069621E+02  0.16711061508E+02  0.55554339583E+02  0.00000000000E+00 0. -1.
          3    1    6    6  503    0  0.58463198970E+03 -0.20342624345E+03  0.69224546466E+03  0.92864448701E+03  0.00000000000E+00 0. -1.
         -3    1    6    6    0  503  0.65883682784E+03 -0.12919391066E+03  0.74447443667E+03  0.10024964933E+04  0.00000000000E+00 0.  1.
<mgrwt>
<rscale>  0 0.13167411E+04</rscale>
<asrwt>0</asrwt>
<pdfrwt beam="1">  1        2 0.40409402E+00 0.13167411E+04</pdfrwt>
<pdfrwt beam="2">  1       -2 0.11409393E+00 0.13167411E+04</pdfrwt>
<totfact> 0.17111275E+00</totfact>
</mgrwt>
</event>
<event>
12    1  0.1418317E-007  0.1567512E+04  0.7818608E-02  0.8840759E-01
          1   -1    0    0  501    0  0.00000000000E+00  0.00000000000E+00  0.24436785659E+04  0.24436785659E+04  0.00000000000E+00 0. -1.
         -1   -1    0    0    0  501 -0.00000000000E+00 -0.00000000000E+00 -0.10306248495E+04  0.10306248495E+04  0.00000000000E+00 0.  1.
         23    2    1    2    0    0  0.11883029215E+04 -0.94001923188E+03  0.90549751477E+03  0.17674315429E+04  0.90490441872E+02 0.  0.
    5000000    2    1    2    0    0 -0.11883029215E+04  0.94001923188E+03  0.50755620160E+03  0.17068718725E+04  0.60008191238E+03 0.  0.
         23    2    4    4    0    0 -0.29232698881E+03 -0.23100895580E+02  0.14521463727E+03  0.33950767453E+03  0.90495582361E+02 0.  0.
         23    2    4    4    0    0 -0.89597593272E+03  0.96312012746E+03  0.36234156433E+03  0.13673641979E+04  0.89555505574E+02 0.  0.
          2    1    3    3  502    0  0.33332562380E+03 -0.25746083693E+03  0.29928810005E+03  0.51668696603E+03  0.00000000000E+00 0. -1.
         -2    1    3    3    0  502  0.85497729773E+03 -0.68255839495E+03  0.60620941472E+03  0.12507445769E+04  0.00000000000E+00 0.  1.
         13    1    5    5    0    0 -0.92016663843E+02  0.25061403653E+02  0.17062235068E+02  0.96882713852E+02  0.00000000000E+00 0. -1.
        -13    1    5    5    0    0 -0.20031032496E+03 -0.48162299234E+02  0.12815240220E+03  0.24262496068E+03  0.00000000000E+00 0.  1.
          3    1    6    6  503    0 -0.37873055070E+03  0.47218947349E+03  0.17172715173E+03  0.62919785724E+03  0.00000000000E+00 0. -1.
         -3    1    6    6    0  503 -0.51724538202E+03  0.49093065397E+03  0.19061441260E+03  0.73816634069E+03  0.00000000000E+00 0.  1.
<mgrwt>
<rscale>  0 0.15675119E+04</rscale>
<asrwt>0</asrwt>
<pdfrwt beam="1">  1        1 0.37595055E+00 0.15675119E+04</pdfrwt>
<pdfrwt beam="2">  1       -1 0.15855767E+00 0.15675119E+04</pdfrwt>
<totfact> 0.41837188E-01</totfact>
</mgrwt>
</event>
<event>
12    1  0.1418317E-007  0.1403070E+04  0.7818608E-02  0.8951599E-01
         -1   -1    0    0    0  501 -0.00000000000E+00  0.00000000000E+00  0.10279358223E+04  0.10279358223E+04  0.00000000000E+00 0.  1.
          1   -1    0    0  501    0  0.00000000000E+00 -0.00000000000E+00 -0.22952455112E+04  0.22952455112E+04  0.00000000000E+00 0. -1.
         23    2    1    2    0    0 -0.13081206549E+04  0.40421595461E+03 -0.13632111954E+02  0.13722112003E+04  0.90595574237E+02 0.  0.
    5000000    2    1    2    0    0  0.13081206549E+04 -0.40421595461E+03 -0.12536775770E+04  0.19509701333E+04  0.60000567347E+03 0.  0.
         23    2    4    4    0    0  0.85980453283E+03 -0.46113320253E+03 -0.59232831110E+03  0.11448078422E+04  0.88456216840E+02 0.  0.
         23    2    4    4    0    0  0.44831612208E+03  0.56917247921E+02 -0.66134926585E+03  0.80616229106E+03  0.91037737562E+02 0.  0.
          3    1    3    3  502    0 -0.86470194632E+03  0.31175733208E+03 -0.10328209428E+02  0.91924358143E+03  0.00000000000E+00 0. -1.
         -3    1    3    3    0  502 -0.44341870858E+03  0.92458622530E+02 -0.33039025257E+01  0.45296761890E+03  0.00000000000E+00 0.  1.
         11    1    5    5    0    0  0.37183344507E+03 -0.19975510781E+03 -0.30779592207E+03  0.52239883577E+03  0.00000000000E+00 0. -1.
        -11    1    5    5    0    0  0.48797108776E+03 -0.26137809472E+03 -0.28453238903E+03  0.62240900644E+03  0.00000000000E+00 0.  1.
          2    1    6    6  503    0  0.28558271170E+03 -0.10699642801E+01 -0.36927781540E+03  0.46682409427E+03  0.00000000000E+00 0. -1.
         -2    1    6    6    0  503  0.16273341038E+03  0.57987212201E+02 -0.29207145045E+03  0.33933819679E+03  0.00000000000E+00 0.  1.
<mgrwt>
<rscale>  0 0.14030699E+04</rscale>
<asrwt>0</asrwt>
<pdfrwt beam="1">  1        1 0.35311469E+00 0.14030699E+04</pdfrwt>
<pdfrwt beam="2">  1       -1 0.15814398E+00 0.14030699E+04</pdfrwt>
<totfact> 0.54309984E-01</totfact>
</mgrwt>
</event>
<event>
12    1  0.1418317E-007  0.5232900E+03  0.7818608E-02  0.1007873E+00
         -1   -1    0    0    0  501 -0.00000000000E+00  0.00000000000E+00  0.99769774588E+03  0.99769774588E+03  0.00000000000E+00 0.  1.
          1   -1    0    0  501    0  0.00000000000E+00 -0.00000000000E+00 -0.36652006039E+03  0.36652006039E+03  0.00000000000E+00 0. -1.
         23    2    1    2    0    0 -0.19867023246E+03  0.37386338899E+03  0.41053496231E+03  0.59777475925E+03  0.97734398429E+02 0.  0.
    5000000    2    1    2    0    0  0.19867023246E+03 -0.37386338899E+03  0.22064272319E+03  0.76644304702E+03  0.59958989163E+03 0.  0.
         23    2    4    4    0    0 -0.14728221358E+02  0.95991670029E+02 -0.86753904249E+02  0.15903819140E+03  0.91299426070E+02 0.  0.
         23    2    4    4    0    0  0.21339845382E+03 -0.46985505902E+03  0.30739662743E+03  0.60740485563E+03  0.90251290895E+02 0.  0.
          2    1    3    3  502    0 -0.94819854190E+02  0.24137582549E+03  0.19594052901E+03  0.32503197503E+03  0.00000000000E+00 0. -1.
         -2    1    3    3    0  502 -0.10385037827E+03  0.13248756349E+03  0.21459443329E+03  0.27274278423E+03  0.00000000000E+00 0.  1.
         11    1    5    5    0    0 -0.22393979209E+01  0.78102625356E+02 -0.94375734743E+01  0.78702622470E+02  0.00000000000E+00 0. -1.
        -11    1    5    5    0    0 -0.12488823437E+02  0.17889044673E+02 -0.77316330775E+02  0.80335568926E+02  0.00000000000E+00 0.  1.
          3    1    6    6  503    0  0.10437820693E+03 -0.16549665514E+03  0.15687949516E+03  0.25078901281E+03  0.00000000000E+00 0. -1.
         -3    1    6    6    0  503  0.10902024688E+03 -0.30435840387E+03  0.15051713227E+03  0.35661584282E+03  0.00000000000E+00 0.  1.
<mgrwt>
<rscale>  0 0.52328998E+03</rscale>
<asrwt>0</asrwt>
<pdfrwt beam="1">  1        1 0.56387702E-01 0.52328998E+03</pdfrwt>
<pdfrwt beam="2">  1       -1 0.15349196E+00 0.52328998E+03</pdfrwt>
<totfact> 0.23260371E+01</totfact>
</mgrwt>
</event>
<event>
12    1  0.1418317E-007  0.1177419E+04  0.7818608E-02  0.9132855E-01
         -2   -1    0    0    0  501 -0.00000000000E+00  0.00000000000E+00  0.12739835849E+04  0.12739835849E+04  0.00000000000E+00 0.  1.
          2   -1    0    0  501    0  0.00000000000E+00 -0.00000000000E+00 -0.11937587594E+04  0.11937587594E+04  0.00000000000E+00 0. -1.
         23    2    1    2    0    0  0.70441875107E+03 -0.91203589987E+03  0.15472025712E+03  0.11663870576E+04  0.92223373520E+02 0.  0.
    5000000    2    1    2    0    0 -0.70441875107E+03  0.91203589987E+03 -0.74495431582E+02  0.13013552867E+04  0.59996729367E+03 0.  0.
         23    2    4    4    0    0 -0.85153094342E+02  0.32743679324E+03 -0.24746681172E+03  0.42756676113E+03  0.84306638385E+02 0.  0.
         23    2    4    4    0    0 -0.61926565673E+03  0.58459910663E+03  0.17297138014E+03  0.87378852561E+03  0.91330280088E+02 0.  0.
          3    1    3    3  502    0  0.20852474496E+03 -0.31682906612E+03  0.83747516819E+02  0.38842872316E+03  0.00000000000E+00 0. -1.
         -3    1    3    3    0  502  0.49589400611E+03 -0.59520683374E+03  0.70972740306E+02  0.77795833443E+03  0.00000000000E+00 0.  1.
         11    1    5    5    0    0  0.79004033065E+01  0.95422154690E+02 -0.44593854410E+02  0.10562393587E+03  0.00000000000E+00 0.  1.
        -11    1    5    5    0    0 -0.93053497648E+02  0.23201463855E+03 -0.20287295731E+03  0.32194282526E+03  0.00000000000E+00 0. -1.
          3    1    6    6  503    0 -0.46772135680E+03  0.48483437835E+03  0.11571242554E+03  0.68353274059E+03  0.00000000000E+00 0. -1.
         -3    1    6    6    0  503 -0.15154429993E+03  0.99764728273E+02  0.57258954599E+02  0.19025578501E+03  0.00000000000E+00 0.  1.
<mgrwt>
<rscale>  0 0.11774189E+04</rscale>
<asrwt>0</asrwt>
<pdfrwt beam="1">  1        2 0.18365519E+00 0.11774189E+04</pdfrwt>
<pdfrwt beam="2">  1       -2 0.19599747E+00 0.11774189E+04</pdfrwt>
<totfact> 0.26282169E+00</totfact>
</mgrwt>
</event>
<event>
12    1  0.1418317E-007  0.9367801E+03  0.7818608E-02  0.9380737E-01
          1   -1    0    0  501    0  0.00000000000E+00  0.00000000000E+00  0.10457278509E+04  0.10457278509E+04  0.00000000000E+00 0. -1.
         -1   -1    0    0    0  501 -0.00000000000E+00 -0.00000000000E+00 -0.93481166053E+03  0.93481166053E+03  0.00000000000E+00 0.  1.
         23    2    1    2    0    0  0.70867560960E+03 -0.50092480010E+03 -0.16940670396E+03  0.88879243002E+03  0.90036533161E+02 0.  0.
    5000000    2    1    2    0    0 -0.70867560960E+03  0.50092480010E+03  0.28032289430E+03  0.10917470814E+04  0.60015330512E+03 0.  0.
         23    2    4    4    0    0 -0.67025285982E+03  0.21303810408E+03  0.52073146234E+02  0.71128169910E+03  0.92660202012E+02 0.  0.
         23    2    4    4    0    0 -0.38422749789E+02  0.28788669602E+03  0.22824974807E+03  0.38046538229E+03  0.91109287017E+02 0.  0.
          1    1    3    3  502    0  0.46736810652E+03 -0.30692027787E+03 -0.14820009497E+03  0.57844297222E+03  0.00000000000E+00 0. -1.
         -1    1    3    3    0  502  0.24130750308E+03 -0.19400452223E+03 -0.21206608991E+02  0.31034945779E+03  0.00000000000E+00 0.  1.
         13    1    5    5    0    0 -0.24772763198E+03  0.11702086966E+03  0.46848037991E+02  0.27795251797E+03  0.00000000000E+00 0. -1.
        -13    1    5    5    0    0 -0.42252522783E+03  0.96017234419E+02  0.52251082429E+01  0.43332918113E+03  0.00000000000E+00 0.  1.
          1    1    6    6  503    0 -0.37637119235E+02  0.68666072484E+02  0.26866628478E+02  0.82785252192E+02  0.00000000000E+00 0. -1.
         -1    1    6    6    0  503 -0.78563055380E+00  0.21922062353E+03  0.20138311959E+03  0.29768013010E+03  0.00000000000E+00 0.  1.
<mgrwt>
<rscale>  0 0.93678009E+03</rscale>
<asrwt>0</asrwt>
<pdfrwt beam="1">  1        1 0.16088121E+00 0.93678009E+03</pdfrwt>
<pdfrwt beam="2">  1       -1 0.14381718E+00 0.93678009E+03</pdfrwt>
<totfact> 0.55002099E+00</totfact>
</mgrwt>
</event>
<event>
12    1  0.1418317E-007  0.3294701E+03  0.7818608E-02  0.1071372E+00
         -2   -1    0    0    0  501 -0.00000000000E+00  0.00000000000E+00  0.13652470391E+03  0.13652470391E+03  0.00000000000E+00 0.  1.
          2   -1    0    0  501    0  0.00000000000E+00 -0.00000000000E+00 -0.30079725817E+04  0.30079725817E+04  0.00000000000E+00 0. -1.
         23    2    1    2    0    0  0.21439638882E+03  0.85953472192E+02 -0.52988755213E+02  0.25364309641E+03  0.90405758960E+02 0.  0.
    5000000    2    1    2    0    0 -0.21439638882E+03 -0.85953472192E+02 -0.28184591226E+04  0.28908541892E+04  0.59997692180E+03 0.  0.
         23    2    4    4    0    0 -0.30517602067E+03 -0.52237734877E+02 -0.26813732657E+04  0.27005783475E+04  0.86600441732E+02 0.  0.
         23    2    4    4    0    0  0.90779631842E+02 -0.33715737316E+02 -0.13708585690E+03  0.19027584172E+03  0.89636327897E+02 0.  0.
          4    1    3    3  502    0  0.12557998872E+03  0.95647042385E+02 -0.43845814969E+02  0.16383267615E+03  0.00000000000E+00 0. -1.
         -4    1    3    3    0  502  0.88816400107E+02 -0.96935701922E+01 -0.91429402438E+01  0.89810420260E+02  0.00000000000E+00 0.  1.
         11    1    5    5    0    0 -0.24568560188E+03 -0.56182249350E+02 -0.18527518126E+04  0.18698147339E+04  0.00000000000E+00 0. -1.
        -11    1    5    5    0    0 -0.59490418781E+02  0.39445144731E+01 -0.82862145309E+03  0.83076361358E+03  0.00000000000E+00 0.  1.
          4    1    6    6  503    0  0.37630466502E+02 -0.92730751504E+00  0.21224740090E+01  0.37701681717E+02  0.00000000000E+00 0. -1.
         -4    1    6    6    0  503  0.53149165341E+02 -0.32788429801E+02 -0.13920833091E+03  0.15257416000E+03  0.00000000000E+00 0.  1.
<mgrwt>
<rscale>  0 0.32947005E+03</rscale>
<asrwt>0</asrwt>
<pdfrwt beam="1">  1        2 0.46276503E+00 0.32947005E+03</pdfrwt>
<pdfrwt beam="2">  1       -2 0.21003800E-01 0.32947005E+03</pdfrwt>
<totfact> 0.39189671E+01</totfact>
</mgrwt>
</event>
<event>
12    1  0.1418317E-007  0.4566264E+03  0.7818608E-02  0.1025764E+00
         -1   -1    0    0    0  501 -0.00000000000E+00  0.00000000000E+00  0.25024966340E+03  0.25024966340E+03  0.00000000000E+00 0.  1.
          1   -1    0    0  501    0  0.00000000000E+00 -0.00000000000E+00 -0.92399125222E+03  0.92399125222E+03  0.00000000000E+00 0. -1.
         23    2    1    2    0    0 -0.26787744734E+03  0.16984059342E+02 -0.32059104070E+03  0.42806859253E+03  0.91745950715E+02 0.  0.
    5000000    2    1    2    0    0  0.26787744734E+03 -0.16984059342E+02 -0.35315054812E+03  0.74617232309E+03  0.60000920080E+03 0.  0.
         23    2    4    4    0    0  0.32814980040E+03 -0.21919215112E+03 -0.12724538089E+03  0.42369970813E+03  0.87192689492E+02 0.  0.
         23    2    4    4    0    0 -0.60272353054E+02  0.20220809178E+03 -0.22590516723E+03  0.32247261496E+03  0.91839936276E+02 0.  0.
          3    1    3    3  502    0 -0.15558123539E+03 -0.33077633197E+02 -0.15769170171E+03  0.22397839943E+03  0.00000000000E+00 0. -1.
         -3    1    3    3    0  502 -0.11229621196E+03  0.50061692539E+02 -0.16289933899E+03  0.20409019311E+03  0.00000000000E+00 0.  1.
         11    1    5    5    0    0  0.24914112189E+02 -0.46411846945E+02 -0.33124460733E+02  0.62225416205E+02  0.00000000000E+00 0. -1.
        -11    1    5    5    0    0  0.30323568821E+03 -0.17278030417E+03 -0.94120920160E+02  0.36147429193E+03  0.00000000000E+00 0.  1.
          3    1    6    6  503    0 -0.71990563083E+02  0.83380430818E+02 -0.11963553032E+03  0.16262717341E+03  0.00000000000E+00 0. -1.
         -3    1    6    6    0  503  0.11718210029E+02  0.11882766096E+03 -0.10626963691E+03  0.15984544155E+03  0.00000000000E+00 0.  1.
<mgrwt>
<rscale>  0 0.45662637E+03</rscale>
<asrwt>0</asrwt>
<pdfrwt beam="1">  1        1 0.14215250E+00 0.45662637E+03</pdfrwt>
<pdfrwt beam="2">  1       -1 0.38499947E-01 0.45662637E+03</pdfrwt>
<totfact> 0.11888584E+02</totfact>
</mgrwt>
</event>
<event>
12    1  0.1418317E-007  0.5199088E+03  0.7818608E-02  0.1008709E+00
          2   -1    0    0  501    0  0.00000000000E+00  0.00000000000E+00  0.28964010733E+04  0.28964010733E+04  0.00000000000E+00 0.  1.
         -2   -1    0    0    0  501 -0.00000000000E+00 -0.00000000000E+00 -0.13406894450E+03  0.13406894450E+03  0.00000000000E+00 0. -1.
         23    2    1    2    0    0 -0.36675525337E+03  0.29555730627E+03  0.95509367721E+03  0.10689172321E+04  0.92285316116E+02 0.  0.
    5000000    2    1    2    0    0  0.36675525337E+03 -0.29555730627E+03  0.18072384516E+04  0.19615527858E+04  0.59976243064E+03 0.  0.
         23    2    4    4    0    0  0.25468872579E+02  0.25963133187E+02  0.11227912585E+04  0.11270495735E+04  0.90872345818E+02 0.  0.
         23    2    4    4    0    0  0.34128638080E+03 -0.32152043945E+03  0.68444719310E+03  0.83450321224E+03  0.89865813298E+02 0.  0.
          4    1    3    3  502    0 -0.31318296116E+02  0.11589258497E+02  0.30683780329E+02  0.45350203521E+02  0.00000000000E+00 0. -1.
         -4    1    3    3    0  502 -0.33543695726E+03  0.28396804777E+03  0.92440989688E+03  0.10235670285E+04  0.00000000000E+00 0.  1.
         13    1    5    5    0    0  0.18232077897E+01  0.56889214020E+02  0.55014880865E+03  0.55308536268E+03  0.00000000000E+00 0.  1.
        -13    1    5    5    0    0  0.23645664789E+02 -0.30926080833E+02  0.57264244988E+03  0.57396421085E+03  0.00000000000E+00 0. -1.
          1    1    6    6  503    0  0.31721573354E+03 -0.31274345783E+03  0.60691920975E+03  0.75285139249E+03  0.00000000000E+00 0. -1.
         -1    1    6    6    0  503  0.24070647256E+02 -0.87769816250E+01  0.77527983351E+02  0.81651819749E+02  0.00000000000E+00 0.  1.
<mgrwt>
<rscale>  0 0.51990884E+03</rscale>
<asrwt>0</asrwt>
<pdfrwt beam="1">  1        2 0.44560012E+00 0.51990884E+03</pdfrwt>
<pdfrwt beam="2">  1       -2 0.20625994E-01 0.51990884E+03</pdfrwt>
<totfact> 0.44735917E+01</totfact>
</mgrwt>
</event>
<event>
12    1  0.1418317E-007  0.1208083E+04  0.7818608E-02  0.9105811E-01
          2   -1    0    0  501    0  0.00000000000E+00  0.00000000000E+00  0.11581343609E+04  0.11581343609E+04  0.00000000000E+00 0. -1.
         -2   -1    0    0    0  501 -0.00000000000E+00 -0.00000000000E+00 -0.15156897845E+04  0.15156897845E+04  0.00000000000E+00 0.  1.
         23    2    1    2    0    0 -0.54390148677E+03 -0.10547546999E+04 -0.58219448686E+03  0.13250192867E+04  0.91593586662E+02 0.  0.
    5000000    2    1    2    0    0  0.54390148677E+03  0.10547546999E+04  0.22463906328E+03  0.13488048587E+04  0.60039614729E+03 0.  0.
         23    2    4    4    0    0  0.51524340316E+03  0.10092497022E+04  0.34514876349E+03  0.11882313455E+04  0.93302387780E+02 0.  0.
         23    2    4    4    0    0  0.28658083610E+02  0.45504997698E+02 -0.12050970021E+03  0.16057351316E+03  0.91483740153E+02 0.  0.
          4    1    3    3  502    0 -0.15729645933E+03 -0.24382938905E+03 -0.11185551022E+03  0.31097685163E+03  0.00000000000E+00 0. -1.
         -4    1    3    3    0  502 -0.38660502744E+03 -0.81092531088E+03 -0.47033897665E+03  0.10140424350E+04  0.00000000000E+00 0.  1.
         11    1    5    5    0    0  0.13733351752E+03  0.33190205230E+03  0.14360167555E+03  0.38683447181E+03  0.00000000000E+00 0.  1.
        -11    1    5    5    0    0  0.37790988564E+03  0.67734764994E+03  0.20154708794E+03  0.80139687371E+03  0.00000000000E+00 0. -1.
          2    1    6    6  503    0 -0.16118058637E+02  0.45241099511E+02 -0.10078819616E+03  0.11164591074E+03  0.00000000000E+00 0. -1.
         -2    1    6    6    0  503  0.44776142247E+02  0.26389818681E+00 -0.19721504045E+02  0.48927602420E+02  0.00000000000E+00 0.  1.
<mgrwt>
<rscale>  0 0.12080829E+04</rscale>
<asrwt>0</asrwt>
<pdfrwt beam="1">  1        2 0.17817452E+00 0.12080829E+04</pdfrwt>
<pdfrwt beam="2">  1       -2 0.23318304E+00 0.12080829E+04</pdfrwt>
<totfact> 0.15921909E+00</totfact>
</mgrwt>
</event>
<event>
12    1  0.1418317E-007  0.9553270E+03  0.7818608E-02  0.9358946E-01
         -1   -1    0    0    0  501 -0.00000000000E+00  0.00000000000E+00  0.10500698468E+04  0.10500698468E+04  0.00000000000E+00 0.  1.
          1   -1    0    0  501    0  0.00000000000E+00 -0.00000000000E+00 -0.13851158824E+04  0.13851158824E+04  0.00000000000E+00 0. -1.
         23    2    1    2    0    0 -0.12219235743E+03  0.87018518562E+03 -0.87278326198E+03  0.12426163153E+04  0.10095273699E+03 0.  0.
    5000000    2    1    2    0    0  0.12219235743E+03 -0.87018518562E+03  0.53773722636E+03  0.11925694140E+04  0.60075556844E+03 0.  0.
         23    2    4    4    0    0  0.14124507748E+03  0.12243277824E+02  0.20510462705E+02  0.16555519241E+03  0.82992607435E+02 0.  0.
         23    2    4    4    0    0 -0.19052720044E+02 -0.88242846345E+03  0.51722676365E+03  0.10270142216E+04  0.90507938846E+02 0.  0.
          1    1    3    3  502    0 -0.11848236847E+03  0.66048567704E+03 -0.71172975597E+03  0.97818129544E+03  0.00000000000E+00 0. -1.
         -1    1    3    3    0  502 -0.37099889613E+01  0.20969950858E+03 -0.16105350601E+03  0.26443501984E+03  0.00000000000E+00 0.  1.
         13    1    5    5    0    0  0.11967457457E+03  0.31454286606E+01  0.48411299146E+02  0.12913385074E+03  0.00000000000E+00 0. -1.
        -13    1    5    5    0    0  0.21570502903E+02  0.90978491638E+01 -0.27900836441E+02  0.36421341670E+02  0.00000000000E+00 0.  1.
          4    1    6    6  503    0 -0.46643045188E+02 -0.29270010820E+03  0.15677799536E+03  0.33530324608E+03  0.00000000000E+00 0. -1.
         -4    1    6    6    0  503  0.27590325143E+02 -0.58972835525E+03  0.36044876830E+03  0.69171097547E+03  0.00000000000E+00 0.  1.
<mgrwt>
<rscale>  0 0.95532704E+03</rscale>
<asrwt>0</asrwt>
<pdfrwt beam="1">  1        1 0.21309475E+00 0.95532704E+03</pdfrwt>
<pdfrwt beam="2">  1       -1 0.16154921E+00 0.95532704E+03</pdfrwt>
<totfact> 0.22635862E+00</totfact>
</mgrwt>
</event>
<event>
12    1  0.1418317E-007  0.6591589E+03  0.7818608E-02  0.9789743E-01
         -2   -1    0    0    0  501 -0.00000000000E+00  0.00000000000E+00  0.49547280969E+03  0.49547280969E+03  0.00000000000E+00 0.  1.
          2   -1    0    0  501    0  0.00000000000E+00 -0.00000000000E+00 -0.10218392257E+04  0.10218392257E+04  0.00000000000E+00 0. -1.
         23    2    1    2    0    0  0.30890866374E+03 -0.47763616861E+03 -0.34369103830E+03  0.67063651168E+03  0.89827216870E+02 0.  0.
    5000000    2    1    2    0    0 -0.30890866374E+03  0.47763616861E+03 -0.18267537768E+03  0.84667552369E+03  0.59994022761E+03 0.  0.
         23    2    4    4    0    0 -0.30647921681E+03  0.66315272860E+02 -0.26132628192E+03  0.41831454916E+03  0.91479017649E+02 0.  0.
         23    2    4    4    0    0 -0.24294469327E+01  0.41132089575E+03  0.78650904231E+02  0.42836097453E+03  0.90090944433E+02 0.  0.
          2    1    3    3  502    0  0.28404947818E+03 -0.39505244189E+03 -0.26586080853E+03  0.55446596596E+03  0.00000000000E+00 0.  1.
         -2    1    3    3    0  502  0.24859185555E+02 -0.82583726720E+02 -0.77830229773E+02  0.11617054572E+03  0.00000000000E+00 0. -1.
         11    1    5    5    0    0 -0.12993363671E+03 -0.16541611402E+02 -0.92277807755E+02  0.16022349597E+03  0.00000000000E+00 0.  1.
        -11    1    5    5    0    0 -0.17654558010E+03  0.82856884262E+02 -0.16904847416E+03  0.25809105319E+03  0.00000000000E+00 0. -1.
          1    1    6    6  503    0  0.29684352804E+02  0.62371730294E+02 -0.64133225188E+00  0.69078251630E+02  0.00000000000E+00 0. -1.
         -1    1    6    6    0  503 -0.32113799737E+02  0.34894916546E+03  0.79292236483E+02  0.35928272290E+03  0.00000000000E+00 0.  1.
<mgrwt>
<rscale>  0 0.65915888E+03</rscale>
<asrwt>0</asrwt>
<pdfrwt beam="1">  1        2 0.15720603E+00 0.65915888E+03</pdfrwt>
<pdfrwt beam="2">  1       -2 0.76226587E-01 0.65915888E+03</pdfrwt>
<totfact> 0.38517177E+01</totfact>
</mgrwt>
</event>
<event>
12    1  0.1418317E-007  0.9669017E+03  0.7818608E-02  0.9345610E-01
         -2   -1    0    0    0  501 -0.00000000000E+00  0.00000000000E+00  0.79860404906E+03  0.79860404906E+03  0.00000000000E+00 0.  1.
          2   -1    0    0  501    0  0.00000000000E+00 -0.00000000000E+00 -0.19173467372E+04  0.19173467372E+04  0.00000000000E+00 0. -1.
         23    2    1    2    0    0 -0.81198994762E+03  0.47391840370E+03 -0.12779965408E+04  0.15892628336E+04  0.92492526521E+02 0.  0.
    5000000    2    1    2    0    0  0.81198994762E+03 -0.47391840370E+03  0.15925385265E+03  0.11266879527E+04  0.60011467635E+03 0.  0.
         23    2    4    4    0    0  0.46715838719E+03 -0.93594263010E+02  0.31979884076E+03  0.58101487217E+03  0.91159960206E+02 0.  0.
         23    2    4    4    0    0  0.34483156044E+03 -0.38032414069E+03 -0.16054498810E+03  0.54567308053E+03  0.91810459922E+02 0.  0.
          1    1    3    3  502    0 -0.44361676662E+03  0.21572720044E+03 -0.62248553659E+03  0.79424322717E+03  0.00000000000E+00 0. -1.
         -1    1    3    3    0  502 -0.36837318100E+03  0.25819120326E+03 -0.65551100425E+03  0.79501960643E+03  0.00000000000E+00 0.  1.
         11    1    5    5    0    0  0.43000993093E+03 -0.78439952396E+02  0.31856680572E+03  0.54087537986E+03  0.00000000000E+00 0.  1.
        -11    1    5    5    0    0  0.37148456255E+02 -0.15154310614E+02  0.12320350326E+01  0.40139492307E+02  0.00000000000E+00 0. -1.
          2    1    6    6  503    0  0.21363616852E+03 -0.22966180915E+03 -0.14421404697E+03  0.34522840327E+03  0.00000000000E+00 0. -1.
         -2    1    6    6    0  503  0.13119539191E+03 -0.15066233154E+03 -0.16330941134E+02  0.20044467726E+03  0.00000000000E+00 0.  1.
<mgrwt>
<rscale>  0 0.96690171E+03</rscale>
<asrwt>0</asrwt>
<pdfrwt beam="1">  1        2 0.29497642E+00 0.96690171E+03</pdfrwt>
<pdfrwt beam="2">  1       -2 0.12286216E+00 0.96690171E+03</pdfrwt>
<totfact> 0.37259627E+00</totfact>
</mgrwt>
</event>
<event>
12    1  0.1418317E-007  0.4521776E+03  0.7818608E-02  0.1027075E+00
          2   -1    0    0  501    0  0.00000000000E+00  0.00000000000E+00  0.78108570110E+03  0.78108570110E+03  0.00000000000E+00 0. -1.
         -2   -1    0    0    0  501 -0.00000000000E+00 -0.00000000000E+00 -0.32164210089E+03  0.32164210089E+03  0.00000000000E+00 0.  1.
         23    2    1    2    0    0 -0.24190864256E+03  0.18675292037E+03  0.22179831981E+03  0.38875967016E+03  0.92429118048E+02 0.  0.
    5000000    2    1    2    0    0  0.24190864256E+03 -0.18675292037E+03  0.23764528040E+03  0.71396813183E+03  0.59989896595E+03 0.  0.
         23    2    4    4    0    0  0.32264528006E+03  0.44364537763E+02 -0.28182224332E+02  0.33970656410E+03  0.92401964112E+02 0.  0.
         23    2    4    4    0    0 -0.80736637496E+02 -0.23111745814E+03  0.26582750474E+03  0.37426156772E+03  0.97333317573E+02 0.  0.
          1    1    3    3  502    0 -0.95155084395E+02  0.38972880596E+02  0.33936841301E+02  0.10828243027E+03  0.00000000000E+00 0. -1.
         -1    1    3    3    0  502 -0.14675355817E+03  0.14778003978E+03  0.18786147851E+03  0.28047723989E+03  0.00000000000E+00 0.  1.
         13    1    5    5    0    0  0.77725115430E+02  0.38058794302E+02  0.22715207765E+02  0.89474275947E+02  0.00000000000E+00 0. -1.
        -13    1    5    5    0    0  0.24492016463E+03  0.63057434607E+01 -0.50897432097E+02  0.25023228816E+03  0.00000000000E+00 0.  1.
          4    1    6    6  503    0 -0.58220385482E+01 -0.15432532693E+03  0.13544107539E+03  0.20541296836E+03  0.00000000000E+00 0.  1.
         -4    1    6    6    0  503 -0.74914598948E+02 -0.76792131203E+02  0.13038642934E+03  0.16884859936E+03  0.00000000000E+00 0. -1.
<mgrwt>
<rscale>  0 0.45217762E+03</rscale>
<asrwt>0</asrwt>
<pdfrwt beam="1">  1        2 0.12016703E+00 0.45217762E+03</pdfrwt>
<pdfrwt beam="2">  1       -2 0.49483400E-01 0.45217762E+03</pdfrwt>
<totfact> 0.14204372E+02</totfact>
</mgrwt>
</event>
<event>
12    1  0.1418317E-007  0.8044163E+03  0.7818608E-02  0.9553647E-01
         -1   -1    0    0    0  501 -0.00000000000E+00  0.00000000000E+00  0.38943076133E+03  0.38943076133E+03  0.00000000000E+00 0.  1.
          1   -1    0    0  501    0  0.00000000000E+00 -0.00000000000E+00 -0.19311523804E+04  0.19311523804E+04  0.00000000000E+00 0. -1.
         23    2    1    2    0    0  0.79865754773E+02  0.75488705051E+03 -0.74432520648E+03  0.10668444095E+04  0.88904348514E+02 0.  0.
    5000000    2    1    2    0    0 -0.79865754773E+02 -0.75488705051E+03 -0.79739641263E+03  0.12537387323E+04  0.59982228383E+03 0.  0.
         23    2    4    4    0    0  0.99910882998E+02 -0.52950661864E+03 -0.19561582330E+03  0.58005052505E+03  0.88507726009E+02 0.  0.
         23    2    4    4    0    0 -0.17977663777E+03 -0.22538043187E+03 -0.60178058932E+03  0.67368820725E+03  0.92735884845E+02 0.  0.
          4    1    3    3  502    0  0.63468455990E+02  0.32264445713E+03 -0.36789884763E+03  0.49343414223E+03  0.00000000000E+00 0. -1.
         -4    1    3    3    0  502  0.16397298783E+02  0.43224259338E+03 -0.37642635885E+03  0.57341026724E+03  0.00000000000E+00 0.  1.
         13    1    5    5    0    0 -0.36160932435E+00 -0.21950037084E+03 -0.63884174268E+02  0.22860824850E+03  0.00000000000E+00 0. -1.
        -13    1    5    5    0    0  0.10027249232E+03 -0.31000624779E+03 -0.13173164904E+03  0.35144227655E+03  0.00000000000E+00 0.  1.
          3    1    6    6  503    0 -0.15078126696E+03 -0.22764023092E+03 -0.55641584144E+03  0.61980130187E+03  0.00000000000E+00 0. -1.
         -3    1    6    6    0  503 -0.28995370812E+02  0.22597990449E+01 -0.45364747880E+02  0.53886905371E+02  0.00000000000E+00 0.  1.
<mgrwt>
<rscale>  0 0.80441630E+03</rscale>
<asrwt>0</asrwt>
<pdfrwt beam="1">  1        1 0.29710036E+00 0.80441630E+03</pdfrwt>
<pdfrwt beam="2">  1       -1 0.59912426E-01 0.80441630E+03</pdfrwt>
<totfact> 0.97150292E+00</totfact>
</mgrwt>
</event>
<event>
12    1  0.1418317E-007  0.1085526E+04  0.7818608E-02  0.9219416E-01
          2   -1    0    0  501    0  0.00000000000E+00  0.00000000000E+00  0.43866245872E+04  0.43866245872E+04  0.00000000000E+00 0.  1.
         -2   -1    0    0    0  501 -0.00000000000E+00 -0.00000000000E+00 -0.32101137182E+03  0.32101137182E+03  0.00000000000E+00 0. -1.
         23    2    1    2    0    0 -0.69748766141E+03  0.81812985175E+03  0.24435031407E+04  0.26711751801E+04  0.92971780515E+02 0.  0.
    5000000    2    1    2    0    0  0.69748766141E+03 -0.81812985175E+03  0.16221100747E+04  0.20364607789E+04  0.60008825818E+03 0.  0.
         23    2    4    4    0    0  0.56371986037E+03 -0.76346739960E+03  0.96135983459E+03  0.13537201898E+04  0.87653120684E+02 0.  0.
         23    2    4    4    0    0  0.13376780104E+03 -0.54662452149E+02  0.66075024008E+03  0.68274058909E+03  0.93069994936E+02 0.  0.
          2    1    3    3  502    0 -0.38887613591E+03  0.44044495751E+03  0.12225912988E+04  0.13564460525E+04  0.00000000000E+00 0. -1.
         -2    1    3    3    0  502 -0.30861152550E+03  0.37768489424E+03  0.12209118420E+04  0.13147291276E+04  0.00000000000E+00 0.  1.
         13    1    5    5    0    0  0.17621412088E+03 -0.26162016592E+03  0.37596745099E+03  0.49076272456E+03  0.00000000000E+00 0.  1.
        -13    1    5    5    0    0  0.38750573949E+03 -0.50184723368E+03  0.58539238360E+03  0.86295746527E+03  0.00000000000E+00 0. -1.
          2    1    6    6  503    0  0.43111372459E+02 -0.63925368781E+01  0.40194281981E+03  0.40429875755E+03  0.00000000000E+00 0. -1.
         -2    1    6    6    0  503  0.90656428580E+02 -0.48269915270E+02  0.25880742027E+03  0.27844183154E+03  0.00000000000E+00 0.  1.
<mgrwt>
<rscale>  0 0.10855255E+04</rscale>
<asrwt>0</asrwt>
<pdfrwt beam="1">  1        2 0.67486528E+00 0.10855255E+04</pdfrwt>
<pdfrwt beam="2">  1       -2 0.49386368E-01 0.10855255E+04</pdfrwt>
<totfact> 0.64608089E-01</totfact>
</mgrwt>
</event>
<event>
12    1  0.1418317E-007  0.8131532E+03  0.7818608E-02  0.9541171E-01
          1   -1    0    0  501    0  0.00000000000E+00  0.00000000000E+00  0.22537413397E+04  0.22537413397E+04  0.00000000000E+00 0. -1.
         -1   -1    0    0    0  501 -0.00000000000E+00 -0.00000000000E+00 -0.31199475352E+03  0.31199475352E+03  0.00000000000E+00 0.  1.
         23    2    1    2    0    0 -0.71535026506E+03  0.11839525190E+03  0.95096738757E+03  0.11992426234E+04  0.90002556792E+02 0.  0.
    5000000    2    1    2    0    0  0.71535026506E+03 -0.11839525190E+03  0.99077919865E+03  0.13664934698E+04  0.59993128376E+03 0.  0.
         23    2    4    4    0    0 -0.18040885943E+02  0.99860906754E+02  0.30959907977E+03  0.33817292973E+03  0.90618242894E+02 0.  0.
         23    2    4    4    0    0  0.73339115100E+03 -0.21825615866E+03  0.68118011888E+03  0.10283205401E+04  0.89097966762E+02 0.  0.
          3    1    3    3  502    0 -0.52648014238E+03  0.90013787698E+02  0.76213377927E+03  0.93066197935E+03  0.00000000000E+00 0. -1.
         -3    1    3    3    0  502 -0.18887012268E+03  0.28381464206E+02  0.18883360830E+03  0.26858064408E+03  0.00000000000E+00 0.  1.
         13    1    5    5    0    0  0.21980523322E+02  0.92166458638E+02  0.20213525895E+03  0.22324081709E+03  0.00000000000E+00 0. -1.
        -13    1    5    5    0    0 -0.40021409265E+02  0.76944481161E+01  0.10746382082E+03  0.11493211264E+03  0.00000000000E+00 0.  1.
          1    1    6    6  503    0  0.67549433300E+03 -0.20878066855E+03  0.65599986927E+03  0.96447798833E+03  0.00000000000E+00 0. -1.
         -1    1    6    6    0  503  0.57896817999E+02 -0.94754901069E+01  0.25180249608E+02  0.63842551777E+02  0.00000000000E+00 0.  1.
<mgrwt>
<rscale>  0 0.81315316E+03</rscale>
<asrwt>0</asrwt>
<pdfrwt beam="1">  1        1 0.34672943E+00 0.81315316E+03</pdfrwt>
<pdfrwt beam="2">  1       -1 0.47999194E-01 0.81315316E+03</pdfrwt>
<totfact> 0.90323281E+00</totfact>
</mgrwt>
</event>
<event>
12    1  0.1418317E-007  0.1082385E+04  0.7818608E-02  0.9222533E-01
         -2   -1    0    0    0  501 -0.00000000000E+00  0.00000000000E+00  0.75301406445E+03  0.75301406445E+03  0.00000000000E+00 0.  1.
          2   -1    0    0  501    0  0.00000000000E+00 -0.00000000000E+00 -0.17318148733E+04  0.17318148733E+04  0.00000000000E+00 0. -1.
         23    2    1    2    0    0  0.82206244276E+03  0.67124666986E+03 -0.42217161069E+03  0.11445953688E+04  0.74235690447E+02 0.  0.
    5000000    2    1    2    0    0 -0.82206244276E+03 -0.67124666986E+03 -0.55662919819E+03  0.13402335690E+04  0.60002600246E+03 0.  0.
         23    2    4    4    0    0 -0.56212904089E+03 -0.59402648099E+03 -0.13840582538E+03  0.83392715356E+03  0.86149905461E+02 0.  0.
         23    2    4    4    0    0 -0.25993340187E+03 -0.77220188871E+02 -0.41822337281E+03  0.50630641545E+03  0.88921683445E+02 0.  0.
          3    1    3    3  502    0  0.42423157733E+03  0.38836297587E+03 -0.24734374452E+03  0.62608079365E+03  0.00000000000E+00 0. -1.
         -3    1    3    3    0  502  0.39783086544E+03  0.28288369400E+03 -0.17482786617E+03  0.51851457512E+03  0.00000000000E+00 0.  1.
         13    1    5    5    0    0 -0.50571709057E+03 -0.51121151295E+03 -0.97381721175E+02  0.72565155983E+03  0.00000000000E+00 0. -1.
        -13    1    5    5    0    0 -0.56411950319E+02 -0.82814968045E+02 -0.41024104210E+02  0.10827559373E+03  0.00000000000E+00 0.  1.
          3    1    6    6  503    0 -0.18218705975E+03 -0.15379847033E+02 -0.23350168965E+03  0.29656652458E+03  0.00000000000E+00 0. -1.
         -3    1    6    6    0  503 -0.77746342124E+02 -0.61840341838E+02 -0.18472168316E+03  0.20973989087E+03  0.00000000000E+00 0.  1.
<mgrwt>
<rscale>  0 0.10823849E+04</rscale>
<asrwt>0</asrwt>
<pdfrwt beam="1">  1        2 0.26643305E+00 0.10823849E+04</pdfrwt>
<pdfrwt beam="2">  1       -2 0.11584832E+00 0.10823849E+04</pdfrwt>
<totfact> 0.53831344E+00</totfact>
</mgrwt>
</event>
<event>
12    1  0.1418317E-007  0.1142459E+04  0.7818608E-02  0.9164768E-01
          2   -1    0    0  501    0  0.00000000000E+00  0.00000000000E+00  0.13203854246E+04  0.13203854246E+04  0.00000000000E+00 0. -1.
         -2   -1    0    0    0  501 -0.00000000000E+00 -0.00000000000E+00 -0.10348022404E+04  0.10348022404E+04  0.00000000000E+00 0.  1.
         23    2    1    2    0    0  0.83768265564E+03  0.66484009418E+03  0.34477114889E+03  0.11274788778E+04  0.92827217461E+02 0.  0.
    5000000    2    1    2    0    0 -0.83768265564E+03 -0.66484009418E+03 -0.59187964653E+02  0.12277087872E+04  0.60003422293E+03 0.  0.
         23    2    4    4    0    0 -0.32477728942E+03  0.50252607387E+02 -0.19745354436E+02  0.34187101062E+03  0.92088525932E+02 0.  0.
         23    2    4    4    0    0 -0.51290536622E+03 -0.71509270157E+03 -0.39442610216E+02  0.88583777661E+03  0.93398931687E+02 0.  0.
          1    1    3    3  502    0  0.19500564784E+03  0.20651683974E+03  0.97033259434E+02  0.30015306299E+03  0.00000000000E+00 0. -1.
         -1    1    3    3    0  502  0.64267700780E+03  0.45832325444E+03  0.24773788946E+03  0.82732581477E+03  0.00000000000E+00 0.  1.
         13    1    5    5    0    0 -0.18407697093E+03  0.13978717249E+02 -0.54475983709E+02  0.19247692995E+03  0.00000000000E+00 0. -1.
        -13    1    5    5    0    0 -0.14070031849E+03  0.36273890138E+02  0.34730629273E+02  0.14939408067E+03  0.00000000000E+00 0.  1.
          1    1    6    6  503    0 -0.22439191952E+03 -0.26835606768E+03 -0.53346123963E+02  0.35385381381E+03  0.00000000000E+00 0. -1.
         -1    1    6    6    0  503 -0.28851344670E+03 -0.44673663388E+03  0.13903513747E+02  0.53198396280E+03  0.00000000000E+00 0.  1.
<mgrwt>
<rscale>  0 0.11424593E+04</rscale>
<asrwt>0</asrwt>
<pdfrwt beam="1">  1        2 0.20313622E+00 0.11424593E+04</pdfrwt>
<pdfrwt beam="2">  1       -2 0.15920034E+00 0.11424593E+04</pdfrwt>
<totfact> 0.40134052E+00</totfact>
</mgrwt>
</event>
<event>
12    1  0.1418317E-007  0.5111684E+03  0.7818608E-02  0.1010904E+00
         -2   -1    0    0    0  501 -0.00000000000E+00  0.00000000000E+00  0.40082683003E+03  0.40082683003E+03  0.00000000000E+00 0.  1.
          2   -1    0    0  501    0  0.00000000000E+00 -0.00000000000E+00 -0.71154288695E+03  0.71154288695E+03  0.00000000000E+00 0. -1.
         23    2    1    2    0    0  0.21265176422E+03 -0.27285052783E+03 -0.20422864194E+03  0.41169269909E+03  0.90074174603E+02 0.  0.
    5000000    2    1    2    0    0 -0.21265176422E+03  0.27285052783E+03 -0.10648741498E+03  0.70067701789E+03  0.59995044003E+03 0.  0.
         23    2    4    4    0    0 -0.65220480861E+02 -0.17502213562E+03  0.47601340301E+01  0.20794858513E+03  0.91287984437E+02 0.  0.
         23    2    4    4    0    0 -0.14743128336E+03  0.44787266345E+03 -0.11124754901E+03  0.49272843276E+03  0.89885400990E+02 0.  0.
          3    1    3    3  502    0  0.87978029752E+02 -0.11357035974E+03 -0.13707653957E+03  0.19856570205E+03  0.00000000000E+00 0. -1.
         -3    1    3    3    0  502  0.12467373447E+03 -0.15928016809E+03 -0.67152102366E+02  0.21312699704E+03  0.00000000000E+00 0.  1.
         13    1    5    5    0    0 -0.17634427262E+02 -0.14958023410E+03  0.19848647060E+02  0.15191836047E+03  0.00000000000E+00 0.  1.
        -13    1    5    5    0    0 -0.47586053599E+02 -0.25441901516E+02 -0.15088513029E+02  0.56030224658E+02  0.00000000000E+00 0. -1.
          2    1    6    6  503    0 -0.90867954176E+02  0.24873706702E+03 -0.10715928090E+03  0.28567503407E+03  0.00000000000E+00 0. -1.
         -2    1    6    6    0  503 -0.56563329185E+02  0.19913559643E+03 -0.40882681021E+01  0.20705339869E+03  0.00000000000E+00 0.  1.
<mgrwt>
<rscale>  0 0.51116837E+03</rscale>
<asrwt>0</asrwt>
<pdfrwt beam="1">  1        2 0.10946814E+00 0.51116837E+03</pdfrwt>
<pdfrwt beam="2">  1       -2 0.61665666E-01 0.51116837E+03</pdfrwt>
<totfact> 0.10101170E+02</totfact>
</mgrwt>
</event>
<event>
12    1  0.1418317E-007  0.1473998E+04  0.7818608E-02  0.8901930E-01
          2   -1    0    0  501    0  0.00000000000E+00  0.00000000000E+00  0.15849450286E+04  0.15849450286E+04  0.00000000000E+00 0. -1.
         -2   -1    0    0    0  501 -0.00000000000E+00 -0.00000000000E+00 -0.16116999601E+04  0.16116999601E+04  0.00000000000E+00 0.  1.
         23    2    1    2    0    0  0.67349028668E+03  0.12865963872E+04  0.50151809262E+03  0.15389606649E+04  0.89219399796E+02 0.  0.
    5000000    2    1    2    0    0 -0.67349028668E+03 -0.12865963872E+04 -0.52827302405E+03  0.16576843237E+04  0.59993791301E+03 0.  0.
         23    2    4    4    0    0 -0.62197741787E+02 -0.39929389038E+03  0.72473193524E+02  0.41995214382E+03  0.88336115690E+02 0.  0.
         23    2    4    4    0    0 -0.61129254489E+03 -0.88730249678E+03 -0.60074621758E+03  0.12377321799E+04  0.10050191551E+03 0.  0.
          3    1    3    3  502    0  0.16486075314E+03  0.32088931679E+03  0.16575767833E+03  0.39701968400E+03  0.00000000000E+00 0. -1.
         -3    1    3    3    0  502  0.50862953354E+03  0.96570707037E+03  0.33576041429E+03  0.11419409809E+04  0.00000000000E+00 0.  1.
         11    1    5    5    0    0 -0.50408374393E+00 -0.27391062635E+03  0.47561098142E+02  0.27800961024E+03  0.00000000000E+00 0.  1.
        -11    1    5    5    0    0 -0.61693658043E+02 -0.12538326403E+03  0.24912095381E+02  0.14194253358E+03  0.00000000000E+00 0. -1.
          4    1    6    6  503    0 -0.16717959644E+03 -0.32603842303E+03 -0.19800193598E+03  0.41647909601E+03  0.00000000000E+00 0. -1.
         -4    1    6    6    0  503 -0.44411294845E+03 -0.56126407375E+03 -0.40274428160E+03  0.82125308391E+03  0.00000000000E+00 0.  1.
<mgrwt>
<rscale>  0 0.14739984E+04</rscale>
<asrwt>0</asrwt>
<pdfrwt beam="1">  1        2 0.24383770E+00 0.14739984E+04</pdfrwt>
<pdfrwt beam="2">  1       -2 0.24795384E+00 0.14739984E+04</pdfrwt>
<totfact> 0.70872893E-01</totfact>
</mgrwt>
</event>
<event>
12    1  0.1418317E-007  0.9784240E+03  0.7818608E-02  0.9332531E-01
          1   -1    0    0  501    0  0.00000000000E+00  0.00000000000E+00  0.23186102787E+04  0.23186102787E+04  0.00000000000E+00 0. -1.
         -1   -1    0    0    0  501 -0.00000000000E+00 -0.00000000000E+00 -0.51889138169E+03  0.51889138169E+03  0.00000000000E+00 0.  1.
         23    2    1    2    0    0 -0.57587481313E+03  0.69894870023E+03  0.24818158104E+03  0.94342966404E+03  0.91128194682E+02 0.  0.
    5000000    2    1    2    0    0  0.57587481313E+03 -0.69894870023E+03  0.15515373159E+04  0.18940719963E+04  0.60006632848E+03 0.  0.
         23    2    4    4    0    0  0.56611319807E+03 -0.75122621049E+03  0.12017320706E+04  0.15288338246E+04  0.91366959182E+02 0.  0.
         23    2    4    4    0    0  0.97616150607E+01  0.52277510257E+02  0.34980524533E+03  0.36523817177E+03  0.90592412762E+02 0.  0.
          1    1    3    3  502    0 -0.25468113951E+03  0.27446372784E+03  0.14316548708E+03  0.40086054609E+03  0.00000000000E+00 0. -1.
         -1    1    3    3    0  502 -0.32119367362E+03  0.42448497239E+03  0.10501609397E+03  0.54256911795E+03  0.00000000000E+00 0.  1.
         11    1    5    5    0    0  0.36548474871E+03 -0.41019028270E+03  0.70202940095E+03  0.89144851190E+03  0.00000000000E+00 0.  1.
        -11    1    5    5    0    0  0.20062844936E+03 -0.34103592779E+03  0.49970266965E+03  0.63738531266E+03  0.00000000000E+00 0. -1.
          1    1    6    6  503    0  0.50169690604E+02  0.34585751052E+02  0.20386811046E+03  0.21278011771E+03  0.00000000000E+00 0.  1.
         -1    1    6    6    0  503 -0.40408075543E+02  0.17691759205E+02  0.14593713487E+03  0.15245805405E+03  0.00000000000E+00 0. -1.
<mgrwt>
<rscale>  0 0.97842397E+03</rscale>
<asrwt>0</asrwt>
<pdfrwt beam="1">  1        1 0.35670927E+00 0.97842397E+03</pdfrwt>
<pdfrwt beam="2">  1       -1 0.79829445E-01 0.97842397E+03</pdfrwt>
<totfact> 0.28859940E+00</totfact>
</mgrwt>
</event>
<event>
12    1  0.1418317E-007  0.1819637E+04  0.7818608E-02  0.8695926E-01
          2   -1    0    0  501    0  0.00000000000E+00  0.00000000000E+00  0.23102123112E+04  0.23102123112E+04  0.00000000000E+00 0. -1.
         -2   -1    0    0    0  501 -0.00000000000E+00 -0.00000000000E+00 -0.15279874647E+04  0.15279874647E+04  0.00000000000E+00 0.  1.
         23    2    1    2    0    0  0.14176231797E+04  0.11243882168E+04  0.10288795143E+03  0.18145910051E+04  0.90830851036E+02 0.  0.
    5000000    2    1    2    0    0 -0.14176231797E+04 -0.11243882168E+04  0.67933689508E+03  0.20236087709E+04  0.59965781822E+03 0.  0.
         23    2    4    4    0    0 -0.42161528155E+02 -0.94022755571E+02  0.19065584793E+03  0.23453796101E+03  0.89669001236E+02 0.  0.
         23    2    4    4    0    0 -0.13754616515E+04 -0.10303654612E+04  0.48868104715E+03  0.17890708099E+04  0.91746707935E+02 0.  0.
          3    1    3    3  502    0  0.75235875532E+03  0.63417608764E+03  0.21417199509E+02  0.98421628886E+03  0.00000000000E+00 0. -1.
         -3    1    3    3    0  502  0.66526442434E+03  0.49021212918E+03  0.81470751920E+02  0.83037471620E+03  0.00000000000E+00 0.  1.
         13    1    5    5    0    0  0.53114579748E+00 -0.44659339894E+02  0.15257223729E+03  0.15897492364E+03  0.00000000000E+00 0. -1.
        -13    1    5    5    0    0 -0.42692673953E+02 -0.49363415676E+02  0.38083610639E+02  0.75563037365E+02  0.00000000000E+00 0.  1.
          4    1    6    6  503    0 -0.87277717626E+03 -0.63117487940E+03  0.34817232202E+03  0.11319654118E+04  0.00000000000E+00 0. -1.
         -4    1    6    6    0  503 -0.50268447524E+03 -0.39919058185E+03  0.14050872513E+03  0.65710539804E+03  0.00000000000E+00 0.  1.
<mgrwt>
<rscale>  0 0.18196375E+04</rscale>
<asrwt>0</asrwt>
<pdfrwt beam="1">  1        2 0.35541728E+00 0.18196375E+04</pdfrwt>
<pdfrwt beam="2">  1       -2 0.23507499E+00 0.18196375E+04</pdfrwt>
<totfact> 0.32256892E-01</totfact>
</mgrwt>
</event>
<event>
12    1  0.1418317E-007  0.8876743E+03  0.7818608E-02  0.9441122E-01
         -1   -1    0    0    0  501 -0.00000000000E+00  0.00000000000E+00  0.81019097373E+03  0.81019097373E+03  0.00000000000E+00 0.  1.
          1   -1    0    0  501    0  0.00000000000E+00 -0.00000000000E+00 -0.11385993613E+04  0.11385993613E+04  0.00000000000E+00 0. -1.
         23    2    1    2    0    0  0.73647788141E+03  0.45046838364E+03 -0.10893435678E+03  0.87487382621E+03  0.90642612637E+02 0.  0.
    5000000    2    1    2    0    0 -0.73647788141E+03 -0.45046838364E+03 -0.21947403077E+03  0.10739165088E+04  0.59983863098E+03 0.  0.
         23    2    4    4    0    0 -0.61550538185E+02 -0.22694187736E+02 -0.24407085417E+03  0.26882843783E+03  0.91622334728E+02 0.  0.
         23    2    4    4    0    0 -0.67492734323E+03 -0.42777419591E+03  0.24596823404E+02  0.80508807097E+03  0.95100562466E+02 0.  0.
          1    1    3    3  502    0  0.33966059053E+03  0.17149862261E+03 -0.80853634302E+02  0.38899666386E+03  0.00000000000E+00 0. -1.
         -1    1    3    3    0  502  0.39681729088E+03  0.27896976104E+03 -0.28080722478E+02  0.48587716235E+03  0.00000000000E+00 0.  1.
         13    1    5    5    0    0  0.77571609228E+01  0.25198618878E+02 -0.82538562111E+02  0.86647320641E+02  0.00000000000E+00 0.  1.
        -13    1    5    5    0    0 -0.69307699108E+02 -0.47892806614E+02 -0.16153229206E+03  0.18218111718E+03  0.00000000000E+00 0. -1.
          3    1    6    6  503    0 -0.58334982192E+02 -0.41210099503E+02 -0.24948520144E+02  0.75654947662E+02  0.00000000000E+00 0. -1.
         -3    1    6    6    0  503 -0.61659236103E+03 -0.38656409641E+03  0.49545343547E+02  0.72943312331E+03  0.00000000000E+00 0.  1.
<mgrwt>
<rscale>  0 0.88767430E+03</rscale>
<asrwt>0</asrwt>
<pdfrwt beam="1">  1        1 0.17516913E+00 0.88767430E+03</pdfrwt>
<pdfrwt beam="2">  1       -1 0.12464477E+00 0.88767430E+03</pdfrwt>
<totfact> 0.67949560E+00</totfact>
</mgrwt>
</event>
<event>
12    1  0.1418317E-007  0.1026734E+04  0.7818608E-02  0.9279700E-01
          1   -1    0    0  501    0  0.00000000000E+00  0.00000000000E+00  0.17782278800E+04  0.17782278800E+04  0.00000000000E+00 0. -1.
         -1   -1    0    0    0  501 -0.00000000000E+00 -0.00000000000E+00 -0.64233008737E+03  0.64233008737E+03  0.00000000000E+00 0.  1.
         23    2    1    2    0    0 -0.38848307194E+03  0.86245298271E+03  0.22449706234E+03  0.97644893582E+03  0.91155629028E+02 0.  0.
    5000000    2    1    2    0    0  0.38848307194E+03 -0.86245298271E+03  0.91140073029E+03  0.14441090316E+04  0.60004613098E+03 0.  0.
         23    2    4    4    0    0  0.53417244032E+03 -0.64293930187E+03  0.67033615638E+03  0.10754763661E+04  0.92669895839E+02 0.  0.
         23    2    4    4    0    0 -0.14568936839E+03 -0.21951368083E+03  0.24106457391E+03  0.36863266546E+03  0.91467289876E+02 0.  0.
          4    1    3    3  502    0 -0.21513712234E+03  0.57205397588E+03  0.16502013601E+03  0.63305716805E+03  0.00000000000E+00 0.  1.
         -4    1    3    3    0  502 -0.17334594960E+03  0.29039900682E+03  0.59476926334E+02  0.34339176777E+03  0.00000000000E+00 0. -1.
         11    1    5    5    0    0  0.21123105399E+00 -0.20170786898E+02  0.22176229585E+02  0.29978165742E+02  0.00000000000E+00 0.  1.
        -11    1    5    5    0    0  0.53396120927E+03 -0.62276851497E+03  0.64815992679E+03  0.10454982004E+04  0.00000000000E+00 0. -1.
          3    1    6    6  503    0 -0.46934695596E+02 -0.77667080193E+02  0.29453816345E+02  0.95407380708E+02  0.00000000000E+00 0. -1.
         -3    1    6    6    0  503 -0.98754672790E+02 -0.14184660064E+03  0.21161075757E+03  0.27322528476E+03  0.00000000000E+00 0.  1.
<mgrwt>
<rscale>  0 0.10267340E+04</rscale>
<asrwt>0</asrwt>
<pdfrwt beam="1">  1        1 0.27357352E+00 0.10267340E+04</pdfrwt>
<pdfrwt beam="2">  1       -1 0.98820014E-01 0.10267340E+04</pdfrwt>
<totfact> 0.41488334E+00</totfact>
</mgrwt>
</event>
<event>
12    1  0.1418317E-007  0.1010706E+04  0.7818608E-02  0.9296880E-01
         -2   -1    0    0    0  501 -0.00000000000E+00  0.00000000000E+00  0.48078912494E+03  0.48078912494E+03  0.00000000000E+00 0.  1.
          2   -1    0    0  501    0  0.00000000000E+00 -0.00000000000E+00 -0.26802826144E+04  0.26802826144E+04  0.00000000000E+00 0. -1.
         23    2    1    2    0    0 -0.57332857219E+03 -0.76502622463E+03 -0.16421476121E+04  0.19023196591E+04  0.90556773745E+02 0.  0.
    5000000    2    1    2    0    0  0.57332857219E+03  0.76502622463E+03 -0.55734587734E+03  0.12587520803E+04  0.59987631769E+03 0.  0.
         23    2    4    4    0    0  0.61161479711E+03  0.55200313871E+03 -0.59514882384E+03  0.10204657064E+04  0.91476828439E+02 0.  0.
         23    2    4    4    0    0 -0.38286224918E+02  0.21302308592E+03  0.37802946501E+02  0.23828637391E+03  0.92231573091E+02 0.  0.
          3    1    3    3  502    0 -0.49809084691E+03 -0.61632468839E+03 -0.13916941389E+04  0.16014878050E+04  0.00000000000E+00 0. -1.
         -3    1    3    3    0  502 -0.75237725276E+02 -0.14870153624E+03 -0.25045347324E+03  0.30083185410E+03  0.00000000000E+00 0.  1.
         13    1    5    5    0    0  0.20561275643E+03  0.23596225222E+03 -0.25469400690E+03  0.40351434576E+03  0.00000000000E+00 0.  1.
        -13    1    5    5    0    0  0.40600204067E+03  0.31604088649E+03 -0.34045481693E+03  0.61695136059E+03  0.00000000000E+00 0. -1.
          3    1    6    6  503    0 -0.20413619774E+02  0.21579159907E+03  0.38680797140E+02  0.22017932276E+03  0.00000000000E+00 0. -1.
         -3    1    6    6    0  503 -0.17872605143E+02 -0.27685131553E+01 -0.87785063888E+00  0.18107051153E+02  0.00000000000E+00 0.  1.
<mgrwt>
<rscale>  0 0.10107062E+04</rscale>
<asrwt>0</asrwt>
<pdfrwt beam="1">  1        2 0.41235117E+00 0.10107062E+04</pdfrwt>
<pdfrwt beam="2">  1       -2 0.73967558E-01 0.10107062E+04</pdfrwt>
<totfact> 0.45504129E+00</totfact>
</mgrwt>
</event>
<event>
12    1  0.1418317E-007  0.8561373E+03  0.7818608E-02  0.9482137E-01
         -2   -1    0    0    0  501 -0.00000000000E+00  0.00000000000E+00  0.15214721766E+04  0.15214721766E+04  0.00000000000E+00 0.  1.
          2   -1    0    0  501    0  0.00000000000E+00 -0.00000000000E+00 -0.66689947520E+03  0.66689947520E+03  0.00000000000E+00 0. -1.
         23    2    1    2    0    0 -0.42617634745E+03  0.63524730739E+03 -0.15619530318E+03  0.78600858023E+03  0.90813516651E+02 0.  0.
    5000000    2    1    2    0    0  0.42617634745E+03 -0.63524730739E+03  0.10107680045E+04  0.14023630715E+04  0.59983731520E+03 0.  0.
         23    2    4    4    0    0  0.25027439432E+03 -0.69918276483E+03  0.67691932012E+03  0.10089099229E+04  0.90474612614E+02 0.  0.
         23    2    4    4    0    0  0.17590195313E+03  0.63935457440E+02  0.33384868442E+03  0.39345314861E+03  0.91220591031E+02 0.  0.
          1    1    3    3  502    0 -0.35595364952E+03  0.46073886741E+03 -0.11891829644E+03  0.59424310326E+03  0.00000000000E+00 0. -1.
         -1    1    3    3    0  502 -0.70222697924E+02  0.17450843997E+03 -0.37277006739E+02  0.19176547697E+03  0.00000000000E+00 0.  1.
         11    1    5    5    0    0  0.18553939846E+03 -0.54812451970E+03  0.47568591355E+03  0.74909441716E+03  0.00000000000E+00 0.  1.
        -11    1    5    5    0    0  0.64734995861E+02 -0.15105824513E+03  0.20123340657E+03  0.25981550576E+03  0.00000000000E+00 0. -1.
          3    1    6    6  503    0  0.18081346556E+03  0.55459047501E+02  0.27477311280E+03  0.33357080027E+03  0.00000000000E+00 0. -1.
         -3    1    6    6    0  503 -0.49115124302E+01  0.84764099387E+01  0.59075571622E+02  0.59882348337E+02  0.00000000000E+00 0.  1.
<mgrwt>
<rscale>  0 0.85613729E+03</rscale>
<asrwt>0</asrwt>
<pdfrwt beam="1">  1        2 0.10259992E+00 0.85613729E+03</pdfrwt>
<pdfrwt beam="2">  1       -2 0.23407264E+00 0.85613729E+03</pdfrwt>
<totfact> 0.35565496E+00</totfact>
</mgrwt>
</event>
<event>
12    1  0.1418317E-007  0.7516858E+03  0.7818608E-02  0.9632709E-01
         -2   -1    0    0    0  501 -0.00000000000E+00  0.00000000000E+00  0.10792957964E+04  0.10792957964E+04  0.00000000000E+00 0. -1.
          2   -1    0    0  501    0  0.00000000000E+00 -0.00000000000E+00 -0.80527587374E+03  0.80527587374E+03  0.00000000000E+00 0.  1.
         23    2    1    2    0    0 -0.45442523806E+03 -0.53472324617E+03 -0.33043546268E+03  0.78108545777E+03  0.92063295470E+02 0.  0.
    5000000    2    1    2    0    0  0.45442523806E+03  0.53472324617E+03  0.60445538537E+03  0.11034862124E+04  0.59990354315E+03 0.  0.
         23    2    4    4    0    0  0.50561275763E+03  0.49331447184E+03  0.28736213613E+03  0.76731476666E+03  0.84802859907E+02 0.  0.
         23    2    4    4    0    0 -0.51187519570E+02  0.41408774326E+02  0.31709324924E+03  0.33617144574E+03  0.90156882530E+02 0.  0.
          1    1    3    3  502    0 -0.29418079706E+03 -0.41013490663E+03 -0.23199408623E+03  0.55549458957E+03  0.00000000000E+00 0. -1.
         -1    1    3    3    0  502 -0.16024444100E+03 -0.12458833954E+03 -0.98441376450E+02  0.22559086821E+03  0.00000000000E+00 0.  1.
         11    1    5    5    0    0  0.28584726152E+03  0.24425344143E+03  0.18948000706E+03  0.42103571540E+03  0.00000000000E+00 0. -1.
        -11    1    5    5    0    0  0.21976549611E+03  0.24906103041E+03  0.97882129077E+02  0.34627905126E+03  0.00000000000E+00 0.  1.
          2    1    6    6  503    0 -0.13725999554E+02 -0.14660104488E+02  0.20034038820E+03  0.20134446323E+03  0.00000000000E+00 0. -1.
         -2    1    6    6    0  503 -0.37461520016E+02  0.56068878814E+02  0.11675286104E+03  0.13482698251E+03  0.00000000000E+00 0.  1.
<mgrwt>
<rscale>  0 0.75168580E+03</rscale>
<asrwt>0</asrwt>
<pdfrwt beam="1">  1        2 0.12388860E+00 0.75168580E+03</pdfrwt>
<pdfrwt beam="2">  1       -2 0.16604551E+00 0.75168580E+03</pdfrwt>
<totfact> 0.79038048E+00</totfact>
</mgrwt>
</event>
<event>
12    1  0.1418317E-007  0.6104546E+03  0.7818608E-02  0.9883950E-01
          2   -1    0    0  501    0  0.00000000000E+00  0.00000000000E+00  0.22802932274E+04  0.22802932274E+04  0.00000000000E+00 0. -1.
         -2   -1    0    0    0  501 -0.00000000000E+00 -0.00000000000E+00 -0.23987609681E+03  0.23987609681E+03  0.00000000000E+00 0.  1.
         23    2    1    2    0    0 -0.42214383987E+03  0.22197377467E+03  0.20300127422E+03  0.52931884501E+03  0.10719675448E+03 0.  0.
    5000000    2    1    2    0    0  0.42214383987E+03 -0.22197377467E+03  0.18374158564E+04  0.19908504792E+04  0.59992568133E+03 0.  0.
         23    2    4    4    0    0 -0.64604361247E+02 -0.20864683863E+03  0.35471177350E+03  0.42744242375E+03  0.95808958869E+02 0.  0.
         23    2    4    4    0    0  0.48674820112E+03 -0.13326936039E+02  0.14827040829E+04  0.15634080555E+04  0.93444807098E+02 0.  0.
          4    1    3    3  502    0 -0.11163551083E+03  0.83830569291E+01  0.48374726218E+02  0.12195440566E+03  0.00000000000E+00 0. -1.
         -4    1    3    3    0  502 -0.31050832903E+03  0.21359071774E+03  0.15462654800E+03  0.40736443935E+03  0.00000000000E+00 0.  1.
         11    1    5    5    0    0 -0.42652336881E+02 -0.19744205634E+02  0.53430180470E+02  0.71160661061E+02  0.00000000000E+00 0. -1.
        -11    1    5    5    0    0 -0.21952024366E+02 -0.18890263299E+03  0.30128159303E+03  0.35628176269E+03  0.00000000000E+00 0.  1.
          3    1    6    6  503    0  0.91260054198E+02  0.32274984423E+02  0.25409736860E+03  0.27191091343E+03  0.00000000000E+00 0. -1.
         -3    1    6    6    0  503  0.39548814692E+03 -0.45601920463E+02  0.12286067143E+04  0.12914971421E+04  0.00000000000E+00 0.  1.
<mgrwt>
<rscale>  0 0.61045457E+03</rscale>
<asrwt>0</asrwt>
<pdfrwt beam="1">  1        2 0.35081433E+00 0.61045457E+03</pdfrwt>
<pdfrwt beam="2">  1       -2 0.36904016E-01 0.61045457E+03</pdfrwt>
<totfact> 0.34111041E+01</totfact>
</mgrwt>
</event>
<event>
12    1  0.1418317E-007  0.6458264E+03  0.7818608E-02  0.9814642E-01
          2   -1    0    0  501    0  0.00000000000E+00  0.00000000000E+00  0.10998827107E+04  0.10998827107E+04  0.00000000000E+00 0. -1.
         -2   -1    0    0    0  501 -0.00000000000E+00 -0.00000000000E+00 -0.41168541104E+03  0.41168541104E+03  0.00000000000E+00 0.  1.
         23    2    1    2    0    0  0.47323039805E+03 -0.24742689384E+03  0.29414756664E+03  0.61693233392E+03  0.94422646876E+02 0.  0.
    5000000    2    1    2    0    0 -0.47323039805E+03  0.24742689384E+03  0.39404973299E+03  0.89463578779E+03  0.59994243332E+03 0.  0.
         23    2    4    4    0    0 -0.16591714564E+03 -0.16270451337E+03  0.25001264419E+03  0.35324491906E+03  0.90963688905E+02 0.  0.
         23    2    4    4    0    0 -0.30731325241E+03  0.41013140720E+03  0.14403708879E+03  0.54139086873E+03  0.98530114756E+02 0.  0.
          2    1    3    3  502    0  0.18631260694E+03 -0.47621962419E+02  0.11515150862E+03  0.22414305420E+03  0.00000000000E+00 0. -1.
         -2    1    3    3    0  502  0.28691779111E+03 -0.19980493142E+03  0.17899605802E+03  0.39278927971E+03  0.00000000000E+00 0.  1.
         11    1    5    5    0    0 -0.71647093485E+02 -0.81038245101E+02  0.53958972073E+02  0.12088041132E+03  0.00000000000E+00 0. -1.
        -11    1    5    5    0    0 -0.94270052154E+02 -0.81666268267E+02  0.19605367212E+03  0.23236450774E+03  0.00000000000E+00 0.  1.
          1    1    6    6  503    0 -0.82021709437E+02  0.64938209662E+02 -0.38226888560E+00  0.10461681520E+03  0.00000000000E+00 0. -1.
         -1    1    6    6    0  503 -0.22529154297E+03  0.34519319754E+03  0.14441935768E+03  0.43677405353E+03  0.00000000000E+00 0.  1.
<mgrwt>
<rscale>  0 0.64582645E+03</rscale>
<asrwt>0</asrwt>
<pdfrwt beam="1">  1        2 0.16921272E+00 0.64582645E+03</pdfrwt>
<pdfrwt beam="2">  1       -2 0.63336218E-01 0.64582645E+03</pdfrwt>
<totfact> 0.51642851E+01</totfact>
</mgrwt>
</event>
<event>
12    1  0.1418317E-007  0.1387904E+04  0.7818608E-02  0.8962621E-01
         -3   -1    0    0    0  501 -0.00000000000E+00  0.00000000000E+00  0.18926519584E+04  0.18926519584E+04  0.00000000000E+00 0.  1.
          3   -1    0    0  501    0  0.00000000000E+00 -0.00000000000E+00 -0.10645987838E+04  0.10645987838E+04  0.00000000000E+00 0. -1.
         23    2    1    2    0    0 -0.11496068068E+04  0.67239925137E+03  0.65210513554E+03  0.14859931380E+04  0.96010077237E+02 0.  0.
    5000000    2    1    2    0    0  0.11496068068E+04 -0.67239925137E+03  0.17594803907E+03  0.14712576041E+04  0.59993721466E+03 0.  0.
         23    2    4    4    0    0  0.10177776137E+04 -0.76299863766E+03  0.16919267433E+03  0.12864664700E+04  0.91277737184E+02 0.  0.
         23    2    4    4    0    0  0.13182919316E+03  0.90599386289E+02  0.67553647438E+01  0.18479113412E+03  0.92276450584E+02 0.  0.
          4    1    3    3  502    0 -0.62141108783E+03  0.36630214920E+03  0.29988316586E+03  0.78119070511E+03  0.00000000000E+00 0. -1.
         -4    1    3    3    0  502 -0.52819571902E+03  0.30609710217E+03  0.35222196968E+03  0.70480243294E+03  0.00000000000E+00 0.  1.
         13    1    5    5    0    0  0.67312713360E+03 -0.54325790989E+03  0.14440874482E+03  0.87697387659E+03  0.00000000000E+00 0.  1.
        -13    1    5    5    0    0  0.34465048008E+03 -0.21974072777E+03  0.24783929510E+02  0.40949259337E+03  0.00000000000E+00 0. -1.
          1    1    6    6  503    0  0.12580284368E+03  0.60582887485E+02 -0.23677009351E+02  0.14162359445E+03  0.00000000000E+00 0. -1.
         -1    1    6    6    0  503  0.60263494866E+01  0.30016498804E+02  0.30432374094E+02  0.43167539675E+02  0.00000000000E+00 0.  1.
<mgrwt>
<rscale>  0 0.13879044E+04</rscale>
<asrwt>0</asrwt>
<pdfrwt beam="1">  1        3 0.16378443E+00 0.13879044E+04</pdfrwt>
<pdfrwt beam="2">  1       -3 0.29117722E+00 0.13879044E+04</pdfrwt>
<totfact> 0.26736043E-02</totfact>
</mgrwt>
</event>
<event>
12    1  0.1418317E-007  0.6012398E+03  0.7818608E-02  0.9902837E-01
          2   -1    0    0  501    0  0.00000000000E+00  0.00000000000E+00  0.10922489901E+04  0.10922489901E+04  0.00000000000E+00 0. -1.
         -2   -1    0    0    0  501 -0.00000000000E+00 -0.00000000000E+00 -0.34908275931E+03  0.34908275931E+03  0.00000000000E+00 0.  1.
         23    2    1    2    0    0 -0.42855709713E+03 -0.13761040603E+03  0.42722209440E+03  0.62731151582E+03  0.91669027405E+02 0.  0.
    5000000    2    1    2    0    0  0.42855709713E+03  0.13761040603E+03  0.31594413643E+03  0.81402023363E+03  0.60017533610E+03 0.  0.
         23    2    4    4    0    0  0.10769195907E+03 -0.21586405800E+03  0.70095057185E+02  0.26723842048E+03  0.91149365096E+02 0.  0.
         23    2    4    4    0    0  0.32086513806E+03  0.35347446403E+03  0.24584907924E+03  0.54678181314E+03  0.10310163856E+03 0.  0.
          1    1    3    3  502    0 -0.18629141032E+03 -0.20656848116E+02  0.14129839808E+03  0.23472629216E+03  0.00000000000E+00 0. -1.
         -1    1    3    3    0  502 -0.24226568681E+03 -0.11695355791E+03  0.28592369632E+03  0.39258522366E+03  0.00000000000E+00 0.  1.
         11    1    5    5    0    0  0.96052343065E+02 -0.91276986869E+02  0.41897861307E+02  0.13897111830E+03  0.00000000000E+00 0. -1.
        -11    1    5    5    0    0  0.11639616001E+02 -0.12458707113E+03  0.28197195877E+02  0.12826730218E+03  0.00000000000E+00 0.  1.
          4    1    6    6  503    0  0.11591473279E+03  0.20433471235E+03  0.11844948509E+03  0.26309538283E+03  0.00000000000E+00 0. -1.
         -4    1    6    6    0  503  0.20495040527E+03  0.14913975168E+03  0.12739959415E+03  0.28368643031E+03  0.00000000000E+00 0.  1.
<mgrwt>
<rscale>  0 0.60123981E+03</rscale>
<asrwt>0</asrwt>
<pdfrwt beam="1">  1        2 0.16803830E+00 0.60123981E+03</pdfrwt>
<pdfrwt beam="2">  1       -2 0.53705040E-01 0.60123981E+03</pdfrwt>
<totfact> 0.74079956E+01</totfact>
</mgrwt>
</event>
<event>
12    1  0.1418317E-007  0.1038907E+04  0.7818608E-02  0.9266872E-01
         -1   -1    0    0    0  501 -0.00000000000E+00  0.00000000000E+00  0.82908688594E+03  0.82908688594E+03  0.00000000000E+00 0.  1.
          1   -1    0    0  501    0  0.00000000000E+00 -0.00000000000E+00 -0.15578134429E+04  0.15578134429E+04  0.00000000000E+00 0. -1.
         23    2    1    2    0    0 -0.53693860569E+03 -0.81922095757E+03 -0.75149713125E+03  0.12380397775E+04  0.92566240340E+02 0.  0.
    5000000    2    1    2    0    0  0.53693860569E+03  0.81922095757E+03  0.22770574257E+02  0.11488605514E+04  0.59994668414E+03 0.  0.
         23    2    4    4    0    0  0.34938321494E+03  0.12594839548E+03  0.15722072309E+03  0.41280345710E+03  0.88072181866E+02 0.  0.
         23    2    4    4    0    0  0.18755539075E+03  0.69327256209E+03 -0.13445014883E+03  0.73605709425E+03  0.88878194962E+02 0.  0.
          1    1    3    3  502    0 -0.16361756700E+03 -0.33086707053E+03 -0.28820661320E+03  0.46830201632E+03  0.00000000000E+00 0. -1.
         -1    1    3    3    0  502 -0.37332103869E+03 -0.48835388704E+03 -0.46329051805E+03  0.76973776121E+03  0.00000000000E+00 0.  1.
         13    1    5    5    0    0  0.15042014324E+03  0.84373977230E+02  0.10859128663E+03  0.20380690631E+03  0.00000000000E+00 0.  1.
        -13    1    5    5    0    0  0.19896307170E+03  0.41574418254E+02  0.48629436458E+02  0.20899655080E+03  0.00000000000E+00 0. -1.
          4    1    6    6  503    0  0.12325546430E+03  0.47437120634E+03 -0.13321630750E+03  0.50790406128E+03  0.00000000000E+00 0. -1.
         -4    1    6    6    0  503  0.64299926447E+02  0.21890135575E+03 -0.12338413304E+01  0.22815303297E+03  0.00000000000E+00 0.  1.
<mgrwt>
<rscale>  0 0.10389070E+04</rscale>
<asrwt>0</asrwt>
<pdfrwt beam="1">  1        1 0.23966360E+00 0.10389070E+04</pdfrwt>
<pdfrwt beam="2">  1       -1 0.12755183E+00 0.10389070E+04</pdfrwt>
<totfact> 0.31770408E+00</totfact>
</mgrwt>
</event>
<event>
12    1  0.1418317E-007  0.6715387E+03  0.7818608E-02  0.9767182E-01
         -2   -1    0    0    0  501 -0.00000000000E+00  0.00000000000E+00  0.58774294069E+03  0.58774294069E+03  0.00000000000E+00 0.  1.
          2   -1    0    0  501    0  0.00000000000E+00 -0.00000000000E+00 -0.17360123177E+04  0.17360123177E+04  0.00000000000E+00 0. -1.
         23    2    1    2    0    0  0.62157232645E+03 -0.28688132394E+02 -0.13015409323E+04  0.14457155652E+04  0.94390312732E+02 0.  0.
    5000000    2    1    2    0    0 -0.62157232645E+03  0.28688132394E+02  0.15327155531E+03  0.87803969314E+03  0.60023859183E+03 0.  0.
         23    2    4    4    0    0 -0.61809241458E+03 -0.57109554450E+02  0.29094223782E+03  0.69183490001E+03  0.93211635334E+02 0.  0.
         23    2    4    4    0    0 -0.34799118689E+01  0.85797686844E+02 -0.13767068250E+03  0.18620479313E+03  0.91354558223E+02 0.  0.
          4    1    3    3  502    0  0.11541500506E+03 -0.25968836816E+02 -0.18201368388E+03  0.21708059563E+03  0.00000000000E+00 0. -1.
         -4    1    3    3    0  502  0.50615732139E+03 -0.27192955782E+01 -0.11195272484E+04  0.12286349696E+04  0.00000000000E+00 0.  1.
         11    1    5    5    0    0 -0.14535927507E+03  0.22904578638E+02  0.51420003780E+02  0.15587801436E+03  0.00000000000E+00 0. -1.
        -11    1    5    5    0    0 -0.47273313951E+03 -0.80014133089E+02  0.23952223404E+03  0.53595688566E+03  0.00000000000E+00 0.  1.
          2    1    6    6  503    0  0.14581623715E+02  0.46935496104E+02 -0.13454026510E+03  0.14323633435E+03  0.00000000000E+00 0. -1.
         -2    1    6    6    0  503 -0.18061535584E+02  0.38862190740E+02 -0.31304174056E+01  0.42968458780E+02  0.00000000000E+00 0.  1.
<mgrwt>
<rscale>  0 0.67153871E+03</rscale>
<asrwt>0</asrwt>
<pdfrwt beam="1">  1        2 0.26707882E+00 0.67153871E+03</pdfrwt>
<pdfrwt beam="2">  1       -2 0.90421992E-01 0.67153871E+03</pdfrwt>
<totfact> 0.10198685E+01</totfact>
</mgrwt>
</event>
<event>
12    1  0.1418317E-007  0.6269137E+03  0.7818608E-02  0.9851090E-01
         -2   -1    0    0    0  501 -0.00000000000E+00  0.00000000000E+00  0.69330322627E+03  0.69330322627E+03  0.00000000000E+00 0. -1.
          2   -1    0    0  501    0  0.00000000000E+00 -0.00000000000E+00 -0.16332022229E+04  0.16332022229E+04  0.00000000000E+00 0.  1.
         23    2    1    2    0    0  0.18092225858E+03 -0.58906272921E+03 -0.12626407479E+04  0.14078465247E+04  0.89679519446E+02 0.  0.
    5000000    2    1    2    0    0 -0.18092225858E+03  0.58906272921E+03  0.32274175133E+03  0.91865892444E+03  0.60003684788E+03 0.  0.
         23    2    4    4    0    0 -0.62290433284E+02  0.10765898040E+03 -0.15896783904E+03  0.22164260901E+03  0.91564830251E+02 0.  0.
         23    2    4    4    0    0 -0.11863182529E+03  0.48140374881E+03  0.48170959037E+03  0.69701631543E+03  0.89244244587E+02 0.  0.
          4    1    3    3  502    0  0.13706806512E+03 -0.44000377692E+03 -0.84956526138E+03  0.96651544815E+03  0.00000000000E+00 0. -1.
         -4    1    3    3    0  502  0.43854193452E+02 -0.14905895228E+03 -0.41307548657E+03  0.44133107657E+03  0.00000000000E+00 0.  1.
         11    1    5    5    0    0 -0.69979441562E+02  0.82728110756E+02 -0.70172799208E+02  0.12909409088E+03  0.00000000000E+00 0. -1.
        -11    1    5    5    0    0  0.76890082774E+01  0.24930869644E+02 -0.88795039831E+02  0.92548518130E+02  0.00000000000E+00 0.  1.
          1    1    6    6  503    0 -0.12143452506E+03  0.32865461936E+03  0.31921883603E+03  0.47398403769E+03  0.00000000000E+00 0. -1.
         -1    1    6    6    0  503  0.28026997708E+01  0.15274912944E+03  0.16249075434E+03  0.22303227775E+03  0.00000000000E+00 0.  1.
<mgrwt>
<rscale>  0 0.62691367E+03</rscale>
<asrwt>0</asrwt>
<pdfrwt beam="1">  1        2 0.25126188E+00 0.62691367E+03</pdfrwt>
<pdfrwt beam="2">  1       -2 0.10666204E+00 0.62691367E+03</pdfrwt>
<totfact> 0.79249622E+00</totfact>
</mgrwt>
</event>
<event>
12    1  0.1418317E-007  0.5187556E+03  0.7818608E-02  0.1008996E+00
         -2   -1    0    0    0  501 -0.00000000000E+00  0.00000000000E+00  0.46156609021E+03  0.46156609021E+03  0.00000000000E+00 0.  1.
          2   -1    0    0  501    0  0.00000000000E+00 -0.00000000000E+00 -0.72174655910E+03  0.72174655910E+03  0.00000000000E+00 0. -1.
         23    2    1    2    0    0  0.16521425545E+03  0.35330915050E+03  0.48794122798E+02  0.40336959832E+03  0.90570748063E+02 0.  0.
    5000000    2    1    2    0    0 -0.16521425545E+03 -0.35330915050E+03 -0.30897459168E+03  0.77994305098E+03  0.60060199670E+03 0.  0.
         23    2    4    4    0    0 -0.16662593981E+03  0.81680564548E+02  0.45531780657E+02  0.21182039593E+03  0.91426575116E+02 0.  0.
         23    2    4    4    0    0  0.14116843644E+01 -0.43498971504E+03 -0.35450637234E+03  0.56812265506E+03  0.88716053294E+02 0.  0.
          4    1    3    3  502    0  0.90642739932E+02  0.23373509563E+03 -0.94798557531E+01  0.25087460791E+03  0.00000000000E+00 0.  1.
         -4    1    3    3    0  502  0.74571515516E+02  0.11957405487E+03  0.58273978551E+02  0.15249499041E+03  0.00000000000E+00 0. -1.
         13    1    5    5    0    0 -0.48340010266E+02  0.73055179715E+02  0.10953434623E+02  0.88282464883E+02  0.00000000000E+00 0.  1.
        -13    1    5    5    0    0 -0.11828592955E+03  0.86253848333E+01  0.34578346034E+02  0.12353793104E+03  0.00000000000E+00 0. -1.
          2    1    6    6  503    0  0.31991752580E+02 -0.27056166666E+03 -0.18074684851E+03  0.32695031877E+03  0.00000000000E+00 0. -1.
         -2    1    6    6    0  503 -0.30580068215E+02 -0.16442804839E+03 -0.17375952383E+03  0.24117233629E+03  0.00000000000E+00 0.  1.
<mgrwt>
<rscale>  0 0.51875561E+03</rscale>
<asrwt>0</asrwt>
<pdfrwt beam="1">  1        2 0.11103793E+00 0.51875561E+03</pdfrwt>
<pdfrwt beam="2">  1       -2 0.71010168E-01 0.51875561E+03</pdfrwt>
<totfact> 0.73260069E+01</totfact>
</mgrwt>
</event>
<event>
12    1  0.1418317E-007  0.4554215E+03  0.7818608E-02  0.1026118E+00
         -3   -1    0    0    0  501 -0.00000000000E+00  0.00000000000E+00  0.40622569130E+03  0.40622569130E+03  0.00000000000E+00 0.  1.
          3   -1    0    0  501    0  0.00000000000E+00 -0.00000000000E+00 -0.93443731173E+03  0.93443731173E+03  0.00000000000E+00 0. -1.
         23    2    1    2    0    0  0.20603103036E+03  0.28368055268E+03  0.12837422731E+03  0.38482679631E+03  0.93210940790E+02 0.  0.
    5000000    2    1    2    0    0 -0.20603103036E+03 -0.28368055268E+03 -0.65658584774E+03  0.95583620671E+03  0.59966193573E+03 0.  0.
         23    2    4    4    0    0 -0.50334980530E+01  0.99104393708E+02  0.30727196629E+02  0.13875945149E+03  0.91994607511E+02 0.  0.
         23    2    4    4    0    0 -0.20099753231E+03 -0.38278494639E+03 -0.68731304437E+03  0.81707675522E+03  0.91054268338E+02 0.  0.
          4    1    3    3  502    0  0.43338060566E+02  0.91108888237E+02  0.78525666947E+02  0.12784872850E+03  0.00000000000E+00 0. -1.
         -4    1    3    3    0  502  0.16269296979E+03  0.19257166444E+03  0.49848560360E+02  0.25697806781E+03  0.00000000000E+00 0.  1.
         13    1    5    5    0    0  0.27321624094E+02  0.67255440489E+02  0.51325311961E+02  0.88904741530E+02  0.00000000000E+00 0.  1.
        -13    1    5    5    0    0 -0.32355122147E+02  0.31848953219E+02 -0.20598115332E+02  0.49854709964E+02  0.00000000000E+00 0. -1.
          1    1    6    6  503    0 -0.65057386072E+02 -0.55672034620E+02 -0.10506507067E+03  0.13553784710E+03  0.00000000000E+00 0. -1.
         -1    1    6    6    0  503 -0.13594014624E+03 -0.32711291177E+03 -0.58224797370E+03  0.68153890812E+03  0.00000000000E+00 0.  1.
<mgrwt>
<rscale>  0 0.45542154E+03</rscale>
<asrwt>0</asrwt>
<pdfrwt beam="1">  1        3 0.14375959E+00 0.45542154E+03</pdfrwt>
<pdfrwt beam="2">  1       -3 0.62496261E-01 0.45542154E+03</pdfrwt>
<totfact> 0.23611046E+00</totfact>
</mgrwt>
</event>
<event>
12    1  0.1418317E-007  0.5411899E+03  0.7818608E-02  0.1003554E+00
          1   -1    0    0  501    0  0.00000000000E+00  0.00000000000E+00  0.72475139909E+03  0.72475139909E+03  0.00000000000E+00 0. -1.
         -1   -1    0    0    0  501 -0.00000000000E+00 -0.00000000000E+00 -0.74885102991E+03  0.74885102991E+03  0.00000000000E+00 0.  1.
         23    2    1    2    0    0  0.30598848133E+03 -0.22727143125E+03 -0.48690599685E+03  0.62535373946E+03  0.93319855993E+02 0.  0.
    5000000    2    1    2    0    0 -0.30598848133E+03  0.22727143125E+03  0.46280636603E+03  0.84824868953E+03  0.60004570884E+03 0.  0.
         23    2    4    4    0    0 -0.38683431324E+03  0.35341431423E+03  0.29766269489E+03  0.60845999874E+03  0.84131009337E+02 0.  0.
         23    2    4    4    0    0  0.80845831917E+02 -0.12614288298E+03  0.16514367114E+03  0.23978869080E+03  0.88193586214E+02 0.  0.
          4    1    3    3  502    0  0.14297856467E+03 -0.15094643077E+03 -0.21343111654E+03  0.29796062898E+03  0.00000000000E+00 0.  1.
         -4    1    3    3    0  502  0.16300991666E+03 -0.76325000479E+02 -0.27347488032E+03  0.32739311048E+03  0.00000000000E+00 0. -1.
         11    1    5    5    0    0 -0.13955604134E+03  0.18361020873E+03  0.13482121555E+03  0.26714295347E+03  0.00000000000E+00 0. -1.
        -11    1    5    5    0    0 -0.24727827191E+03  0.16980410550E+03  0.16284147933E+03  0.34131704527E+03  0.00000000000E+00 0.  1.
          3    1    6    6  503    0  0.27399348023E+02 -0.56859852534E+00  0.64915417273E+02  0.70463174610E+02  0.00000000000E+00 0. -1.
         -3    1    6    6    0  503  0.53446483895E+02 -0.12557428446E+03  0.10022825387E+03  0.16932551619E+03  0.00000000000E+00 0.  1.
<mgrwt>
<rscale>  0 0.54118992E+03</rscale>
<asrwt>0</asrwt>
<pdfrwt beam="1">  1        1 0.11150022E+00 0.54118992E+03</pdfrwt>
<pdfrwt beam="2">  1       -1 0.11520785E+00 0.54118992E+03</pdfrwt>
<totfact> 0.18664445E+01</totfact>
</mgrwt>
</event>
<event>
12    1  0.1418317E-007  0.8194778E+03  0.7818608E-02  0.9532244E-01
          2   -1    0    0  501    0  0.00000000000E+00  0.00000000000E+00  0.12200425745E+04  0.12200425745E+04  0.00000000000E+00 0.  1.
         -2   -1    0    0    0  501 -0.00000000000E+00 -0.00000000000E+00 -0.87933244899E+03  0.87933244899E+03  0.00000000000E+00 0. -1.
         23    2    1    2    0    0  0.35755138025E+03 -0.68646693809E+03  0.70867365673E+03  0.10532114936E+04  0.89197824381E+02 0.  0.
    5000000    2    1    2    0    0 -0.35755138025E+03  0.68646693809E+03 -0.36796353126E+03  0.10461635299E+04  0.59998427002E+03 0.  0.
         23    2    4    4    0    0 -0.17715262529E+03  0.32921786324E+02 -0.29764811094E+03  0.35922234293E+03  0.89327470845E+02 0.  0.
         23    2    4    4    0    0 -0.18039875496E+03  0.65354515177E+03 -0.70315420315E+02  0.68694118694E+03  0.85316820103E+02 0.  0.
          2    1    3    3  502    0  0.33568723679E+03 -0.62371253421E+03  0.61307217402E+03  0.93678211812E+03  0.00000000000E+00 0. -1.
         -2    1    3    3    0  502  0.21864143463E+02 -0.62754403887E+02  0.95601482711E+02  0.11642937547E+03  0.00000000000E+00 0.  1.
         13    1    5    5    0    0 -0.14093587180E+03  0.35101334043E+02 -0.28658977453E+03  0.32129226956E+03  0.00000000000E+00 0.  1.
        -13    1    5    5    0    0 -0.36216753487E+02 -0.21795477188E+01 -0.11058336410E+02  0.37930073366E+02  0.00000000000E+00 0. -1.
          1    1    6    6  503    0 -0.81743161284E+02  0.16355721381E+03 -0.32288173345E+02  0.18567561160E+03  0.00000000000E+00 0. -1.
         -1    1    6    6    0  503 -0.98655593679E+02  0.48998793796E+03 -0.38027246970E+02  0.50126557534E+03  0.00000000000E+00 0.  1.
<mgrwt>
<rscale>  0 0.81947779E+03</rscale>
<asrwt>0</asrwt>
<pdfrwt beam="1">  1        2 0.18769886E+00 0.81947779E+03</pdfrwt>
<pdfrwt beam="2">  1       -2 0.13528192E+00 0.81947779E+03</pdfrwt>
<totfact> 0.73155200E+00</totfact>
</mgrwt>
</event>
<event>
12    1  0.1418317E-007  0.6733368E+03  0.7818608E-02  0.9763949E-01
         -2   -1    0    0    0  501 -0.00000000000E+00  0.00000000000E+00  0.53453605982E+03  0.53453605982E+03  0.00000000000E+00 0. -1.
          2   -1    0    0  501    0  0.00000000000E+00 -0.00000000000E+00 -0.95664820641E+03  0.95664820641E+03  0.00000000000E+00 0.  1.
         23    2    1    2    0    0 -0.28397198067E+03  0.49947002010E+03 -0.28825199624E+03  0.64974137916E+03  0.94679774338E+02 0.  0.
    5000000    2    1    2    0    0  0.28397198067E+03 -0.49947002010E+03 -0.13386015035E+03  0.84144288706E+03  0.59999767129E+03 0.  0.
         23    2    4    4    0    0  0.88388823018E+02 -0.54385941576E+03  0.45100732894E+02  0.56058823324E+03  0.92894795287E+02 0.  0.
         23    2    4    4    0    0  0.19558315765E+03  0.44389395656E+02 -0.17896088324E+03  0.28085465383E+03  0.81419585130E+02 0.  0.
          2    1    3    3  502    0 -0.50777129759E+02  0.17615379064E+03 -0.10111400936E+03  0.20936216887E+03  0.00000000000E+00 0. -1.
         -2    1    3    3    0  502 -0.23319485091E+03  0.32331622947E+03 -0.18713798688E+03  0.44037921030E+03  0.00000000000E+00 0.  1.
         11    1    5    5    0    0  0.24222584379E+02 -0.35417538749E+03 -0.14486690725E+01  0.35500568635E+03  0.00000000000E+00 0.  1.
        -11    1    5    5    0    0  0.64166238639E+02 -0.18968402827E+03  0.46549401967E+02  0.20558254689E+03  0.00000000000E+00 0. -1.
          2    1    6    6  503    0  0.75808115366E+02 -0.12553308654E+02 -0.10137311921E+03  0.12720442293E+03  0.00000000000E+00 0. -1.
         -2    1    6    6    0  503  0.11977504229E+03  0.56942704310E+02 -0.77587764027E+02  0.15365023090E+03  0.00000000000E+00 0.  1.
<mgrwt>
<rscale>  0 0.67333675E+03</rscale>
<asrwt>0</asrwt>
<pdfrwt beam="1">  1        2 0.14717665E+00 0.67333675E+03</pdfrwt>
<pdfrwt beam="2">  1       -2 0.82236318E-01 0.67333675E+03</pdfrwt>
<totfact> 0.35715665E+01</totfact>
</mgrwt>
</event>
<event>
12    1  0.1418317E-007  0.7431601E+03  0.7818608E-02  0.9646143E-01
          2   -1    0    0  501    0  0.00000000000E+00  0.00000000000E+00  0.32244738076E+04  0.32244738076E+04  0.00000000000E+00 0.  1.
         -2   -1    0    0    0  501 -0.00000000000E+00 -0.00000000000E+00 -0.22550085866E+03  0.22550085866E+03  0.00000000000E+00 0. -1.
         23    2    1    2    0    0  0.63217718181E+03  0.37076064890E+03  0.15761723172E+04  0.17407444087E+04  0.93597409545E+02 0.  0.
    5000000    2    1    2    0    0 -0.63217718181E+03 -0.37076064890E+03  0.14228006318E+04  0.17092302576E+04  0.59999582302E+03 0.  0.
         23    2    4    4    0    0 -0.19728174735E+03 -0.65167827475E+02  0.49345847283E+02  0.23370131636E+03  0.94943978487E+02 0.  0.
         23    2    4    4    0    0 -0.43489543446E+03 -0.30559282143E+03  0.13734547845E+04  0.14755289412E+04  0.91030763246E+02 0.  0.
          2    1    3    3  502    0  0.33432560892E+03  0.18915672259E+03  0.93465249316E+03  0.10105093574E+04  0.00000000000E+00 0.  1.
         -2    1    3    3    0  502  0.29785157289E+03  0.18160392631E+03  0.64151982402E+03  0.73023505129E+03  0.00000000000E+00 0. -1.
         11    1    5    5    0    0 -0.99622156102E+02  0.19508980309E+01  0.57286453225E+02  0.11493527619E+03  0.00000000000E+00 0. -1.
        -11    1    5    5    0    0 -0.97659591249E+02 -0.67118725505E+02 -0.79406059418E+01  0.11876604018E+03  0.00000000000E+00 0.  1.
          3    1    6    6  503    0 -0.30277169034E+03 -0.17639311628E+03  0.81000742940E+03  0.88255156428E+03  0.00000000000E+00 0. -1.
         -3    1    6    6    0  503 -0.13212374411E+03 -0.12919970515E+03  0.56344735513E+03  0.59297737695E+03  0.00000000000E+00 0.  1.
<mgrwt>
<rscale>  0 0.74316012E+03</rscale>
<asrwt>0</asrwt>
<pdfrwt beam="1">  1        2 0.49607286E+00 0.74316012E+03</pdfrwt>
<pdfrwt beam="2">  1       -2 0.34692442E-01 0.74316012E+03</pdfrwt>
<totfact> 0.10431808E+01</totfact>
</mgrwt>
</event>
<event>
12    1  0.1418317E-007  0.1059357E+04  0.7818608E-02  0.9245737E-01
         -1   -1    0    0    0  501 -0.00000000000E+00  0.00000000000E+00  0.42626581826E+03  0.42626581826E+03  0.00000000000E+00 0.  1.
          1   -1    0    0  501    0  0.00000000000E+00 -0.00000000000E+00 -0.28250331558E+04  0.28250331558E+04  0.00000000000E+00 0. -1.
         23    2    1    2    0    0 -0.90728705586E+03  0.44003745322E+03 -0.95700770130E+03  0.13925897526E+04  0.81484457754E+02 0.  0.
    5000000    2    1    2    0    0  0.90728705586E+03 -0.44003745322E+03 -0.14417596362E+04  0.18587092214E+04  0.59943836970E+03 0.  0.
         23    2    4    4    0    0  0.79372098538E+03 -0.17136683714E+03 -0.12642684236E+04  0.15053824747E+04  0.91881188788E+02 0.  0.
         23    2    4    4    0    0  0.11356607047E+03 -0.26867061609E+03 -0.17749121267E+03  0.35332674668E+03  0.90859820794E+02 0.  0.
          2    1    3    3  502    0 -0.61343891408E+03  0.33612495587E+03 -0.68170584219E+03  0.97673442785E+03  0.00000000000E+00 0. -1.
         -2    1    3    3    0  502 -0.29384814178E+03  0.10391249735E+03 -0.27530185911E+03  0.41585532480E+03  0.00000000000E+00 0.  1.
         11    1    5    5    0    0  0.16470348338E+03 -0.62198657260E+02 -0.32620533810E+03  0.37068292786E+03  0.00000000000E+00 0. -1.
        -11    1    5    5    0    0  0.62901750200E+03 -0.10916817988E+03 -0.93806308546E+03  0.11346995468E+04  0.00000000000E+00 0.  1.
          1    1    6    6  503    0  0.43449454892E+02 -0.13926171792E+03 -0.13829044635E+03  0.20101226022E+03  0.00000000000E+00 0. -1.
         -1    1    6    6    0  503  0.70116615582E+02 -0.12940889817E+03 -0.39200766322E+02  0.15231448646E+03  0.00000000000E+00 0.  1.
<mgrwt>
<rscale>  0 0.10593570E+04</rscale>
<asrwt>0</asrwt>
<pdfrwt beam="1">  1        1 0.43462048E+00 0.10593570E+04</pdfrwt>
<pdfrwt beam="2">  1       -1 0.65579357E-01 0.10593570E+04</pdfrwt>
<totfact> 0.19147580E+00</totfact>
</mgrwt>
</event>
<event>
12    1  0.1418317E-007  0.4333277E+03  0.7818608E-02  0.1032814E+00
         -2   -1    0    0    0  501 -0.00000000000E+00  0.00000000000E+00  0.42884881712E+03  0.42884881712E+03  0.00000000000E+00 0.  1.
          2   -1    0    0  501    0  0.00000000000E+00 -0.00000000000E+00 -0.66632570559E+03  0.66632570559E+03  0.00000000000E+00 0. -1.
         23    2    1    2    0    0  0.34125080105E+03  0.96105189593E+02 -0.13652728425E+03  0.39078016629E+03  0.91548469912E+02 0.  0.
    5000000    2    1    2    0    0 -0.34125080105E+03 -0.96105189593E+02 -0.10094960422E+03  0.70439435641E+03  0.60024350897E+03 0.  0.
         23    2    4    4    0    0 -0.38083011103E+03  0.21610388477E+02 -0.26944173216E+03  0.47586309692E+03  0.91368800074E+02 0.  0.
         23    2    4    4    0    0  0.39579309980E+02 -0.11771557807E+03  0.16849212794E+03  0.22853125949E+03  0.91724916397E+02 0.  0.
          3    1    3    3  502    0  0.96100970213E+02  0.68648604489E+01 -0.76631803196E+02  0.12310546717E+03  0.00000000000E+00 0. -1.
         -3    1    3    3    0  502  0.24514983083E+03  0.89240329144E+02 -0.59895481052E+02  0.26767469913E+03  0.00000000000E+00 0.  1.
         11    1    5    5    0    0 -0.11136783299E+03 -0.11035125083E+02 -0.12718127924E+03  0.16940969866E+03  0.00000000000E+00 0. -1.
        -11    1    5    5    0    0 -0.26946227804E+03  0.32645513560E+02 -0.14226045291E+03  0.30645339826E+03  0.00000000000E+00 0.  1.
          2    1    6    6  503    0  0.37252176762E+02 -0.79556711446E+02  0.43898164625E+02  0.98204092924E+02  0.00000000000E+00 0. -1.
         -2    1    6    6    0  503  0.23271332180E+01 -0.38158866623E+02  0.12459396331E+03  0.13032716656E+03  0.00000000000E+00 0.  1.
<mgrwt>
<rscale>  0 0.43332766E+03</rscale>
<asrwt>0</asrwt>
<pdfrwt beam="1">  1        2 0.10251165E+00 0.43332766E+03</pdfrwt>
<pdfrwt beam="2">  1       -2 0.65976741E-01 0.43332766E+03</pdfrwt>
<totfact> 0.95620899E+01</totfact>
</mgrwt>
</event>
<event>
12    1  0.1418317E-007  0.4377896E+03  0.7818608E-02  0.1031427E+00
         -2   -1    0    0    0  501 -0.00000000000E+00  0.00000000000E+00  0.39324729324E+03  0.39324729324E+03  0.00000000000E+00 0.  1.
          2   -1    0    0  501    0  0.00000000000E+00 -0.00000000000E+00 -0.89748899738E+03  0.89748899738E+03  0.00000000000E+00 0. -1.
         23    2    1    2    0    0  0.33169178142E+03  0.25792343528E+03 -0.31938627005E+03  0.53511338174E+03  0.88288195633E+02 0.  0.
    5000000    2    1    2    0    0 -0.33169178142E+03 -0.25792343528E+03 -0.18485543408E+03  0.75562290888E+03  0.60020872418E+03 0.  0.
         23    2    4    4    0    0 -0.21916321694E+03 -0.16361146831E+03 -0.39156336089E+03  0.48615887345E+03  0.90704776150E+02 0.  0.
         23    2    4    4    0    0 -0.11252856448E+03 -0.94311966967E+02  0.20670792681E+03  0.26946403543E+03  0.91242941910E+02 0.  0.
          1    1    3    3  502    0  0.19512919756E+03  0.97516755442E+02 -0.17591288392E+03  0.28023251785E+03  0.00000000000E+00 0. -1.
         -1    1    3    3    0  502  0.13656258386E+03  0.16040667984E+03 -0.14347338613E+03  0.25488086389E+03  0.00000000000E+00 0.  1.
         13    1    5    5    0    0 -0.18550927271E+03 -0.10537193692E+03 -0.24483695288E+03  0.32474923994E+03  0.00000000000E+00 0. -1.
        -13    1    5    5    0    0 -0.33653944238E+02 -0.58239531395E+02 -0.14672640801E+03  0.16140963351E+03  0.00000000000E+00 0.  1.
          3    1    6    6  503    0 -0.89758239809E+02 -0.24952121206E+02  0.78040752282E+02  0.12152986869E+03  0.00000000000E+00 0. -1.
         -3    1    6    6    0  503 -0.22770324670E+02 -0.69359845761E+02  0.12866717453E+03  0.14793416675E+03  0.00000000000E+00 0.  1.
<mgrwt>
<rscale>  0 0.43778958E+03</rscale>
<asrwt>0</asrwt>
<pdfrwt beam="1">  1        2 0.13807523E+00 0.43778958E+03</pdfrwt>
<pdfrwt beam="2">  1       -2 0.60499584E-01 0.43778958E+03</pdfrwt>
<totfact> 0.78253427E+01</totfact>
</mgrwt>
</event>
<event>
12    1  0.1418317E-007  0.1082358E+04  0.7818608E-02  0.9222559E-01
          2   -1    0    0  501    0  0.00000000000E+00  0.00000000000E+00  0.27753532437E+04  0.27753532437E+04  0.00000000000E+00 0. -1.
         -2   -1    0    0    0  501 -0.00000000000E+00 -0.00000000000E+00 -0.48722327397E+03  0.48722327397E+03  0.00000000000E+00 0.  1.
         23    2    1    2    0    0  0.71825675262E+03 -0.80381323297E+03  0.12222412390E+04  0.16322077698E+04  0.90664663407E+02 0.  0.
    5000000    2    1    2    0    0 -0.71825675262E+03  0.80381323297E+03  0.10658887308E+04  0.16303687479E+04  0.59997915934E+03 0.  0.
         23    2    4    4    0    0 -0.38479129216E+03  0.51638758240E+03  0.97468433891E+03  0.11719036073E+04  0.92887192323E+02 0.  0.
         23    2    4    4    0    0 -0.33346546046E+03  0.28742565056E+03  0.91204391846E+02  0.45846514062E+03  0.89773749774E+02 0.  0.
          1    1    3    3  502    0  0.22700922744E+03 -0.25201234115E+03  0.32263728591E+03  0.46812202223E+03  0.00000000000E+00 0. -1.
         -1    1    3    3    0  502  0.49124752518E+03 -0.55180089182E+03  0.89960395307E+03  0.11640857475E+04  0.00000000000E+00 0.  1.
         11    1    5    5    0    0 -0.12354746458E+03  0.13080474099E+03  0.33987106912E+03  0.38455974814E+03  0.00000000000E+00 0.  1.
        -11    1    5    5    0    0 -0.26124382758E+03  0.38558284142E+03  0.63481326979E+03  0.78734385915E+03  0.00000000000E+00 0. -1.
          3    1    6    6  503    0 -0.16048368444E+03  0.15616943158E+03  0.26069873157E+01  0.22394352126E+03  0.00000000000E+00 0. -1.
         -3    1    6    6    0  503 -0.17298177602E+03  0.13125621898E+03  0.88597404530E+02  0.23452161935E+03  0.00000000000E+00 0.  1.
<mgrwt>
<rscale>  0 0.10823583E+04</rscale>
<asrwt>0</asrwt>
<pdfrwt beam="1">  1        2 0.42697741E+00 0.10823583E+04</pdfrwt>
<pdfrwt beam="2">  1       -2 0.74957428E-01 0.10823583E+04</pdfrwt>
<totfact> 0.38456704E+00</totfact>
</mgrwt>
</event>
<event>
12    1  0.1418317E-007  0.7470116E+03  0.7818608E-02  0.9640050E-01
         -1   -1    0    0    0  501 -0.00000000000E+00  0.00000000000E+00  0.53619776237E+03  0.53619776237E+03  0.00000000000E+00 0.  1.
          1   -1    0    0  501    0  0.00000000000E+00 -0.00000000000E+00 -0.14521950398E+04  0.14521950398E+04  0.00000000000E+00 0. -1.
         23    2    1    2    0    0 -0.11198546432E+03 -0.68820884945E+03 -0.79368009860E+03  0.10601728538E+04  0.88691692260E+02 0.  0.
    5000000    2    1    2    0    0  0.11198546432E+03  0.68820884945E+03 -0.12231717883E+03  0.92821994840E+03  0.60038205811E+03 0.  0.
         23    2    4    4    0    0 -0.56210408848E+02  0.55337719212E+03  0.13494876437E+03  0.58017549423E+03  0.94902625276E+02 0.  0.
         23    2    4    4    0    0  0.16819587316E+03  0.13483165733E+03 -0.25726594320E+03  0.34804445416E+03  0.92085552498E+02 0.  0.
          2    1    3    3  502    0 -0.79705873616E+02 -0.38931861842E+03 -0.38948306367E+03  0.55643424573E+03  0.00000000000E+00 0. -1.
         -2    1    3    3    0  502 -0.32279590699E+02 -0.29889023103E+03 -0.40419703493E+03  0.50373860804E+03  0.00000000000E+00 0.  1.
         13    1    5    5    0    0 -0.82500149530E+02  0.37887192051E+03  0.95861719575E+02  0.39942418067E+03  0.00000000000E+00 0. -1.
        -13    1    5    5    0    0  0.26289740682E+02  0.17450527161E+03  0.39087044791E+02  0.18075131357E+03  0.00000000000E+00 0.  1.
          2    1    6    6  503    0  0.17224091353E+03  0.14220982085E+03 -0.25564154707E+03  0.33947483858E+03  0.00000000000E+00 0.  1.
         -2    1    6    6    0  503 -0.40450403654E+01 -0.73781635246E+01 -0.16243961320E+01  0.85696155892E+01  0.00000000000E+00 0. -1.
<mgrwt>
<rscale>  0 0.74701157E+03</rscale>
<asrwt>0</asrwt>
<pdfrwt beam="1">  1        1 0.22341462E+00 0.74701157E+03</pdfrwt>
<pdfrwt beam="2">  1       -1 0.82491964E-01 0.74701157E+03</pdfrwt>
<totfact> 0.10707011E+01</totfact>
</mgrwt>
</event>
<event>
12    1  0.1418317E-007  0.6494823E+03  0.7818608E-02  0.9807751E-01
         -2   -1    0    0    0  501 -0.00000000000E+00  0.00000000000E+00  0.11790107594E+04  0.11790107594E+04  0.00000000000E+00 0.  1.
          2   -1    0    0  501    0  0.00000000000E+00 -0.00000000000E+00 -0.43247023788E+03  0.43247023788E+03  0.00000000000E+00 0. -1.
         23    2    1    2    0    0  0.51853275530E+03  0.60457246150E+02  0.14393048072E+02  0.53043276179E+03  0.92846421636E+02 0.  0.
    5000000    2    1    2    0    0 -0.51853275530E+03 -0.60457246150E+02  0.73214747347E+03  0.10810482355E+04  0.60007838461E+03 0.  0.
         23    2    4    4    0    0  0.10398065001E+03  0.71020384423E+02  0.18429772115E+03  0.23696410878E+03  0.79564239751E+02 0.  0.
         23    2    4    4    0    0 -0.62251340532E+03 -0.13147763057E+03  0.54784975232E+03  0.84408412674E+03  0.86771854661E+02 0.  0.
          3    1    3    3  502    0  0.18719145864E+03  0.39605538234E+02  0.46446808028E+02  0.19689222133E+03  0.00000000000E+00 0. -1.
         -3    1    3    3    0  502  0.33134129667E+03  0.20851707916E+02 -0.32053759956E+02  0.33354054045E+03  0.00000000000E+00 0.  1.
         13    1    5    5    0    0  0.88062643157E+01 -0.87156602008E+01  0.60041124942E+02  0.61306196328E+02  0.00000000000E+00 0. -1.
        -13    1    5    5    0    0  0.95174385697E+02  0.79736044623E+02  0.12425659621E+03  0.17565791245E+03  0.00000000000E+00 0.  1.
          3    1    6    6  503    0 -0.34640692886E+03 -0.42567278689E+02  0.25800521262E+03  0.43402352853E+03  0.00000000000E+00 0. -1.
         -3    1    6    6    0  503 -0.27610647646E+03 -0.88910351884E+02  0.28984453970E+03  0.41006059821E+03  0.00000000000E+00 0.  1.
<mgrwt>
<rscale>  0 0.64948229E+03</rscale>
<asrwt>0</asrwt>
<pdfrwt beam="1">  1        2 0.66533883E-01 0.64948229E+03</pdfrwt>
<pdfrwt beam="2">  1       -2 0.18138627E+00 0.64948229E+03</pdfrwt>
<totfact> 0.13255586E+01</totfact>
</mgrwt>
</event>
<event>
12    1  0.1418317E-007  0.4013064E+03  0.7818608E-02  0.1043328E+00
         -1   -1    0    0    0  501 -0.00000000000E+00  0.00000000000E+00  0.25684814441E+03  0.25684814441E+03  0.00000000000E+00 0.  1.
          1   -1    0    0  501    0  0.00000000000E+00 -0.00000000000E+00 -0.78738833592E+03  0.78738833592E+03  0.00000000000E+00 0. -1.
         23    2    1    2    0    0 -0.18065537348E+03  0.78216456635E+02 -0.29772438936E+03  0.37118201678E+03  0.10189258808E+03 0.  0.
    5000000    2    1    2    0    0  0.18065537348E+03 -0.78216456635E+02 -0.23281580215E+03  0.67305446355E+03  0.60003744477E+03 0.  0.
         23    2    4    4    0    0 -0.99282648857E+02  0.17590848166E+03 -0.17123465319E+03  0.27972171707E+03  0.90122662302E+02 0.  0.
         23    2    4    4    0    0  0.27993802233E+03 -0.25412493829E+03 -0.61581148954E+02  0.39333274648E+03  0.89295189902E+02 0.  0.
          1    1    3    3  502    0 -0.89201718432E+02  0.51591885642E+02 -0.70652618603E+02  0.12494183347E+03  0.00000000000E+00 0. -1.
         -1    1    3    3    0  502 -0.91453655044E+02  0.26624570992E+02 -0.22707177075E+03  0.24624018331E+03  0.00000000000E+00 0.  1.
         11    1    5    5    0    0 -0.85887812811E+02  0.18204786183E+03 -0.17227977609E+03  0.26494992288E+03  0.00000000000E+00 0. -1.
        -11    1    5    5    0    0 -0.13394836046E+02 -0.61393801698E+01  0.10451228940E+01  0.14771794185E+02  0.00000000000E+00 0.  1.
          3    1    6    6  503    0  0.27444172706E+03 -0.26150883705E+03 -0.58198873965E+02  0.38352606475E+03  0.00000000000E+00 0. -1.
         -3    1    6    6    0  503  0.54962952693E+01  0.73838987589E+01 -0.33822749891E+01  0.98066817360E+01  0.00000000000E+00 0.  1.
<mgrwt>
<rscale>  0 0.40130642E+03</rscale>
<asrwt>0</asrwt>
<pdfrwt beam="1">  1        1 0.12113667E+00 0.40130642E+03</pdfrwt>
<pdfrwt beam="2">  1       -1 0.39515099E-01 0.40130642E+03</pdfrwt>
<totfact> 0.14794967E+02</totfact>
</mgrwt>
</event>
<event>
12    1  0.1418317E-007  0.7997210E+03  0.7818608E-02  0.9560421E-01
          2   -1    0    0  501    0  0.00000000000E+00  0.00000000000E+00  0.12868015113E+04  0.12868015113E+04  0.00000000000E+00 0. -1.
         -2   -1    0    0    0  501 -0.00000000000E+00 -0.00000000000E+00 -0.63450032714E+03  0.63450032714E+03  0.00000000000E+00 0.  1.
         23    2    1    2    0    0 -0.23253079044E+03 -0.70306154517E+03 -0.33996681143E+02  0.74696207795E+03  0.91817573348E+02 0.  0.
    5000000    2    1    2    0    0  0.23253079044E+03  0.70306154517E+03  0.68629786525E+03  0.11743397604E+04  0.59975245585E+03 0.  0.
         23    2    4    4    0    0  0.16983827357E+01  0.59433021130E+03  0.67232441086E+03  0.90272541835E+03  0.98294368782E+02 0.  0.
         23    2    4    4    0    0  0.23083240771E+03  0.10873133387E+03  0.13973454396E+02  0.27161434209E+03  0.92048845665E+02 0.  0.
          1    1    3    3  502    0 -0.16162056744E+03 -0.40044124722E+03 -0.55618041727E+02  0.43539380664E+03  0.00000000000E+00 0. -1.
         -1    1    3    3    0  502 -0.70910223001E+02 -0.30262029795E+03  0.21621360583E+02  0.31156827131E+03  0.00000000000E+00 0.  1.
         11    1    5    5    0    0 -0.22923525370E+02  0.49651233721E+03  0.51412574757E+03  0.71510507852E+03  0.00000000000E+00 0. -1.
        -11    1    5    5    0    0  0.24621908106E+02  0.97817874085E+02  0.15819866329E+03  0.18762033983E+03  0.00000000000E+00 0.  1.
          4    1    6    6  503    0  0.74735847248E+02  0.58497436889E+02  0.44491326351E+02  0.10481829567E+03  0.00000000000E+00 0. -1.
         -4    1    6    6    0  503  0.15609656046E+03  0.50233896983E+02 -0.30517871955E+02  0.16679604642E+03  0.00000000000E+00 0.  1.
<mgrwt>
<rscale>  0 0.79972102E+03</rscale>
<asrwt>0</asrwt>
<pdfrwt beam="1">  1        2 0.19796946E+00 0.79972102E+03</pdfrwt>
<pdfrwt beam="2">  1       -2 0.97615435E-01 0.79972102E+03</pdfrwt>
<totfact> 0.14932724E+01</totfact>
</mgrwt>
</event>
<event>
12    1  0.1418317E-007  0.7847227E+03  0.7818608E-02  0.9582397E-01
         -1   -1    0    0    0  501 -0.00000000000E+00  0.00000000000E+00  0.12914671298E+04  0.12914671298E+04  0.00000000000E+00 0.  1.
          1   -1    0    0  501    0  0.00000000000E+00 -0.00000000000E+00 -0.55917740141E+03  0.55917740141E+03  0.00000000000E+00 0. -1.
         23    2    1    2    0    0  0.26598220051E+03  0.69105510469E+03  0.29931981770E+03  0.80389155495E+03  0.91354201664E+02 0.  0.
    5000000    2    1    2    0    0 -0.26598220051E+03 -0.69105510469E+03  0.43296991073E+03  0.10467529763E+04  0.59993763098E+03 0.  0.
         23    2    4    4    0    0 -0.18469856423E+03 -0.95071731889E+02 -0.90204865624E+02  0.24430213804E+03  0.91621084022E+02 0.  0.
         23    2    4    4    0    0 -0.81283636278E+02 -0.59598337280E+03  0.52317477635E+03  0.80245083824E+03  0.91718542336E+02 0.  0.
          4    1    3    3  502    0  0.18521002095E+03  0.47448279441E+03  0.25063927460E+03  0.56767659809E+03  0.00000000000E+00 0.  1.
         -4    1    3    3    0  502  0.80772179565E+02  0.21657231027E+03  0.48680543099E+02  0.23621495686E+03  0.00000000000E+00 0. -1.
         11    1    5    5    0    0 -0.83144170664E+02 -0.87610218677E+02 -0.72717088382E+02  0.14098325601E+03  0.00000000000E+00 0.  1.
        -11    1    5    5    0    0 -0.10155439357E+03 -0.74615132112E+01 -0.17487777242E+02  0.10331888204E+03  0.00000000000E+00 0. -1.
          1    1    6    6  503    0  0.19264883125E+01 -0.26668243980E+03  0.26349334393E+03  0.37490262382E+03  0.00000000000E+00 0. -1.
         -1    1    6    6    0  503 -0.83210124591E+02 -0.32930093300E+03  0.25968143242E+03  0.42754821442E+03  0.00000000000E+00 0.  1.
<mgrwt>
<rscale>  0 0.78472268E+03</rscale>
<asrwt>0</asrwt>
<pdfrwt beam="1">  1        1 0.86027293E-01 0.78472268E+03</pdfrwt>
<pdfrwt beam="2">  1       -1 0.19868725E+00 0.78472268E+03</pdfrwt>
<totfact> 0.59975664E+00</totfact>
</mgrwt>
</event>
<event>
12    1  0.1418317E-007  0.1555581E+04  0.7818608E-02  0.8848311E-01
         -2   -1    0    0    0  501 -0.00000000000E+00  0.00000000000E+00  0.97067256085E+03  0.97067256085E+03  0.00000000000E+00 0.  1.
          2   -1    0    0  501    0  0.00000000000E+00 -0.00000000000E+00 -0.26286491734E+04  0.26286491734E+04  0.00000000000E+00 0. -1.
         23    2    1    2    0    0  0.96623819825E+03 -0.11669565470E+04 -0.11093514965E+04  0.18800053649E+04  0.91408923446E+02 0.  0.
    5000000    2    1    2    0    0 -0.96623819825E+03  0.11669565470E+04 -0.54862511610E+03  0.17193163693E+04  0.59971278249E+03 0.  0.
         23    2    4    4    0    0 -0.62753941066E+03  0.36959263879E+03 -0.39640326166E+03  0.83429901488E+03  0.92276052117E+02 0.  0.
         23    2    4    4    0    0 -0.33869878759E+03  0.79736390818E+03 -0.15222185445E+03  0.88501735443E+03  0.97868043268E+02 0.  0.
          2    1    3    3  502    0  0.41194647108E+03 -0.46750869179E+03 -0.40597732812E+03  0.74369473770E+03  0.00000000000E+00 0. -1.
         -2    1    3    3    0  502  0.55429172717E+03 -0.69944785518E+03 -0.70337416833E+03  0.11363106272E+04  0.00000000000E+00 0.  1.
         11    1    5    5    0    0 -0.34456084577E+03  0.18164618119E+03 -0.16357608144E+03  0.42246259716E+03  0.00000000000E+00 0. -1.
        -11    1    5    5    0    0 -0.28297856489E+03  0.18794645760E+03 -0.23282718022E+03  0.41183641772E+03  0.00000000000E+00 0.  1.
          1    1    6    6  503    0 -0.21693757997E+03  0.49707610440E+03 -0.14283704802E+03  0.56084667197E+03  0.00000000000E+00 0. -1.
         -1    1    6    6    0  503 -0.12176120762E+03  0.30028780377E+03 -0.93848064333E+01  0.32417068246E+03  0.00000000000E+00 0.  1.
<mgrwt>
<rscale>  0 0.15555811E+04</rscale>
<asrwt>0</asrwt>
<pdfrwt beam="1">  1        2 0.40440756E+00 0.15555811E+04</pdfrwt>
<pdfrwt beam="2">  1       -2 0.14933424E+00 0.15555811E+04</pdfrwt>
<totfact> 0.83432152E-01</totfact>
</mgrwt>
</event>
<event>
12    1  0.1605269E-007  0.8999469E+03  0.7818608E-02  0.9425648E-01
         -1   -1    0    0    0  501 -0.00000000000E+00  0.00000000000E+00  0.61653095931E+03  0.61653095931E+03  0.00000000000E+00 0.  1.
          1   -1    0    0  501    0  0.00000000000E+00 -0.00000000000E+00 -0.14915816847E+04  0.14915816847E+04  0.00000000000E+00 0. -1.
         23    2    1    2    0    0  0.70478903875E+03  0.48503415693E+03 -0.26453921541E+03  0.89799544055E+03  0.66551425452E+02 0.  0.
    5000000    2    1    2    0    0 -0.70478903875E+03 -0.48503415693E+03 -0.61051150995E+03  0.12101172034E+04  0.59972795475E+03 0.  0.
         23    2    4    4    0    0 -0.71311313221E+03 -0.50471925125E+03 -0.37279054497E+03  0.95417386023E+03  0.90570984298E+02 0.  0.
         23    2    4    4    0    0  0.83240934647E+01  0.19685094327E+02 -0.23772096498E+03  0.25594334319E+03  0.92406408139E+02 0.  0.
          2    1    3    3  502    0  0.42096481686E+03  0.30459846265E+03 -0.12894534081E+03  0.53536763200E+03  0.00000000000E+00 0.  1.
         -2    1    3    3    0  502  0.28382422189E+03  0.18043569428E+03 -0.13559387460E+03  0.36262780854E+03  0.00000000000E+00 0. -1.
         11    1    5    5    0    0 -0.30425841821E+03 -0.23016489335E+03 -0.20995912063E+03  0.43546744485E+03  0.00000000000E+00 0. -1.
        -11    1    5    5    0    0 -0.40885471400E+03 -0.27455435790E+03 -0.16283142435E+03  0.51870641538E+03  0.00000000000E+00 0.  1.
          4    1    6    6  503    0  0.37376181263E+02  0.16099828536E+02 -0.43654665008E+02  0.59681765905E+02  0.00000000000E+00 0.  1.
         -4    1    6    6    0  503 -0.29052087798E+02  0.35852657916E+01 -0.19406629997E+03  0.19626157729E+03  0.00000000000E+00 0. -1.
<mgrwt>
<rscale>  0 0.89994686E+03</rscale>
<asrwt>0</asrwt>
<pdfrwt beam="1">  1        1 0.22947410E+00 0.89994686E+03</pdfrwt>
<pdfrwt beam="2">  1       -1 0.94850918E-01 0.89994686E+03</pdfrwt>
<totfact> 0.72524423E+00</totfact>
</mgrwt>
</event>
<event>
12    1  0.1418317E-007  0.5037277E+03  0.7818608E-02  0.1012810E+00
         -1   -1    0    0    0  501 -0.00000000000E+00  0.00000000000E+00  0.44287786974E+03  0.44287786974E+03  0.00000000000E+00 0.  1.
          1   -1    0    0  501    0  0.00000000000E+00 -0.00000000000E+00 -0.18714752369E+04  0.18714752369E+04  0.00000000000E+00 0. -1.
         23    2    1    2    0    0  0.33557317289E+03 -0.66399373917E+02  0.29393651909E+03  0.45850823157E+03  0.82540232324E+02 0.  0.
    5000000    2    1    2    0    0 -0.33557317289E+03  0.66399373917E+02 -0.17225338863E+04  0.18558448751E+04  0.60001581632E+03 0.  0.
         23    2    4    4    0    0  0.55906650738E+02  0.21830089225E+03 -0.42257185850E+03  0.48664363377E+03  0.86453557128E+02 0.  0.
         23    2    4    4    0    0 -0.39147982362E+03 -0.15190151833E+03 -0.12999620278E+04  0.13692012413E+04  0.92088229494E+02 0.  0.
          2    1    3    3  502    0  0.20570759372E+03 -0.55797212352E+02  0.13217824766E+03  0.25079878822E+03  0.00000000000E+00 0. -1.
         -2    1    3    3    0  502  0.12986557917E+03 -0.10602161565E+02  0.16175827143E+03  0.20770944335E+03  0.00000000000E+00 0.  1.
         11    1    5    5    0    0  0.62952194598E+02  0.75941068890E+02 -0.16350324877E+03  0.19095375647E+03  0.00000000000E+00 0. -1.
        -11    1    5    5    0    0 -0.70455438601E+01  0.14235982336E+03 -0.25906860973E+03  0.29568987731E+03  0.00000000000E+00 0.  1.
          1    1    6    6  503    0 -0.26325364294E+03 -0.76738702815E+02 -0.71861064527E+03  0.76915054997E+03  0.00000000000E+00 0. -1.
         -1    1    6    6    0  503 -0.12822618069E+03 -0.75162815515E+02 -0.58135138250E+03  0.60005069135E+03  0.00000000000E+00 0.  1.
<mgrwt>
<rscale>  0 0.50372768E+03</rscale>
<asrwt>0</asrwt>
<pdfrwt beam="1">  1        1 0.28791927E+00 0.50372768E+03</pdfrwt>
<pdfrwt beam="2">  1       -1 0.68135057E-01 0.50372768E+03</pdfrwt>
<totfact> 0.87133603E+00</totfact>
</mgrwt>
</event>
<event>
12    1  0.1418317E-007  0.5404447E+03  0.7818608E-02  0.1003730E+00
          2   -1    0    0  501    0  0.00000000000E+00  0.00000000000E+00  0.29163190852E+03  0.29163190852E+03  0.00000000000E+00 0. -1.
         -2   -1    0    0    0  501 -0.00000000000E+00 -0.00000000000E+00 -0.13402183210E+04  0.13402183210E+04  0.00000000000E+00 0.  1.
         23    2    1    2    0    0  0.37729516122E+03 -0.11849712161E+03 -0.61713231060E+02  0.41122686129E+03  0.94370557088E+02 0.  0.
    5000000    2    1    2    0    0 -0.37729516122E+03  0.11849712161E+03 -0.98687318139E+03  0.12206233682E+04  0.59967451532E+03 0.  0.
         23    2    4    4    0    0 -0.44707327542E+03  0.25359847275E+03 -0.85272327931E+03  0.99978084509E+03  0.90763694048E+02 0.  0.
         23    2    4    4    0    0  0.69778114191E+02 -0.13510135114E+03 -0.13414990209E+03  0.22084252311E+03  0.87486361708E+02 0.  0.
          2    1    3    3  502    0  0.31503378541E+03 -0.13231113213E+03 -0.40841086862E+02  0.34412282111E+03  0.00000000000E+00 0. -1.
         -2    1    3    3    0  502  0.62261375814E+02  0.13814010514E+02 -0.20872144198E+02  0.67104040177E+02  0.00000000000E+00 0.  1.
         13    1    5    5    0    0 -0.24370816282E+03  0.16919060116E+03 -0.55704036622E+03  0.63112050969E+03  0.00000000000E+00 0. -1.
        -13    1    5    5    0    0 -0.20336511259E+03  0.84407871595E+02 -0.29568291309E+03  0.36866033540E+03  0.00000000000E+00 0.  1.
          1    1    6    6  503    0  0.53686341592E+02 -0.55013536514E+02 -0.11264114684E+03  0.13636986630E+03  0.00000000000E+00 0. -1.
         -1    1    6    6    0  503  0.16091772599E+02 -0.80087814627E+02 -0.21508755250E+02  0.84472656816E+02  0.00000000000E+00 0.  1.
<mgrwt>
<rscale>  0 0.54044466E+03</rscale>
<asrwt>0</asrwt>
<pdfrwt beam="1">  1        2 0.44866448E-01 0.54044466E+03</pdfrwt>
<pdfrwt beam="2">  1       -2 0.20618743E+00 0.54044466E+03</pdfrwt>
<totfact> 0.14304399E+01</totfact>
</mgrwt>
</event>
<event>
12    1  0.1418317E-007  0.4534830E+03  0.7818608E-02  0.1026688E+00
          2   -1    0    0  501    0  0.00000000000E+00  0.00000000000E+00  0.12049825411E+03  0.12049825411E+03  0.00000000000E+00 0.  1.
         -2   -1    0    0    0  501 -0.00000000000E+00 -0.00000000000E+00 -0.20919241717E+04  0.20919241717E+04  0.00000000000E+00 0. -1.
         23    2    1    2    0    0 -0.19200850002E+03  0.24034637637E+03 -0.78053464459E+03  0.84386030637E+03  0.90731695383E+02 0.  0.
    5000000    2    1    2    0    0  0.19200850002E+03 -0.24034637637E+03 -0.11908912730E+04  0.13685621195E+04  0.60008883171E+03 0.  0.
         23    2    4    4    0    0  0.35524428529E+03 -0.12420390418E+03 -0.10155299124E+04  0.10869742134E+04  0.92665126256E+02 0.  0.
         23    2    4    4    0    0 -0.16323578527E+03 -0.11614247218E+03 -0.17536136069E+03  0.28158790610E+03  0.91679586596E+02 0.  0.
          3    1    3    3  502    0 -0.22313049455E+02  0.88042779136E+02 -0.26555432581E+03  0.28065726980E+03  0.00000000000E+00 0. -1.
         -3    1    3    3    0  502 -0.16969545057E+03  0.15230359723E+03 -0.51498031878E+03  0.56320303657E+03  0.00000000000E+00 0.  1.
         13    1    5    5    0    0  0.14807397343E+03 -0.99805186949E+02 -0.44383215098E+03  0.47840772902E+03  0.00000000000E+00 0. -1.
        -13    1    5    5    0    0  0.20717031186E+03 -0.24398717234E+02 -0.57169776138E+03  0.60856648436E+03  0.00000000000E+00 0.  1.
          2    1    6    6  503    0 -0.50653377608E+02 -0.27353479414E+02 -0.33642207274E+01  0.57665375056E+02  0.00000000000E+00 0. -1.
         -2    1    6    6    0  503 -0.11258240766E+03 -0.88788992771E+02 -0.17199713996E+03  0.22392253104E+03  0.00000000000E+00 0.  1.
<mgrwt>
<rscale>  0 0.45348296E+03</rscale>
<asrwt>0</asrwt>
<pdfrwt beam="1">  1        2 0.18538194E-01 0.45348296E+03</pdfrwt>
<pdfrwt beam="2">  1       -2 0.32183447E+00 0.45348296E+03</pdfrwt>
<totfact> 0.79123050E+00</totfact>
</mgrwt>
</event>
<event>
12    1  0.1418317E-007  0.8216550E+03  0.7818608E-02  0.9529191E-01
         -2   -1    0    0    0  501 -0.00000000000E+00  0.00000000000E+00  0.59565660735E+03  0.59565660735E+03  0.00000000000E+00 0.  1.
          2   -1    0    0  501    0  0.00000000000E+00 -0.00000000000E+00 -0.14909032244E+04  0.14909032244E+04  0.00000000000E+00 0. -1.
         23    2    1    2    0    0  0.24939079106E+02 -0.79549329132E+03 -0.71452041950E+03  0.10734774567E+04  0.91558101933E+02 0.  0.
    5000000    2    1    2    0    0 -0.24939079106E+02  0.79549329132E+03 -0.18072619753E+03  0.10130823750E+04  0.60020197091E+03 0.  0.
         23    2    4    4    0    0 -0.97059769194E+02  0.60568606349E+03  0.12709560084E+03  0.63326597879E+03  0.92716243611E+02 0.  0.
         23    2    4    4    0    0  0.72120690088E+02  0.18980722783E+03 -0.30782179838E+03  0.37981639622E+03  0.90983831586E+02 0.  0.
          3    1    3    3  502    0  0.55135563259E+02 -0.38707415981E+03 -0.32791940100E+03  0.51029155302E+03  0.00000000000E+00 0. -1.
         -3    1    3    3    0  502 -0.30196484153E+02 -0.40841913150E+03 -0.38660101850E+03  0.56318590371E+03  0.00000000000E+00 0.  1.
         11    1    5    5    0    0 -0.50903150741E+02  0.96563587147E+02  0.23840982859E+02  0.11173204367E+03  0.00000000000E+00 0.  1.
        -11    1    5    5    0    0 -0.46156618453E+02  0.50912247634E+03  0.10325461799E+03  0.52153393512E+03  0.00000000000E+00 0. -1.
          3    1    6    6  503    0  0.80806108828E+02  0.85077435690E+02 -0.16728250464E+03  0.20433118618E+03  0.00000000000E+00 0. -1.
         -3    1    6    6    0  503 -0.86854187391E+01  0.10472979214E+03 -0.14053929374E+03  0.17548521004E+03  0.00000000000E+00 0.  1.
<mgrwt>
<rscale>  0 0.82165502E+03</rscale>
<asrwt>0</asrwt>
<pdfrwt beam="1">  1        2 0.22936973E+00 0.82165502E+03</pdfrwt>
<pdfrwt beam="2">  1       -2 0.91639478E-01 0.82165502E+03</pdfrwt>
<totfact> 0.13217218E+01</totfact>
</mgrwt>
</event>
<event>
12    1  0.1418317E-007  0.4156686E+03  0.7818608E-02  0.1038485E+00
         -2   -1    0    0    0  501 -0.00000000000E+00  0.00000000000E+00  0.55830983694E+03  0.55830983694E+03  0.00000000000E+00 0.  1.
          2   -1    0    0  501    0  0.00000000000E+00 -0.00000000000E+00 -0.39150557182E+03  0.39150557182E+03  0.00000000000E+00 0. -1.
         23    2    1    2    0    0  0.22541790288E+03 -0.13777358514E+03  0.79696883851E+02  0.28856421215E+03  0.84397390582E+02 0.  0.
    5000000    2    1    2    0    0 -0.22541790288E+03  0.13777358514E+03  0.87107381269E+02  0.66125119661E+03  0.59989220486E+03 0.  0.
         23    2    4    4    0    0  0.12817214145E+03  0.13398269211E+03 -0.12180120570E+03  0.24046407762E+03  0.92779196427E+02 0.  0.
         23    2    4    4    0    0 -0.35359004433E+03  0.37908930311E+01  0.20890858696E+03  0.42078711899E+03  0.91535301825E+02 0.  0.
          3    1    3    3  502    0  0.43544589886E+02  0.64733598994E+01  0.22729655450E+02  0.49544655954E+02  0.00000000000E+00 0. -1.
         -3    1    3    3    0  502  0.18187331300E+03 -0.14424694504E+03  0.56967228401E+02  0.23901955620E+03  0.00000000000E+00 0.  1.
         11    1    5    5    0    0  0.43384376164E+02  0.91909446712E+02 -0.24141841318E+02  0.10446233289E+03  0.00000000000E+00 0. -1.
        -11    1    5    5    0    0  0.84787765286E+02  0.42073245394E+02 -0.97659364377E+02  0.13600174473E+03  0.00000000000E+00 0.  1.
          1    1    6    6  503    0 -0.24066353360E+03  0.31235033361E+02  0.10328779154E+03  0.26374785610E+03  0.00000000000E+00 0. -1.
         -1    1    6    6    0  503 -0.11292651073E+03 -0.27444140330E+02  0.10562079542E+03  0.15703926289E+03  0.00000000000E+00 0.  1.
<mgrwt>
<rscale>  0 0.41566865E+03</rscale>
<asrwt>0</asrwt>
<pdfrwt beam="1">  1        2 0.60231627E-01 0.41566865E+03</pdfrwt>
<pdfrwt beam="2">  1       -2 0.85893821E-01 0.41566865E+03</pdfrwt>
<totfact> 0.98912388E+01</totfact>
</mgrwt>
</event>
<event>
12    1  0.1418317E-007  0.7263790E+03  0.7818608E-02  0.9673154E-01
          2   -1    0    0  501    0  0.00000000000E+00  0.00000000000E+00  0.23155246551E+04  0.23155246551E+04  0.00000000000E+00 0. -1.
         -2   -1    0    0    0  501 -0.00000000000E+00 -0.00000000000E+00 -0.25642798849E+03  0.25642798849E+03  0.00000000000E+00 0.  1.
         23    2    1    2    0    0  0.34608322648E+03 -0.54694095795E+03  0.97591019043E+03  0.11747500634E+04  0.93375588367E+02 0.  0.
    5000000    2    1    2    0    0 -0.34608322648E+03  0.54694095795E+03  0.10831864761E+04  0.13972025802E+04  0.59997007992E+03 0.  0.
         23    2    4    4    0    0 -0.11469439066E+03  0.54652028302E+03  0.97187756211E+03  0.11241721375E+04  0.85893981145E+02 0.  0.
         23    2    4    4    0    0 -0.23138883582E+03  0.42067493508E+00  0.11130891402E+03  0.27303044266E+03  0.92816905621E+02 0.  0.
          3    1    3    3  502    0  0.31101576412E+03 -0.50484238146E+03  0.93153421674E+03  0.11042430134E+04  0.00000000000E+00 0. -1.
         -3    1    3    3    0  502  0.35067462360E+02 -0.42098576489E+02  0.44375973688E+02  0.70507049999E+02  0.00000000000E+00 0.  1.
         13    1    5    5    0    0 -0.68539995645E+02  0.44447604708E+03  0.82312213689E+03  0.93796947694E+03  0.00000000000E+00 0. -1.
        -13    1    5    5    0    0 -0.46154395015E+02  0.10204423594E+03  0.14875542523E+03  0.18620266056E+03  0.00000000000E+00 0.  1.
          4    1    6    6  503    0 -0.67896659264E+02 -0.34418644319E+02  0.80501456116E+01  0.76546745590E+02  0.00000000000E+00 0. -1.
         -4    1    6    6    0  503 -0.16349217656E+03  0.34839319255E+02  0.10325876841E+03  0.19648369707E+03  0.00000000000E+00 0.  1.
<mgrwt>
<rscale>  0 0.72637901E+03</rscale>
<asrwt>0</asrwt>
<pdfrwt beam="1">  1        2 0.35623455E+00 0.72637901E+03</pdfrwt>
<pdfrwt beam="2">  1       -2 0.39450461E-01 0.72637901E+03</pdfrwt>
<totfact> 0.28157527E+01</totfact>
</mgrwt>
</event>
<event>
12    1  0.1418317E-007  0.1874389E+04  0.7818608E-02  0.8667711E-01
         -2   -1    0    0    0  501 -0.00000000000E+00  0.00000000000E+00  0.15988902901E+04  0.15988902901E+04  0.00000000000E+00 0.  1.
          2   -1    0    0  501    0  0.00000000000E+00 -0.00000000000E+00 -0.30284345366E+04  0.30284345366E+04  0.00000000000E+00 0. -1.
         23    2    1    2    0    0 -0.14576842288E+04 -0.11441818695E+04  0.46211444004E+03  0.19121118250E+04  0.92878491568E+02 0.  0.
    5000000    2    1    2    0    0  0.14576842288E+04  0.11441818695E+04 -0.18916586866E+04  0.27152130018E+04  0.60001133078E+03 0.  0.
         23    2    4    4    0    0  0.86632660886E+03  0.44582567636E+03 -0.66933578266E+03  0.11855612340E+04  0.90899519825E+02 0.  0.
         23    2    4    4    0    0  0.59135761997E+03  0.69835619311E+03 -0.12223229039E+04  0.15296517677E+04  0.91411388980E+02 0.  0.
          1    1    3    3  502    0 -0.12150769539E+04 -0.93294460619E+03  0.41372856397E+03  0.15868109424E+04  0.00000000000E+00 0. -1.
         -1    1    3    3    0  502 -0.24260727489E+03 -0.21123726328E+03  0.48385876067E+02  0.32530088261E+03  0.00000000000E+00 0.  1.
         13    1    5    5    0    0  0.53207207542E+03  0.30806494624E+03 -0.38280460020E+03  0.72425414495E+03  0.00000000000E+00 0.  1.
        -13    1    5    5    0    0  0.33425453344E+03  0.13776073011E+03 -0.28653118247E+03  0.46130708906E+03  0.00000000000E+00 0. -1.
          1    1    6    6  503    0  0.58355928977E+03  0.66580741667E+03 -0.11890452080E+04  0.14824538669E+04  0.00000000000E+00 0. -1.
         -1    1    6    6    0  503  0.77983301976E+01  0.32548776444E+02 -0.33277695882E+02  0.47197900855E+02  0.00000000000E+00 0.  1.
<mgrwt>
<rscale>  0 0.18743887E+04</rscale>
<asrwt>0</asrwt>
<pdfrwt beam="1">  1        2 0.46591301E+00 0.18743887E+04</pdfrwt>
<pdfrwt beam="2">  1       -2 0.24598312E+00 0.18743887E+04</pdfrwt>
<totfact> 0.10229171E-01</totfact>
</mgrwt>
</event>
<event>
12    1  0.1418317E-007  0.9312815E+03  0.7818608E-02  0.9387301E-01
          1   -1    0    0  501    0  0.00000000000E+00  0.00000000000E+00  0.87165113998E+03  0.87165113998E+03  0.00000000000E+00 0. -1.
         -1   -1    0    0    0  501 -0.00000000000E+00 -0.00000000000E+00 -0.11716138216E+04  0.11716138216E+04  0.00000000000E+00 0.  1.
         23    2    1    2    0    0 -0.82729539036E+03 -0.19076853302E+03  0.22000448969E+03  0.88165880589E+03  0.90055418554E+02 0.  0.
    5000000    2    1    2    0    0  0.82729539036E+03  0.19076853302E+03 -0.51996717133E+03  0.11616061557E+04  0.59845860812E+03 0.  0.
         23    2    4    4    0    0  0.53717892971E+03  0.37522639139E+03 -0.44738991955E+03  0.79861087047E+03  0.90914987770E+02 0.  0.
         23    2    4    4    0    0  0.29011646065E+03 -0.18445785837E+03 -0.72577251784E+02  0.36299528525E+03  0.91136476679E+02 0.  0.
          4    1    3    3  502    0 -0.43001910862E+03 -0.14451205409E+03  0.10850568221E+03  0.46644790773E+03  0.00000000000E+00 0. -1.
         -4    1    3    3    0  502 -0.39727628175E+03 -0.46256478931E+02  0.11149880748E+03  0.41521089816E+03  0.00000000000E+00 0.  1.
         11    1    5    5    0    0  0.24129177779E+03  0.22225143558E+03 -0.23563645271E+03  0.40390835655E+03  0.00000000000E+00 0. -1.
        -11    1    5    5    0    0  0.29588715193E+03  0.15297495581E+03 -0.21175346684E+03  0.39470251392E+03  0.00000000000E+00 0.  1.
          3    1    6    6  503    0  0.12963673827E+01 -0.10637417615E+02 -0.18802209463E+02  0.21641587340E+02  0.00000000000E+00 0. -1.
         -3    1    6    6    0  503  0.28882009327E+03 -0.17382044075E+03 -0.53775042321E+02  0.34135369791E+03  0.00000000000E+00 0.  1.
<mgrwt>
<rscale>  0 0.93128150E+03</rscale>
<asrwt>0</asrwt>
<pdfrwt beam="1">  1        1 0.13410018E+00 0.93128150E+03</pdfrwt>
<pdfrwt beam="2">  1       -1 0.18024828E+00 0.93128150E+03</pdfrwt>
<totfact> 0.40264818E+00</totfact>
</mgrwt>
</event>
<event>
12    1  0.1418317E-007  0.1042452E+04  0.7818608E-02  0.9263172E-01
          2   -1    0    0  501    0  0.00000000000E+00  0.00000000000E+00  0.14360540290E+04  0.14360540290E+04  0.00000000000E+00 0. -1.
         -2   -1    0    0    0  501 -0.00000000000E+00 -0.00000000000E+00 -0.10624613344E+04  0.10624613344E+04  0.00000000000E+00 0.  1.
         23    2    1    2    0    0  0.32706824588E+03  0.94664432186E+03 -0.41614857465E+03  0.10889668118E+04  0.97775106643E+02 0.  0.
    5000000    2    1    2    0    0 -0.32706824588E+03 -0.94664432186E+03  0.78974126930E+03  0.14095485516E+04  0.60002228057E+03 0.  0.
         23    2    4    4    0    0  0.75413657120E+02 -0.16180020047E+03  0.38458915554E+03  0.43411449978E+03  0.93166817065E+02 0.  0.
         23    2    4    4    0    0 -0.40248190300E+03 -0.78484412139E+03  0.40515211376E+03  0.97543405178E+03  0.96702517879E+02 0.  0.
          3    1    3    3  502    0  0.14631483945E+03  0.38061471256E+03 -0.21942539173E+03  0.46305841338E+03  0.00000000000E+00 0. -1.
         -3    1    3    3    0  502  0.18075340643E+03  0.56602960930E+03 -0.19672318291E+03  0.62590839844E+03  0.00000000000E+00 0.  1.
         11    1    5    5    0    0  0.87053202442E+02 -0.81338515516E+02  0.24865568584E+03  0.27572425403E+03  0.00000000000E+00 0. -1.
        -11    1    5    5    0    0 -0.11639545321E+02 -0.80461684953E+02  0.13593346970E+03  0.15839024574E+03  0.00000000000E+00 0.  1.
          1    1    6    6  503    0 -0.11367099643E+03 -0.19390649683E+03  0.14851270522E+03  0.26940090674E+03  0.00000000000E+00 0.  1.
         -1    1    6    6    0  503 -0.28881090656E+03 -0.59093762456E+03  0.25663940854E+03  0.70603314503E+03  0.00000000000E+00 0. -1.
<mgrwt>
<rscale>  0 0.10424518E+04</rscale>
<asrwt>0</asrwt>
<pdfrwt beam="1">  1        2 0.22093139E+00 0.10424518E+04</pdfrwt>
<pdfrwt beam="2">  1       -2 0.16345559E+00 0.10424518E+04</pdfrwt>
<totfact> 0.32370972E+00</totfact>
</mgrwt>
</event>
<event>
12    1  0.1418317E-007  0.1874759E+04  0.7818608E-02  0.8667524E-01
         -2   -1    0    0    0  501 -0.00000000000E+00  0.00000000000E+00  0.13618864196E+04  0.13618864196E+04  0.00000000000E+00 0. -1.
          2   -1    0    0  501    0  0.00000000000E+00 -0.00000000000E+00 -0.28125305911E+04  0.28125305911E+04  0.00000000000E+00 0.  1.
         23    2    1    2    0    0 -0.23078747149E+03  0.18162992767E+04 -0.12887250337E+04  0.22409380765E+04  0.93730094761E+02 0.  0.
    5000000    2    1    2    0    0  0.23078747149E+03 -0.18162992767E+04 -0.16191913773E+03  0.19334789342E+04  0.59993088138E+03 0.  0.
         23    2    4    4    0    0  0.41002358892E+03 -0.14444591563E+04 -0.11244407350E+03  0.15084827332E+04  0.91076282156E+02 0.  0.
         23    2    4    4    0    0 -0.17923611743E+03 -0.37184012044E+03 -0.49475064221E+02  0.42499620102E+03  0.88223171227E+02 0.  0.
          3    1    3    3  502    0 -0.19732055440E+03  0.15003516951E+04 -0.11067074677E+04  0.18747778613E+04  0.00000000000E+00 0. -1.
         -3    1    3    3    0  502 -0.33466917093E+02  0.31594758157E+03 -0.18201756603E+03  0.36616021519E+03  0.00000000000E+00 0.  1.
         13    1    5    5    0    0  0.52714890604E+02 -0.30806797586E+03 -0.39171047902E+02  0.31499064817E+03  0.00000000000E+00 0. -1.
        -13    1    5    5    0    0  0.35730869832E+03 -0.11363911804E+04 -0.73273025603E+02  0.11934920850E+04  0.00000000000E+00 0.  1.
          4    1    6    6  503    0 -0.10089607525E+03 -0.25331612452E+03 -0.69833352338E+02  0.28147073390E+03  0.00000000000E+00 0. -1.
         -4    1    6    6    0  503 -0.78340042175E+02 -0.11852399593E+03  0.20358288117E+02  0.14352546712E+03  0.00000000000E+00 0.  1.
<mgrwt>
<rscale>  0 0.18747587E+04</rscale>
<asrwt>0</asrwt>
<pdfrwt beam="1">  1        2 0.43269701E+00 0.18747587E+04</pdfrwt>
<pdfrwt beam="2">  1       -2 0.20952099E+00 0.18747587E+04</pdfrwt>
<totfact> 0.23674294E-01</totfact>
</mgrwt>
</event>
<event>
12    1  0.1418317E-007  0.1065039E+04  0.7818608E-02  0.9239954E-01
          2   -1    0    0  501    0  0.00000000000E+00  0.00000000000E+00  0.15344281347E+04  0.15344281347E+04  0.00000000000E+00 0. -1.
         -2   -1    0    0    0  501 -0.00000000000E+00 -0.00000000000E+00 -0.75321529707E+03  0.75321529707E+03  0.00000000000E+00 0.  1.
         23    2    1    2    0    0 -0.24330386103E+03 -0.95867828525E+03  0.36878586872E+03  0.10595184071E+04  0.91188894792E+02 0.  0.
    5000000    2    1    2    0    0  0.24330386103E+03  0.95867828525E+03  0.41242696887E+03  0.12281250247E+04  0.59994520429E+03 0.  0.
         23    2    4    4    0    0 -0.62969019370E+01  0.86103417172E+03  0.25273085000E+03  0.90304261315E+03  0.10096327445E+03 0.  0.
         23    2    4    4    0    0  0.24960076297E+03  0.97644113533E+02  0.15969611887E+03  0.32508241151E+03  0.91328035725E+02 0.  0.
          1    1    3    3  502    0 -0.15080570487E+03 -0.42914510004E+03  0.14731189865E+03  0.47813039330E+03  0.00000000000E+00 0. -1.
         -1    1    3    3    0  502 -0.92498156156E+02 -0.52953318521E+03  0.22147397006E+03  0.58138801376E+03  0.00000000000E+00 0.  1.
         13    1    5    5    0    0  0.16481848082E+02  0.38670380789E+03  0.65348153632E+02  0.39253263244E+03  0.00000000000E+00 0. -1.
        -13    1    5    5    0    0 -0.22778750019E+02  0.47433036383E+03  0.18738269637E+03  0.51050998071E+03  0.00000000000E+00 0.  1.
          3    1    6    6  503    0  0.26214433608E+02  0.34983078135E+02  0.51706614894E+00  0.43718184347E+02  0.00000000000E+00 0. -1.
         -3    1    6    6    0  503  0.22338632936E+03  0.62661035398E+02  0.15917905272E+03  0.28136422716E+03  0.00000000000E+00 0.  1.
<mgrwt>
<rscale>  0 0.10650389E+04</rscale>
<asrwt>0</asrwt>
<pdfrwt beam="1">  1        2 0.23606587E+00 0.10650389E+04</pdfrwt>
<pdfrwt beam="2">  1       -2 0.11587928E+00 0.10650389E+04</pdfrwt>
<totfact> 0.69402131E+00</totfact>
</mgrwt>
</event>
<event>
12    1  0.1418317E-007  0.5066750E+03  0.7818608E-02  0.1012051E+00
         -2   -1    0    0    0  501 -0.00000000000E+00  0.00000000000E+00  0.64348657089E+03  0.64348657089E+03  0.00000000000E+00 0.  1.
          2   -1    0    0  501    0  0.00000000000E+00 -0.00000000000E+00 -0.61113633670E+03  0.61113633670E+03  0.00000000000E+00 0. -1.
         23    2    1    2    0    0  0.22849134889E+03 -0.25422514210E+03  0.34723642553E+03  0.49570466061E+03  0.91166089885E+02 0.  0.
    5000000    2    1    2    0    0 -0.22849134889E+03  0.25422514210E+03 -0.31488619134E+03  0.75891824698E+03  0.59997072654E+03 0.  0.
         23    2    4    4    0    0  0.18537520473E+03  0.24347228600E+02 -0.10368190058E+03  0.23189179870E+03  0.89817123792E+02 0.  0.
         23    2    4    4    0    0 -0.41386655363E+03  0.22987791350E+03 -0.21120429076E+03  0.52702644828E+03  0.94974972629E+02 0.  0.
          2    1    3    3  502    0  0.16895299492E+03 -0.20065460039E+03  0.31358445901E+03  0.40883076705E+03  0.00000000000E+00 0.  1.
         -2    1    3    3    0  502  0.59538353977E+02 -0.53570541706E+02  0.33651966519E+02  0.86873893568E+02  0.00000000000E+00 0. -1.
         13    1    5    5    0    0  0.12739503737E+03  0.62193846442E+01 -0.20955682603E+02  0.12925678676E+03  0.00000000000E+00 0. -1.
        -13    1    5    5    0    0  0.57980167367E+02  0.18127843956E+02 -0.82726217981E+02  0.10263501194E+03  0.00000000000E+00 0.  1.
          2    1    6    6  503    0 -0.23744342894E+03  0.18391570234E+03 -0.13881919044E+03  0.33087026937E+03  0.00000000000E+00 0.  1.
         -2    1    6    6    0  503 -0.17642312468E+03  0.45962211155E+02 -0.72385100316E+02  0.19615617891E+03  0.00000000000E+00 0. -1.
<mgrwt>
<rscale>  0 0.50667502E+03</rscale>
<asrwt>0</asrwt>
<pdfrwt beam="1">  1        2 0.94020975E-01 0.50667502E+03</pdfrwt>
<pdfrwt beam="2">  1       -2 0.98997934E-01 0.50667502E+03</pdfrwt>
<totfact> 0.42464745E+01</totfact>
</mgrwt>
</event>
<event>
12    1  0.1418317E-007  0.1132273E+04  0.7818608E-02  0.9174295E-01
         -2   -1    0    0    0  501 -0.00000000000E+00  0.00000000000E+00  0.61420029373E+03  0.61420029373E+03  0.00000000000E+00 0.  1.
          2   -1    0    0  501    0  0.00000000000E+00 -0.00000000000E+00 -0.22246954413E+04  0.22246954413E+04  0.00000000000E+00 0. -1.
         23    2    1    2    0    0 -0.99007576083E+03 -0.43728572760E+03 -0.91196767730E+03  0.14179390540E+04  0.86007538122E+02 0.  0.
    5000000    2    1    2    0    0  0.99007576083E+03  0.43728572760E+03 -0.69852747028E+03  0.14209566811E+04  0.59975698661E+03 0.  0.
         23    2    4    4    0    0  0.77516915264E+03  0.52929079233E+03 -0.38374026434E+03  0.10178222010E+04  0.87575591921E+02 0.  0.
         23    2    4    4    0    0  0.21490660819E+03 -0.92005064736E+02 -0.31478720594E+03  0.40313448008E+03  0.93683732969E+02 0.  0.
          3    1    3    3  502    0 -0.27786574279E+03 -0.12723576673E+03 -0.30903492186E+03  0.43462730503E+03  0.00000000000E+00 0. -1.
         -3    1    3    3    0  502 -0.71221001805E+03 -0.31004996087E+03 -0.60293275544E+03  0.98331174895E+03  0.00000000000E+00 0.  1.
         13    1    5    5    0    0  0.19063249628E+03  0.94506266843E+02 -0.11054522832E+03  0.23977579239E+03  0.00000000000E+00 0. -1.
        -13    1    5    5    0    0  0.58453665636E+03  0.43478452549E+03 -0.27319503601E+03  0.77804640860E+03  0.00000000000E+00 0.  1.
          4    1    6    6  503    0  0.15623720963E+03 -0.37211126494E+02 -0.14966481661E+03  0.21953198158E+03  0.00000000000E+00 0. -1.
         -4    1    6    6    0  503  0.58669398568E+02 -0.54793938242E+02 -0.16512238933E+03  0.18360249850E+03  0.00000000000E+00 0.  1.
<mgrwt>
<rscale>  0 0.11322731E+04</rscale>
<asrwt>0</asrwt>
<pdfrwt beam="1">  1        2 0.34226084E+00 0.11322731E+04</pdfrwt>
<pdfrwt beam="2">  1       -2 0.94492352E-01 0.11322731E+04</pdfrwt>
<totfact> 0.46657187E+00</totfact>
</mgrwt>
</event>
<event>
12    1  0.1418317E-007  0.2028688E+04  0.7818608E-02  0.8593324E-01
          2   -1    0    0  501    0  0.00000000000E+00  0.00000000000E+00  0.34167255947E+04  0.34167255947E+04  0.00000000000E+00 0.  1.
         -2   -1    0    0    0  501 -0.00000000000E+00 -0.00000000000E+00 -0.19916203652E+04  0.19916203652E+04  0.00000000000E+00 0. -1.
         23    2    1    2    0    0  0.56291617860E+03 -0.19453068764E+04 -0.94233952297E+03  0.22356724392E+04  0.95572022020E+02 0.  0.
    5000000    2    1    2    0    0 -0.56291617860E+03  0.19453068764E+04  0.23674447525E+04  0.31726735208E+04  0.59997428790E+03 0.  0.
         23    2    4    4    0    0 -0.22125896467E+03  0.54092177283E+03  0.34197779503E+03  0.68271086568E+03  0.87140232046E+02 0.  0.
         23    2    4    4    0    0 -0.34165721392E+03  0.14043851035E+04  0.20254669574E+04  0.24899626551E+04  0.91490203550E+02 0.  0.
          2    1    3    3  502    0  0.20036775763E+03 -0.75839510771E+03 -0.31795517347E+03  0.84640762641E+03  0.00000000000E+00 0. -1.
         -2    1    3    3    0  502  0.36254842096E+03 -0.11869117687E+04 -0.62438434950E+03  0.13892648128E+04  0.00000000000E+00 0.  1.
         13    1    5    5    0    0 -0.12804238342E+03  0.26959219109E+03  0.12769545258E+03  0.32462429061E+03  0.00000000000E+00 0.  1.
        -13    1    5    5    0    0 -0.93216581250E+02  0.27132958175E+03  0.21428234246E+03  0.35808657506E+03  0.00000000000E+00 0. -1.
          3    1    6    6  503    0 -0.28927161087E+03  0.10845387731E+04  0.16203449899E+04  0.19711469507E+04  0.00000000000E+00 0. -1.
         -3    1    6    6    0  503 -0.52385603059E+02  0.31984633048E+03  0.40512196757E+03  0.51881570440E+03  0.00000000000E+00 0.  1.
<mgrwt>
<rscale>  0 0.20286884E+04</rscale>
<asrwt>0</asrwt>
<pdfrwt beam="1">  1        2 0.52565009E+00 0.20286884E+04</pdfrwt>
<pdfrwt beam="2">  1       -2 0.30640313E+00 0.20286884E+04</pdfrwt>
<totfact> 0.23764325E-02</totfact>
</mgrwt>
</event>
<event>
12    1  0.1418317E-007  0.4949663E+03  0.7818608E-02  0.1015101E+00
          2   -1    0    0  501    0  0.00000000000E+00  0.00000000000E+00  0.11318850586E+04  0.11318850586E+04  0.00000000000E+00 0. -1.
         -2   -1    0    0    0  501 -0.00000000000E+00 -0.00000000000E+00 -0.25448948609E+03  0.25448948609E+03  0.00000000000E+00 0.  1.
         23    2    1    2    0    0 -0.25800247694E+03  0.21224901525E+03  0.48598615830E+03  0.59588499236E+03  0.85331444856E+02 0.  0.
    5000000    2    1    2    0    0  0.25800247694E+03 -0.21224901525E+03  0.39140941422E+03  0.79048955233E+03  0.60004789828E+03 0.  0.
         23    2    4    4    0    0  0.23353798956E+03  0.14734548227E+03  0.28177390224E+03  0.40345430996E+03  0.84428458075E+02 0.  0.
         23    2    4    4    0    0  0.24464487381E+02 -0.35959449752E+03  0.10963551199E+03  0.38703524237E+03  0.88710876241E+02 0.  0.
          3    1    3    3  502    0 -0.16260300041E+03  0.11943157100E+03  0.35964361398E+03  0.41236775452E+03  0.00000000000E+00 0. -1.
         -3    1    3    3    0  502 -0.95399476527E+02  0.92817444244E+02  0.12634254432E+03  0.18351723784E+03  0.00000000000E+00 0.  1.
         13    1    5    5    0    0  0.18156363166E+03  0.68954506646E+02  0.17875158426E+03  0.26395493025E+03  0.00000000000E+00 0. -1.
        -13    1    5    5    0    0  0.51974357895E+02  0.78390975622E+02  0.10302231798E+03  0.13949937971E+03  0.00000000000E+00 0.  1.
          1    1    6    6  503    0 -0.22544034427E+02 -0.73614699063E+02 -0.51507244129E+00  0.76991056013E+02  0.00000000000E+00 0. -1.
         -1    1    6    6    0  503  0.47008521808E+02 -0.28597979845E+03  0.11015058443E+03  0.31004418636E+03  0.00000000000E+00 0.  1.
<mgrwt>
<rscale>  0 0.49496632E+03</rscale>
<asrwt>0</asrwt>
<pdfrwt beam="1">  1        2 0.17413616E+00 0.49496632E+03</pdfrwt>
<pdfrwt beam="2">  1       -2 0.39152229E-01 0.49496632E+03</pdfrwt>
<totfact> 0.13309962E+02</totfact>
</mgrwt>
</event>
<event>
12    1  0.1418317E-007  0.6513944E+03  0.7818608E-02  0.9804166E-01
         -2   -1    0    0    0  501 -0.00000000000E+00  0.00000000000E+00  0.10379496066E+04  0.10379496066E+04  0.00000000000E+00 0. -1.
          2   -1    0    0  501    0  0.00000000000E+00 -0.00000000000E+00 -0.49570017014E+03  0.49570017014E+03  0.00000000000E+00 0.  1.
         23    2    1    2    0    0  0.16729068150E+03 -0.49360734079E+03  0.51554510987E+03  0.73860406458E+03  0.90082322932E+02 0.  0.
    5000000    2    1    2    0    0 -0.16729068150E+03  0.49360734079E+03  0.26704326556E+02  0.79504571213E+03  0.59979178414E+03 0.  0.
         23    2    4    4    0    0 -0.18554265920E+03  0.60450101978E+03 -0.31566870363E+02  0.63955242921E+03  0.90461489572E+02 0.  0.
         23    2    4    4    0    0  0.18251977699E+02 -0.11089367900E+03  0.58271196919E+02  0.15549328292E+03  0.90288902483E+02 0.  0.
          1    1    3    3  502    0  0.10593784446E+03 -0.18522780693E+03  0.18518998390E+03  0.28253760366E+03  0.00000000000E+00 0. -1.
         -1    1    3    3    0  502  0.61352837047E+02 -0.30837953386E+03  0.33035512597E+03  0.45606646091E+03  0.00000000000E+00 0.  1.
         11    1    5    5    0    0 -0.33245346568E+02  0.24446092203E+03 -0.30792754471E+02  0.24862539934E+03  0.00000000000E+00 0.  1.
        -11    1    5    5    0    0 -0.15229731263E+03  0.36004009776E+03 -0.77411589157E+00  0.39092702987E+03  0.00000000000E+00 0. -1.
          3    1    6    6  503    0 -0.31390350666E+02 -0.42978806269E+02  0.46260721304E+02  0.70516567123E+02  0.00000000000E+00 0. -1.
         -3    1    6    6    0  503  0.49642328365E+02 -0.67914872728E+02  0.12010475615E+02  0.84976715797E+02  0.00000000000E+00 0.  1.
<mgrwt>
<rscale>  0 0.65139438E+03</rscale>
<asrwt>0</asrwt>
<pdfrwt beam="1">  1        2 0.76261565E-01 0.65139438E+03</pdfrwt>
<pdfrwt beam="2">  1       -2 0.15968455E+00 0.65139438E+03</pdfrwt>
<totfact> 0.16136366E+01</totfact>
</mgrwt>
</event>
<event>
12    1  0.1418317E-007  0.6166775E+03  0.7818608E-02  0.9871397E-01
          1   -1    0    0  501    0  0.00000000000E+00  0.00000000000E+00  0.92091723752E+03  0.92091723752E+03  0.00000000000E+00 0. -1.
         -1   -1    0    0    0  501 -0.00000000000E+00 -0.00000000000E+00 -0.54615071669E+03  0.54615071669E+03  0.00000000000E+00 0.  1.
         23    2    1    2    0    0 -0.16068652444E+03  0.54363431967E+03  0.27218378669E+03  0.63528891263E+03  0.90274891983E+02 0.  0.
    5000000    2    1    2    0    0  0.16068652444E+03 -0.54363431967E+03  0.10258273414E+03  0.83177904157E+03  0.59997893630E+03 0.  0.
         23    2    4    4    0    0  0.23869129787E+03 -0.25281995862E+03 -0.18667439534E+03  0.40472307563E+03  0.89788478746E+02 0.  0.
         23    2    4    4    0    0 -0.78004773426E+02 -0.29081436105E+03  0.28925712948E+03  0.42705596595E+03  0.89718302630E+02 0.  0.
          2    1    3    3  502    0 -0.66795492121E+02  0.26201209713E+03  0.17849509531E+03  0.32399456147E+03  0.00000000000E+00 0. -1.
         -2    1    3    3    0  502 -0.93891032318E+02  0.28162222254E+03  0.93688691379E+02  0.31129435117E+03  0.00000000000E+00 0.  1.
         11    1    5    5    0    0  0.13946884087E+03 -0.88984551816E+02 -0.10851102811E+03  0.19784956724E+03  0.00000000000E+00 0.  1.
        -11    1    5    5    0    0  0.99222456990E+02 -0.16383540680E+03 -0.78163367228E+02  0.20687350838E+03  0.00000000000E+00 0. -1.
          4    1    6    6  503    0 -0.43154065392E+02 -0.51074137948E+02  0.96828323697E+02  0.11767142898E+03  0.00000000000E+00 0. -1.
         -4    1    6    6    0  503 -0.34850708034E+02 -0.23974022310E+03  0.19242880578E+03  0.30938453697E+03  0.00000000000E+00 0.  1.
<mgrwt>
<rscale>  0 0.61667752E+03</rscale>
<asrwt>0</asrwt>
<pdfrwt beam="1">  1        1 0.14167957E+00 0.61667752E+03</pdfrwt>
<pdfrwt beam="2">  1       -1 0.84023187E-01 0.61667752E+03</pdfrwt>
<totfact> 0.25652895E+01</totfact>
</mgrwt>
</event>
<event>
12    1  0.1418317E-007  0.6168511E+03  0.7818608E-02  0.9871049E-01
         -1   -1    0    0    0  501 -0.00000000000E+00  0.00000000000E+00  0.56709815127E+03  0.56709815127E+03  0.00000000000E+00 0.  1.
          1   -1    0    0  501    0  0.00000000000E+00 -0.00000000000E+00 -0.10775753752E+04  0.10775753752E+04  0.00000000000E+00 0. -1.
         23    2    1    2    0    0  0.58712759665E+03 -0.29513332924E+02 -0.54117394475E+03  0.80423413398E+03  0.91287744031E+02 0.  0.
    5000000    2    1    2    0    0 -0.58712759665E+03  0.29513332924E+02  0.30696720780E+02  0.84043939254E+03  0.59983850518E+03 0.  0.
         23    2    4    4    0    0 -0.23917185416E+03 -0.99838935606E+02  0.27431174038E+03  0.38684629627E+03  0.85041972822E+02 0.  0.
         23    2    4    4    0    0 -0.34795574249E+03  0.12935226853E+03 -0.24361501960E+03  0.45359309627E+03  0.92699574439E+02 0.  0.
          4    1    3    3  502    0  0.23979488988E+03 -0.12306527000E+02 -0.16152075957E+03  0.28938209272E+03  0.00000000000E+00 0.  1.
         -4    1    3    3    0  502  0.34733270678E+03 -0.17206805924E+02 -0.37965318518E+03  0.51485204126E+03  0.00000000000E+00 0. -1.
         13    1    5    5    0    0 -0.17813414085E+03 -0.11180279773E+03  0.21861061207E+03  0.30335167286E+03  0.00000000000E+00 0. -1.
        -13    1    5    5    0    0 -0.61037713318E+02  0.11963862126E+02  0.55701128308E+02  0.83494623413E+02  0.00000000000E+00 0.  1.
          2    1    6    6  503    0 -0.21719054171E+03  0.60113308878E+02 -0.19451781870E+03  0.29769535284E+03  0.00000000000E+00 0. -1.
         -2    1    6    6    0  503 -0.13076520078E+03  0.69238959653E+02 -0.49097200900E+02  0.15589774342E+03  0.00000000000E+00 0.  1.
<mgrwt>
<rscale>  0 0.61685114E+03</rscale>
<asrwt>0</asrwt>
<pdfrwt beam="1">  1        1 0.16578083E+00 0.61685114E+03</pdfrwt>
<pdfrwt beam="2">  1       -1 0.87245870E-01 0.61685114E+03</pdfrwt>
<totfact> 0.17901737E+01</totfact>
</mgrwt>
</event>
<event>
12    1  0.1418317E-007  0.5271185E+03  0.7818608E-02  0.1006933E+00
          2   -1    0    0  501    0  0.00000000000E+00  0.00000000000E+00  0.40774587690E+03  0.40774587690E+03  0.00000000000E+00 0. -1.
         -2   -1    0    0    0  501 -0.00000000000E+00 -0.00000000000E+00 -0.74597488511E+03  0.74597488511E+03  0.00000000000E+00 0.  1.
         23    2    1    2    0    0  0.36583680734E+03 -0.84102014261E+02 -0.50153656171E+02  0.38946901265E+03  0.90890066443E+02 0.  0.
    5000000    2    1    2    0    0 -0.36583680734E+03  0.84102014261E+02 -0.28807535203E+03  0.76425174937E+03  0.60015298846E+03 0.  0.
         23    2    4    4    0    0 -0.21606533604E+03  0.31320088205E+03 -0.26946463711E+03  0.47508473297E+03  0.91188216872E+02 0.  0.
         23    2    4    4    0    0 -0.14977147130E+03 -0.22909886779E+03 -0.18610714920E+02  0.28916701639E+03  0.91397044921E+02 0.  0.
          1    1    3    3  502    0  0.18621704116E+03 -0.22840612262E+02  0.16471861673E+02  0.18833428317E+03  0.00000000000E+00 0. -1.
         -1    1    3    3    0  502  0.17961976617E+03 -0.61261401999E+02 -0.66625517844E+02  0.20113472948E+03  0.00000000000E+00 0.  1.
         11    1    5    5    0    0  0.78833637767E+01  0.14143226235E+02 -0.37602084078E+01  0.16622798803E+02  0.00000000000E+00 0.  1.
        -11    1    5    5    0    0 -0.22394869981E+03  0.29905765582E+03 -0.26570442870E+03  0.45846193417E+03  0.00000000000E+00 0. -1.
          1    1    6    6  503    0 -0.44879672208E+02 -0.14740538884E+03 -0.24811441537E+02  0.15607094947E+03  0.00000000000E+00 0. -1.
         -1    1    6    6    0  503 -0.10489179909E+03 -0.81693478951E+02  0.62007266171E+01  0.13309606693E+03  0.00000000000E+00 0.  1.
<mgrwt>
<rscale>  0 0.52711851E+03</rscale>
<asrwt>0</asrwt>
<pdfrwt beam="1">  1        2 0.62730136E-01 0.52711851E+03</pdfrwt>
<pdfrwt beam="2">  1       -2 0.11476537E+00 0.52711851E+03</pdfrwt>
<totfact> 0.47426294E+01</totfact>
</mgrwt>
</event>
<event>
12    1  0.1418317E-007  0.2122720E+04  0.7818608E-02  0.8551300E-01
         -1   -1    0    0    0  501 -0.00000000000E+00  0.00000000000E+00  0.42078069098E+04  0.42078069098E+04  0.00000000000E+00 0.  1.
          1   -1    0    0  501    0  0.00000000000E+00 -0.00000000000E+00 -0.15116863175E+04  0.15116863175E+04  0.00000000000E+00 0. -1.
         23    2    1    2    0    0  0.13766435708E+04  0.16073727915E+04  0.28073535219E+04  0.35169169230E+04  0.93145233396E+02 0.  0.
    5000000    2    1    2    0    0 -0.13766435708E+04 -0.16073727915E+04 -0.11123292957E+03  0.22025763043E+04  0.60014564880E+03 0.  0.
         23    2    4    4    0    0 -0.10438642414E+04 -0.10765596885E+04  0.16658116393E+03  0.15114502644E+04  0.89996111959E+02 0.  0.
         23    2    4    4    0    0 -0.33277932936E+03 -0.53081310294E+03 -0.27781409350E+03  0.69112603985E+03  0.89274296974E+02 0.  0.
          3    1    3    3  502    0  0.55101275773E+03  0.60777366501E+03  0.11532180315E+04  0.14152440479E+04  0.00000000000E+00 0. -1.
         -3    1    3    3    0  502  0.82563081307E+03  0.99959912646E+03  0.16541354904E+04  0.21016728751E+04  0.00000000000E+00 0.  1.
         13    1    5    5    0    0 -0.82261117256E+02 -0.61964558490E+02 -0.47917730681E+01  0.10309926775E+03  0.00000000000E+00 0. -1.
        -13    1    5    5    0    0 -0.96160312418E+03 -0.10145951300E+04  0.17137293699E+03  0.14083509967E+04  0.00000000000E+00 0.  1.
          2    1    6    6  503    0 -0.30884559125E+03 -0.50880036399E+03 -0.24135802574E+03  0.64227494597E+03  0.00000000000E+00 0. -1.
         -2    1    6    6    0  503 -0.23933738112E+02 -0.22012738950E+02 -0.36456067764E+02  0.48851093876E+02  0.00000000000E+00 0.  1.
<mgrwt>
<rscale>  0 0.21227204E+04</rscale>
<asrwt>0</asrwt>
<pdfrwt beam="1">  1        1 0.23256713E+00 0.21227204E+04</pdfrwt>
<pdfrwt beam="2">  1       -1 0.64735490E+00 0.21227204E+04</pdfrwt>
<totfact> 0.16402383E-03</totfact>
</mgrwt>
</event>
<event>
12    1  0.1418317E-007  0.4860813E+03  0.7818608E-02  0.1017477E+00
         -2   -1    0    0    0  501 -0.00000000000E+00  0.00000000000E+00  0.26776983288E+03  0.26776983288E+03  0.00000000000E+00 0. -1.
          2   -1    0    0  501    0  0.00000000000E+00 -0.00000000000E+00 -0.14227773788E+04  0.14227773788E+04  0.00000000000E+00 0.  1.
         23    2    1    2    0    0  0.97662101188E+02  0.34834107765E+03 -0.84596477133E+03  0.92478685631E+03  0.93246677708E+02 0.  0.
    5000000    2    1    2    0    0 -0.97662101188E+02 -0.34834107765E+03 -0.30904277462E+03  0.76576035539E+03  0.60000174413E+03 0.  0.
         23    2    4    4    0    0 -0.22250188391E+03 -0.23004490099E+01  0.47938170294E+02  0.24447170705E+03  0.89196227315E+02 0.  0.
         23    2    4    4    0    0  0.12483978272E+03 -0.34604062864E+03 -0.35698094491E+03  0.52128864834E+03  0.94748993874E+02 0.  0.
          4    1    3    3  502    0  0.67892281214E+02  0.21410089033E+03 -0.62921627804E+03  0.66810304418E+03  0.00000000000E+00 0. -1.
         -4    1    3    3    0  502  0.29769819974E+02  0.13424018731E+03 -0.21674849329E+03  0.25668381214E+03  0.00000000000E+00 0.  1.
         11    1    5    5    0    0 -0.78810031538E+02 -0.30200178286E+02  0.49970545582E+02  0.98082247452E+02  0.00000000000E+00 0.  1.
        -11    1    5    5    0    0 -0.14369185237E+03  0.27899729276E+02 -0.20323752875E+01  0.14638945960E+03  0.00000000000E+00 0. -1.
          2    1    6    6  503    0  0.11428855471E+03 -0.18205823078E+03 -0.21672320305E+03  0.30524747316E+03  0.00000000000E+00 0. -1.
         -2    1    6    6    0  503  0.10551228017E+02 -0.16398239786E+03 -0.14025774186E+03  0.21604117518E+03  0.00000000000E+00 0.  1.
<mgrwt>
<rscale>  0 0.48608126E+03</rscale>
<asrwt>0</asrwt>
<pdfrwt beam="1">  1        2 0.21888883E+00 0.48608126E+03</pdfrwt>
<pdfrwt beam="2">  1       -2 0.41195358E-01 0.48608126E+03</pdfrwt>
<totfact> 0.82278530E+01</totfact>
</mgrwt>
</event>
<event>
12    1  0.1418317E-007  0.5107405E+03  0.7818608E-02  0.1011013E+00
          2   -1    0    0  501    0  0.00000000000E+00  0.00000000000E+00  0.21548990262E+04  0.21548990262E+04  0.00000000000E+00 0. -1.
         -2   -1    0    0    0  501 -0.00000000000E+00 -0.00000000000E+00 -0.13483094264E+03  0.13483094264E+03  0.00000000000E+00 0.  1.
         23    2    1    2    0    0  0.68285093189E+02  0.34813721690E+03  0.87872157387E+03  0.95234900096E+03  0.94628956979E+02 0.  0.
    5000000    2    1    2    0    0 -0.68285093189E+02 -0.34813721690E+03  0.11413465097E+04  0.13373809679E+04  0.60004468364E+03 0.  0.
         23    2    4    4    0    0  0.18701773463E+03  0.24469745752E+02  0.20245374574E+03  0.29150775540E+03  0.91732495726E+02 0.  0.
         23    2    4    4    0    0 -0.25530282782E+03 -0.37260696265E+03  0.93889276398E+03  0.10458732125E+04  0.91190305955E+02 0.  0.
          3    1    3    3  502    0  0.31663441846E+02  0.18662834240E+03  0.58857395213E+03  0.61826532238E+03  0.00000000000E+00 0. -1.
         -3    1    3    3    0  502  0.36621651343E+02  0.16150887449E+03  0.29014762175E+03  0.33408367858E+03  0.00000000000E+00 0.  1.
         13    1    5    5    0    0  0.19210951491E+03  0.12195492428E+02  0.17146002871E+03  0.25778544800E+03  0.00000000000E+00 0.  1.
        -13    1    5    5    0    0 -0.50917802857E+01  0.12274253324E+02  0.30993717023E+02  0.33722307395E+02  0.00000000000E+00 0. -1.
          1    1    6    6  503    0 -0.17852104935E+03 -0.18031994857E+03  0.51849801338E+03  0.57725664898E+03  0.00000000000E+00 0. -1.
         -1    1    6    6    0  503 -0.76781778467E+02 -0.19228701408E+03  0.42039475060E+03  0.46861656354E+03  0.00000000000E+00 0.  1.
<mgrwt>
<rscale>  0 0.51074047E+03</rscale>
<asrwt>0</asrwt>
<pdfrwt beam="1">  1        2 0.33152290E+00 0.51074047E+03</pdfrwt>
<pdfrwt beam="2">  1       -2 0.20743223E-01 0.51074047E+03</pdfrwt>
<totfact> 0.11625162E+02</totfact>
</mgrwt>
</event>
<event>
12    1  0.1418317E-007  0.1058708E+04  0.7818608E-02  0.9246400E-01
          2   -1    0    0  501    0  0.00000000000E+00  0.00000000000E+00  0.84761867324E+03  0.84761867324E+03  0.00000000000E+00 0. -1.
         -2   -1    0    0    0  501 -0.00000000000E+00 -0.00000000000E+00 -0.13284641342E+04  0.13284641342E+04  0.00000000000E+00 0.  1.
         23    2    1    2    0    0  0.71297372233E+03 -0.66359082911E+03 -0.23519457749E+03  0.10060376278E+04  0.90060546305E+02 0.  0.
    5000000    2    1    2    0    0 -0.71297372233E+03  0.66359082911E+03 -0.24565088345E+03  0.11700451796E+04  0.59998087358E+03 0.  0.
         23    2    4    4    0    0 -0.43522317636E+03  0.29130456918E+02 -0.10277688929E+03  0.45646679839E+03  0.86781635701E+02 0.  0.
         23    2    4    4    0    0 -0.27775054597E+03  0.63446037219E+03 -0.14287399417E+03  0.71357838126E+03  0.95371894871E+02 0.  0.
          4    1    3    3  502    0  0.94866538219E+02 -0.63924067521E+02 -0.51586162860E+02  0.12548736463E+03  0.00000000000E+00 0. -1.
         -4    1    3    3    0  502  0.61810718411E+03 -0.59966676159E+03 -0.18360841463E+03  0.88055026315E+03  0.00000000000E+00 0.  1.
         11    1    5    5    0    0 -0.30897421957E+03 -0.15705522261E+02 -0.54971308122E+02  0.31421899450E+03  0.00000000000E+00 0.  1.
        -11    1    5    5    0    0 -0.12624895680E+03  0.44835979179E+02 -0.47805581164E+02  0.14224780389E+03  0.00000000000E+00 0. -1.
          2    1    6    6  503    0 -0.18058958754E+03  0.29969901174E+03 -0.86949083072E+02  0.36054436595E+03  0.00000000000E+00 0. -1.
         -2    1    6    6    0  503 -0.97160958432E+02  0.33476136044E+03 -0.55924911096E+02  0.35303401532E+03  0.00000000000E+00 0.  1.
<mgrwt>
<rscale>  0 0.10587076E+04</rscale>
<asrwt>0</asrwt>
<pdfrwt beam="1">  1        2 0.13040287E+00 0.10587076E+04</pdfrwt>
<pdfrwt beam="2">  1       -2 0.20437910E+00 0.10587076E+04</pdfrwt>
<totfact> 0.39156045E+00</totfact>
</mgrwt>
</event>
<event>
12    1  0.1418317E-007  0.4952406E+03  0.7818608E-02  0.1015029E+00
          2   -1    0    0  501    0  0.00000000000E+00  0.00000000000E+00  0.96075741319E+03  0.96075741319E+03  0.00000000000E+00 0. -1.
         -2   -1    0    0    0  501 -0.00000000000E+00 -0.00000000000E+00 -0.35726064848E+03  0.35726064848E+03  0.00000000000E+00 0.  1.
         23    2    1    2    0    0 -0.41575867242E+03  0.36562263527E+02  0.12423508268E+03  0.44481304733E+03  0.90731573897E+02 0.  0.
    5000000    2    1    2    0    0  0.41575867242E+03 -0.36562263527E+02  0.47926168203E+03  0.87320501434E+03  0.59883483901E+03 0.  0.
         23    2    4    4    0    0  0.32033966619E+03  0.14721990172E+03  0.52802214693E+03  0.64144110873E+03  0.91367976436E+02 0.  0.
         23    2    4    4    0    0  0.95419006221E+02 -0.18378216525E+03 -0.48760464905E+02  0.23176390561E+03  0.91957892515E+02 0.  0.
          2    1    3    3  502    0 -0.29493886110E+03  0.48676680547E+02  0.51683505439E+02  0.30336370210E+03  0.00000000000E+00 0. -1.
         -2    1    3    3    0  502 -0.12081981131E+03 -0.12114417020E+02  0.72551577237E+02  0.14144934523E+03  0.00000000000E+00 0.  1.
         13    1    5    5    0    0  0.17860890857E+03  0.87958107696E+02  0.37520950183E+03  0.42475868583E+03  0.00000000000E+00 0. -1.
        -13    1    5    5    0    0  0.14173075763E+03  0.59261794025E+02  0.15281264510E+03  0.21668242290E+03  0.00000000000E+00 0.  1.
          4    1    6    6  503    0  0.10355198381E+01 -0.68121082936E+02  0.14457276034E+02  0.69646012607E+02  0.00000000000E+00 0. -1.
         -4    1    6    6    0  503  0.94383486383E+02 -0.11566108231E+03 -0.63217740939E+02  0.16211789301E+03  0.00000000000E+00 0.  1.
<mgrwt>
<rscale>  0 0.49524060E+03</rscale>
<asrwt>0</asrwt>
<pdfrwt beam="1">  1        2 0.14780883E+00 0.49524060E+03</pdfrwt>
<pdfrwt beam="2">  1       -2 0.54963177E-01 0.49524060E+03</pdfrwt>
<totfact> 0.86302433E+01</totfact>
</mgrwt>
</event>
<event>
12    1  0.1418317E-007  0.1765883E+04  0.7818608E-02  0.8724656E-01
          2   -1    0    0  501    0  0.00000000000E+00  0.00000000000E+00  0.21469296573E+04  0.21469296573E+04  0.00000000000E+00 0. -1.
         -2   -1    0    0    0  501 -0.00000000000E+00 -0.00000000000E+00 -0.20099359613E+04  0.20099359613E+04  0.00000000000E+00 0.  1.
         23    2    1    2    0    0 -0.30966045657E+03  0.17089198141E+04 -0.99013476451E+03  0.20012309635E+04  0.90895478567E+02 0.  0.
    5000000    2    1    2    0    0  0.30966045657E+03 -0.17089198141E+04  0.11271284605E+04  0.21556346551E+04  0.60003805732E+03 0.  0.
         23    2    4    4    0    0 -0.99601944513E+02 -0.35630620964E+03  0.66348453791E+02  0.38628478412E+03  0.89101934597E+02 0.  0.
         23    2    4    4    0    0  0.40926240108E+03 -0.13526136045E+04  0.10607800067E+04  0.17693498709E+04  0.91024541882E+02 0.  0.
          2    1    3    3  502    0 -0.10042869908E+03  0.54101184295E+03 -0.26560093058E+03  0.61100212122E+03  0.00000000000E+00 0. -1.
         -2    1    3    3    0  502 -0.20923175749E+03  0.11679079712E+04 -0.72453383393E+03  0.13902288423E+04  0.00000000000E+00 0.  1.
         13    1    5    5    0    0  0.73975963954E+01 -0.11323727076E+03  0.43257590716E+01  0.11356106778E+03  0.00000000000E+00 0.  1.
        -13    1    5    5    0    0 -0.10699954091E+03 -0.24306893887E+03  0.62022694720E+02  0.27272371635E+03  0.00000000000E+00 0. -1.
          4    1    6    6  503    0  0.61624009901E+02 -0.33438501534E+03  0.24384679750E+03  0.41841620157E+03  0.00000000000E+00 0. -1.
         -4    1    6    6    0  503  0.34763839118E+03 -0.10182285891E+04  0.81693320920E+03  0.13509336694E+04  0.00000000000E+00 0.  1.
<mgrwt>
<rscale>  0 0.17658830E+04</rscale>
<asrwt>0</asrwt>
<pdfrwt beam="1">  1        2 0.33029687E+00 0.17658830E+04</pdfrwt>
<pdfrwt beam="2">  1       -2 0.30922091E+00 0.17658830E+04</pdfrwt>
<totfact> 0.14038496E-01</totfact>
</mgrwt>
</event>
<event>
12    1  0.1418317E-007  0.6181290E+03  0.7818608E-02  0.9868492E-01
          1   -1    0    0  501    0  0.00000000000E+00  0.00000000000E+00  0.14768790824E+04  0.14768790824E+04  0.00000000000E+00 0. -1.
         -1   -1    0    0    0  501 -0.00000000000E+00 -0.00000000000E+00 -0.27848112452E+03  0.27848112452E+03  0.00000000000E+00 0.  1.
         23    2    1    2    0    0  0.42621750315E+03  0.25197924683E+03  0.47873584561E+03  0.69557351943E+03  0.97363289952E+02 0.  0.
    5000000    2    1    2    0    0 -0.42621750315E+03 -0.25197924683E+03  0.71966211225E+03  0.10597866875E+04  0.60006613494E+03 0.  0.
         23    2    4    4    0    0  0.69156357741E+02  0.10106895959E+03  0.22020728568E+03  0.26731548186E+03  0.89268033305E+02 0.  0.
         23    2    4    4    0    0 -0.49537386090E+03 -0.35304820642E+03  0.49945482657E+03  0.79247120561E+03  0.92288622336E+02 0.  0.
          1    1    3    3  502    0  0.36463629711E+03  0.25108319850E+03  0.41214375500E+03  0.60486765207E+03  0.00000000000E+00 0. -1.
         -1    1    3    3    0  502  0.61581206045E+02  0.89604832447E+00  0.66592090607E+02  0.90705867352E+02  0.00000000000E+00 0.  1.
         11    1    5    5    0    0  0.29352946293E+02  0.57776996587E+02  0.19091660329E+03  0.20161578858E+03  0.00000000000E+00 0.  1.
        -11    1    5    5    0    0  0.39803411448E+02  0.43291963001E+02  0.29290682385E+02  0.65699693287E+02  0.00000000000E+00 0. -1.
          3    1    6    6  503    0 -0.46104280757E+03 -0.32680171541E+03  0.42775554719E+03  0.70875569822E+03  0.00000000000E+00 0. -1.
         -3    1    6    6    0  503 -0.34331053326E+02 -0.26246491003E+02  0.71699279383E+02  0.83715507384E+02  0.00000000000E+00 0.  1.
<mgrwt>
<rscale>  0 0.61812897E+03</rscale>
<asrwt>0</asrwt>
<pdfrwt beam="1">  1        1 0.22721216E+00 0.61812897E+03</pdfrwt>
<pdfrwt beam="2">  1       -1 0.42843251E-01 0.61812897E+03</pdfrwt>
<totfact> 0.38159095E+01</totfact>
</mgrwt>
</event>
<event>
12    1  0.1418317E-007  0.5849750E+03  0.7818608E-02  0.9937078E-01
         -2   -1    0    0    0  501 -0.00000000000E+00  0.00000000000E+00  0.62568144432E+03  0.62568144432E+03  0.00000000000E+00 0.  1.
          2   -1    0    0  501    0  0.00000000000E+00 -0.00000000000E+00 -0.72248956084E+03  0.72248956084E+03  0.00000000000E+00 0. -1.
         23    2    1    2    0    0 -0.34405505364E+03 -0.40828732289E+03 -0.31275832933E+02  0.54246719978E+03  0.90664585942E+02 0.  0.
    5000000    2    1    2    0    0  0.34405505364E+03  0.40828732289E+03 -0.65532283588E+02  0.80570380538E+03  0.59982641143E+03 0.  0.
         23    2    4    4    0    0 -0.36397899611E+02  0.67578998214E+02 -0.23232918225E+03  0.26128355464E+03  0.91654344693E+02 0.  0.
         23    2    4    4    0    0  0.38045295325E+03  0.34070832468E+03  0.16679689866E+03  0.54442025075E+03  0.88009044303E+02 0.  0.
          2    1    3    3  502    0 -0.23717346148E+03 -0.21319913557E+03 -0.11087893372E+02  0.31910509807E+03  0.00000000000E+00 0. -1.
         -2    1    3    3    0  502 -0.10688159216E+03 -0.19508818732E+03 -0.20187939561E+02  0.22336210171E+03  0.00000000000E+00 0.  1.
         13    1    5    5    0    0 -0.67865296970E+01  0.81990132052E+02 -0.19416202367E+03  0.21087278197E+03  0.00000000000E+00 0. -1.
        -13    1    5    5    0    0 -0.29611369914E+02 -0.14411133838E+02 -0.38167158581E+02  0.50410772667E+02  0.00000000000E+00 0.  1.
          1    1    6    6  503    0  0.30897315807E+03  0.24722542956E+03  0.96359865313E+02  0.40727146853E+03  0.00000000000E+00 0. -1.
         -1    1    6    6    0  503  0.71479795175E+02  0.93482895113E+02  0.70437033351E+02  0.13714878222E+03  0.00000000000E+00 0.  1.
<mgrwt>
<rscale>  0 0.58497504E+03</rscale>
<asrwt>0</asrwt>
<pdfrwt beam="1">  1        2 0.11115224E+00 0.58497504E+03</pdfrwt>
<pdfrwt beam="2">  1       -2 0.96258684E-01 0.58497504E+03</pdfrwt>
<totfact> 0.36597022E+01</totfact>
</mgrwt>
</event>
<event>
12    1  0.1418317E-007  0.5944969E+03  0.7818608E-02  0.9916889E-01
         -1   -1    0    0    0  501 -0.00000000000E+00  0.00000000000E+00  0.25118466065E+03  0.25118466065E+03  0.00000000000E+00 0.  1.
          1   -1    0    0  501    0  0.00000000000E+00 -0.00000000000E+00 -0.16722951406E+04  0.16722951406E+04  0.00000000000E+00 0. -1.
         23    2    1    2    0    0 -0.44405785973E+03 -0.97828004060E+02 -0.24079024777E+03  0.52352410208E+03  0.96642852146E+02 0.  0.
    5000000    2    1    2    0    0  0.44405785973E+03  0.97828004060E+02 -0.11803202321E+04  0.13999556991E+04  0.59996867249E+03 0.  0.
         23    2    4    4    0    0  0.49955350069E+03 -0.93392248310E+02 -0.68176113970E+03  0.85519052142E+03  0.90976723463E+02 0.  0.
         23    2    4    4    0    0 -0.55495640961E+02  0.19122025237E+03 -0.49855909243E+03  0.54476517771E+03  0.92536366470E+02 0.  0.
          3    1    3    3  502    0 -0.14398985675E+03 -0.21160149101E+01 -0.38038658388E+02  0.14894460681E+03  0.00000000000E+00 0. -1.
         -3    1    3    3    0  502 -0.30006800298E+03 -0.95711989150E+02 -0.20275158938E+03  0.37457949527E+03  0.00000000000E+00 0.  1.
         13    1    5    5    0    0  0.50039828590E+02  0.57323685615E+01 -0.34948017293E+02  0.61304228299E+02  0.00000000000E+00 0. -1.
        -13    1    5    5    0    0  0.44951367210E+03 -0.99124616871E+02 -0.64681312241E+03  0.79388629312E+03  0.00000000000E+00 0.  1.
          4    1    6    6  503    0  0.25596692932E+02  0.57800097036E+02 -0.15487981060E+03  0.16728358448E+03  0.00000000000E+00 0. -1.
         -4    1    6    6    0  503 -0.81092333893E+02  0.13342015533E+03 -0.34367928183E+03  0.37748159323E+03  0.00000000000E+00 0.  1.
<mgrwt>
<rscale>  0 0.59449692E+03</rscale>
<asrwt>0</asrwt>
<pdfrwt beam="1">  1        1 0.25727616E+00 0.59449692E+03</pdfrwt>
<pdfrwt beam="2">  1       -1 0.38643796E-01 0.59449692E+03</pdfrwt>
<totfact> 0.34078898E+01</totfact>
</mgrwt>
</event>
<event>
12    1  0.1418317E-007  0.7983595E+03  0.7818608E-02  0.9562395E-01
         -2   -1    0    0    0  501 -0.00000000000E+00  0.00000000000E+00  0.40878640580E+03  0.40878640580E+03  0.00000000000E+00 0.  1.
          2   -1    0    0  501    0  0.00000000000E+00 -0.00000000000E+00 -0.20287707685E+04  0.20287707685E+04  0.00000000000E+00 0. -1.
         23    2    1    2    0    0 -0.26422138988E+03  0.72901688170E+03 -0.10280004953E+04  0.12922211362E+04  0.10849833990E+03 0.  0.
    5000000    2    1    2    0    0  0.26422138988E+03 -0.72901688170E+03 -0.59198386745E+03  0.11453360382E+04  0.60005931735E+03 0.  0.
         23    2    4    4    0    0  0.26684188580E+03 -0.38174431168E+03 -0.62533092601E+03  0.78503334646E+03  0.91133289793E+02 0.  0.
         23    2    4    4    0    0 -0.26204959168E+01 -0.34727257002E+03  0.33347058561E+02  0.36030269172E+03  0.90004991273E+02 0.  0.
          3    1    3    3  502    0 -0.13129502313E+03  0.36450992522E+03 -0.42411691760E+03  0.57443975182E+03  0.00000000000E+00 0. -1.
         -3    1    3    3    0  502 -0.13292636676E+03  0.36450695648E+03 -0.60388357770E+03  0.71778138435E+03  0.00000000000E+00 0.  1.
         13    1    5    5    0    0  0.20311766621E+03 -0.31637911200E+03 -0.55232581147E+03  0.66814394471E+03  0.00000000000E+00 0.  1.
        -13    1    5    5    0    0  0.63724219594E+02 -0.65365199676E+02 -0.73005114536E+02  0.11688940174E+03  0.00000000000E+00 0. -1.
          3    1    6    6  503    0  0.32014747789E+02 -0.12249622283E+03  0.39991702352E+02  0.13277652255E+03  0.00000000000E+00 0. -1.
         -3    1    6    6    0  503 -0.34635243706E+02 -0.22477634719E+03 -0.66446437910E+01  0.22752616917E+03  0.00000000000E+00 0.  1.
<mgrwt>
<rscale>  0 0.79835952E+03</rscale>
<asrwt>0</asrwt>
<pdfrwt beam="1">  1        2 0.31211858E+00 0.79835952E+03</pdfrwt>
<pdfrwt beam="2">  1       -2 0.62890216E-01 0.79835952E+03</pdfrwt>
<totfact> 0.15517122E+01</totfact>
</mgrwt>
</event>
<event>
12    1  0.1418317E-007  0.1293912E+04  0.7818608E-02  0.9034407E-01
          1   -1    0    0  501    0  0.00000000000E+00  0.00000000000E+00  0.17084290765E+04  0.17084290765E+04  0.00000000000E+00 0. -1.
         -1   -1    0    0    0  501 -0.00000000000E+00 -0.00000000000E+00 -0.12504783854E+04  0.12504783854E+04  0.00000000000E+00 0.  1.
         23    2    1    2    0    0  0.30597547045E+03 -0.12222581434E+04 -0.39448667190E+03  0.13236302854E+04  0.94028934880E+02 0.  0.
    5000000    2    1    2    0    0 -0.30597547045E+03  0.12222581434E+04  0.85243736295E+03  0.16352771764E+04  0.59995502200E+03 0.  0.
         23    2    4    4    0    0 -0.90017419579E+02  0.28948678245E+02  0.24071542522E+03  0.27418688927E+03  0.91067955465E+02 0.  0.
         23    2    4    4    0    0 -0.21595805087E+03  0.11933094651E+04  0.61172193774E+03  0.13610902872E+04  0.87964091363E+02 0.  0.
          3    1    3    3  502    0  0.93680023061E+02 -0.40639579415E+03 -0.17656227498E+03  0.45288820383E+03  0.00000000000E+00 0. -1.
         -3    1    3    3    0  502  0.21229544739E+03 -0.81586234923E+03 -0.21792439692E+03  0.87074208159E+03  0.00000000000E+00 0.  1.
         11    1    5    5    0    0 -0.20853698751E+02 -0.21046902669E+02  0.13555219513E+03  0.13875246473E+03  0.00000000000E+00 0. -1.
        -11    1    5    5    0    0 -0.69163720828E+02  0.49995580914E+02  0.10516323009E+03  0.13543442454E+03  0.00000000000E+00 0.  1.
          3    1    6    6  503    0 -0.26402811559E+02  0.12271802412E+03  0.34789491677E+02  0.13025793885E+03  0.00000000000E+00 0. -1.
         -3    1    6    6    0  503 -0.18955523931E+03  0.10705914410E+04  0.57693244606E+03  0.12308323483E+04  0.00000000000E+00 0.  1.
<mgrwt>
<rscale>  0 0.12939116E+04</rscale>
<asrwt>0</asrwt>
<pdfrwt beam="1">  1        1 0.26283524E+00 0.12939116E+04</pdfrwt>
<pdfrwt beam="2">  1       -1 0.19238129E+00 0.12939116E+04</pdfrwt>
<totfact> 0.77481802E-01</totfact>
</mgrwt>
</event>
<event>
12    1  0.1418317E-007  0.5399594E+03  0.7818608E-02  0.1003845E+00
         -1   -1    0    0    0  501 -0.00000000000E+00  0.00000000000E+00  0.11286343928E+04  0.11286343928E+04  0.00000000000E+00 0.  1.
          1   -1    0    0  501    0  0.00000000000E+00 -0.00000000000E+00 -0.33935256409E+03  0.33935256409E+03  0.00000000000E+00 0. -1.
         23    2    1    2    0    0 -0.18554045934E+03 -0.36749201200E+03  0.39545652442E+02  0.42323908473E+03  0.89954562305E+02 0.  0.
    5000000    2    1    2    0    0  0.18554045934E+03  0.36749201200E+03  0.74973617628E+03  0.10447478722E+04  0.59993178067E+03 0.  0.
         23    2    4    4    0    0  0.33919213837E+03  0.11625070686E+03  0.59187905810E+03  0.69802567544E+03  0.91397432049E+02 0.  0.
         23    2    4    4    0    0 -0.15365167903E+03  0.25124130513E+03  0.15785711818E+03  0.34672219673E+03  0.92554740954E+02 0.  0.
          3    1    3    3  502    0 -0.11134010152E+03 -0.19439095045E+03 -0.22018062218E+02  0.22509832271E+03  0.00000000000E+00 0. -1.
         -3    1    3    3    0  502 -0.74200357818E+02 -0.17310106155E+03  0.61563714660E+02  0.19814076202E+03  0.00000000000E+00 0.  1.
         11    1    5    5    0    0  0.87859108442E+02  0.68458794049E+02  0.14177602554E+03  0.18029495511E+03  0.00000000000E+00 0. -1.
        -11    1    5    5    0    0  0.25133302993E+03  0.47791912815E+02  0.45010303255E+03  0.51773072033E+03  0.00000000000E+00 0.  1.
          3    1    6    6  503    0 -0.97652514127E+02  0.20736174281E+03  0.15265802692E+03  0.27538950430E+03  0.00000000000E+00 0. -1.
         -3    1    6    6    0  503 -0.55999164901E+02  0.43879562324E+02  0.51990912589E+01  0.71332692430E+02  0.00000000000E+00 0.  1.
<mgrwt>
<rscale>  0 0.53995939E+03</rscale>
<asrwt>0</asrwt>
<pdfrwt beam="1">  1        1 0.52208087E-01 0.53995939E+03</pdfrwt>
<pdfrwt beam="2">  1       -1 0.17363606E+00 0.53995939E+03</pdfrwt>
<totfact> 0.18193111E+01</totfact>
</mgrwt>
</event>
<event>
12    1  0.1418317E-007  0.1368908E+04  0.7818608E-02  0.8976638E-01
         -2   -1    0    0    0  501 -0.00000000000E+00  0.00000000000E+00  0.20103113629E+04  0.20103113629E+04  0.00000000000E+00 0. -1.
          2   -1    0    0  501    0  0.00000000000E+00 -0.00000000000E+00 -0.13931354464E+04  0.13931354464E+04  0.00000000000E+00 0.  1.
         23    2    1    2    0    0 -0.11273925254E+04 -0.71152136136E+03  0.12323140028E+04  0.18173515818E+04  0.83020577163E+02 0.  0.
    5000000    2    1    2    0    0  0.11273925254E+04  0.71152136136E+03 -0.61513808636E+03  0.15860952275E+04  0.60002220894E+03 0.  0.
         23    2    4    4    0    0  0.45031263116E+02 -0.46443826276E+02 -0.14060352678E+03  0.17903425323E+03  0.89994824461E+02 0.  0.
         23    2    4    4    0    0  0.10823612623E+04  0.75796518764E+03 -0.47453455958E+03  0.14070609742E+04  0.92846158454E+02 0.  0.
          4    1    3    3  502    0 -0.71552955739E+03 -0.46814340907E+03  0.73889177671E+03  0.11300893136E+04  0.00000000000E+00 0. -1.
         -4    1    3    3    0  502 -0.41186296805E+03 -0.24337795229E+03  0.49342222613E+03  0.68726226824E+03  0.00000000000E+00 0.  1.
         11    1    5    5    0    0 -0.10932208630E+02 -0.50719459293E+01 -0.95150645733E+02  0.95910808590E+02  0.00000000000E+00 0.  1.
        -11    1    5    5    0    0  0.55963471746E+02 -0.41371880347E+02 -0.45452881047E+02  0.83123444640E+02  0.00000000000E+00 0. -1.
          4    1    6    6  503    0  0.99290224548E+03  0.67434811190E+03 -0.45207908090E+03  0.12825660765E+04  0.00000000000E+00 0. -1.
         -4    1    6    6    0  503  0.89459016845E+02  0.83617075738E+02 -0.22455478675E+02  0.12449489778E+03  0.00000000000E+00 0.  1.
<mgrwt>
<rscale>  0 0.13689075E+04</rscale>
<asrwt>0</asrwt>
<pdfrwt beam="1">  1        2 0.21432853E+00 0.13689075E+04</pdfrwt>
<pdfrwt beam="2">  1       -2 0.30927867E+00 0.13689075E+04</pdfrwt>
<totfact> 0.38925503E-01</totfact>
</mgrwt>
</event>
<event>
12    1  0.1418317E-007  0.9909771E+03  0.7818608E-02  0.9318497E-01
          2   -1    0    0  501    0  0.00000000000E+00  0.00000000000E+00  0.18051304456E+04  0.18051304456E+04  0.00000000000E+00 0. -1.
         -2   -1    0    0    0  501 -0.00000000000E+00 -0.00000000000E+00 -0.81355812609E+03  0.81355812609E+03  0.00000000000E+00 0.  1.
         23    2    1    2    0    0  0.43469931100E+03  0.80053200831E+03 -0.26662157295E+03  0.95346742024E+03  0.90543199514E+02 0.  0.
    5000000    2    1    2    0    0 -0.43469931100E+03 -0.80053200831E+03  0.12581938925E+04  0.16652211515E+04  0.60007884893E+03 0.  0.
         23    2    4    4    0    0  0.69033338189E+02 -0.44515153128E+03  0.63569804557E+03  0.78462922048E+03  0.92765946920E+02 0.  0.
         23    2    4    4    0    0 -0.50373264919E+03 -0.35538047703E+03  0.62249584694E+03  0.88059193101E+03  0.88877467316E+02 0.  0.
          3    1    3    3  502    0  0.39329174987E+03  0.66874462512E+03 -0.20664616129E+03  0.80287010787E+03  0.00000000000E+00 0. -1.
         -3    1    3    3    0  502  0.41407561135E+02  0.13178738319E+03 -0.59975411670E+02  0.15059731237E+03  0.00000000000E+00 0.  1.
         13    1    5    5    0    0  0.36360986420E+02 -0.26200622833E+03  0.44861595975E+03  0.52079330292E+03  0.00000000000E+00 0. -1.
        -13    1    5    5    0    0  0.32672351768E+02 -0.18314530295E+03  0.18708208581E+03  0.26383591756E+03  0.00000000000E+00 0.  1.
          1    1    6    6  503    0 -0.38421406377E+02 -0.16543793248E+02  0.76665658795E+02  0.87335701758E+02  0.00000000000E+00 0. -1.
         -1    1    6    6    0  503 -0.46531124282E+03 -0.33883668378E+03  0.54583018814E+03  0.79325622926E+03  0.00000000000E+00 0.  1.
<mgrwt>
<rscale>  0 0.99097713E+03</rscale>
<asrwt>0</asrwt>
<pdfrwt beam="1">  1        2 0.27771237E+00 0.99097713E+03</pdfrwt>
<pdfrwt beam="2">  1       -2 0.12516279E+00 0.99097713E+03</pdfrwt>
<totfact> 0.40865976E+00</totfact>
</mgrwt>
</event>
<event>
12    1  0.1418317E-007  0.3894905E+03  0.7818608E-02  0.1047481E+00
         -1   -1    0    0    0  501 -0.00000000000E+00  0.00000000000E+00  0.82997767408E+02  0.82997767408E+02  0.00000000000E+00 0.  1.
          1   -1    0    0  501    0  0.00000000000E+00 -0.00000000000E+00 -0.26271751997E+04  0.26271751997E+04  0.00000000000E+00 0. -1.
         23    2    1    2    0    0 -0.32962695485E+02 -0.16998321023E+03 -0.13479554955E+04  0.13608069863E+04  0.69503992464E+02 0.  0.
    5000000    2    1    2    0    0  0.32962695485E+02  0.16998321023E+03 -0.11962219367E+04  0.13493659808E+04  0.59988398638E+03 0.  0.
         23    2    4    4    0    0 -0.11346195055E+03  0.33440129589E+03 -0.54386509797E+03  0.65472858642E+03  0.90456819355E+02 0.  0.
         23    2    4    4    0    0  0.14642464604E+03 -0.16441808566E+03 -0.65235683875E+03  0.69463739435E+03  0.92077036827E+02 0.  0.
          3    1    3    3  502    0 -0.48296224227E+02 -0.68109042060E+02 -0.62096194662E+03  0.62655016242E+03  0.00000000000E+00 0. -1.
         -3    1    3    3    0  502  0.15333528742E+02 -0.10187416817E+03 -0.72699354892E+03  0.73425682388E+03  0.00000000000E+00 0.  1.
         13    1    5    5    0    0 -0.98881849675E+01  0.10094080560E+03 -0.22015427242E+03  0.24239374188E+03  0.00000000000E+00 0. -1.
        -13    1    5    5    0    0 -0.10357376559E+03  0.23346049029E+03 -0.32371082555E+03  0.41233484454E+03  0.00000000000E+00 0.  1.
          3    1    6    6  503    0  0.11682048458E+03 -0.16923875172E+03 -0.52600649505E+03  0.56477571967E+03  0.00000000000E+00 0. -1.
         -3    1    6    6    0  503  0.29604161456E+02  0.48206660590E+01 -0.12635034370E+03  0.12986167468E+03  0.00000000000E+00 0.  1.
<mgrwt>
<rscale>  0 0.38949052E+03</rscale>
<asrwt>0</asrwt>
<pdfrwt beam="1">  1        1 0.40418080E+00 0.38949052E+03</pdfrwt>
<pdfrwt beam="2">  1       -1 0.12768887E-01 0.38949052E+03</pdfrwt>
<totfact> 0.52498023E+01</totfact>
</mgrwt>
</event>
<event>
12    1  0.1418317E-007  0.6929173E+03  0.7818608E-02  0.9729422E-01
          1   -1    0    0  501    0  0.00000000000E+00  0.00000000000E+00  0.21932527358E+04  0.21932527358E+04  0.00000000000E+00 0. -1.
         -1   -1    0    0    0  501 -0.00000000000E+00 -0.00000000000E+00 -0.32420396523E+03  0.32420396523E+03  0.00000000000E+00 0.  1.
         23    2    1    2    0    0  0.56500249523E+03 -0.97539707178E+02  0.13700268899E+03  0.59680784134E+03  0.93102355513E+02 0.  0.
    5000000    2    1    2    0    0 -0.56500249523E+03  0.97539707178E+02  0.17320460816E+04  0.19206488597E+04  0.60013881680E+03 0.  0.
         23    2    4    4    0    0 -0.24014760845E+03 -0.23570776013E+03  0.61145495837E+03  0.70383711065E+03  0.90997198783E+02 0.  0.
         23    2    4    4    0    0 -0.32485488677E+03  0.33324746731E+03  0.11205911232E+04  0.12168117490E+04  0.91223874343E+02 0.  0.
          1    1    3    3  502    0  0.29154296466E+02  0.15164938099E+02  0.24968478261E+01  0.32957284461E+02  0.00000000000E+00 0. -1.
         -1    1    3    3    0  502  0.53584819876E+03 -0.11270464528E+03  0.13450584117E+03  0.56385055688E+03  0.00000000000E+00 0.  1.
         13    1    5    5    0    0 -0.20933715971E+03 -0.21553636603E+03  0.47133423427E+03  0.55895789816E+03  0.00000000000E+00 0.  1.
        -13    1    5    5    0    0 -0.30810448743E+02 -0.20171394104E+02  0.14012072410E+03  0.14487921250E+03  0.00000000000E+00 0. -1.
          4    1    6    6  503    0 -0.17753797710E+03  0.14601036367E+03  0.64803730997E+03  0.68759807644E+03  0.00000000000E+00 0. -1.
         -4    1    6    6    0  503 -0.14731690967E+03  0.18723710364E+03  0.47255381321E+03  0.52921367257E+03  0.00000000000E+00 0.  1.
<mgrwt>
<rscale>  0 0.69291730E+03</rscale>
<asrwt>0</asrwt>
<pdfrwt beam="1">  1        1 0.33742349E+00 0.69291730E+03</pdfrwt>
<pdfrwt beam="2">  1       -1 0.49877535E-01 0.69291730E+03</pdfrwt>
<totfact> 0.94071251E+00</totfact>
</mgrwt>
</event>
<event>
12    1  0.1418317E-007  0.4706452E+03  0.7818608E-02  0.1021738E+00
          2   -1    0    0  501    0  0.00000000000E+00  0.00000000000E+00  0.95071949244E+03  0.95071949244E+03  0.00000000000E+00 0. -1.
         -2   -1    0    0    0  501 -0.00000000000E+00 -0.00000000000E+00 -0.38277691668E+03  0.38277691668E+03  0.00000000000E+00 0.  1.
         23    2    1    2    0    0 -0.89552254779E+02  0.31921090002E+03  0.54996628738E+03  0.64774681303E+03  0.84839916934E+02 0.  0.
    5000000    2    1    2    0    0  0.89552254779E+02 -0.31921090002E+03  0.17976288375E+02  0.68574959609E+03  0.60001179702E+03 0.  0.
         23    2    4    4    0    0  0.66572765561E+02  0.12491603550E+03  0.13785507638E+03  0.21742691960E+03  0.90744114098E+02 0.  0.
         23    2    4    4    0    0  0.22979489218E+02 -0.44412693552E+03 -0.11987878801E+03  0.46832267649E+03  0.84725519848E+02 0.  0.
          1    1    3    3  502    0 -0.48718457193E+02  0.69935951388E+02  0.97129001002E+02  0.12922293993E+03  0.00000000000E+00 0. -1.
         -1    1    3    3    0  502 -0.40833797586E+02  0.24927494863E+03  0.45283728638E+03  0.51852387310E+03  0.00000000000E+00 0.  1.
         13    1    5    5    0    0  0.66698166763E+02  0.72250462959E+02  0.39712880036E+02  0.10604662978E+03  0.00000000000E+00 0.  1.
        -13    1    5    5    0    0 -0.12540120251E+00  0.52665572545E+02  0.98142196347E+02  0.11138028982E+03  0.00000000000E+00 0. -1.
          1    1    6    6  503    0 -0.30301548327E+02 -0.10917190004E+03 -0.36854491594E+02  0.11914252449E+03  0.00000000000E+00 0. -1.
         -1    1    6    6    0  503  0.53281037545E+02 -0.33495503548E+03 -0.83024296414E+02  0.34918015200E+03  0.00000000000E+00 0.  1.
<mgrwt>
<rscale>  0 0.47064525E+03</rscale>
<asrwt>0</asrwt>
<pdfrwt beam="1">  1        2 0.14626454E+00 0.47064525E+03</pdfrwt>
<pdfrwt beam="2">  1       -2 0.58888757E-01 0.47064525E+03</pdfrwt>
<totfact> 0.76128061E+01</totfact>
</mgrwt>
</event>
<event>
12    1  0.1418317E-007  0.3651840E+03  0.7818608E-02  0.1056550E+00
         -1   -1    0    0    0  501 -0.00000000000E+00  0.00000000000E+00  0.27370733344E+03  0.27370733344E+03  0.00000000000E+00 0.  1.
          1   -1    0    0  501    0  0.00000000000E+00 -0.00000000000E+00 -0.63140032186E+03  0.63140032186E+03  0.00000000000E+00 0. -1.
         23    2    1    2    0    0  0.27266470365E+02 -0.12307065376E+03 -0.23252775870E+03  0.27933148382E+03  0.89816886314E+02 0.  0.
    5000000    2    1    2    0    0 -0.27266470365E+02  0.12307065376E+03 -0.12516522972E+03  0.62577617147E+03  0.60003302894E+03 0.  0.
         23    2    4    4    0    0 -0.29839677270E+03  0.42301816021E+02 -0.86443325531E+02  0.32548901276E+03  0.87410361507E+02 0.  0.
         23    2    4    4    0    0  0.27113030234E+03  0.80768837739E+02 -0.38721904189E+02  0.30028715871E+03  0.92939474015E+02 0.  0.
          2    1    3    3  502    0  0.63899337689E+01 -0.63057957434E+02 -0.19610365450E+03  0.20609167998E+03  0.00000000000E+00 0. -1.
         -2    1    3    3    0  502  0.20876536596E+02 -0.60012696326E+02 -0.36424104203E+02  0.73239803847E+02  0.00000000000E+00 0.  1.
         13    1    5    5    0    0 -0.28719565618E+03  0.25121259603E+02 -0.64434132751E+02  0.29540511179E+03  0.00000000000E+00 0. -1.
        -13    1    5    5    0    0 -0.11201116525E+02  0.17180556418E+02 -0.22009192781E+02  0.30083900962E+02  0.00000000000E+00 0.  1.
          4    1    6    6  503    0  0.19854775357E+03  0.19213148858E+02 -0.46423640071E+02  0.20480602993E+03  0.00000000000E+00 0. -1.
         -4    1    6    6    0  503  0.72582548764E+02  0.61555688881E+02  0.77017358824E+01  0.95481128787E+02  0.00000000000E+00 0.  1.
<mgrwt>
<rscale>  0 0.36518397E+03</rscale>
<asrwt>0</asrwt>
<pdfrwt beam="1">  1        1 0.97138511E-01 0.36518397E+03</pdfrwt>
<pdfrwt beam="2">  1       -1 0.42108820E-01 0.36518397E+03</pdfrwt>
<totfact> 0.18400460E+02</totfact>
</mgrwt>
</event>
<event>
12    1  0.1418317E-007  0.6025123E+03  0.7818608E-02  0.9900208E-01
          1   -1    0    0  501    0  0.00000000000E+00  0.00000000000E+00  0.65273316456E+03  0.65273316456E+03  0.00000000000E+00 0. -1.
         -1   -1    0    0    0  501 -0.00000000000E+00 -0.00000000000E+00 -0.59121232720E+03  0.59121232720E+03  0.00000000000E+00 0.  1.
         23    2    1    2    0    0 -0.42601602879E+03 -0.19278840014E+03  0.74096356320E+02  0.48319929278E+03  0.96613987122E+02 0.  0.
    5000000    2    1    2    0    0  0.42601602879E+03  0.19278840014E+03 -0.12575518956E+02  0.76074619897E+03  0.59993300589E+03 0.  0.
         23    2    4    4    0    0 -0.41003005733E+02 -0.14403113134E+03 -0.32431973013E+02  0.17807834540E+03  0.90740569507E+02 0.  0.
         23    2    4    4    0    0  0.46701903453E+03  0.33681953148E+03  0.19856454057E+02  0.58266785357E+03  0.86910145679E+02 0.  0.
          1    1    3    3  502    0 -0.33438100481E+03 -0.11272845454E+03  0.31491792301E+02  0.35427403775E+03  0.00000000000E+00 0. -1.
         -1    1    3    3    0  502 -0.91635023982E+02 -0.80059945599E+02  0.42604564019E+02  0.12892525503E+03  0.00000000000E+00 0.  1.
         13    1    5    5    0    0 -0.24034942903E+02 -0.42681470358E+02  0.30381833991E+02  0.57640630018E+02  0.00000000000E+00 0. -1.
        -13    1    5    5    0    0 -0.16968062831E+02 -0.10134966098E+03 -0.62813807004E+02  0.12043771538E+03  0.00000000000E+00 0.  1.
          4    1    6    6  503    0  0.11342107400E+03  0.52420090650E+02  0.31060185287E+02  0.12875147005E+03  0.00000000000E+00 0. -1.
         -4    1    6    6    0  503  0.35359796053E+03  0.28439944083E+03 -0.11203731230E+02  0.45391638352E+03  0.00000000000E+00 0.  1.
<mgrwt>
<rscale>  0 0.60251227E+03</rscale>
<asrwt>0</asrwt>
<pdfrwt beam="1">  1        1 0.10042049E+00 0.60251227E+03</pdfrwt>
<pdfrwt beam="2">  1       -1 0.90955743E-01 0.60251227E+03</pdfrwt>
<totfact> 0.37144407E+01</totfact>
</mgrwt>
</event>
<event>
12    1  0.1418317E-007  0.7203947E+03  0.7818608E-02  0.9682976E-01
         -2   -1    0    0    0  501 -0.00000000000E+00  0.00000000000E+00  0.57977385917E+03  0.57977385917E+03  0.00000000000E+00 0. -1.
          2   -1    0    0  501    0  0.00000000000E+00 -0.00000000000E+00 -0.16047308194E+04  0.16047308194E+04  0.00000000000E+00 0.  1.
         23    2    1    2    0    0 -0.63636205126E+03 -0.16726907726E+03 -0.11059722559E+04  0.12901959581E+04  0.92170358726E+02 0.  0.
    5000000    2    1    2    0    0  0.63636205126E+03  0.16726907726E+03  0.81015295669E+02  0.89430872045E+03  0.60024078907E+03 0.  0.
         23    2    4    4    0    0  0.19414555596E+03  0.25708602958E+03 -0.16397776806E+03  0.37286903602E+03  0.91416005711E+02 0.  0.
         23    2    4    4    0    0  0.44221649529E+03 -0.89816952329E+02  0.24499306373E+03  0.52143968443E+03  0.90858293989E+02 0.  0.
          1    1    3    3  502    0 -0.12385831856E+03 -0.39984334276E+01 -0.16521754527E+03  0.20652774102E+03  0.00000000000E+00 0. -1.
         -1    1    3    3    0  502 -0.51250373270E+03 -0.16327064383E+03 -0.94075471066E+03  0.10836682171E+04  0.00000000000E+00 0.  1.
         13    1    5    5    0    0  0.85085835281E+02  0.98111589562E+02 -0.18125784882E+02  0.13112599837E+03  0.00000000000E+00 0. -1.
        -13    1    5    5    0    0  0.10905972068E+03  0.15897444002E+03 -0.14585198318E+03  0.24174303765E+03  0.00000000000E+00 0.  1.
          4    1    6    6  503    0  0.19872924911E+03 -0.74936907077E+02  0.80076113019E+02  0.22698246269E+03  0.00000000000E+00 0.  1.
         -4    1    6    6    0  503  0.24348724619E+03 -0.14880045251E+02  0.16491695071E+03  0.29445722174E+03  0.00000000000E+00 0. -1.
<mgrwt>
<rscale>  0 0.72039473E+03</rscale>
<asrwt>0</asrwt>
<pdfrwt beam="1">  1        2 0.24688166E+00 0.72039473E+03</pdfrwt>
<pdfrwt beam="2">  1       -2 0.89195980E-01 0.72039473E+03</pdfrwt>
<totfact> 0.12325418E+01</totfact>
</mgrwt>
</event>
<event>
12    1  0.1418317E-007  0.8177960E+03  0.7818608E-02  0.9534609E-01
          2   -1    0    0  501    0  0.00000000000E+00  0.00000000000E+00  0.26187672614E+04  0.26187672614E+04  0.00000000000E+00 0. -1.
         -2   -1    0    0    0  501 -0.00000000000E+00 -0.00000000000E+00 -0.35801599133E+03  0.35801599133E+03  0.00000000000E+00 0.  1.
         23    2    1    2    0    0  0.30339359602E+03 -0.74367003578E+03  0.49955087327E+03  0.95024790868E+03  0.91253584791E+02 0.  0.
    5000000    2    1    2    0    0 -0.30339359602E+03  0.74367003578E+03  0.17612003968E+04  0.20265353441E+04  0.59993821916E+03 0.  0.
         23    2    4    4    0    0 -0.18784198984E+03  0.58014277333E+03  0.65860543592E+03  0.90241794858E+03  0.93524237974E+02 0.  0.
         23    2    4    4    0    0 -0.11555160618E+03  0.16352726245E+03  0.11025949609E+04  0.11241173955E+04  0.88492552302E+02 0.  0.
          3    1    3    3  502    0  0.19765025563E+03 -0.39865822022E+03  0.31301235906E+03  0.54403192647E+03  0.00000000000E+00 0. -1.
         -3    1    3    3    0  502  0.10574334039E+03 -0.34501181557E+03  0.18653851421E+03  0.40621598221E+03  0.00000000000E+00 0.  1.
         13    1    5    5    0    0 -0.69368885498E+02  0.27550423123E+03  0.36910229275E+03  0.46578012647E+03  0.00000000000E+00 0.  1.
        -13    1    5    5    0    0 -0.11847310435E+03  0.30463854210E+03  0.28950314317E+03  0.43663782211E+03  0.00000000000E+00 0. -1.
          3    1    6    6  503    0 -0.58442402582E+02  0.15973365846E+02  0.28960361236E+03  0.29587314026E+03  0.00000000000E+00 0. -1.
         -3    1    6    6    0  503 -0.57109203597E+02  0.14755389660E+03  0.81299134855E+03  0.82824425525E+03  0.00000000000E+00 0.  1.
<mgrwt>
<rscale>  0 0.81779603E+03</rscale>
<asrwt>0</asrwt>
<pdfrwt beam="1">  1        2 0.40288726E+00 0.81779603E+03</pdfrwt>
<pdfrwt beam="2">  1       -2 0.55079385E-01 0.81779603E+03</pdfrwt>
<totfact> 0.95685734E+00</totfact>
</mgrwt>
</event>
<event>
12    1  0.1418317E-007  0.1109356E+04  0.7818608E-02  0.9196121E-01
         -2   -1    0    0    0  501 -0.00000000000E+00  0.00000000000E+00  0.18448095777E+04  0.18448095777E+04  0.00000000000E+00 0. -1.
          2   -1    0    0  501    0  0.00000000000E+00 -0.00000000000E+00 -0.89799897747E+03  0.89799897747E+03  0.00000000000E+00 0.  1.
         23    2    1    2    0    0  0.10391318339E+04  0.49724694969E+02  0.11179345353E+04  0.15297736309E+04  0.90345021834E+02 0.  0.
    5000000    2    1    2    0    0 -0.10391318339E+04 -0.49724694969E+02 -0.17112393508E+03  0.12130349243E+04  0.59991900525E+03 0.  0.
         23    2    4    4    0    0 -0.86663527821E+03 -0.24922545558E+03 -0.21149359540E+03  0.93062355188E+03  0.90336157129E+02 0.  0.
         23    2    4    4    0    0 -0.17249655569E+03  0.19950076061E+03  0.40369660320E+02  0.28241137240E+03  0.92578931603E+02 0.  0.
          4    1    3    3  502    0  0.83937693387E+03  0.31187618416E+02  0.84935930470E+03  0.11945449063E+04  0.00000000000E+00 0. -1.
         -4    1    3    3    0  502  0.19975490002E+03  0.18537076553E+02  0.26857523058E+03  0.33522872456E+03  0.00000000000E+00 0.  1.
         13    1    5    5    0    0 -0.48036373755E+03 -0.17796524229E+03 -0.14352503045E+03  0.53199659978E+03  0.00000000000E+00 0.  1.
        -13    1    5    5    0    0 -0.38627154066E+03 -0.71260213291E+02 -0.67968564953E+02  0.39862695210E+03  0.00000000000E+00 0. -1.
          3    1    6    6  503    0 -0.56388920258E+02  0.11934016867E+03 -0.10550997404E+02  0.13241264944E+03  0.00000000000E+00 0. -1.
         -3    1    6    6    0  503 -0.11610763543E+03  0.80160591943E+02  0.50920657724E+02  0.14999872296E+03  0.00000000000E+00 0.  1.
<mgrwt>
<rscale>  0 0.11093560E+04</rscale>
<asrwt>0</asrwt>
<pdfrwt beam="1">  1        2 0.13815369E+00 0.11093560E+04</pdfrwt>
<pdfrwt beam="2">  1       -2 0.28381686E+00 0.11093560E+04</pdfrwt>
<totfact> 0.11599567E+00</totfact>
</mgrwt>
</event>
<event>
12    1  0.1418317E-007  0.5751146E+03  0.7818608E-02  0.9958424E-01
          1   -1    0    0  501    0  0.00000000000E+00  0.00000000000E+00  0.18816303309E+04  0.18816303309E+04  0.00000000000E+00 0. -1.
         -1   -1    0    0    0  501 -0.00000000000E+00 -0.00000000000E+00 -0.39511478224E+03  0.39511478224E+03  0.00000000000E+00 0.  1.
         23    2    1    2    0    0  0.95743172094E+02 -0.52996656776E+03  0.13534746258E+04  0.14595707978E+04  0.91771637007E+02 0.  0.
    5000000    2    1    2    0    0 -0.95743172094E+02  0.52996656776E+03  0.13304092292E+03  0.81717431532E+03  0.60003554604E+03 0.  0.
         23    2    4    4    0    0  0.51362185258E+02  0.36431443688E+03  0.33375410658E+03  0.50417900471E+03  0.86264605338E+02 0.  0.
         23    2    4    4    0    0 -0.14710535735E+03  0.16565213088E+03 -0.20071318366E+03  0.31299531062E+03  0.92734393543E+02 0.  0.
          3    1    3    3  502    0  0.36839908991E+02 -0.12555660574E+03  0.43555680665E+03  0.45478717215E+03  0.00000000000E+00 0. -1.
         -3    1    3    3    0  502  0.58903263103E+02 -0.40440996201E+03  0.91791781913E+03  0.10047836257E+04  0.00000000000E+00 0.  1.
         11    1    5    5    0    0 -0.10642697602E+02  0.16630995658E+03  0.11376290375E+03  0.20177776622E+03  0.00000000000E+00 0. -1.
        -11    1    5    5    0    0  0.62004882860E+02  0.19800448030E+03  0.21999120283E+03  0.30240123849E+03  0.00000000000E+00 0.  1.
          3    1    6    6  503    0 -0.10496889998E+03  0.16360037101E+03 -0.14211347021E+03  0.24078992872E+03  0.00000000000E+00 0. -1.
         -3    1    6    6    0  503 -0.42136457371E+02  0.20517598723E+01 -0.58599713457E+02  0.72205381902E+02  0.00000000000E+00 0.  1.
<mgrwt>
<rscale>  0 0.57511456E+03</rscale>
<asrwt>0</asrwt>
<pdfrwt beam="1">  1        1 0.28948158E+00 0.57511456E+03</pdfrwt>
<pdfrwt beam="2">  1       -1 0.60786891E-01 0.57511456E+03</pdfrwt>
<totfact> 0.10597788E+01</totfact>
</mgrwt>
</event>
<event>
12    1  0.1418317E-007  0.1249264E+04  0.7818608E-02  0.9070796E-01
         -1   -1    0    0    0  501 -0.00000000000E+00  0.00000000000E+00  0.14300336859E+04  0.14300336859E+04  0.00000000000E+00 0.  1.
          1   -1    0    0  501    0  0.00000000000E+00 -0.00000000000E+00 -0.19567019111E+04  0.19567019111E+04  0.00000000000E+00 0. -1.
         23    2    1    2    0    0 -0.50606752876E+02  0.12383636841E+04 -0.13073662397E+04  0.18038944639E+04  0.93397509946E+02 0.  0.
    5000000    2    1    2    0    0  0.50606752876E+02 -0.12383636841E+04  0.78069801438E+03  0.15828411331E+04  0.59982581268E+03 0.  0.
         23    2    4    4    0    0 -0.32157236425E+02 -0.19350705286E+03  0.41359489936E+03  0.46868096933E+03  0.10060836387E+03 0.  0.
         23    2    4    4    0    0  0.82763989301E+02 -0.10448566312E+04  0.36710311502E+03  0.11141601638E+04  0.89514891387E+02 0.  0.
          3    1    3    3  502    0  0.23677361696E+02  0.44741156879E+03 -0.44849528865E+03  0.63394459796E+03  0.00000000000E+00 0. -1.
         -3    1    3    3    0  502 -0.74284114573E+02  0.79095211527E+03 -0.85887095101E+03  0.11699498659E+04  0.00000000000E+00 0.  1.
         13    1    5    5    0    0 -0.43036630218E+02 -0.19062883644E+03  0.32394667348E+03  0.37832915838E+03  0.00000000000E+00 0. -1.
        -13    1    5    5    0    0  0.10879393793E+02 -0.28782164158E+01  0.89648225876E+02  0.90351810949E+02  0.00000000000E+00 0.  1.
          1    1    6    6  503    0  0.60807228706E+02 -0.95277968760E+03  0.35565548675E+03  0.10188117969E+04  0.00000000000E+00 0. -1.
         -1    1    6    6    0  503  0.21956760596E+02 -0.92076943610E+02  0.11447628266E+02  0.95348366915E+02  0.00000000000E+00 0.  1.
<mgrwt>
<rscale>  0 0.12492636E+04</rscale>
<asrwt>0</asrwt>
<pdfrwt beam="1">  1        1 0.30103107E+00 0.12492636E+04</pdfrwt>
<pdfrwt beam="2">  1       -1 0.22000518E+00 0.12492636E+04</pdfrwt>
<totfact> 0.34201409E-01</totfact>
</mgrwt>
</event>
<event>
12    1  0.1418317E-007  0.4718428E+03  0.7818608E-02  0.1021401E+00
          3   -1    0    0  501    0  0.00000000000E+00  0.00000000000E+00  0.29016137709E+03  0.29016137709E+03  0.00000000000E+00 0. -1.
         -3   -1    0    0    0  501 -0.00000000000E+00 -0.00000000000E+00 -0.29038935919E+04  0.29038935919E+04  0.00000000000E+00 0.  1.
         23    2    1    2    0    0  0.31985186454E+03 -0.19432644845E+03 -0.24341818926E+04  0.24644505810E+04  0.90593576527E+02 0.  0.
    5000000    2    1    2    0    0 -0.31985186454E+03  0.19432644845E+03 -0.17955032216E+03  0.72960438795E+03  0.60001355061E+03 0.  0.
         23    2    4    4    0    0 -0.73675222639E+02 -0.12178551064E+03 -0.26052584877E+03  0.31037860454E+03  0.90561643375E+02 0.  0.
         23    2    4    4    0    0 -0.24617664190E+03  0.31611195909E+03  0.80975526609E+02  0.41922578340E+03  0.93077988097E+02 0.  0.
          2    1    3    3  502    0  0.16632897874E+03 -0.65991863768E+02 -0.93446287913E+03  0.95144160500E+03  0.00000000000E+00 0. -1.
         -2    1    3    3    0  502  0.15352288579E+03 -0.12833458468E+03 -0.14997190135E+04  0.15130089760E+04  0.00000000000E+00 0.  1.
         13    1    5    5    0    0 -0.37470154693E+01 -0.59770207798E+02 -0.17008116956E+03  0.18031672719E+03  0.00000000000E+00 0.  1.
        -13    1    5    5    0    0 -0.69928207170E+02 -0.62015302837E+02 -0.90444679205E+02  0.13006187735E+03  0.00000000000E+00 0. -1.
          2    1    6    6  503    0 -0.17778752999E+03  0.28557647398E+03  0.68437114025E+02  0.34328700367E+03  0.00000000000E+00 0. -1.
         -2    1    6    6    0  503 -0.68389111904E+02  0.30535485108E+02  0.12538412584E+02  0.75938779737E+02  0.00000000000E+00 0.  1.
<mgrwt>
<rscale>  0 0.47184277E+03</rscale>
<asrwt>0</asrwt>
<pdfrwt beam="1">  1        3 0.44640213E-01 0.47184277E+03</pdfrwt>
<pdfrwt beam="2">  1       -3 0.44675285E+00 0.47184277E+03</pdfrwt>
<totfact> 0.83584448E-02</totfact>
</mgrwt>
</event>
<event>
12    1  0.1418317E-007  0.7976554E+03  0.7818608E-02  0.9563417E-01
         -2   -1    0    0    0  501 -0.00000000000E+00  0.00000000000E+00  0.21818702672E+03  0.21818702672E+03  0.00000000000E+00 0.  1.
          2   -1    0    0  501    0  0.00000000000E+00 -0.00000000000E+00 -0.33901810409E+04  0.33901810409E+04  0.00000000000E+00 0. -1.
         23    2    1    2    0    0  0.20682350893E+03 -0.72320351507E+03 -0.13902412099E+04  0.15833785853E+04  0.92292116784E+02 0.  0.
    5000000    2    1    2    0    0 -0.20682350893E+03  0.72320351507E+03 -0.17817528043E+04  0.20249894823E+04  0.60011670506E+03 0.  0.
         23    2    4    4    0    0 -0.20510123121E+02  0.63097005714E+03 -0.83108836987E+03  0.10476328827E+04  0.91010440631E+02 0.  0.
         23    2    4    4    0    0 -0.18631338581E+03  0.92233457923E+02 -0.95066443447E+03  0.97735659958E+03  0.90792991421E+02 0.  0.
          2    1    3    3  502    0  0.45728071320E+02 -0.19102627337E+03 -0.28466813204E+03  0.34585840892E+03  0.00000000000E+00 0. -1.
         -2    1    3    3    0  502  0.16109543761E+03 -0.53217724170E+03 -0.11055730778E+04  0.12375201764E+04  0.00000000000E+00 0.  1.
         13    1    5    5    0    0  0.16682139764E+02  0.58611261952E+02 -0.51527498557E+02  0.79803865334E+02  0.00000000000E+00 0. -1.
        -13    1    5    5    0    0 -0.37192262885E+02  0.57235879519E+03 -0.77956087132E+03  0.96782901741E+03  0.00000000000E+00 0.  1.
          1    1    6    6  503    0 -0.29424005162E+02  0.90769972891E+01 -0.45499004849E+02  0.54939270124E+02  0.00000000000E+00 0. -1.
         -1    1    6    6    0  503 -0.15688938064E+03  0.83156460634E+02 -0.90516542962E+03  0.92241732946E+03  0.00000000000E+00 0.  1.
<mgrwt>
<rscale>  0 0.79765544E+03</rscale>
<asrwt>0</asrwt>
<pdfrwt beam="1">  1        2 0.52156629E+00 0.79765544E+03</pdfrwt>
<pdfrwt beam="2">  1       -2 0.33567237E-01 0.79765544E+03</pdfrwt>
<totfact> 0.85729896E+00</totfact>
</mgrwt>
</event>
<event>
12    1  0.1418317E-007  0.5978761E+03  0.7818608E-02  0.9909822E-01
         -1   -1    0    0    0  501 -0.00000000000E+00  0.00000000000E+00  0.34541834377E+03  0.34541834377E+03  0.00000000000E+00 0.  1.
          1   -1    0    0  501    0  0.00000000000E+00 -0.00000000000E+00 -0.11733229542E+04  0.11733229542E+04  0.00000000000E+00 0. -1.
         23    2    1    2    0    0  0.33258425036E+03  0.31899161774E+03 -0.12455602157E+03  0.48577458561E+03  0.89971160612E+02 0.  0.
    5000000    2    1    2    0    0 -0.33258425036E+03 -0.31899161774E+03 -0.70334858882E+03  0.10329667123E+04  0.59996087838E+03 0.  0.
         23    2    4    4    0    0 -0.47833830306E+03 -0.19121385988E+03 -0.37687881039E+03  0.64495894595E+03  0.92542594838E+02 0.  0.
         23    2    4    4    0    0  0.14575405270E+03 -0.12777775786E+03 -0.32646977843E+03  0.38800776637E+03  0.79975691618E+02 0.  0.
          2    1    3    3  502    0  0.18163932181E+03  0.12337369275E+03 -0.85435801367E+02  0.23561236692E+03  0.00000000000E+00 0. -1.
         -2    1    3    3    0  502  0.15094492855E+03  0.19561792499E+03 -0.39120220204E+02  0.25016221869E+03  0.00000000000E+00 0.  1.
         11    1    5    5    0    0 -0.34093343076E+03 -0.17997636160E+03 -0.27682890164E+03  0.47461704113E+03  0.00000000000E+00 0. -1.
        -11    1    5    5    0    0 -0.13740487230E+03 -0.11237498284E+02 -0.10004990874E+03  0.17034190482E+03  0.00000000000E+00 0.  1.
          1    1    6    6  503    0  0.48062367322E+02 -0.87912773320E+02 -0.19677415249E+03  0.22081375400E+03  0.00000000000E+00 0. -1.
         -1    1    6    6    0  503  0.97691685378E+02 -0.39864984536E+02 -0.12969562594E+03  0.16719401237E+03  0.00000000000E+00 0.  1.
<mgrwt>
<rscale>  0 0.59787608E+03</rscale>
<asrwt>0</asrwt>
<pdfrwt beam="1">  1        1 0.18051122E+00 0.59787608E+03</pdfrwt>
<pdfrwt beam="2">  1       -1 0.53141284E-01 0.59787608E+03</pdfrwt>
<totfact> 0.41740527E+01</totfact>
</mgrwt>
</event>
<event>
12    1  0.1418317E-007  0.4684584E+03  0.7818608E-02  0.1022356E+00
          4   -1    0    0  501    0  0.00000000000E+00  0.00000000000E+00  0.11583089173E+04  0.11583089173E+04  0.00000000000E+00 0.  1.
         -4   -1    0    0    0  501 -0.00000000000E+00 -0.00000000000E+00 -0.64356103866E+03  0.64356103866E+03  0.00000000000E+00 0. -1.
         23    2    1    2    0    0  0.24122366072E+03  0.33358839106E+03  0.88888970374E+03  0.98385804469E+03  0.91551502112E+02 0.  0.
    5000000    2    1    2    0    0 -0.24122366072E+03 -0.33358839106E+03 -0.37414182506E+03  0.81801191130E+03  0.59974270535E+03 0.  0.
         23    2    4    4    0    0  0.43366848788E+02 -0.34701956087E+02 -0.38125740314E+03  0.39505861636E+03  0.87345255044E+02 0.  0.
         23    2    4    4    0    0 -0.28459050951E+03 -0.29888643498E+03  0.71155780759E+01  0.42295329494E+03  0.92271334307E+02 0.  0.
          4    1    3    3  502    0  0.94434343159E+02  0.19808765463E+03  0.41152673638E+03  0.46638055152E+03  0.00000000000E+00 0.  1.
         -4    1    3    3    0  502  0.14678931756E+03  0.13550073643E+03  0.47736296736E+03  0.51747749317E+03  0.00000000000E+00 0. -1.
         11    1    5    5    0    0  0.68905886526E+02 -0.17014097972E+02 -0.23250501087E+03  0.24309685479E+03  0.00000000000E+00 0.  1.
        -11    1    5    5    0    0 -0.25539037738E+02 -0.17687858115E+02 -0.14875239227E+03  0.15196176157E+03  0.00000000000E+00 0. -1.
          3    1    6    6  503    0 -0.17268108509E+03 -0.21522570746E+03  0.41553909772E+02  0.27904764776E+03  0.00000000000E+00 0. -1.
         -3    1    6    6    0  503 -0.11190942442E+03 -0.83660727512E+02 -0.34438331696E+02  0.14390564718E+03  0.00000000000E+00 0.  1.
<mgrwt>
<rscale>  0 0.46845836E+03</rscale>
<asrwt>0</asrwt>
<pdfrwt beam="1">  1        4 0.17820137E+00 0.46845836E+03</pdfrwt>
<pdfrwt beam="2">  1       -4 0.99009391E-01 0.46845836E+03</pdfrwt>
<totfact> 0.30932222E-01</totfact>
</mgrwt>
</event>
<event>
12    1  0.1418317E-007  0.2344862E+04  0.7818608E-02  0.8460440E-01
         -2   -1    0    0    0  501 -0.00000000000E+00  0.00000000000E+00  0.19094371989E+04  0.19094371989E+04  0.00000000000E+00 0.  1.
          2   -1    0    0  501    0  0.00000000000E+00 -0.00000000000E+00 -0.30092552381E+04  0.30092552381E+04  0.00000000000E+00 0. -1.
         23    2    1    2    0    0  0.17674967766E+04  0.14851914565E+04 -0.10373015945E+04  0.25325951311E+04  0.90581357327E+02 0.  0.
    5000000    2    1    2    0    0 -0.17674967766E+04 -0.14851914565E+04 -0.62516444601E+02  0.23860973059E+04  0.59976122720E+03 0.  0.
         23    2    4    4    0    0 -0.70857217186E+03 -0.96649708576E+03 -0.11965974099E+02  0.12017566635E+04  0.88796138836E+02 0.  0.
         23    2    4    4    0    0 -0.10589246048E+04 -0.51869437072E+03 -0.50550470502E+02  0.11843406424E+04  0.98702777836E+02 0.  0.
          4    1    3    3  502    0  0.92737099475E+03  0.83760172986E+03 -0.55396539688E+03  0.13669203637E+04  0.00000000000E+00 0. -1.
         -4    1    3    3    0  502  0.84012578186E+03  0.64758972662E+03 -0.48333619766E+03  0.11656747674E+04  0.00000000000E+00 0.  1.
         13    1    5    5    0    0 -0.42721119135E+02 -0.87452351761E+02  0.16039640977E+02  0.98642171161E+02  0.00000000000E+00 0.  1.
        -13    1    5    5    0    0 -0.66585105272E+03 -0.87904473400E+03 -0.28005615076E+02  0.11031144924E+04  0.00000000000E+00 0. -1.
          3    1    6    6  503    0 -0.88623492343E+03 -0.44080744579E+03 -0.78190235144E+02  0.99289337627E+03  0.00000000000E+00 0. -1.
         -3    1    6    6    0  503 -0.17268968133E+03 -0.77886924935E+02  0.27639764642E+02  0.19144726611E+03  0.00000000000E+00 0.  1.
<mgrwt>
<rscale>  0 0.23448620E+04</rscale>
<asrwt>0</asrwt>
<pdfrwt beam="1">  1        2 0.46296235E+00 0.23448620E+04</pdfrwt>
<pdfrwt beam="2">  1       -2 0.29375957E+00 0.23448620E+04</pdfrwt>
<totfact> 0.51024414E-02</totfact>
</mgrwt>
</event>
<event>
12    1  0.1418317E-007  0.1126255E+04  0.7818608E-02  0.9179974E-01
         -2   -1    0    0    0  501 -0.00000000000E+00  0.00000000000E+00  0.70165805980E+03  0.70165805980E+03  0.00000000000E+00 0.  1.
          2   -1    0    0  501    0  0.00000000000E+00 -0.00000000000E+00 -0.19513107308E+04  0.19513107308E+04  0.00000000000E+00 0. -1.
         23    2    1    2    0    0 -0.61376537517E+03 -0.88948018966E+03 -0.41310890704E+03  0.11603988467E+04  0.89350830300E+02 0.  0.
    5000000    2    1    2    0    0  0.61376537517E+03  0.88948018966E+03 -0.83654376391E+03  0.14925699438E+04  0.60006385053E+03 0.  0.
         23    2    4    4    0    0  0.61740493776E+03  0.58401637795E+03 -0.80205065996E+03  0.11721095293E+04  0.91057677785E+02 0.  0.
         23    2    4    4    0    0 -0.36395625837E+01  0.30546381171E+03 -0.34493103942E+02  0.32046041451E+03  0.90463895366E+02 0.  0.
          3    1    3    3  502    0 -0.30355207222E+03 -0.40817097304E+03 -0.23805996462E+03  0.56162260508E+03  0.00000000000E+00 0. -1.
         -3    1    3    3    0  502 -0.31021330295E+03 -0.48130921662E+03 -0.17504894243E+03  0.59877624166E+03  0.00000000000E+00 0.  1.
         11    1    5    5    0    0  0.54124244137E+02  0.26699298449E+02 -0.37774501047E+02  0.71198309463E+02  0.00000000000E+00 0. -1.
        -11    1    5    5    0    0  0.56328069362E+03  0.55731707950E+03 -0.76427615892E+03  0.11009112199E+04  0.00000000000E+00 0.  1.
          2    1    6    6  503    0 -0.74353824779E+01  0.31136724383E+03 -0.32401252394E+02  0.31313684964E+03  0.00000000000E+00 0. -1.
         -2    1    6    6    0  503  0.37958198942E+01 -0.59034321212E+01 -0.20918515479E+01  0.73235648681E+01  0.00000000000E+00 0.  1.
<mgrwt>
<rscale>  0 0.11262545E+04</rscale>
<asrwt>0</asrwt>
<pdfrwt beam="1">  1        2 0.30020165E+00 0.11262545E+04</pdfrwt>
<pdfrwt beam="2">  1       -2 0.10794739E+00 0.11262545E+04</pdfrwt>
<totfact> 0.48169500E+00</totfact>
</mgrwt>
</event>
<event>
12    1  0.1418317E-007  0.1177259E+04  0.7818608E-02  0.9132998E-01
         -2   -1    0    0    0  501 -0.00000000000E+00  0.00000000000E+00  0.70493579685E+03  0.70493579685E+03  0.00000000000E+00 0.  1.
          2   -1    0    0  501    0  0.00000000000E+00 -0.00000000000E+00 -0.26648099539E+04  0.26648099539E+04  0.00000000000E+00 0. -1.
         23    2    1    2    0    0 -0.10485140980E+04  0.34834199645E+03 -0.17838717513E+04  0.21002766978E+04  0.90773466691E+02 0.  0.
    5000000    2    1    2    0    0  0.10485140980E+04 -0.34834199645E+03 -0.17600240582E+03  0.12694690530E+04  0.59987571160E+03 0.  0.
         23    2    4    4    0    0  0.77348051409E+02  0.12476211288E+03 -0.36229283528E+02  0.17627070170E+03  0.90611773105E+02 0.  0.
         23    2    4    4    0    0  0.97116604659E+03 -0.47310410933E+03 -0.13977312229E+03  0.10931983513E+04  0.92493897981E+02 0.  0.
          4    1    3    3  502    0 -0.15604583388E+03  0.37906923222E+02 -0.31796384125E+03  0.35621375807E+03  0.00000000000E+00 0. -1.
         -4    1    3    3    0  502 -0.89246826413E+03  0.31043507323E+03 -0.14659079100E+04  0.17440629397E+04  0.00000000000E+00 0.  1.
         11    1    5    5    0    0 -0.16988095213E+02  0.18367613654E+02  0.97139042785E+01  0.26838862618E+02  0.00000000000E+00 0. -1.
        -11    1    5    5    0    0  0.94336146622E+02  0.10639449923E+03 -0.45943187807E+02  0.14943183908E+03  0.00000000000E+00 0.  1.
          3    1    6    6  503    0  0.17874765594E+03 -0.11240378160E+03  0.15201227793E+01  0.21115786842E+03  0.00000000000E+00 0. -1.
         -3    1    6    6    0  503  0.79241839065E+03 -0.36070032773E+03 -0.14129324507E+03  0.88204048284E+03  0.00000000000E+00 0.  1.
<mgrwt>
<rscale>  0 0.11772587E+04</rscale>
<asrwt>0</asrwt>
<pdfrwt beam="1">  1        2 0.40997076E+00 0.11772587E+04</pdfrwt>
<pdfrwt beam="2">  1       -2 0.10845166E+00 0.11772587E+04</pdfrwt>
<totfact> 0.18703148E+00</totfact>
</mgrwt>
</event>
<event>
12    1  0.1418317E-007  0.5517079E+03  0.7818608E-02  0.1001099E+00
         -2   -1    0    0    0  501 -0.00000000000E+00  0.00000000000E+00  0.16196634409E+03  0.16196634409E+03  0.00000000000E+00 0.  1.
          2   -1    0    0  501    0  0.00000000000E+00 -0.00000000000E+00 -0.30050824224E+04  0.30050824224E+04  0.00000000000E+00 0. -1.
         23    2    1    2    0    0  0.31615113394E+03 -0.39671501185E+03 -0.17254697801E+04  0.18008599776E+04  0.92284109142E+02 0.  0.
    5000000    2    1    2    0    0 -0.31615113394E+03  0.39671501185E+03 -0.11176462982E+04  0.13661887888E+04  0.60000351569E+03 0.  0.
         23    2    4    4    0    0 -0.14229813297E+03  0.12225380144E+02 -0.10091183406E+01  0.16907684690E+03  0.90486149599E+02 0.  0.
         23    2    4    4    0    0 -0.17385300097E+03  0.38448963170E+03 -0.11166371798E+04  0.11971119419E+04  0.90228971791E+02 0.  0.
          3    1    3    3  502    0  0.11334387891E+02 -0.16767930886E+02 -0.25936222910E+02  0.32898624803E+02  0.00000000000E+00 0. -1.
         -3    1    3    3    0  502  0.30481674605E+03 -0.37994708096E+03 -0.16995335572E+04  0.17679613528E+04  0.00000000000E+00 0.  1.
         13    1    5    5    0    0 -0.13893000190E+03  0.35705222332E+02  0.80865499729E+01  0.14367254651E+03  0.00000000000E+00 0. -1.
        -13    1    5    5    0    0 -0.33681310724E+01 -0.23479842188E+02 -0.90956683134E+01  0.25404300387E+02  0.00000000000E+00 0.  1.
          3    1    6    6  503    0 -0.18168922313E+03  0.36102070855E+03 -0.10150174779E+04  0.10925234123E+04  0.00000000000E+00 0. -1.
         -3    1    6    6    0  503  0.78362221601E+01  0.23468923150E+02 -0.10161970187E+03  0.10458852968E+03  0.00000000000E+00 0.  1.
<mgrwt>
<rscale>  0 0.55170788E+03</rscale>
<asrwt>0</asrwt>
<pdfrwt beam="1">  1        2 0.46232040E+00 0.55170788E+03</pdfrwt>
<pdfrwt beam="2">  1       -2 0.24917898E-01 0.55170788E+03</pdfrwt>
<totfact> 0.27362328E+01</totfact>
</mgrwt>
</event>
<event>
12    1  0.1418317E-007  0.9881414E+03  0.7818608E-02  0.9321648E-01
          1   -1    0    0  501    0  0.00000000000E+00  0.00000000000E+00  0.13863500327E+04  0.13863500327E+04  0.00000000000E+00 0. -1.
         -1   -1    0    0    0  501 -0.00000000000E+00 -0.00000000000E+00 -0.11366439611E+04  0.11366439611E+04  0.00000000000E+00 0.  1.
         23    2    1    2    0    0  0.84215216975E+03 -0.48313255490E+03  0.79470019625E+03  0.12582464682E+04  0.94860055841E+02 0.  0.
    5000000    2    1    2    0    0 -0.84215216975E+03  0.48313255490E+03 -0.54499412474E+03  0.12647475256E+04  0.59994196794E+03 0.  0.
         23    2    4    4    0    0 -0.48805528889E+03  0.17023536132E+03  0.16228229221E+02  0.52549962474E+03  0.93319113381E+02 0.  0.
         23    2    4    4    0    0 -0.35409688086E+03  0.31289719358E+03 -0.56122235396E+03  0.73924790086E+03  0.90706524308E+02 0.  0.
          3    1    3    3  502    0  0.76237072804E+03 -0.45517241609E+03  0.75182330942E+03  0.11634557765E+04  0.00000000000E+00 0. -1.
         -3    1    3    3    0  502  0.79781441709E+02 -0.27960138804E+02  0.42876886829E+02  0.94790691670E+02  0.00000000000E+00 0.  1.
         13    1    5    5    0    0 -0.36064260294E+03  0.16657893814E+03  0.21648610712E+01  0.39726101786E+03  0.00000000000E+00 0. -1.
        -13    1    5    5    0    0 -0.12741268595E+03  0.36564231819E+01  0.14063368150E+02  0.12823860689E+03  0.00000000000E+00 0.  1.
          1    1    6    6  503    0 -0.26534996098E+03  0.27638894114E+03 -0.42001785921E+03  0.56852128424E+03  0.00000000000E+00 0. -1.
         -1    1    6    6    0  503 -0.88746919877E+02  0.36508252438E+02 -0.14120449475E+03  0.17072661662E+03  0.00000000000E+00 0.  1.
<mgrwt>
<rscale>  0 0.98814139E+03</rscale>
<asrwt>0</asrwt>
<pdfrwt beam="1">  1        1 0.21328462E+00 0.98814139E+03</pdfrwt>
<pdfrwt beam="2">  1       -1 0.17486830E+00 0.98814139E+03</pdfrwt>
<totfact> 0.17928006E+00</totfact>
</mgrwt>
</event>
<event>
12    1  0.1418317E-007  0.6645695E+03  0.7818608E-02  0.9779818E-01
          2   -1    0    0  501    0  0.00000000000E+00  0.00000000000E+00  0.46627397640E+04  0.46627397640E+04  0.00000000000E+00 0. -1.
         -2   -1    0    0    0  501 -0.00000000000E+00 -0.00000000000E+00 -0.11313768444E+03  0.11313768444E+03  0.00000000000E+00 0.  1.
         23    2    1    2    0    0  0.31817794340E+03 -0.43015703002E+03  0.10152516652E+04  0.11512513430E+04  0.91495556645E+02 0.  0.
    5000000    2    1    2    0    0 -0.31817794340E+03  0.43015703002E+03  0.35343504143E+04  0.36246261054E+04  0.60000773228E+03 0.  0.
         23    2    4    4    0    0 -0.12208586499E+03 -0.12588187557E+03  0.11094482267E+04  0.11270155343E+04  0.92398278106E+02 0.  0.
         23    2    4    4    0    0 -0.19609207840E+03  0.55603890559E+03  0.24249021876E+04  0.24976105711E+04  0.10137345677E+03 0.  0.
          1    1    3    3  502    0  0.80825159847E+02 -0.15072824503E+03  0.40023772012E+03  0.43524928825E+03  0.00000000000E+00 0. -1.
         -1    1    3    3    0  502  0.23735278355E+03 -0.27942878499E+03  0.61501394511E+03  0.71600205475E+03  0.00000000000E+00 0.  1.
         11    1    5    5    0    0 -0.67402514287E+02 -0.13050452703E+02  0.50953964522E+03  0.51414401027E+03  0.00000000000E+00 0.  1.
        -11    1    5    5    0    0 -0.54683350706E+02 -0.11283142287E+03  0.59990858149E+03  0.61287152404E+03  0.00000000000E+00 0. -1.
          2    1    6    6  503    0 -0.33506339739E+02  0.23705388730E+03  0.90855476671E+03  0.93956850969E+03  0.00000000000E+00 0. -1.
         -2    1    6    6    0  503 -0.16258573867E+03  0.31898501829E+03  0.15163474209E+04  0.15580420614E+04  0.00000000000E+00 0.  1.
<mgrwt>
<rscale>  0 0.66456952E+03</rscale>
<asrwt>0</asrwt>
<pdfrwt beam="1">  1        2 0.71734443E+00 0.66456952E+03</pdfrwt>
<pdfrwt beam="2">  1       -2 0.17405801E-01 0.66456952E+03</pdfrwt>
<totfact> 0.26734088E+00</totfact>
</mgrwt>
</event>
<event>
12    1  0.1418317E-007  0.1086521E+04  0.7818608E-02  0.9218430E-01
          2   -1    0    0  501    0  0.00000000000E+00  0.00000000000E+00  0.20593957687E+04  0.20593957687E+04  0.00000000000E+00 0. -1.
         -2   -1    0    0    0  501 -0.00000000000E+00 -0.00000000000E+00 -0.74846386448E+03  0.74846386448E+03  0.00000000000E+00 0.  1.
         23    2    1    2    0    0  0.77194548874E+03 -0.67241952354E+03  0.12521811904E+04  0.16198910453E+04  0.89673918950E+02 0.  0.
    5000000    2    1    2    0    0 -0.77194548874E+03  0.67241952354E+03  0.58750713796E+02  0.11879685879E+04  0.59980819119E+03 0.  0.
         23    2    4    4    0    0 -0.63178132553E+03  0.22207803852E+03  0.16749372118E+03  0.69507281904E+03  0.81275941394E+02 0.  0.
         23    2    4    4    0    0 -0.14016416321E+03  0.45034148502E+03 -0.10874300739E+03  0.49289576885E+03  0.93100760024E+02 0.  0.
          1    1    3    3  502    0  0.30201828787E+03 -0.21407504566E+03  0.48669882375E+03  0.61148909755E+03  0.00000000000E+00 0. -1.
         -1    1    3    3    0  502  0.46992720087E+03 -0.45834447788E+03  0.76548236667E+03  0.10084019477E+04  0.00000000000E+00 0.  1.
         11    1    5    5    0    0 -0.28801398039E+03  0.58575133588E+02  0.74934672711E+02  0.30331222256E+03  0.00000000000E+00 0. -1.
        -11    1    5    5    0    0 -0.34376734514E+03  0.16350290493E+03  0.92559048474E+02  0.39176059649E+03  0.00000000000E+00 0.  1.
          1    1    6    6  503    0 -0.97067580764E+02  0.29084757747E+03 -0.11522856613E+03  0.32755465346E+03  0.00000000000E+00 0. -1.
         -1    1    6    6    0  503 -0.43096582443E+02  0.15949390755E+03  0.64855587420E+01  0.16534111538E+03  0.00000000000E+00 0.  1.
<mgrwt>
<rscale>  0 0.10865214E+04</rscale>
<asrwt>0</asrwt>
<pdfrwt beam="1">  1        2 0.31683012E+00 0.10865214E+04</pdfrwt>
<pdfrwt beam="2">  1       -2 0.11514829E+00 0.10865214E+04</pdfrwt>
<totfact> 0.36013373E+00</totfact>
</mgrwt>
</event>
<event>
12    1  0.1418317E-007  0.8631836E+03  0.7818608E-02  0.9472811E-01
         -2   -1    0    0    0  501 -0.00000000000E+00  0.00000000000E+00  0.78091629768E+03  0.78091629768E+03  0.00000000000E+00 0.  1.
          2   -1    0    0  501    0  0.00000000000E+00 -0.00000000000E+00 -0.12612903116E+04  0.12612903116E+04  0.00000000000E+00 0. -1.
         23    2    1    2    0    0 -0.35360004198E+02 -0.76533705719E+03 -0.70323173331E+03  0.10438374949E+04  0.89837097537E+02 0.  0.
    5000000    2    1    2    0    0  0.35360004198E+02  0.76533705719E+03  0.22285771938E+03  0.99836911435E+03  0.60007014956E+03 0.  0.
         23    2    4    4    0    0  0.25667096009E+03  0.17032761523E+03  0.64340846819E+01  0.32151602248E+03  0.91867714689E+02 0.  0.
         23    2    4    4    0    0 -0.22131095589E+03  0.59500944196E+03  0.21642363470E+03  0.67685309187E+03  0.90973309795E+02 0.  0.
          3    1    3    3  502    0  0.17376809667E+02 -0.14350940711E+03 -0.99132054165E+02  0.17528282177E+03  0.00000000000E+00 0. -1.
         -3    1    3    3    0  502 -0.52736813865E+02 -0.62182765008E+03 -0.60409967914E+03  0.86855467316E+03  0.00000000000E+00 0.  1.
         11    1    5    5    0    0  0.38380819356E+02 -0.50419448772E+01 -0.12995435760E+02  0.40833685275E+02  0.00000000000E+00 0. -1.
        -11    1    5    5    0    0  0.21829014074E+03  0.17536956011E+03  0.19429520442E+02  0.28068233721E+03  0.00000000000E+00 0.  1.
          4    1    6    6  503    0 -0.20772009916E+03  0.47733275875E+03  0.19807741026E+03  0.55698192307E+03  0.00000000000E+00 0. -1.
         -4    1    6    6    0  503 -0.13590856732E+02  0.11767668321E+03  0.18346224444E+02  0.11987116880E+03  0.00000000000E+00 0.  1.
<mgrwt>
<rscale>  0 0.86318356E+03</rscale>
<asrwt>0</asrwt>
<pdfrwt beam="1">  1        2 0.19404466E+00 0.86318356E+03</pdfrwt>
<pdfrwt beam="2">  1       -2 0.12014097E+00 0.86318356E+03</pdfrwt>
<totfact> 0.92866004E+00</totfact>
</mgrwt>
</event>
<event>
12    1  0.1418317E-007  0.3875316E+03  0.7818608E-02  0.1048185E+00
         -2   -1    0    0    0  501 -0.00000000000E+00  0.00000000000E+00  0.69942585644E+02  0.69942585644E+02  0.00000000000E+00 0.  1.
          2   -1    0    0  501    0  0.00000000000E+00 -0.00000000000E+00 -0.25918421558E+04  0.25918421558E+04  0.00000000000E+00 0. -1.
         23    2    1    2    0    0 -0.16557573663E+03  0.79649451058E+02 -0.89202092502E+03  0.91530073920E+03  0.91185266877E+02 0.  0.
    5000000    2    1    2    0    0  0.16557573663E+03 -0.79649451058E+02 -0.16298786451E+04  0.17464840022E+04  0.59995217527E+03 0.  0.
         23    2    4    4    0    0 -0.36971301338E+02  0.20108414713E+03 -0.33204577046E+03  0.40018550890E+03  0.89957414941E+02 0.  0.
         23    2    4    4    0    0  0.20254703797E+03 -0.28073359819E+03 -0.12978328747E+04  0.13462984933E+04  0.91174595413E+02 0.  0.
          2    1    3    3  502    0 -0.81248445594E+02  0.87251949586E+02 -0.47142535503E+03  0.48626749633E+03  0.00000000000E+00 0.  1.
         -2    1    3    3    0  502 -0.84327291035E+02 -0.76024985275E+01 -0.42059556999E+03  0.42903324288E+03  0.00000000000E+00 0. -1.
         11    1    5    5    0    0  0.15426912551E+02  0.23796849987E+02 -0.97505726300E+02  0.10154627695E+03  0.00000000000E+00 0.  1.
        -11    1    5    5    0    0 -0.52398213890E+02  0.17728729714E+03 -0.23454004416E+03  0.29863923195E+03  0.00000000000E+00 0. -1.
          3    1    6    6  503    0  0.15071803577E+03 -0.26306998257E+03 -0.11062122168E+04  0.11470079383E+04  0.00000000000E+00 0. -1.
         -3    1    6    6    0  503  0.51829002199E+02 -0.17663615616E+02 -0.19162065790E+03  0.19929055502E+03  0.00000000000E+00 0.  1.
<mgrwt>
<rscale>  0 0.38753162E+03</rscale>
<asrwt>0</asrwt>
<pdfrwt beam="1">  1        2 0.39874485E+00 0.38753162E+03</pdfrwt>
<pdfrwt beam="2">  1       -2 0.10760400E-01 0.38753162E+03</pdfrwt>
<totfact> 0.20529993E+02</totfact>
</mgrwt>
</event>
<event>
12    1  0.1418317E-007  0.5387485E+03  0.7818608E-02  0.1004132E+00
         -1   -1    0    0    0  501 -0.00000000000E+00  0.00000000000E+00  0.18485953537E+03  0.18485953537E+03  0.00000000000E+00 0.  1.
          1   -1    0    0  501    0  0.00000000000E+00 -0.00000000000E+00 -0.20050651131E+04  0.20050651131E+04  0.00000000000E+00 0. -1.
         23    2    1    2    0    0 -0.37656409570E+03 -0.20323176207E+03 -0.97482020247E+03  0.10683626890E+04  0.89558588682E+02 0.  0.
    5000000    2    1    2    0    0  0.37656409570E+03  0.20323176207E+03 -0.84538537529E+03  0.11215619595E+04  0.60010093233E+03 0.  0.
         23    2    4    4    0    0  0.41331068621E+03  0.29585012974E+03 -0.84425625418E+03  0.98951196763E+03  0.89511389001E+02 0.  0.
         23    2    4    4    0    0 -0.36746590515E+02 -0.92618367669E+02 -0.11291211088E+01  0.13204999188E+03  0.86645550933E+02 0.  0.
          1    1    3    3  502    0 -0.88707622053E+02 -0.82659302386E+01 -0.21822726326E+03  0.23571276215E+03  0.00000000000E+00 0. -1.
         -1    1    3    3    0  502 -0.28785647364E+03 -0.19496583183E+03 -0.75659293921E+03  0.83264992684E+03  0.00000000000E+00 0.  1.
         13    1    5    5    0    0  0.26161357772E+03  0.21161117527E+03 -0.62583773166E+03  0.71055880820E+03  0.00000000000E+00 0. -1.
        -13    1    5    5    0    0  0.15169710850E+03  0.84238954464E+02 -0.21841852252E+03  0.27895315943E+03  0.00000000000E+00 0.  1.
          3    1    6    6  503    0 -0.60894324028E+02 -0.40041451643E+02  0.85834141886E+01  0.73383319273E+02  0.00000000000E+00 0. -1.
         -3    1    6    6    0  503  0.24147733513E+02 -0.52576916026E+02 -0.97125352973E+01  0.58666672605E+02  0.00000000000E+00 0.  1.
<mgrwt>
<rscale>  0 0.53874850E+03</rscale>
<asrwt>0</asrwt>
<pdfrwt beam="1">  1        1 0.30847156E+00 0.53874850E+03</pdfrwt>
<pdfrwt beam="2">  1       -1 0.28439928E-01 0.53874850E+03</pdfrwt>
<totfact> 0.35436504E+01</totfact>
</mgrwt>
</event>
<event>
12    1  0.1418317E-007  0.1778309E+04  0.7818608E-02  0.8717920E-01
          2   -1    0    0  501    0  0.00000000000E+00  0.00000000000E+00  0.19636264882E+04  0.19636264882E+04  0.00000000000E+00 0. -1.
         -2   -1    0    0    0  501 -0.00000000000E+00 -0.00000000000E+00 -0.17758891139E+04  0.17758891139E+04  0.00000000000E+00 0.  1.
         23    2    1    2    0    0  0.15667706955E+04 -0.81512063307E+03  0.52343909355E+03  0.18444088613E+04  0.93077947942E+02 0.  0.
    5000000    2    1    2    0    0 -0.15667706955E+04  0.81512063307E+03 -0.33570171927E+03  0.18951067409E+04  0.59961809211E+03 0.  0.
         23    2    4    4    0    0 -0.13642374538E+04  0.61853024078E+03 -0.79897255519E+02  0.15028362148E+04  0.91704023206E+02 0.  0.
         23    2    4    4    0    0 -0.20253324161E+03  0.19659039229E+03 -0.25580446375E+03  0.39227052606E+03  0.93662936336E+02 0.  0.
          1    1    3    3  502    0  0.10924972072E+04 -0.61539457726E+03  0.36399328122E+03  0.13056614194E+04  0.00000000000E+00 0. -1.
         -1    1    3    3    0  502  0.47427348830E+03 -0.19972605581E+03  0.15944581233E+03  0.53874744189E+03  0.00000000000E+00 0.  1.
         11    1    5    5    0    0 -0.82629532857E+03  0.33073893125E+03 -0.68184036561E+02  0.89263725752E+03  0.00000000000E+00 0. -1.
        -11    1    5    5    0    0 -0.53794212528E+03  0.28779130953E+03 -0.11713218957E+02  0.61019895730E+03  0.00000000000E+00 0.  1.
          2    1    6    6  503    0 -0.16296773435E+03  0.12206175575E+03 -0.22237533642E+03  0.30151010746E+03  0.00000000000E+00 0. -1.
         -2    1    6    6    0  503 -0.39565507257E+02  0.74528636547E+02 -0.33429127336E+02  0.90760418600E+02  0.00000000000E+00 0.  1.
<mgrwt>
<rscale>  0 0.17783087E+04</rscale>
<asrwt>0</asrwt>
<pdfrwt beam="1">  1        2 0.30209638E+00 0.17783087E+04</pdfrwt>
<pdfrwt beam="2">  1       -2 0.27321371E+00 0.17783087E+04</pdfrwt>
<totfact> 0.29540115E-01</totfact>
</mgrwt>
</event>
<event>
12    1  0.1418317E-007  0.7367245E+03  0.7818608E-02  0.9656411E-01
         -2   -1    0    0    0  501 -0.00000000000E+00  0.00000000000E+00  0.10637753887E+04  0.10637753887E+04  0.00000000000E+00 0.  1.
          2   -1    0    0  501    0  0.00000000000E+00 -0.00000000000E+00 -0.59920042555E+03  0.59920042555E+03  0.00000000000E+00 0. -1.
         23    2    1    2    0    0  0.13054543515E+03  0.65469600425E+03  0.34696283170E+03  0.75769237955E+03  0.89697083736E+02 0.  0.
    5000000    2    1    2    0    0 -0.13054543515E+03 -0.65469600425E+03  0.11761213140E+03  0.90528343466E+03  0.60003042840E+03 0.  0.
         23    2    4    4    0    0  0.15693585337E+03 -0.27752514027E+03 -0.13846669126E+03  0.35896026199E+03  0.89612384988E+02 0.  0.
         23    2    4    4    0    0 -0.28748128852E+03 -0.37717086398E+03  0.25607882266E+03  0.54632317267E+03  0.89382849007E+02 0.  0.
          1    1    3    3  502    0  0.77941081575E+01  0.18522310130E+03  0.64921406178E+02  0.19642590042E+03  0.00000000000E+00 0. -1.
         -1    1    3    3    0  502  0.12275132699E+03  0.46947290295E+03  0.28204142552E+03  0.56126647913E+03  0.00000000000E+00 0.  1.
         11    1    5    5    0    0  0.13615716679E+03 -0.21414794457E+03 -0.14444325645E+03  0.29199652493E+03  0.00000000000E+00 0.  1.
        -11    1    5    5    0    0  0.20778686580E+02 -0.63377195698E+02  0.59765651880E+01  0.66963737067E+02  0.00000000000E+00 0. -1.
          2    1    6    6  503    0 -0.17867631253E+03 -0.16180452712E+03  0.13671717367E+03  0.27712364611E+03  0.00000000000E+00 0. -1.
         -2    1    6    6    0  503 -0.10880497600E+03 -0.21536633685E+03  0.11936164899E+03  0.26919952656E+03  0.00000000000E+00 0.  1.
<mgrwt>
<rscale>  0 0.73672451E+03</rscale>
<asrwt>0</asrwt>
<pdfrwt beam="1">  1        2 0.92184681E-01 0.73672451E+03</pdfrwt>
<pdfrwt beam="2">  1       -2 0.16365775E+00 0.73672451E+03</pdfrwt>
<totfact> 0.11961938E+01</totfact>
</mgrwt>
</event>
<event>
12    1  0.1418317E-007  0.2092964E+04  0.7818608E-02  0.8564349E-01
         -1   -1    0    0    0  501 -0.00000000000E+00  0.00000000000E+00  0.37654699572E+04  0.37654699572E+04  0.00000000000E+00 0.  1.
          1   -1    0    0  501    0  0.00000000000E+00 -0.00000000000E+00 -0.12400255440E+04  0.12400255440E+04  0.00000000000E+00 0. -1.
         23    2    1    2    0    0  0.13290881791E+04 -0.15922751842E+04  0.17369593800E+04  0.27068969315E+04  0.91910064665E+02 0.  0.
    5000000    2    1    2    0    0 -0.13290881791E+04  0.15922751842E+04  0.78848503322E+03  0.22985985698E+04  0.60002590546E+03 0.  0.
         23    2    4    4    0    0 -0.12949748686E+04  0.13771999195E+04  0.56472289966E+03  0.19750396649E+04  0.90720428451E+02 0.  0.
         23    2    4    4    0    0 -0.34113310587E+02  0.21507526474E+03  0.22376213356E+03  0.32355890489E+03  0.84851547160E+02 0.  0.
          2    1    3    3  502    0  0.99659483128E+03 -0.11824294277E+04  0.13455085451E+04  0.20498131266E+04  0.00000000000E+00 0. -1.
         -2    1    3    3    0  502  0.33249334787E+03 -0.40984575652E+03  0.39145083489E+03  0.65708380489E+03  0.00000000000E+00 0.  1.
         13    1    5    5    0    0 -0.88660682275E+03  0.99789204356E+03  0.38054769092E+03  0.13880478139E+04  0.00000000000E+00 0. -1.
        -13    1    5    5    0    0 -0.40836804581E+03  0.37930787589E+03  0.18417520874E+03  0.58699185094E+03  0.00000000000E+00 0.  1.
          4    1    6    6  503    0 -0.17819694625E+02  0.40726718902E+02  0.99084151780E+02  0.10859961456E+03  0.00000000000E+00 0. -1.
         -4    1    6    6    0  503 -0.16293615962E+02  0.17434854584E+03  0.12467798178E+03  0.21495929033E+03  0.00000000000E+00 0.  1.
<mgrwt>
<rscale>  0 0.20929636E+04</rscale>
<asrwt>0</asrwt>
<pdfrwt beam="1">  1        1 0.19077316E+00 0.20929636E+04</pdfrwt>
<pdfrwt beam="2">  1       -1 0.57930307E+00 0.20929636E+04</pdfrwt>
<totfact> 0.46709136E-03</totfact>
</mgrwt>
</event>
<event>
12    1  0.1418317E-007  0.4150223E+03  0.7818608E-02  0.1038699E+00
          1   -1    0    0  501    0  0.00000000000E+00  0.00000000000E+00  0.18886761640E+04  0.18886761640E+04  0.00000000000E+00 0. -1.
         -1   -1    0    0    0  501 -0.00000000000E+00 -0.00000000000E+00 -0.60993948247E+03  0.60993948247E+03  0.00000000000E+00 0.  1.
         23    2    1    2    0    0  0.36955357864E+03  0.13540241297E+02 -0.47496389317E+03  0.60867856659E+03  0.90253598247E+02 0.  0.
    5000000    2    1    2    0    0 -0.36955357864E+03 -0.13540241297E+02  0.17537005747E+04  0.18899370799E+04  0.59970265514E+03 0.  0.
         23    2    4    4    0    0 -0.48436491038E+01 -0.69418205530E+02  0.12666649303E+04  0.12720435023E+04  0.93873733815E+02 0.  0.
         23    2    4    4    0    0 -0.36470992953E+03  0.55877964233E+02  0.48703564439E+03  0.61789357757E+03  0.91940604207E+02 0.  0.
          4    1    3    3  502    0  0.78271485140E+02 -0.69432169545E+01 -0.16545418626E+03  0.18316583033E+03  0.00000000000E+00 0.  1.
         -4    1    3    3    0  502  0.29128209350E+03  0.20483458252E+02 -0.30950970691E+03  0.42551273627E+03  0.00000000000E+00 0. -1.
         13    1    5    5    0    0 -0.19053769796E+02  0.58948210722E+00  0.77318393060E+03  0.77341889308E+03  0.00000000000E+00 0. -1.
        -13    1    5    5    0    0  0.14210120692E+02 -0.70007687637E+02  0.49348099974E+03  0.49862460926E+03  0.00000000000E+00 0.  1.
          1    1    6    6  503    0 -0.23537891999E+03  0.35758474685E+02  0.38179857825E+03  0.44994672889E+03  0.00000000000E+00 0. -1.
         -1    1    6    6    0  503 -0.12933100955E+03  0.20119489548E+02  0.10523706615E+03  0.16794684868E+03  0.00000000000E+00 0.  1.
<mgrwt>
<rscale>  0 0.41502234E+03</rscale>
<asrwt>0</asrwt>
<pdfrwt beam="1">  1        1 0.29056556E+00 0.41502234E+03</pdfrwt>
<pdfrwt beam="2">  1       -1 0.93836844E-01 0.41502234E+03</pdfrwt>
<totfact> 0.44387988E+00</totfact>
</mgrwt>
</event>
<event>
12    1  0.1418317E-007  0.1820217E+04  0.7818608E-02  0.8695622E-01
         -2   -1    0    0    0  501 -0.00000000000E+00  0.00000000000E+00  0.12948946128E+04  0.12948946128E+04  0.00000000000E+00 0.  1.
          2   -1    0    0  501    0  0.00000000000E+00 -0.00000000000E+00 -0.28056038754E+04  0.28056038754E+04  0.00000000000E+00 0. -1.
         23    2    1    2    0    0  0.68622599637E+03  0.16567125709E+04 -0.21538745676E+03  0.18084463818E+04  0.92108080128E+02 0.  0.
    5000000    2    1    2    0    0 -0.68622599637E+03 -0.16567125709E+04 -0.12953218058E+04  0.22920521065E+04  0.60003468022E+03 0.  0.
         23    2    4    4    0    0 -0.21712764023E+03 -0.17748041691E+03 -0.46673713823E+02  0.29820916512E+03  0.90036437401E+02 0.  0.
         23    2    4    4    0    0 -0.46909835614E+03 -0.14792321540E+04 -0.12486480920E+04  0.19938429414E+04  0.90036570290E+02 0.  0.
          1    1    3    3  502    0  0.26196970907E+03  0.54420921586E+03 -0.44874065656E+02  0.60564468203E+03  0.00000000000E+00 0.  1.
         -1    1    3    3    0  502  0.42425628730E+03  0.11125033551E+04 -0.17051339111E+03  0.12028016997E+04  0.00000000000E+00 0. -1.
         11    1    5    5    0    0 -0.22264630381E+02 -0.59923881936E+02  0.72354246412E+01  0.64334568951E+02  0.00000000000E+00 0. -1.
        -11    1    5    5    0    0 -0.19486300985E+03 -0.11755653497E+03 -0.53909138464E+02  0.23387459617E+03  0.00000000000E+00 0.  1.
          4    1    6    6  503    0 -0.27573471738E+03 -0.10055072295E+04 -0.82480523062E+03  0.13294277308E+04  0.00000000000E+00 0. -1.
         -4    1    6    6    0  503 -0.19336363876E+03 -0.47372492450E+03 -0.42384286138E+03  0.66441521056E+03  0.00000000000E+00 0.  1.
<mgrwt>
<rscale>  0 0.18202172E+04</rscale>
<asrwt>0</asrwt>
<pdfrwt beam="1">  1        2 0.43163137E+00 0.18202172E+04</pdfrwt>
<pdfrwt beam="2">  1       -2 0.19921456E+00 0.18202172E+04</pdfrwt>
<totfact> 0.28082746E-01</totfact>
</mgrwt>
</event>
<event>
12    1  0.1418317E-007  0.1218627E+04  0.7818608E-02  0.9096707E-01
         -2   -1    0    0    0  501 -0.00000000000E+00  0.00000000000E+00  0.68339867681E+03  0.68339867681E+03  0.00000000000E+00 0.  1.
          2   -1    0    0  501    0  0.00000000000E+00 -0.00000000000E+00 -0.25476685882E+04  0.25476685882E+04  0.00000000000E+00 0. -1.
         23    2    1    2    0    0  0.11481903281E+04 -0.21243970486E+03 -0.14291686370E+04  0.18479727519E+04  0.94913862254E+02 0.  0.
    5000000    2    1    2    0    0 -0.11481903281E+04  0.21243970486E+03 -0.43510127444E+03  0.13830945131E+04  0.60013803037E+03 0.  0.
         23    2    4    4    0    0 -0.30843941823E+03  0.27678784453E+03 -0.31332321405E+03  0.52730077213E+03  0.90156986597E+02 0.  0.
         23    2    4    4    0    0 -0.83975090984E+03 -0.64348139661E+02 -0.12177806038E+03  0.85579374098E+03  0.90723522006E+02 0.  0.
          3    1    3    3  502    0  0.34257898859E+03 -0.97921620640E+02 -0.39262687768E+03  0.53019324052E+03  0.00000000000E+00 0. -1.
         -3    1    3    3    0  502  0.80561133948E+03 -0.11451808422E+03 -0.10365417593E+04  0.13177795114E+04  0.00000000000E+00 0.  1.
         13    1    5    5    0    0 -0.27029964227E+03  0.19331087909E+03 -0.24302835047E+03  0.41169621291E+03  0.00000000000E+00 0.  1.
        -13    1    5    5    0    0 -0.38139775958E+02  0.83476965435E+02 -0.70294863580E+02  0.11560455923E+03  0.00000000000E+00 0. -1.
          2    1    6    6  503    0 -0.24409834672E+03 -0.36892600198E+02 -0.73391417525E+02  0.25754876623E+03  0.00000000000E+00 0.  1.
         -2    1    6    6    0  503 -0.59565256312E+03 -0.27455539463E+02 -0.48386642858E+02  0.59824497474E+03  0.00000000000E+00 0. -1.
<mgrwt>
<rscale>  0 0.12186267E+04</rscale>
<asrwt>0</asrwt>
<pdfrwt beam="1">  1        2 0.39194900E+00 0.12186267E+04</pdfrwt>
<pdfrwt beam="2">  1       -2 0.10513826E+00 0.12186267E+04</pdfrwt>
<totfact> 0.23477473E+00</totfact>
</mgrwt>
</event>
<event>
12    1  0.1418317E-007  0.9461409E+03  0.7818608E-02  0.9369673E-01
          2   -1    0    0  501    0  0.00000000000E+00  0.00000000000E+00  0.12339636443E+04  0.12339636443E+04  0.00000000000E+00 0. -1.
         -2   -1    0    0    0  501 -0.00000000000E+00 -0.00000000000E+00 -0.77579481892E+03  0.77579481892E+03  0.00000000000E+00 0.  1.
         23    2    1    2    0    0 -0.71022764125E+03  0.50954645455E+03  0.34315169875E+03  0.94340296250E+03  0.90527175797E+02 0.  0.
    5000000    2    1    2    0    0  0.71022764125E+03 -0.50954645455E+03  0.11501712662E+03  0.10663555007E+04  0.59985350105E+03 0.  0.
         23    2    4    4    0    0  0.43924228152E+03 -0.57795812660E+03  0.20550455195E+03  0.75929811626E+03  0.85627860522E+02 0.  0.
         23    2    4    4    0    0  0.27098535972E+03  0.68411672045E+02 -0.90487425338E+02  0.30705738444E+03  0.89347865897E+02 0.  0.
          4    1    3    3  502    0 -0.14262785712E+03  0.14934322323E+03  0.83650711879E+02  0.22280831571E+03  0.00000000000E+00 0. -1.
         -4    1    3    3    0  502 -0.56759978412E+03  0.36020323133E+03  0.25950098687E+03  0.72059464679E+03  0.00000000000E+00 0.  1.
         13    1    5    5    0    0  0.39091418203E+03 -0.52561139954E+03  0.15850491419E+03  0.67394736357E+03  0.00000000000E+00 0. -1.
        -13    1    5    5    0    0  0.48328099488E+02 -0.52346727056E+02  0.46999637764E+02  0.85350752683E+02  0.00000000000E+00 0.  1.
          1    1    6    6  503    0  0.19295151774E+03  0.16802311380E+02 -0.89827929133E+02  0.21349862462E+03  0.00000000000E+00 0. -1.
         -1    1    6    6    0  503  0.78033841989E+02  0.51609360665E+02 -0.65949620577E+00  0.93558759820E+02  0.00000000000E+00 0.  1.
<mgrwt>
<rscale>  0 0.94614092E+03</rscale>
<asrwt>0</asrwt>
<pdfrwt beam="1">  1        2 0.18984056E+00 0.94614092E+03</pdfrwt>
<pdfrwt beam="2">  1       -2 0.11935305E+00 0.94614092E+03</pdfrwt>
<totfact> 0.97104455E+00</totfact>
</mgrwt>
</event>
<event>
12    1  0.1418317E-007  0.1048700E+04  0.7818608E-02  0.9256687E-01
          2   -1    0    0  501    0  0.00000000000E+00  0.00000000000E+00  0.12564705200E+04  0.12564705200E+04  0.00000000000E+00 0. -1.
         -2   -1    0    0    0  501 -0.00000000000E+00 -0.00000000000E+00 -0.94735841385E+03  0.94735841385E+03  0.00000000000E+00 0.  1.
         23    2    1    2    0    0 -0.84844838484E+03 -0.48141145949E+03  0.39260219427E+03  0.10555185995E+04  0.91440559536E+02 0.  0.
    5000000    2    1    2    0    0  0.84844838484E+03  0.48141145949E+03 -0.83490088157E+02  0.11483103343E+04  0.60002031127E+03 0.  0.
         23    2    4    4    0    0  0.89394029178E+03  0.34111256691E+03 -0.12791969484E+03  0.96987486112E+03  0.93844388933E+02 0.  0.
         23    2    4    4    0    0 -0.45491906943E+02  0.14029889258E+03  0.44429606687E+02  0.17843547316E+03  0.90066282670E+02 0.  0.
          2    1    3    3  502    0 -0.60016844967E+03 -0.30464622021E+03  0.23910706710E+03  0.71427143090E+03  0.00000000000E+00 0. -1.
         -2    1    3    3    0  502 -0.24827993517E+03 -0.17676523928E+03  0.15349512718E+03  0.34124716862E+03  0.00000000000E+00 0.  1.
         11    1    5    5    0    0  0.65711747454E+03  0.21154708456E+03 -0.11297071909E+03  0.69951263584E+03  0.00000000000E+00 0.  1.
        -11    1    5    5    0    0  0.23682281725E+03  0.12956548235E+03 -0.14948975758E+02  0.27036222529E+03  0.00000000000E+00 0. -1.
          4    1    6    6  503    0 -0.16237989422E+02  0.12541446580E+03  0.62396468505E+02  0.14101694867E+03  0.00000000000E+00 0. -1.
         -4    1    6    6    0  503 -0.29253917521E+02  0.14884426786E+02 -0.17966861817E+02  0.37418524486E+02  0.00000000000E+00 0.  1.
<mgrwt>
<rscale>  0 0.10487004E+04</rscale>
<asrwt>0</asrwt>
<pdfrwt beam="1">  1        2 0.19330316E+00 0.10487004E+04</pdfrwt>
<pdfrwt beam="2">  1       -2 0.14574745E+00 0.10487004E+04</pdfrwt>
<totfact> 0.55926796E+00</totfact>
</mgrwt>
</event>
<event>
12    1  0.1418317E-007  0.7014317E+03  0.7818608E-02  0.9714787E-01
          2   -1    0    0  501    0  0.00000000000E+00  0.00000000000E+00  0.42979911737E+03  0.42979911737E+03  0.00000000000E+00 0. -1.
         -2   -1    0    0    0  501 -0.00000000000E+00 -0.00000000000E+00 -0.13723548253E+04  0.13723548253E+04  0.00000000000E+00 0.  1.
         23    2    1    2    0    0 -0.58744604194E+03 -0.14607505814E+03 -0.13280889995E+03  0.62650907068E+03  0.91894705663E+02 0.  0.
    5000000    2    1    2    0    0  0.58744604194E+03  0.14607505814E+03 -0.80974680797E+03  0.11756448720E+04  0.60001683075E+03 0.  0.
         23    2    4    4    0    0  0.60218774399E+03 -0.22270543646E+02 -0.76905687163E+03  0.98137300337E+03  0.92295415974E+02 0.  0.
         23    2    4    4    0    0 -0.14741702052E+02  0.16834560179E+03 -0.40689936332E+02  0.19427186860E+03  0.86765941420E+02 0.  0.
          3    1    3    3  502    0 -0.36499885380E+03 -0.65904767525E+02 -0.42217338629E+02  0.37329600231E+03  0.00000000000E+00 0. -1.
         -3    1    3    3    0  502 -0.22244718814E+03 -0.80170290616E+02 -0.90591561324E+02  0.25321306837E+03  0.00000000000E+00 0.  1.
         11    1    5    5    0    0  0.45491508935E+03  0.97523890160E+01 -0.62322039617E+03  0.77165180607E+03  0.00000000000E+00 0. -1.
        -11    1    5    5    0    0  0.14727265464E+03 -0.32022932662E+02 -0.14583647547E+03  0.20972119730E+03  0.00000000000E+00 0.  1.
          3    1    6    6  503    0 -0.51042641047E+02  0.10550988416E+03 -0.29311535586E+02  0.12081743657E+03  0.00000000000E+00 0. -1.
         -3    1    6    6    0  503  0.36300938995E+02  0.62835717629E+02 -0.11378400746E+02  0.73454432034E+02  0.00000000000E+00 0.  1.
<mgrwt>
<rscale>  0 0.70143167E+03</rscale>
<asrwt>0</asrwt>
<pdfrwt beam="1">  1        2 0.66122942E-01 0.70143167E+03</pdfrwt>
<pdfrwt beam="2">  1       -2 0.21113151E+00 0.70143167E+03</pdfrwt>
<totfact> 0.84702903E+00</totfact>
</mgrwt>
</event>
<event>
12    1  0.1418317E-007  0.5623204E+03  0.7818608E-02  0.9986818E-01
          2   -1    0    0  501    0  0.00000000000E+00  0.00000000000E+00  0.68136666346E+03  0.68136666346E+03  0.00000000000E+00 0. -1.
         -2   -1    0    0    0  501 -0.00000000000E+00 -0.00000000000E+00 -0.10175088972E+04  0.10175088972E+04  0.00000000000E+00 0.  1.
         23    2    1    2    0    0  0.41808151730E+03 -0.25623829781E+03  0.39324633670E+03  0.63508849408E+03  0.90799193891E+02 0.  0.
    5000000    2    1    2    0    0 -0.41808151730E+03  0.25623829781E+03 -0.72938857045E+03  0.10637870666E+04  0.59932046183E+03 0.  0.
         23    2    4    4    0    0  0.65688955943E+02  0.70536598669E+02 -0.44928718639E+03  0.46866440469E+03  0.92178618359E+02 0.  0.
         23    2    4    4    0    0 -0.48377047325E+03  0.18570169914E+03 -0.28010138406E+03  0.59512266190E+03  0.84824557240E+02 0.  0.
          4    1    3    3  502    0  0.84969427949E+00 -0.65465789301E+01  0.23013057178E+02  0.23941187872E+02  0.00000000000E+00 0.  1.
         -4    1    3    3    0  502  0.41723182302E+03 -0.24969171888E+03  0.37023327952E+03  0.61114730621E+03  0.00000000000E+00 0. -1.
         13    1    5    5    0    0  0.11110799094E+02 -0.74267627852E+01 -0.22007517998E+03  0.22048059213E+03  0.00000000000E+00 0. -1.
        -13    1    5    5    0    0  0.54578156849E+02  0.77963361454E+02 -0.22921200641E+03  0.24818381256E+03  0.00000000000E+00 0.  1.
          3    1    6    6  503    0 -0.29559215483E+03  0.75063503060E+02 -0.13869225491E+03  0.33502954058E+03  0.00000000000E+00 0. -1.
         -3    1    6    6    0  503 -0.18817831842E+03  0.11063819608E+03 -0.14140912915E+03  0.26009312133E+03  0.00000000000E+00 0.  1.
<mgrwt>
<rscale>  0 0.56232038E+03</rscale>
<asrwt>0</asrwt>
<pdfrwt beam="1">  1        2 0.10482564E+00 0.56232038E+03</pdfrwt>
<pdfrwt beam="2">  1       -2 0.15653983E+00 0.56232038E+03</pdfrwt>
<totfact> 0.11775780E+01</totfact>
</mgrwt>
</event>
<event>
12    1  0.1418317E-007  0.4930167E+03  0.7818608E-02  0.1015618E+00
          2   -1    0    0  501    0  0.00000000000E+00  0.00000000000E+00  0.11967886304E+04  0.11967886304E+04  0.00000000000E+00 0. -1.
         -2   -1    0    0    0  501 -0.00000000000E+00 -0.00000000000E+00 -0.25477725670E+03  0.25477725670E+03  0.00000000000E+00 0.  1.
         23    2    1    2    0    0  0.32701561112E+03 -0.15433462354E+03  0.17257433342E+03  0.41096750223E+03  0.91400226458E+02 0.  0.
    5000000    2    1    2    0    0 -0.32701561112E+03  0.15433462354E+03  0.76943704029E+03  0.10405983849E+04  0.60004437644E+03 0.  0.
         23    2    4    4    0    0 -0.28249792082E+03 -0.13492242533E+03  0.17072873232E+03  0.36824351844E+03  0.91901320518E+02 0.  0.
         23    2    4    4    0    0 -0.44517690303E+02  0.28925704887E+03  0.59870830798E+03  0.67235486644E+03  0.89207417365E+02 0.  0.
          3    1    3    3  502    0  0.87990923521E+02 -0.81247109323E+02  0.81853087925E+02  0.14506351505E+03  0.00000000000E+00 0. -1.
         -3    1    3    3    0  502  0.23902468760E+03 -0.73087514216E+02  0.90721245499E+02  0.26590398719E+03  0.00000000000E+00 0.  1.
         13    1    5    5    0    0 -0.79624430034E+02 -0.44559061098E+02  0.54562544405E+01  0.91407496939E+02  0.00000000000E+00 0. -1.
        -13    1    5    5    0    0 -0.20287349078E+03 -0.90363364231E+02  0.16527247788E+03  0.27683602150E+03  0.00000000000E+00 0.  1.
          2    1    6    6  503    0  0.20941373358E+02  0.11393549578E+03  0.27570796728E+03  0.29905638522E+03  0.00000000000E+00 0.  1.
         -2    1    6    6    0  503 -0.65459063661E+02  0.17532155308E+03  0.32300034069E+03  0.37329848122E+03  0.00000000000E+00 0. -1.
<mgrwt>
<rscale>  0 0.49301669E+03</rscale>
<asrwt>0</asrwt>
<pdfrwt beam="1">  1        2 0.18412132E+00 0.49301669E+03</pdfrwt>
<pdfrwt beam="2">  1       -2 0.39196502E-01 0.49301669E+03</pdfrwt>
<totfact> 0.12163182E+02</totfact>
</mgrwt>
</event>
<event>
12    1  0.1418317E-007  0.6190567E+03  0.7818608E-02  0.9866640E-01
          2   -1    0    0  501    0  0.00000000000E+00  0.00000000000E+00  0.25398875983E+04  0.25398875983E+04  0.00000000000E+00 0. -1.
         -2   -1    0    0    0  501 -0.00000000000E+00 -0.00000000000E+00 -0.16461185411E+04  0.16461185411E+04  0.00000000000E+00 0.  1.
         23    2    1    2    0    0 -0.49017824907E+03 -0.31930865165E+03  0.23947711165E+04  0.24669290011E+04  0.92613526376E+02 0.  0.
    5000000    2    1    2    0    0  0.49017824907E+03  0.31930865165E+03 -0.15010020593E+04  0.17190771384E+04  0.59998857910E+03 0.  0.
         23    2    4    4    0    0  0.41039333154E+03  0.14026105844E+03 -0.14221320135E+04  0.14891216570E+04  0.83234574171E+02 0.  0.
         23    2    4    4    0    0  0.79784917533E+02  0.17904759321E+03 -0.78870045725E+02  0.22995548142E+03  0.90748915267E+02 0.  0.
          4    1    3    3  502    0 -0.28179395967E+03 -0.15185875618E+03  0.11461856323E+04  0.11900463946E+04  0.00000000000E+00 0. -1.
         -4    1    3    3    0  502 -0.20838428940E+03 -0.16744989547E+03  0.12485854841E+04  0.12768826065E+04  0.00000000000E+00 0.  1.
         13    1    5    5    0    0  0.33459049737E+03  0.78243452467E+02 -0.10965893366E+04  0.11491653545E+04  0.00000000000E+00 0.  1.
        -13    1    5    5    0    0  0.75802834163E+02  0.62017605976E+02 -0.32554267694E+03  0.33995630253E+03  0.00000000000E+00 0. -1.
          4    1    6    6  503    0  0.72597328611E+02  0.73425176060E+02 -0.67769446644E+02  0.12350840659E+03  0.00000000000E+00 0. -1.
         -4    1    6    6    0  503  0.71875889219E+01  0.10562241715E+03 -0.11100599081E+02  0.10644707482E+03  0.00000000000E+00 0.  1.
<mgrwt>
<rscale>  0 0.61905670E+03</rscale>
<asrwt>0</asrwt>
<pdfrwt beam="1">  1        2 0.39075194E+00 0.61905670E+03</pdfrwt>
<pdfrwt beam="2">  1       -2 0.25324901E+00 0.61905670E+03</pdfrwt>
<totfact> 0.22517439E-01</totfact>
</mgrwt>
</event>
<event>
12    1  0.1418317E-007  0.1155537E+04  0.7818608E-02  0.9152690E-01
          3   -1    0    0  501    0  0.00000000000E+00  0.00000000000E+00  0.10076514068E+04  0.10076514068E+04  0.00000000000E+00 0. -1.
         -3   -1    0    0    0  501 -0.00000000000E+00 -0.00000000000E+00 -0.22671378501E+04  0.22671378501E+04  0.00000000000E+00 0.  1.
         23    2    1    2    0    0 -0.65495542787E+03 -0.86513985723E+03  0.43714567751E+03  0.11733691575E+04  0.90913427441E+02 0.  0.
    5000000    2    1    2    0    0  0.65495542787E+03  0.86513985723E+03 -0.16966321208E+04  0.21014200994E+04  0.59997691266E+03 0.  0.
         23    2    4    4    0    0 -0.19578176967E+02 -0.41748839790E+02 -0.10155349273E+03  0.14428922873E+03  0.91542334494E+02 0.  0.
         23    2    4    4    0    0  0.67453360484E+03  0.90688869702E+03 -0.15950786281E+04  0.19571308707E+04  0.92966242990E+02 0.  0.
          1    1    3    3  502    0 -0.51086895889E+03 -0.64838212756E+03  0.29352638136E+03  0.87609600675E+03  0.00000000000E+00 0. -1.
         -1    1    3    3    0  502 -0.14408646898E+03 -0.21675772967E+03  0.14361929614E+03  0.29727315072E+03  0.00000000000E+00 0.  1.
         11    1    5    5    0    0  0.25905795664E+02 -0.37540247276E+02 -0.83553656495E+02  0.95192404782E+02  0.00000000000E+00 0.  1.
        -11    1    5    5    0    0 -0.45483972632E+02 -0.42085925135E+01 -0.17999836238E+02  0.49096823949E+02  0.00000000000E+00 0. -1.
          1    1    6    6  503    0  0.45605451085E+01  0.30830958710E+02 -0.42375205711E+02  0.52602325478E+02  0.00000000000E+00 0. -1.
         -1    1    6    6    0  503  0.66997305973E+03  0.87605773831E+03 -0.15527034224E+04  0.19045285452E+04  0.00000000000E+00 0.  1.
<mgrwt>
<rscale>  0 0.11555371E+04</rscale>
<asrwt>0</asrwt>
<pdfrwt beam="1">  1        3 0.15502330E+00 0.11555371E+04</pdfrwt>
<pdfrwt beam="2">  1       -3 0.34879043E+00 0.11555371E+04</pdfrwt>
<totfact> 0.15123806E-02</totfact>
</mgrwt>
</event>
<event>
12    1  0.1418317E-007  0.1186503E+04  0.7818608E-02  0.9124753E-01
          1   -1    0    0  501    0  0.00000000000E+00  0.00000000000E+00  0.18162388182E+04  0.18162388182E+04  0.00000000000E+00 0. -1.
         -1   -1    0    0    0  501 -0.00000000000E+00 -0.00000000000E+00 -0.86656418934E+03  0.86656418934E+03  0.00000000000E+00 0.  1.
         23    2    1    2    0    0 -0.54557732691E+03 -0.10261692670E+04  0.22392628016E+03  0.11869911939E+04  0.90150604076E+02 0.  0.
    5000000    2    1    2    0    0  0.54557732691E+03  0.10261692670E+04  0.72574834866E+03  0.14958118136E+04  0.60005360747E+03 0.  0.
         23    2    4    4    0    0  0.18793023320E+02  0.29221203103E+03  0.45625392853E+03  0.54966956207E+03  0.90707945407E+02 0.  0.
         23    2    4    4    0    0  0.52678430359E+03  0.73395723594E+03  0.26949442013E+03  0.94614225148E+03  0.79768357433E+02 0.  0.
          1    1    3    3  502    0 -0.50475593192E+03 -0.94315885147E+03  0.23039055631E+03  0.10942609279E+04  0.00000000000E+00 0. -1.
         -1    1    3    3    0  502 -0.40821394994E+02 -0.83010415514E+02 -0.64642761484E+01  0.92730266036E+02  0.00000000000E+00 0.  1.
         11    1    5    5    0    0  0.53526821306E+02  0.20385378553E+03  0.33290519583E+03  0.39401441076E+03  0.00000000000E+00 0.  1.
        -11    1    5    5    0    0 -0.34733797986E+02  0.88358245509E+02  0.12334873270E+03  0.15565515131E+03  0.00000000000E+00 0. -1.
          1    1    6    6  503    0  0.42714125690E+03  0.62919396084E+03  0.24843494355E+03  0.80003413358E+03  0.00000000000E+00 0. -1.
         -1    1    6    6    0  503  0.99643046689E+02  0.10476327510E+03  0.21059476578E+02  0.14610811791E+03  0.00000000000E+00 0.  1.
<mgrwt>
<rscale>  0 0.11865034E+04</rscale>
<asrwt>0</asrwt>
<pdfrwt beam="1">  1        1 0.27942136E+00 0.11865034E+04</pdfrwt>
<pdfrwt beam="2">  1       -1 0.13331757E+00 0.11865034E+04</pdfrwt>
<totfact> 0.18597689E+00</totfact>
</mgrwt>
</event>
<event>
12    1  0.1418317E-007  0.1641333E+04  0.7818608E-02  0.8795550E-01
         -1   -1    0    0    0  501 -0.00000000000E+00  0.00000000000E+00  0.12835356187E+04  0.12835356187E+04  0.00000000000E+00 0.  1.
          1   -1    0    0  501    0  0.00000000000E+00 -0.00000000000E+00 -0.22102012197E+04  0.22102012197E+04  0.00000000000E+00 0. -1.
         23    2    1    2    0    0  0.71313741724E+03  0.14480046795E+04 -0.21622875119E+03  0.16309315838E+04  0.88884367297E+02 0.  0.
    5000000    2    1    2    0    0 -0.71313741724E+03 -0.14480046795E+04 -0.71043684980E+03  0.18628052545E+04  0.60003364169E+03 0.  0.
         23    2    4    4    0    0 -0.22884502849E+03 -0.14140291783E+03 -0.28675093428E+03  0.40349400549E+03  0.90644811847E+02 0.  0.
         23    2    4    4    0    0 -0.48429238875E+03 -0.13066017616E+04 -0.42368591552E+03  0.14593112490E+04  0.91281352444E+02 0.  0.
          3    1    3    3  502    0  0.49263778072E+03  0.10875576348E+04 -0.16586514242E+03  0.12053982070E+04  0.00000000000E+00 0. -1.
         -3    1    3    3    0  502  0.22049963652E+03  0.36044704462E+03 -0.50363608763E+02  0.42553337680E+03  0.00000000000E+00 0.  1.
         13    1    5    5    0    0 -0.17178626054E+03 -0.94738509543E+02 -0.25859720756E+03  0.32458961823E+03  0.00000000000E+00 0. -1.
        -13    1    5    5    0    0 -0.57058767947E+02 -0.46664408289E+02 -0.28153726724E+02  0.78904387261E+02  0.00000000000E+00 0.  1.
          3    1    6    6  503    0 -0.23157355544E+03 -0.75174187731E+03 -0.24924967753E+03  0.82514699504E+03  0.00000000000E+00 0. -1.
         -3    1    6    6    0  503 -0.25271883332E+03 -0.55485988431E+03 -0.17443623799E+03  0.63416425400E+03  0.00000000000E+00 0.  1.
<mgrwt>
<rscale>  0 0.16413335E+04</rscale>
<asrwt>0</asrwt>
<pdfrwt beam="1">  1        1 0.34003096E+00 0.16413335E+04</pdfrwt>
<pdfrwt beam="2">  1       -1 0.19746702E+00 0.16413335E+04</pdfrwt>
<totfact> 0.31271902E-01</totfact>
</mgrwt>
</event>
<event>
12    1  0.1418317E-007  0.4489311E+03  0.7818608E-02  0.1028041E+00
          2   -1    0    0  501    0  0.00000000000E+00  0.00000000000E+00  0.14082545718E+04  0.14082545718E+04  0.00000000000E+00 0. -1.
         -2   -1    0    0    0  501 -0.00000000000E+00 -0.00000000000E+00 -0.20231926098E+03  0.20231926098E+03  0.00000000000E+00 0.  1.
         23    2    1    2    0    0  0.42887438939E+02  0.24820765317E+03  0.79697826983E+03  0.84179642745E+03  0.10000245585E+03 0.  0.
    5000000    2    1    2    0    0 -0.42887438939E+02 -0.24820765317E+03  0.40895704099E+03  0.76877740533E+03  0.60027199341E+03 0.  0.
         23    2    4    4    0    0 -0.29137750325E+03 -0.37112371392E+02  0.24733865171E+03  0.39381270460E+03  0.87371964401E+02 0.  0.
         23    2    4    4    0    0  0.24849006432E+03 -0.21109528178E+03  0.16161838928E+03  0.37496470073E+03  0.90385247634E+02 0.  0.
          4    1    3    3  502    0  0.37349374305E+02  0.12089268606E+03  0.54415334130E+03  0.55867063298E+03  0.00000000000E+00 0. -1.
         -4    1    3    3    0  502  0.55380646337E+01  0.12731496711E+03  0.25282492853E+03  0.28312579447E+03  0.00000000000E+00 0.  1.
         11    1    5    5    0    0 -0.72115628403E+02 -0.48231683068E+02  0.75642933538E+02  0.11510348607E+03  0.00000000000E+00 0. -1.
        -11    1    5    5    0    0 -0.21926187485E+03  0.11119311676E+02  0.17169571817E+03  0.27870921853E+03  0.00000000000E+00 0.  1.
          1    1    6    6  503    0  0.22323626430E+03 -0.14335989335E+03  0.11654810210E+03  0.28977568708E+03  0.00000000000E+00 0. -1.
         -1    1    6    6    0  503  0.25253800020E+02 -0.67735388429E+02  0.45070287186E+02  0.85189013658E+02  0.00000000000E+00 0.  1.
<mgrwt>
<rscale>  0 0.44893111E+03</rscale>
<asrwt>0</asrwt>
<pdfrwt beam="1">  1        2 0.21665454E+00 0.44893111E+03</pdfrwt>
<pdfrwt beam="2">  1       -2 0.31126041E-01 0.44893111E+03</pdfrwt>
<totfact> 0.14341742E+02</totfact>
</mgrwt>
</event>
<event>
12    1  0.1418317E-007  0.7111977E+03  0.7818608E-02  0.9698272E-01
         -1   -1    0    0    0  501 -0.00000000000E+00  0.00000000000E+00  0.59576423012E+03  0.59576423012E+03  0.00000000000E+00 0.  1.
          1   -1    0    0  501    0  0.00000000000E+00 -0.00000000000E+00 -0.10315013454E+04  0.10315013454E+04  0.00000000000E+00 0. -1.
         23    2    1    2    0    0 -0.62021503369E+03  0.22564457771E+03 -0.27982293290E+03  0.72184975641E+03  0.84758678557E+02 0.  0.
    5000000    2    1    2    0    0  0.62021503369E+03 -0.22564457771E+03 -0.15591418243E+03  0.90541581915E+03  0.59990533404E+03 0.  0.
         23    2    4    4    0    0  0.47140042419E+03 -0.30197682763E+03 -0.32257083749E+03  0.65202511981E+03  0.87615337237E+02 0.  0.
         23    2    4    4    0    0  0.14881460950E+03  0.76332249921E+02  0.16665665506E+03  0.25339069933E+03  0.91978287942E+02 0.  0.
          1    1    3    3  502    0 -0.27040623101E+03  0.14277752238E+03 -0.12148680262E+03  0.32903494325E+03  0.00000000000E+00 0. -1.
         -1    1    3    3    0  502 -0.34980880268E+03  0.82867055335E+02 -0.15833613027E+03  0.39281481317E+03  0.00000000000E+00 0.  1.
         11    1    5    5    0    0  0.75622005021E+02 -0.13429171162E+02 -0.46465083675E+02  0.89766554365E+02  0.00000000000E+00 0.  1.
        -11    1    5    5    0    0  0.39577841917E+03 -0.28854765647E+03 -0.27610575381E+03  0.56225856545E+03  0.00000000000E+00 0. -1.
          4    1    6    6  503    0  0.73090027443E+01 -0.18690200738E+02  0.13045719990E+02  0.23936080188E+02  0.00000000000E+00 0. -1.
         -4    1    6    6    0  503  0.14150560676E+03  0.95022450659E+02  0.15361093507E+03  0.22945461914E+03  0.00000000000E+00 0.  1.
<mgrwt>
<rscale>  0 0.71119773E+03</rscale>
<asrwt>0</asrwt>
<pdfrwt beam="1">  1        1 0.15869251E+00 0.71119773E+03</pdfrwt>
<pdfrwt beam="2">  1       -1 0.91656035E-01 0.71119773E+03</pdfrwt>
<totfact> 0.17176977E+01</totfact>
</mgrwt>
</event>
<event>
12    1  0.1418317E-007  0.6736758E+03  0.7818608E-02  0.9763340E-01
         -1   -1    0    0    0  501 -0.00000000000E+00  0.00000000000E+00  0.42317201362E+03  0.42317201362E+03  0.00000000000E+00 0. -1.
          1   -1    0    0  501    0  0.00000000000E+00 -0.00000000000E+00 -0.11069276132E+04  0.11069276132E+04  0.00000000000E+00 0.  1.
         23    2    1    2    0    0 -0.53230159392E+03  0.13174320778E+03 -0.25869935901E+03  0.61287842513E+03  0.89405514141E+02 0.  0.
    5000000    2    1    2    0    0  0.53230159392E+03 -0.13174320778E+03 -0.42505624061E+03  0.91722120172E+03  0.59993388428E+03 0.  0.
         23    2    4    4    0    0  0.92723632749E+01  0.17461313927E+03 -0.91984842834E+02  0.21958929610E+03  0.95825479506E+02 0.  0.
         23    2    4    4    0    0  0.52302923064E+03 -0.30635634705E+03 -0.33307139778E+03  0.69763190562E+03  0.91323229440E+02 0.  0.
          3    1    3    3  502    0 -0.40062516346E+03  0.13762617616E+03 -0.19044412893E+03  0.46444639325E+03  0.00000000000E+00 0. -1.
         -3    1    3    3    0  502 -0.13167643046E+03 -0.58829683787E+01 -0.68255230081E+02  0.14843203188E+03  0.00000000000E+00 0.  1.
         11    1    5    5    0    0 -0.68320499111E+01  0.15470996996E+03 -0.37421694570E+02  0.15931803079E+03  0.00000000000E+00 0.  1.
        -11    1    5    5    0    0  0.16104413186E+02  0.19903169307E+02 -0.54563148265E+02  0.60271265302E+02  0.00000000000E+00 0. -1.
          3    1    6    6  503    0  0.15769819384E+03 -0.13658322801E+03 -0.90673047062E+02  0.22747593274E+03  0.00000000000E+00 0. -1.
         -3    1    6    6    0  503  0.36533103681E+03 -0.16977311904E+03 -0.24239835071E+03  0.47015597288E+03  0.00000000000E+00 0.  1.
<mgrwt>
<rscale>  0 0.67367583E+03</rscale>
<asrwt>0</asrwt>
<pdfrwt beam="1">  1        1 0.17029656E+00 0.67367583E+03</pdfrwt>
<pdfrwt beam="2">  1       -1 0.65103387E-01 0.67367583E+03</pdfrwt>
<totfact> 0.31080470E+01</totfact>
</mgrwt>
</event>
<event>
12    1  0.1418317E-007  0.1640461E+04  0.7818608E-02  0.8796069E-01
          2   -1    0    0  501    0  0.00000000000E+00  0.00000000000E+00  0.23146843522E+04  0.23146843522E+04  0.00000000000E+00 0. -1.
         -2   -1    0    0    0  501 -0.00000000000E+00 -0.00000000000E+00 -0.14082275053E+04  0.14082275053E+04  0.00000000000E+00 0.  1.
         23    2    1    2    0    0 -0.93164187988E+03 -0.13153787565E+04 -0.27355768985E+03  0.16372478197E+04  0.86998552303E+02 0.  0.
    5000000    2    1    2    0    0  0.93164187988E+03  0.13153787565E+04  0.11800145367E+04  0.20856640378E+04  0.59948503424E+03 0.  0.
         23    2    4    4    0    0  0.58045373085E+03  0.11147595156E+04  0.66690300265E+03  0.14256952629E+04  0.90730679713E+02 0.  0.
         23    2    4    4    0    0  0.35118814903E+03  0.20061924084E+03  0.51311153403E+03  0.65996877489E+03  0.93242381265E+02 0.  0.
          3    1    3    3  502    0 -0.19192964044E+02 -0.25640629531E+02 -0.18307973994E+02  0.36891647609E+02  0.00000000000E+00 0. -1.
         -3    1    3    3    0  502 -0.91244891584E+03 -0.12897381270E+04 -0.25524971586E+03  0.16003561721E+04  0.00000000000E+00 0.  1.
         11    1    5    5    0    0  0.77039885492E+02  0.22175122403E+03  0.11403930416E+03  0.26098603834E+03  0.00000000000E+00 0. -1.
        -11    1    5    5    0    0  0.50341384536E+03  0.89300829162E+03  0.55286369849E+03  0.11647092245E+04  0.00000000000E+00 0.  1.
          3    1    6    6  503    0  0.30916955428E+03  0.19780235600E+03  0.41998258895E+03  0.55776066583E+03  0.00000000000E+00 0. -1.
         -3    1    6    6    0  503  0.42018594749E+02  0.28168848371E+01  0.93128945080E+02  0.10220810906E+03  0.00000000000E+00 0.  1.
<mgrwt>
<rscale>  0 0.16404614E+04</rscale>
<asrwt>0</asrwt>
<pdfrwt beam="1">  1        2 0.35610529E+00 0.16404614E+04</pdfrwt>
<pdfrwt beam="2">  1       -2 0.21665039E+00 0.16404614E+04</pdfrwt>
<totfact> 0.42681026E-01</totfact>
</mgrwt>
</event>
<event>
12    1  0.1418317E-007  0.4802531E+03  0.7818608E-02  0.1019066E+00
         -2   -1    0    0    0  501 -0.00000000000E+00  0.00000000000E+00  0.24248432005E+03  0.24248432005E+03  0.00000000000E+00 0.  1.
          2   -1    0    0  501    0  0.00000000000E+00 -0.00000000000E+00 -0.14527514177E+04  0.14527514177E+04  0.00000000000E+00 0. -1.
         23    2    1    2    0    0  0.22798933382E+02 -0.33493353567E+03 -0.57139078882E+02  0.35267001725E+03  0.91711515399E+02 0.  0.
    5000000    2    1    2    0    0 -0.22798933382E+02  0.33493353567E+03 -0.11531280187E+04  0.13425657205E+04  0.60006518104E+03 0.  0.
         23    2    4    4    0    0 -0.71063196622E+02 -0.10939650929E+03 -0.62438762839E+03  0.64446607621E+03  0.91973032675E+02 0.  0.
         23    2    4    4    0    0  0.48264263240E+02  0.44433004495E+03 -0.52874039033E+03  0.69809964425E+03  0.89543760109E+02 0.  0.
          3    1    3    3  502    0  0.52051188139E+02 -0.12215168805E+03 -0.13154485529E+02  0.13342938795E+03  0.00000000000E+00 0. -1.
         -3    1    3    3    0  502 -0.29252254757E+02 -0.21278184762E+03 -0.43984593353E+02  0.21924062930E+03  0.00000000000E+00 0.  1.
         11    1    5    5    0    0  0.69269728785E+01  0.11396135419E+02 -0.28331840083E+02  0.31313703362E+02  0.00000000000E+00 0.  1.
        -11    1    5    5    0    0 -0.77990169500E+02 -0.12079264470E+03 -0.59605578830E+03  0.61315237284E+03  0.00000000000E+00 0. -1.
          1    1    6    6  503    0 -0.65506797790E+01  0.31858048642E+03 -0.36984966556E+03  0.48818563360E+03  0.00000000000E+00 0. -1.
         -1    1    6    6    0  503  0.54814943019E+02  0.12574955853E+03 -0.15889072477E+03  0.20991401065E+03  0.00000000000E+00 0.  1.
<mgrwt>
<rscale>  0 0.48025309E+03</rscale>
<asrwt>0</asrwt>
<pdfrwt beam="1">  1        2 0.22350022E+00 0.48025309E+03</pdfrwt>
<pdfrwt beam="2">  1       -2 0.37305280E-01 0.48025309E+03</pdfrwt>
<totfact> 0.95981210E+01</totfact>
</mgrwt>
</event>
<event>
12    1  0.1418317E-007  0.4228704E+03  0.7818608E-02  0.1036136E+00
          1   -1    0    0  501    0  0.00000000000E+00  0.00000000000E+00  0.12079823221E+04  0.12079823221E+04  0.00000000000E+00 0. -1.
         -1   -1    0    0    0  501 -0.00000000000E+00 -0.00000000000E+00 -0.26502222875E+04  0.26502222875E+04  0.00000000000E+00 0.  1.
         23    2    1    2    0    0  0.17569432781E+03 -0.33424067187E+03 -0.25300274213E+04  0.25597841390E+04  0.94184722871E+02 0.  0.
    5000000    2    1    2    0    0 -0.17569432781E+03  0.33424067187E+03  0.10877874559E+04  0.12984204706E+04  0.60002403753E+03 0.  0.
         23    2    4    4    0    0 -0.23081460712E+03  0.22044538473E+03  0.18241230165E+03  0.37966155169E+03  0.94853020662E+02 0.  0.
         23    2    4    4    0    0  0.55120279306E+02  0.11379528714E+03  0.90537515428E+03  0.91875891891E+03  0.91794163801E+02 0.  0.
          4    1    3    3  502    0  0.14841145208E+03 -0.18777614396E+03 -0.16400897240E+04  0.16574619580E+04  0.00000000000E+00 0. -1.
         -4    1    3    3    0  502  0.27282875735E+02 -0.14646452791E+03 -0.88993769732E+03  0.90232218102E+03  0.00000000000E+00 0.  1.
         11    1    5    5    0    0 -0.25939821169E+02  0.75287435771E+02  0.63452877078E+02  0.10182013512E+03  0.00000000000E+00 0. -1.
        -11    1    5    5    0    0 -0.20487478595E+03  0.14515794896E+03  0.11895942457E+03  0.27784141657E+03  0.00000000000E+00 0.  1.
          3    1    6    6  503    0  0.22580362804E+02  0.37881380598E+02  0.62282557912E+03  0.62438495640E+03  0.00000000000E+00 0. -1.
         -3    1    6    6    0  503  0.32539916502E+02  0.75913906541E+02  0.28254957517E+03  0.29437396250E+03  0.00000000000E+00 0.  1.
<mgrwt>
<rscale>  0 0.42287037E+03</rscale>
<asrwt>0</asrwt>
<pdfrwt beam="1">  1        1 0.18584344E+00 0.42287037E+03</pdfrwt>
<pdfrwt beam="2">  1       -1 0.40772650E+00 0.42287037E+03</pdfrwt>
<totfact> 0.81735410E-02</totfact>
</mgrwt>
</event>
<event>
12    1  0.1418317E-007  0.4166079E+03  0.7818608E-02  0.1038176E+00
          2   -1    0    0  501    0  0.00000000000E+00  0.00000000000E+00  0.34272663095E+04  0.34272663095E+04  0.00000000000E+00 0. -1.
         -2   -1    0    0    0  501 -0.00000000000E+00 -0.00000000000E+00 -0.85780872437E+02  0.85780872437E+02  0.00000000000E+00 0.  1.
         23    2    1    2    0    0  0.35416383734E+03  0.50016710745E+02  0.88253431699E+03  0.95672615277E+03  0.92327762289E+02 0.  0.
    5000000    2    1    2    0    0 -0.35416383734E+03 -0.50016710745E+02  0.24589511201E+04  0.25563210292E+04  0.60033565464E+03 0.  0.
         23    2    4    4    0    0 -0.71864386724E+02  0.98687271000E+02  0.12375067133E+03  0.19766806630E+03  0.94099778119E+02 0.  0.
         23    2    4    4    0    0 -0.28229945062E+03 -0.14870398175E+03  0.23352004488E+04  0.23586529629E+04  0.90976972112E+02 0.  0.
          1    1    3    3  502    0  0.25241572530E+03 -0.69003577021E+01  0.62161919656E+03  0.67094838762E+03  0.00000000000E+00 0. -1.
         -1    1    3    3    0  502  0.10174811204E+03  0.56917068448E+02  0.26091512043E+03  0.28577776515E+03  0.00000000000E+00 0.  1.
         13    1    5    5    0    0 -0.60883540928E+02  0.22569339088E+02  0.18881493825E+02  0.67621678712E+02  0.00000000000E+00 0.  1.
        -13    1    5    5    0    0 -0.10980845796E+02  0.76117931912E+02  0.10486917751E+03  0.13004638759E+03  0.00000000000E+00 0. -1.
          1    1    6    6  503    0 -0.13832506841E+03 -0.47327982454E+02  0.13445595999E+04  0.13524844842E+04  0.00000000000E+00 0. -1.
         -1    1    6    6    0  503 -0.14397438221E+03 -0.10137599929E+03  0.99064084892E+03  0.10061684787E+04  0.00000000000E+00 0.  1.
<mgrwt>
<rscale>  0 0.41660793E+03</rscale>
<asrwt>0</asrwt>
<pdfrwt beam="1">  1        2 0.52727164E+00 0.41660793E+03</pdfrwt>
<pdfrwt beam="2">  1       -2 0.13197060E-01 0.41660793E+03</pdfrwt>
<totfact> 0.45650335E+01</totfact>
</mgrwt>
</event>
<event>
12    1  0.1418317E-007  0.4076357E+03  0.7818608E-02  0.1041167E+00
         -2   -1    0    0    0  501 -0.00000000000E+00  0.00000000000E+00  0.20247202162E+03  0.20247202162E+03  0.00000000000E+00 0.  1.
          2   -1    0    0  501    0  0.00000000000E+00 -0.00000000000E+00 -0.13739011121E+04  0.13739011121E+04  0.00000000000E+00 0. -1.
         23    2    1    2    0    0 -0.27154961201E+03 -0.29939384714E+01 -0.72826835016E+03  0.78254750893E+03  0.90871659156E+02 0.  0.
    5000000    2    1    2    0    0  0.27154961201E+03  0.29939384714E+01 -0.44316074031E+03  0.79382562477E+03  0.60001627090E+03 0.  0.
         23    2    4    4    0    0  0.60963003252E+02  0.21042324600E+03 -0.42367563628E+03  0.48500038134E+03  0.87919820869E+02 0.  0.
         23    2    4    4    0    0  0.21058660876E+03 -0.20742930753E+03 -0.19485104029E+02  0.30882524343E+03  0.87291032128E+02 0.  0.
          3    1    3    3  502    0 -0.20305709906E+02  0.21775046551E+02 -0.43422426418E+02  0.52649611803E+02  0.00000000000E+00 0. -1.
         -3    1    3    3    0  502 -0.25124390211E+03 -0.24768985022E+02 -0.68484592374E+03  0.72989789712E+03  0.00000000000E+00 0.  1.
         11    1    5    5    0    0  0.62607668067E+02  0.63980746842E+02 -0.15421367185E+03  0.17831184103E+03  0.00000000000E+00 0. -1.
        -11    1    5    5    0    0 -0.16446648151E+01  0.14644249916E+03 -0.26946196443E+03  0.30668854031E+03  0.00000000000E+00 0.  1.
          2    1    6    6  503    0  0.15793310614E+03 -0.13660645510E+03 -0.51281303672E+02  0.21502084015E+03  0.00000000000E+00 0. -1.
         -2    1    6    6    0  503  0.52653502621E+02 -0.70822852424E+02  0.31796199643E+02  0.93804403283E+02  0.00000000000E+00 0.  1.
<mgrwt>
<rscale>  0 0.40763573E+03</rscale>
<asrwt>0</asrwt>
<pdfrwt beam="1">  1        2 0.21136941E+00 0.40763573E+03</pdfrwt>
<pdfrwt beam="2">  1       -2 0.31149541E-01 0.40763573E+03</pdfrwt>
<totfact> 0.15049422E+02</totfact>
</mgrwt>
</event>
<event>
12    1  0.1418317E-007  0.5441787E+03  0.7818608E-02  0.1002850E+00
          2   -1    0    0  501    0  0.00000000000E+00  0.00000000000E+00  0.76984275663E+03  0.76984275663E+03  0.00000000000E+00 0. -1.
         -2   -1    0    0    0  501 -0.00000000000E+00 -0.00000000000E+00 -0.62445274453E+03  0.62445274453E+03  0.00000000000E+00 0.  1.
         23    2    1    2    0    0 -0.47849751905E+02 -0.49336664035E+03 -0.20076285487E+03  0.54248535746E+03  0.91018671672E+02 0.  0.
    5000000    2    1    2    0    0  0.47849751905E+02  0.49336664035E+03  0.34615286697E+03  0.85181014370E+03  0.60004872555E+03 0.  0.
         23    2    4    4    0    0 -0.10224175505E+03  0.34252803557E+03  0.46366448047E+03  0.59236539082E+03  0.90184112637E+02 0.  0.
         23    2    4    4    0    0  0.15009150695E+03  0.15083860478E+03 -0.11751161350E+03  0.25944475288E+03  0.90679961048E+02 0.  0.
          1    1    3    3  502    0 -0.55134142221E+02 -0.22344475274E+03 -0.59346750584E+02  0.23767492078E+03  0.00000000000E+00 0. -1.
         -1    1    3    3    0  502  0.72843903158E+01 -0.26992188761E+03 -0.14141610428E+03  0.30481043667E+03  0.00000000000E+00 0.  1.
         13    1    5    5    0    0  0.47800068529E+01  0.12161593567E+03  0.12932733884E+03  0.17759179273E+03  0.00000000000E+00 0.  1.
        -13    1    5    5    0    0 -0.10702176190E+03  0.22091209990E+03  0.33433714163E+03  0.41477359809E+03  0.00000000000E+00 0. -1.
          3    1    6    6  503    0  0.14252892872E+03  0.11152499693E+03 -0.62617333573E+02  0.19150261337E+03  0.00000000000E+00 0. -1.
         -3    1    6    6    0  503  0.75625782264E+01  0.39313607852E+02 -0.54894279929E+02  0.67942139507E+02  0.00000000000E+00 0.  1.
<mgrwt>
<rscale>  0 0.54417867E+03</rscale>
<asrwt>0</asrwt>
<pdfrwt beam="1">  1        2 0.11843735E+00 0.54417867E+03</pdfrwt>
<pdfrwt beam="2">  1       -2 0.96069653E-01 0.54417867E+03</pdfrwt>
<totfact> 0.34053740E+01</totfact>
</mgrwt>
</event>
<event>
12    1  0.1418317E-007  0.4322676E+03  0.7818608E-02  0.1033146E+00
          2   -1    0    0  501    0  0.00000000000E+00  0.00000000000E+00  0.26948187052E+04  0.26948187052E+04  0.00000000000E+00 0.  1.
         -2   -1    0    0    0  501 -0.00000000000E+00 -0.00000000000E+00 -0.96386156649E+02  0.96386156649E+02  0.00000000000E+00 0. -1.
         23    2    1    2    0    0 -0.13238388680E+03 -0.23731434161E+03  0.13461873946E+04  0.13762867222E+04  0.90005834936E+02 0.  0.
    5000000    2    1    2    0    0  0.13238388680E+03  0.23731434161E+03  0.12522451540E+04  0.14149181396E+04  0.60002652098E+03 0.  0.
         23    2    4    4    0    0  0.32238731771E+03  0.72568204585E+02  0.95731333797E+03  0.10167715519E+04  0.90420322964E+02 0.  0.
         23    2    4    4    0    0 -0.19000343091E+03  0.16474613702E+03  0.29493181602E+03  0.39814658768E+03  0.91067753685E+02 0.  0.
          3    1    3    3  502    0 -0.12438142484E+03 -0.20100782715E+03  0.97511095340E+03  0.10033525088E+04  0.00000000000E+00 0. -1.
         -3    1    3    3    0  502 -0.80024619628E+01 -0.36306514455E+02  0.37107644116E+03  0.37293421346E+03  0.00000000000E+00 0.  1.
         11    1    5    5    0    0  0.10712937365E+03  0.54119362021E+02  0.44188766579E+03  0.45789771481E+03  0.00000000000E+00 0. -1.
        -11    1    5    5    0    0  0.21525794407E+03  0.18448842564E+02  0.51542567218E+03  0.55887383712E+03  0.00000000000E+00 0.  1.
          2    1    6    6  503    0 -0.52145415934E+02  0.71422470239E+02  0.16410706109E+03  0.18641738427E+03  0.00000000000E+00 0. -1.
         -2    1    6    6    0  503 -0.13785801498E+03  0.93323666785E+02  0.13082475492E+03  0.21172920341E+03  0.00000000000E+00 0.  1.
<mgrwt>
<rscale>  0 0.43226765E+03</rscale>
<asrwt>0</asrwt>
<pdfrwt beam="1">  1        2 0.41458744E+00 0.43226765E+03</pdfrwt>
<pdfrwt beam="2">  1       -2 0.14828642E-01 0.43226765E+03</pdfrwt>
<totfact> 0.10495476E+02</totfact>
</mgrwt>
</event>
<event>
12    1  0.1418317E-007  0.4747787E+03  0.7818608E-02  0.1020580E+00
         -2   -1    0    0    0  501 -0.00000000000E+00  0.00000000000E+00  0.13923154262E+03  0.13923154262E+03  0.00000000000E+00 0.  1.
          2   -1    0    0  501    0  0.00000000000E+00 -0.00000000000E+00 -0.19426645714E+04  0.19426645714E+04  0.00000000000E+00 0. -1.
         23    2    1    2    0    0  0.16261515333E+03 -0.26723851535E+03 -0.86813568716E+03  0.92730910484E+03  0.91555952394E+02 0.  0.
    5000000    2    1    2    0    0 -0.16261515333E+03  0.26723851535E+03 -0.93529734163E+03  0.11545870092E+04  0.60035817004E+03 0.  0.
         23    2    4    4    0    0 -0.31114020295E+03  0.36353069535E+01 -0.65857689064E+03  0.73403911278E+03  0.90931055441E+02 0.  0.
         23    2    4    4    0    0  0.14852504963E+03  0.26360320840E+03 -0.27672045098E+03  0.42054789640E+03  0.93487877992E+02 0.  0.
          2    1    3    3  502    0  0.10752295188E+03 -0.10337541713E+03 -0.47432301952E+03  0.49722227312E+03  0.00000000000E+00 0. -1.
         -2    1    3    3    0  502  0.55092201448E+02 -0.16386309822E+03 -0.39381266764E+03  0.43008683171E+03  0.00000000000E+00 0.  1.
         11    1    5    5    0    0 -0.29655279674E+03  0.18674800840E+02 -0.64162230243E+03  0.70708662016E+03  0.00000000000E+00 0.  1.
        -11    1    5    5    0    0 -0.14587406220E+02 -0.15039493887E+02 -0.16954588216E+02  0.26952492615E+02  0.00000000000E+00 0. -1.
          3    1    6    6  503    0  0.14106078107E+03  0.19635613946E+03 -0.25005241466E+03  0.34782191929E+03  0.00000000000E+00 0. -1.
         -3    1    6    6    0  503  0.74642685548E+01  0.67247068936E+02 -0.26668036322E+02  0.72725977111E+02  0.00000000000E+00 0.  1.
<mgrwt>
<rscale>  0 0.47477871E+03</rscale>
<asrwt>0</asrwt>
<pdfrwt beam="1">  1        2 0.29887145E+00 0.47477871E+03</pdfrwt>
<pdfrwt beam="2">  1       -2 0.21420239E-01 0.47477871E+03</pdfrwt>
<totfact> 0.14383556E+02</totfact>
</mgrwt>
</event>
<event>
12    1  0.1418317E-007  0.1105279E+04  0.7818608E-02  0.9200062E-01
         -2   -1    0    0    0  501 -0.00000000000E+00  0.00000000000E+00  0.43621545293E+03  0.43621545293E+03  0.00000000000E+00 0. -1.
          2   -1    0    0  501    0  0.00000000000E+00 -0.00000000000E+00 -0.31819845322E+04  0.31819845322E+04  0.00000000000E+00 0.  1.
         23    2    1    2    0    0  0.85428867074E+03  0.69228925686E+03 -0.12613347761E+04  0.16758666661E+04  0.92141831900E+02 0.  0.
    5000000    2    1    2    0    0 -0.85428867074E+03 -0.69228925686E+03 -0.14844343032E+04  0.19423333190E+04  0.60003331034E+03 0.  0.
         23    2    4    4    0    0 -0.58880576295E+03 -0.44856794634E+03 -0.13586146550E+04  0.15498997031E+04  0.91923228930E+02 0.  0.
         23    2    4    4    0    0 -0.26548290779E+03 -0.24372131052E+03 -0.12581964824E+03  0.39243361591E+03  0.91062107855E+02 0.  0.
          3    1    3    3  502    0  0.51930759556E+03  0.47699506642E+03 -0.81714720699E+03  0.10793211895E+04  0.00000000000E+00 0. -1.
         -3    1    3    3    0  502  0.33498107518E+03  0.21529419044E+03 -0.44418756908E+03  0.59654547663E+03  0.00000000000E+00 0.  1.
         11    1    5    5    0    0 -0.30590424789E+03 -0.25168432633E+03 -0.81601707652E+03  0.90708669827E+03  0.00000000000E+00 0. -1.
        -11    1    5    5    0    0 -0.28290151506E+03 -0.19688362001E+03 -0.54259757846E+03  0.64281300485E+03  0.00000000000E+00 0.  1.
          3    1    6    6  503    0  0.23961322215E+01 -0.11986441603E+02 -0.18783616619E+02  0.22410722550E+02  0.00000000000E+00 0. -1.
         -3    1    6    6    0  503 -0.26787904001E+03 -0.23173486892E+03 -0.10703603162E+03  0.37002289336E+03  0.00000000000E+00 0.  1.
<mgrwt>
<rscale>  0 0.11052792E+04</rscale>
<asrwt>0</asrwt>
<pdfrwt beam="1">  1        2 0.48953609E+00 0.11052792E+04</pdfrwt>
<pdfrwt beam="2">  1       -2 0.67110068E-01 0.11052792E+04</pdfrwt>
<totfact> 0.27455795E+00</totfact>
</mgrwt>
</event>
<event>
12    1  0.1418317E-007  0.3548902E+03  0.7818608E-02  0.1060626E+00
         -2   -1    0    0    0  501 -0.00000000000E+00  0.00000000000E+00  0.12100990067E+03  0.12100990067E+03  0.00000000000E+00 0.  1.
          2   -1    0    0  501    0  0.00000000000E+00 -0.00000000000E+00 -0.12763241055E+04  0.12763241055E+04  0.00000000000E+00 0. -1.
         23    2    1    2    0    0 -0.76852367415E+01 -0.14206641989E+03 -0.21609533797E+03  0.27374811604E+03  0.89436600013E+02 0.  0.
    5000000    2    1    2    0    0  0.76852367415E+01  0.14206641989E+03 -0.93921886683E+03  0.11235858901E+04  0.60005936545E+03 0.  0.
         23    2    4    4    0    0 -0.15993116026E+03 -0.14540284004E+03 -0.58785724376E+03  0.63204325286E+03  0.84750059149E+02 0.  0.
         23    2    4    4    0    0  0.16761639700E+03  0.28746925992E+03 -0.35136162307E+03  0.49154263723E+03  0.86170424769E+02 0.  0.
          1    1    3    3  502    0 -0.97498344230E+01 -0.16131209486E+02 -0.10224026739E+03  0.10396320246E+03  0.00000000000E+00 0. -1.
         -1    1    3    3    0  502  0.20645976815E+01 -0.12593521040E+03 -0.11385507058E+03  0.16978491358E+03  0.00000000000E+00 0.  1.
         13    1    5    5    0    0 -0.15810932370E+02 -0.64289296222E+02 -0.14840670196E+03  0.16250430264E+03  0.00000000000E+00 0. -1.
        -13    1    5    5    0    0 -0.14412022789E+03 -0.81113543817E+02 -0.43945054180E+03  0.46953895021E+03  0.00000000000E+00 0.  1.
          1    1    6    6  503    0  0.10755242317E+03  0.16446532720E+03 -0.26417640798E+03  0.32924996904E+03  0.00000000000E+00 0. -1.
         -1    1    6    6    0  503  0.60063973834E+02  0.12300393272E+03 -0.87185215088E+02  0.16229266819E+03  0.00000000000E+00 0.  1.
<mgrwt>
<rscale>  0 0.35489018E+03</rscale>
<asrwt>0</asrwt>
<pdfrwt beam="1">  1        2 0.19635755E+00 0.35489018E+03</pdfrwt>
<pdfrwt beam="2">  1       -2 0.18616908E-01 0.35489018E+03</pdfrwt>
<totfact> 0.42842765E+02</totfact>
</mgrwt>
</event>
<event>
12    1  0.1418317E-007  0.6762924E+03  0.7818608E-02  0.9758657E-01
          2   -1    0    0  501    0  0.00000000000E+00  0.00000000000E+00  0.16398069522E+04  0.16398069522E+04  0.00000000000E+00 0.  1.
         -2   -1    0    0    0  501 -0.00000000000E+00 -0.00000000000E+00 -0.54894067063E+03  0.54894067063E+03  0.00000000000E+00 0. -1.
         23    2    1    2    0    0 -0.53031993893E+03 -0.21055006353E+03 -0.23592081916E+03  0.62483943541E+03  0.95891189673E+02 0.  0.
    5000000    2    1    2    0    0  0.53031993893E+03  0.21055006353E+03  0.13267871008E+04  0.15639081874E+04  0.59989519179E+03 0.  0.
         23    2    4    4    0    0  0.44517908932E+03 -0.86560889318E+02  0.10165561532E+04  0.11168511108E+04  0.91064713057E+02 0.  0.
         23    2    4    4    0    0  0.85140849611E+02  0.29711095284E+03  0.31023094752E+03  0.44705707660E+03  0.89960582313E+02 0.  0.
          2    1    3    3  502    0 -0.17507870748E+03 -0.66679879399E+02 -0.29931057029E+02  0.18972250342E+03  0.00000000000E+00 0.  1.
         -2    1    3    3    0  502 -0.35524123145E+03 -0.14387018413E+03 -0.20598976213E+03  0.43511693199E+03  0.00000000000E+00 0. -1.
         11    1    5    5    0    0  0.31571210388E+03 -0.19235315140E+02  0.67529031008E+03  0.74569506688E+03  0.00000000000E+00 0. -1.
        -11    1    5    5    0    0  0.12946698543E+03 -0.67325574177E+02  0.34126584316E+03  0.37115604395E+03  0.00000000000E+00 0.  1.
          4    1    6    6  503    0 -0.13341743916E+02  0.11436980471E+02  0.30938294612E+02  0.35580679119E+02  0.00000000000E+00 0.  1.
         -4    1    6    6    0  503  0.98482593527E+02  0.28567397237E+03  0.27929265291E+03  0.41147639749E+03  0.00000000000E+00 0. -1.
<mgrwt>
<rscale>  0 0.67629242E+03</rscale>
<asrwt>0</asrwt>
<pdfrwt beam="1">  1        2 0.25227799E+00 0.67629242E+03</pdfrwt>
<pdfrwt beam="2">  1       -2 0.84452411E-01 0.67629242E+03</pdfrwt>
<totfact> 0.13446311E+01</totfact>
</mgrwt>
</event>
<event>
12    1  0.1418317E-007  0.9246189E+03  0.7818608E-02  0.9395319E-01
          1   -1    0    0  501    0  0.00000000000E+00  0.00000000000E+00  0.22348103675E+04  0.22348103675E+04  0.00000000000E+00 0. -1.
         -1   -1    0    0    0  501 -0.00000000000E+00 -0.00000000000E+00 -0.83426667324E+03  0.83426667324E+03  0.00000000000E+00 0.  1.
         23    2    1    2    0    0 -0.50788364702E+03  0.67115928385E+03 -0.44305275288E+03  0.95546717764E+03  0.90670847097E+02 0.  0.
    5000000    2    1    2    0    0  0.50788364702E+03 -0.67115928385E+03  0.18435964472E+04  0.21136098631E+04  0.60008183630E+03 0.  0.
         23    2    4    4    0    0 -0.47905307403E+02  0.40643946888E+02  0.33681142011E+03  0.35431344159E+03  0.90273103824E+02 0.  0.
         23    2    4    4    0    0  0.55578895443E+03 -0.71180323073E+03  0.15067850270E+04  0.17592964215E+04  0.95695244993E+02 0.  0.
          1    1    3    3  502    0 -0.36908688076E+03  0.41796821626E+03 -0.30151066842E+03  0.63390160004E+03  0.00000000000E+00 0. -1.
         -1    1    3    3    0  502 -0.13879676626E+03  0.25319106759E+03 -0.14154208445E+03  0.32156557760E+03  0.00000000000E+00 0.  1.
         11    1    5    5    0    0 -0.12675740810E+01 -0.21791260011E+02  0.26331686116E+02  0.34202681921E+02  0.00000000000E+00 0.  1.
        -11    1    5    5    0    0 -0.46637733322E+02  0.62435206899E+02  0.31047973400E+03  0.32011075967E+03  0.00000000000E+00 0. -1.
          1    1    6    6  503    0  0.44495434792E+03 -0.56369549256E+03  0.11185887025E+04  0.13292771214E+04  0.00000000000E+00 0. -1.
         -1    1    6    6    0  503  0.11083460650E+03 -0.14810773817E+03  0.38819632452E+03  0.43001930012E+03  0.00000000000E+00 0.  1.
<mgrwt>
<rscale>  0 0.92461890E+03</rscale>
<asrwt>0</asrwt>
<pdfrwt beam="1">  1        1 0.34381698E+00 0.92461890E+03</pdfrwt>
<pdfrwt beam="2">  1       -1 0.12834872E+00 0.92461890E+03</pdfrwt>
<totfact> 0.11093206E+00</totfact>
</mgrwt>
</event>
<event>
12    1  0.1418317E-007  0.1224850E+04  0.7818608E-02  0.9091379E-01
         -2   -1    0    0    0  501 -0.00000000000E+00  0.00000000000E+00  0.69720682103E+03  0.69720682103E+03  0.00000000000E+00 0.  1.
          2   -1    0    0  501    0  0.00000000000E+00 -0.00000000000E+00 -0.24991109318E+04  0.24991109318E+04  0.00000000000E+00 0. -1.
         23    2    1    2    0    0  0.53252101911E+03 -0.10664510999E+04 -0.13115072519E+04  0.17745530940E+04  0.89949026153E+02 0.  0.
    5000000    2    1    2    0    0 -0.53252101911E+03  0.10664510999E+04 -0.49039685886E+03  0.14217646588E+04  0.60002423422E+03 0.  0.
         23    2    4    4    0    0  0.12656343158E+02  0.27451828157E+03 -0.33577628239E+03  0.44367976015E+03  0.92658231229E+02 0.  0.
         23    2    4    4    0    0 -0.54517736227E+03  0.79193281833E+03 -0.15462057647E+03  0.97808489869E+03  0.91469127525E+02 0.  0.
          4    1    3    3  502    0  0.22620017782E+03 -0.55342150046E+03 -0.65124049915E+03  0.88405659624E+03  0.00000000000E+00 0. -1.
         -4    1    3    3    0  502  0.30632084129E+03 -0.51302959945E+03 -0.66026675279E+03  0.89049649778E+03  0.00000000000E+00 0.  1.
         13    1    5    5    0    0  0.69610167425E+01  0.28080261029E+03 -0.32018276094E+03  0.42592905759E+03  0.00000000000E+00 0. -1.
        -13    1    5    5    0    0  0.56953264153E+01 -0.62843287107E+01 -0.15593521443E+02  0.17750702559E+02  0.00000000000E+00 0.  1.
          2    1    6    6  503    0 -0.40680239946E+03  0.64935954743E+03 -0.10618273567E+03  0.77358308371E+03  0.00000000000E+00 0. -1.
         -2    1    6    6    0  503 -0.13837496281E+03  0.14257327090E+03 -0.48437840807E+02  0.20450181498E+03  0.00000000000E+00 0.  1.
<mgrwt>
<rscale>  0 0.12248497E+04</rscale>
<asrwt>0</asrwt>
<pdfrwt beam="1">  1        2 0.38447861E+00 0.12248497E+04</pdfrwt>
<pdfrwt beam="2">  1       -2 0.10726259E+00 0.12248497E+04</pdfrwt>
<totfact> 0.23839453E+00</totfact>
</mgrwt>
</event>
<event>
12    1  0.1418317E-007  0.3530877E+03  0.7818608E-02  0.1061355E+00
          1   -1    0    0  501    0  0.00000000000E+00  0.00000000000E+00  0.30557616046E+04  0.30557616046E+04  0.00000000000E+00 0. -1.
         -1   -1    0    0    0  501 -0.00000000000E+00 -0.00000000000E+00 -0.85208501632E+02  0.85208501632E+02  0.00000000000E+00 0.  1.
         23    2    1    2    0    0 -0.28188739821E+03  0.68339230374E+02  0.14388247012E+04  0.14705907438E+04  0.91048665253E+02 0.  0.
    5000000    2    1    2    0    0  0.28188739821E+03 -0.68339230374E+02  0.15317284018E+04  0.16703793624E+04  0.59987045420E+03 0.  0.
         23    2    4    4    0    0  0.75290642011E+02 -0.14893908986E+03  0.13656913828E+04  0.13787737239E+04  0.89735697522E+02 0.  0.
         23    2    4    4    0    0  0.20659675620E+03  0.80599859487E+02  0.16603701908E+03  0.29160563859E+03  0.91032959583E+02 0.  0.
          1    1    3    3  502    0 -0.14764065279E+03 -0.10814254612E+02  0.67969329668E+03  0.69562754977E+03  0.00000000000E+00 0. -1.
         -1    1    3    3    0  502 -0.13424674542E+03  0.79153484986E+02  0.75913140450E+03  0.77496319405E+03  0.00000000000E+00 0.  1.
         11    1    5    5    0    0  0.39600366380E+02 -0.15846200986E+02  0.53823228888E+03  0.53991970504E+03  0.00000000000E+00 0.  1.
        -11    1    5    5    0    0  0.35690275631E+02 -0.13309288888E+03  0.82745909388E+03  0.83885401882E+03  0.00000000000E+00 0. -1.
          2    1    6    6  503    0  0.96952484834E+02  0.41099758091E+02  0.24234128748E+02  0.10805677872E+03  0.00000000000E+00 0. -1.
         -2    1    6    6    0  503  0.10964427136E+03  0.39500101396E+02  0.14180289033E+03  0.18354885987E+03  0.00000000000E+00 0.  1.
<mgrwt>
<rscale>  0 0.35308772E+03</rscale>
<asrwt>0</asrwt>
<pdfrwt beam="1">  1        1 0.47011708E+00 0.35308772E+03</pdfrwt>
<pdfrwt beam="2">  1       -1 0.13109003E-01 0.35308772E+03</pdfrwt>
<totfact> 0.25666761E+01</totfact>
</mgrwt>
</event>
<event>
12    1  0.1418317E-007  0.3978808E+03  0.7818608E-02  0.1044516E+00
          1   -1    0    0  501    0  0.00000000000E+00  0.00000000000E+00  0.20030501333E+04  0.20030501333E+04  0.00000000000E+00 0. -1.
         -1   -1    0    0    0  501 -0.00000000000E+00 -0.00000000000E+00 -0.14279911072E+03  0.14279911072E+03  0.00000000000E+00 0.  1.
         23    2    1    2    0    0  0.32805496970E+03 -0.13716519919E+03  0.74726064758E+03  0.83241465272E+03  0.89896182479E+02 0.  0.
    5000000    2    1    2    0    0 -0.32805496970E+03  0.13716519919E+03  0.11129903750E+04  0.13134345914E+04  0.59994041022E+03 0.  0.
         23    2    4    4    0    0 -0.11261729455E+03 -0.63037920892E+02 -0.21935041121E+01  0.15646480852E+03  0.88430709266E+02 0.  0.
         23    2    4    4    0    0 -0.21543767514E+03  0.20020312009E+03  0.11151838792E+04  0.11569697828E+04  0.91920144181E+02 0.  0.
          2    1    3    3  502    0  0.77937568142E+02 -0.66636494163E+02  0.27299952635E+03  0.29162206410E+03  0.00000000000E+00 0.  1.
         -2    1    3    3    0  502  0.25011740156E+03 -0.70528705031E+02  0.47426112123E+03  0.54079258862E+03  0.00000000000E+00 0. -1.
         11    1    5    5    0    0 -0.89998977241E+02 -0.71585797449E+02 -0.30758923380E+02  0.11903971467E+03  0.00000000000E+00 0.  1.
        -11    1    5    5    0    0 -0.22618317313E+02  0.85478765575E+01  0.28565419267E+02  0.37425093849E+02  0.00000000000E+00 0. -1.
          2    1    6    6  503    0 -0.70364507895E+02  0.61234998275E+02  0.53296698697E+03  0.54106810864E+03  0.00000000000E+00 0. -1.
         -2    1    6    6    0  503 -0.14507316725E+03  0.13896812181E+03  0.58221689218E+03  0.61590167420E+03  0.00000000000E+00 0.  1.
<mgrwt>
<rscale>  0 0.39788076E+03</rscale>
<asrwt>0</asrwt>
<pdfrwt beam="1">  1        1 0.30816154E+00 0.39788076E+03</pdfrwt>
<pdfrwt beam="2">  1       -1 0.21969095E-01 0.39788076E+03</pdfrwt>
<totfact> 0.56540808E+01</totfact>
</mgrwt>
</event>
<event>
12    1  0.1418317E-007  0.1209419E+04  0.7818608E-02  0.9104651E-01
         -2   -1    0    0    0  501 -0.00000000000E+00  0.00000000000E+00  0.95210554169E+03  0.95210554169E+03  0.00000000000E+00 0. -1.
          2   -1    0    0  501    0  0.00000000000E+00 -0.00000000000E+00 -0.18793806092E+04  0.18793806092E+04  0.00000000000E+00 0.  1.
         23    2    1    2    0    0  0.76770035292E+03  0.92154955573E+03 -0.87895443204E+03  0.14894983776E+04  0.86180669876E+02 0.  0.
    5000000    2    1    2    0    0 -0.76770035292E+03 -0.92154955573E+03 -0.48320635450E+02  0.13419877732E+04  0.59998240320E+03 0.  0.
         23    2    4    4    0    0 -0.63267327521E+03 -0.70481149889E+03  0.20175221513E+03  0.97247849513E+03  0.89307026831E+02 0.  0.
         23    2    4    4    0    0 -0.13502707771E+03 -0.21673805684E+03 -0.25007285058E+03  0.36950927810E+03  0.93770885723E+02 0.  0.
          3    1    3    3  502    0  0.74020795929E+03  0.87538559286E+03 -0.85763394102E+03  0.14316926122E+04  0.00000000000E+00 0. -1.
         -3    1    3    3    0  502  0.27492393634E+02  0.46163962868E+02 -0.21320491019E+02  0.57805765393E+02  0.00000000000E+00 0.  1.
         13    1    5    5    0    0 -0.52646557831E+03 -0.59076660291E+03  0.20180719476E+03  0.81663781943E+03  0.00000000000E+00 0. -1.
        -13    1    5    5    0    0 -0.10620769690E+03 -0.11404489598E+03 -0.54979634686E-01  0.15584067570E+03  0.00000000000E+00 0.  1.
          4    1    6    6  503    0 -0.74797671937E+02 -0.39939467732E+02 -0.88213320077E+02  0.12235784670E+03  0.00000000000E+00 0. -1.
         -4    1    6    6    0  503 -0.60229405775E+02 -0.17679858911E+03 -0.16185953050E+03  0.24715143140E+03  0.00000000000E+00 0.  1.
<mgrwt>
<rscale>  0 0.12094194E+04</rscale>
<asrwt>0</asrwt>
<pdfrwt beam="1">  1        2 0.28913548E+00 0.12094194E+04</pdfrwt>
<pdfrwt beam="2">  1       -2 0.14647778E+00 0.12094194E+04</pdfrwt>
<totfact> 0.24178108E+00</totfact>
</mgrwt>
</event>
<event>
12    1  0.1418317E-007  0.1299778E+04  0.7818608E-02  0.9029741E-01
          1   -1    0    0  501    0  0.00000000000E+00  0.00000000000E+00  0.14823998825E+04  0.14823998825E+04  0.00000000000E+00 0. -1.
         -1   -1    0    0    0  501 -0.00000000000E+00 -0.00000000000E+00 -0.12620935338E+04  0.12620935338E+04  0.00000000000E+00 0.  1.
         23    2    1    2    0    0  0.18412191459E+03 -0.12801779356E+04 -0.30177593833E+02  0.12968676186E+04  0.90545605732E+02 0.  0.
    5000000    2    1    2    0    0 -0.18412191459E+03  0.12801779356E+04  0.25048394255E+03  0.14476257978E+04  0.60010150686E+03 0.  0.
         23    2    4    4    0    0 -0.12030544253E+03  0.75704381464E+03  0.43089925959E+03  0.88394361469E+03  0.89963355073E+02 0.  0.
         23    2    4    4    0    0 -0.63816472066E+02  0.52313412100E+03 -0.18041531704E+03  0.56368218306E+03  0.86290591715E+02 0.  0.
          4    1    3    3  502    0  0.79056120088E+01 -0.26634170723E+03 -0.27028359493E+02  0.26782631672E+03  0.00000000000E+00 0.  1.
         -4    1    3    3    0  502  0.17621630258E+03 -0.10138362284E+04 -0.31492343393E+01  0.10290413019E+04  0.00000000000E+00 0. -1.
         13    1    5    5    0    0 -0.64438911982E+02  0.62261688679E+03  0.35894872204E+03  0.72155966223E+03  0.00000000000E+00 0.  1.
        -13    1    5    5    0    0 -0.55866530543E+02  0.13442692784E+03  0.71950537556E+02  0.16238395247E+03  0.00000000000E+00 0. -1.
          3    1    6    6  503    0 -0.72219623318E+02  0.27676804907E+03 -0.75918295261E+02  0.29593886959E+03  0.00000000000E+00 0. -1.
         -3    1    6    6    0  503  0.84031512519E+01  0.24636607193E+03 -0.10449702178E+03  0.26774331347E+03  0.00000000000E+00 0.  1.
<mgrwt>
<rscale>  0 0.12997782E+04</rscale>
<asrwt>0</asrwt>
<pdfrwt beam="1">  1        1 0.22806152E+00 0.12997782E+04</pdfrwt>
<pdfrwt beam="2">  1       -1 0.19416824E+00 0.12997782E+04</pdfrwt>
<totfact> 0.10764720E+00</totfact>
</mgrwt>
</event>
<event>
12    1  0.1418317E-007  0.7090550E+03  0.7818608E-02  0.9701871E-01
         -1   -1    0    0    0  501 -0.00000000000E+00  0.00000000000E+00  0.91741166043E+03  0.91741166043E+03  0.00000000000E+00 0.  1.
          1   -1    0    0  501    0  0.00000000000E+00 -0.00000000000E+00 -0.69785520343E+03  0.69785520343E+03  0.00000000000E+00 0. -1.
         23    2    1    2    0    0 -0.58410754084E+03 -0.17580400643E+03 -0.21800821195E+03  0.65415420307E+03  0.91112419443E+02 0.  0.
    5000000    2    1    2    0    0  0.58410754084E+03  0.17580400643E+03  0.43756466895E+03  0.96111266078E+03  0.60015501269E+03 0.  0.
         23    2    4    4    0    0 -0.10246142413E+02  0.18983823716E+03 -0.90483037415E+01  0.21182044814E+03  0.92964997323E+02 0.  0.
         23    2    4    4    0    0  0.59435368325E+03 -0.14034230735E+02  0.44661297269E+03  0.74929221264E+03  0.92316911317E+02 0.  0.
          3    1    3    3  502    0 -0.17941850835E+03 -0.71710721012E+02 -0.11090172765E+03  0.22278380068E+03  0.00000000000E+00 0. -1.
         -3    1    3    3    0  502 -0.40468903249E+03 -0.10409328541E+03 -0.10710648430E+03  0.43137040239E+03  0.00000000000E+00 0.  1.
         11    1    5    5    0    0 -0.15394827362E+02 -0.53097561980E+01 -0.26556952669E+01  0.16499907204E+02  0.00000000000E+00 0. -1.
        -11    1    5    5    0    0  0.51486849491E+01  0.19514799336E+03 -0.63926084747E+01  0.19532054094E+03  0.00000000000E+00 0.  1.
          3    1    6    6  503    0  0.10971712389E+03 -0.16070565547E+02  0.12774743114E+03  0.16916121457E+03  0.00000000000E+00 0. -1.
         -3    1    6    6    0  503  0.48463655936E+03  0.20363348126E+01  0.31886554155E+03  0.58013099807E+03  0.00000000000E+00 0.  1.
<mgrwt>
<rscale>  0 0.70905496E+03</rscale>
<asrwt>0</asrwt>
<pdfrwt beam="1">  1        1 0.10736234E+00 0.70905496E+03</pdfrwt>
<pdfrwt beam="2">  1       -1 0.14114026E+00 0.70905496E+03</pdfrwt>
<totfact> 0.11628386E+01</totfact>
</mgrwt>
</event>
<event>
12    1  0.1418317E-007  0.6379560E+03  0.7818608E-02  0.9829645E-01
         -1   -1    0    0    0  501 -0.00000000000E+00  0.00000000000E+00  0.38950615259E+03  0.38950615259E+03  0.00000000000E+00 0.  1.
          1   -1    0    0  501    0  0.00000000000E+00 -0.00000000000E+00 -0.10667610152E+04  0.10667610152E+04  0.00000000000E+00 0. -1.
         23    2    1    2    0    0 -0.77268666940E+02  0.49340815004E+03 -0.24938912734E+03  0.56606893465E+03  0.93899161474E+02 0.  0.
    5000000    2    1    2    0    0  0.77268666940E+02 -0.49340815004E+03 -0.42786573531E+03  0.89019823318E+03  0.59996813040E+03 0.  0.
         23    2    4    4    0    0 -0.18849261328E+03  0.38034882953E+01 -0.10476763436E+03  0.23402600490E+03  0.90818401079E+02 0.  0.
         23    2    4    4    0    0  0.26576128022E+03 -0.49721163833E+03 -0.32309810095E+03  0.65617222829E+03  0.91220277261E+02 0.  0.
          3    1    3    3  502    0 -0.89742009182E+01  0.14971970401E+03 -0.12159356387E+03  0.19308423246E+03  0.00000000000E+00 0. -1.
         -3    1    3    3    0  502 -0.68294466022E+02  0.34368844603E+03 -0.12779556347E+03  0.37298470219E+03  0.00000000000E+00 0.  1.
         13    1    5    5    0    0 -0.74665911526E+02 -0.38513840028E+02 -0.21309146401E+02  0.86674067276E+02  0.00000000000E+00 0. -1.
        -13    1    5    5    0    0 -0.11382670175E+03  0.42317328323E+02 -0.83458487961E+02  0.14735193762E+03  0.00000000000E+00 0.  1.
          3    1    6    6  503    0  0.11335831308E+03 -0.30085312654E+03 -0.20185968037E+03  0.37961828387E+03  0.00000000000E+00 0. -1.
         -3    1    6    6    0  503  0.15240296714E+03 -0.19635851179E+03 -0.12123842058E+03  0.27655394441E+03  0.00000000000E+00 0.  1.
<mgrwt>
<rscale>  0 0.63795598E+03</rscale>
<asrwt>0</asrwt>
<pdfrwt beam="1">  1        1 0.16411708E+00 0.63795598E+03</pdfrwt>
<pdfrwt beam="2">  1       -1 0.59924024E-01 0.63795598E+03</pdfrwt>
<totfact> 0.39434740E+01</totfact>
</mgrwt>
</event>
<event>
12    1  0.1418317E-007  0.5494653E+03  0.7818608E-02  0.1001618E+00
          2   -1    0    0  501    0  0.00000000000E+00  0.00000000000E+00  0.14662972166E+04  0.14662972166E+04  0.00000000000E+00 0.  1.
         -2   -1    0    0    0  501 -0.00000000000E+00 -0.00000000000E+00 -0.25884551538E+03  0.25884551538E+03  0.00000000000E+00 0. -1.
         23    2    1    2    0    0  0.26774851491E+03 -0.35962908457E+03  0.63352133198E+03  0.78149151090E+03  0.91418585779E+02 0.  0.
    5000000    2    1    2    0    0 -0.26774851491E+03  0.35962908457E+03  0.57393036927E+03  0.94365122111E+03  0.60004934182E+03 0.  0.
         23    2    4    4    0    0  0.96106267535E+02 -0.14457328728E+02  0.33730356056E+03  0.36273178722E+03  0.91406938897E+02 0.  0.
         23    2    4    4    0    0 -0.36385478244E+03  0.37408641330E+03  0.23662680871E+03  0.58091943389E+03  0.95625282995E+02 0.  0.
          3    1    3    3  502    0  0.18022285751E+03 -0.30229182565E+03  0.46577319500E+03  0.58378531620E+03  0.00000000000E+00 0.  1.
         -3    1    3    3    0  502  0.87525657395E+02 -0.57337258920E+02  0.16774813698E+03  0.19770619470E+03  0.00000000000E+00 0. -1.
         11    1    5    5    0    0  0.90120371354E+02  0.86279823514E+01  0.16004744157E+03  0.18387851143E+03  0.00000000000E+00 0. -1.
        -11    1    5    5    0    0  0.59858961808E+01 -0.23085311079E+02  0.17725611899E+03  0.17885327579E+03  0.00000000000E+00 0.  1.
          4    1    6    6  503    0 -0.14925611999E+02 -0.18779983245E+01 -0.20357721208E+01  0.15180419605E+02  0.00000000000E+00 0. -1.
         -4    1    6    6    0  503 -0.34892917044E+03  0.37596441163E+03  0.23866258083E+03  0.56573901429E+03  0.00000000000E+00 0.  1.
<mgrwt>
<rscale>  0 0.54946527E+03</rscale>
<asrwt>0</asrwt>
<pdfrwt beam="1">  1        2 0.22558418E+00 0.54946527E+03</pdfrwt>
<pdfrwt beam="2">  1       -2 0.39822388E-01 0.54946527E+03</pdfrwt>
<totfact> 0.82426990E+01</totfact>
</mgrwt>
</event>
<event>
12    1  0.1418317E-007  0.7621330E+03  0.7818608E-02  0.9616506E-01
          2   -1    0    0  501    0  0.00000000000E+00  0.00000000000E+00  0.31773025760E+04  0.31773025760E+04  0.00000000000E+00 0.  1.
         -2   -1    0    0    0  501 -0.00000000000E+00 -0.00000000000E+00 -0.21599726579E+03  0.21599726579E+03  0.00000000000E+00 0. -1.
         23    2    1    2    0    0 -0.20254428053E+03  0.68583896521E+03  0.13868667188E+04  0.15629193731E+04  0.88985387244E+02 0.  0.
    5000000    2    1    2    0    0  0.20254428053E+03 -0.68583896521E+03  0.15744385914E+04  0.18303804688E+04  0.60003042462E+03 0.  0.
         23    2    4    4    0    0 -0.20813452909E+01 -0.56579302947E+03  0.62677652158E+03  0.84917599509E+03  0.90138662257E+02 0.  0.
         23    2    4    4    0    0  0.20462562582E+03 -0.12004593575E+03  0.94766206986E+03  0.98120447369E+03  0.91739561262E+02 0.  0.
          1    1    3    3  502    0 -0.17482875045E+03  0.45295163709E+03  0.90522580439E+03  0.10272117768E+04  0.00000000000E+00 0. -1.
         -1    1    3    3    0  502 -0.27715530086E+02  0.23288732812E+03  0.48164091443E+03  0.53570759623E+03  0.00000000000E+00 0.  1.
         13    1    5    5    0    0  0.13827430298E+02 -0.10590498825E+03  0.17021851302E+03  0.20095125414E+03  0.00000000000E+00 0. -1.
        -13    1    5    5    0    0 -0.15908775589E+02 -0.45988804122E+03  0.45655800856E+03  0.64822474095E+03  0.00000000000E+00 0.  1.
          2    1    6    6  503    0  0.16345180948E+03 -0.94983057381E+02  0.57123990646E+03  0.60170865537E+03  0.00000000000E+00 0. -1.
         -2    1    6    6    0  503  0.41173816347E+02 -0.25062878365E+02  0.37642216340E+03  0.37949581832E+03  0.00000000000E+00 0.  1.
<mgrwt>
<rscale>  0 0.76213300E+03</rscale>
<asrwt>0</asrwt>
<pdfrwt beam="1">  1        2 0.48881575E+00 0.76213300E+03</pdfrwt>
<pdfrwt beam="2">  1       -2 0.33230351E-01 0.76213300E+03</pdfrwt>
<totfact> 0.12087697E+01</totfact>
</mgrwt>
</event>
<event>
12    1  0.1418317E-007  0.9639169E+03  0.7818608E-02  0.9349030E-01
         -2   -1    0    0    0  501 -0.00000000000E+00  0.00000000000E+00  0.77518607012E+03  0.77518607012E+03  0.00000000000E+00 0.  1.
          2   -1    0    0  501    0  0.00000000000E+00 -0.00000000000E+00 -0.13785051029E+04  0.13785051029E+04  0.00000000000E+00 0. -1.
         23    2    1    2    0    0 -0.48973372961E+03 -0.80419629259E+03 -0.20259956359E+03  0.96733226400E+03  0.90079536492E+02 0.  0.
    5000000    2    1    2    0    0  0.48973372961E+03  0.80419629259E+03 -0.40071946921E+03  0.11863589090E+04  0.60025041868E+03 0.  0.
         23    2    4    4    0    0  0.17409484835E+02  0.22230005515E+03 -0.35647187996E+03  0.43001553737E+03  0.90115240085E+02 0.  0.
         23    2    4    4    0    0  0.47232424477E+03  0.58189623744E+03 -0.44247589253E+02  0.75634337167E+03  0.91673460545E+02 0.  0.
          3    1    3    3  502    0 -0.18292347573E+03 -0.22258621248E+03 -0.70839576387E+02  0.29668816212E+03  0.00000000000E+00 0. -1.
         -3    1    3    3    0  502 -0.30681025387E+03 -0.58161008010E+03 -0.13175998720E+03  0.67064410188E+03  0.00000000000E+00 0.  1.
         13    1    5    5    0    0  0.31925188730E+02  0.13367013062E+03 -0.14256431469E+03  0.19801895192E+03  0.00000000000E+00 0. -1.
        -13    1    5    5    0    0 -0.14515703896E+02  0.88629924525E+02 -0.21390756527E+03  0.23199658545E+03  0.00000000000E+00 0.  1.
          4    1    6    6  503    0  0.46375847463E+03  0.58433924168E+03 -0.45268285330E+02  0.74737774239E+03  0.00000000000E+00 0. -1.
         -4    1    6    6    0  503  0.85657701448E+01 -0.24430042458E+01  0.10206960765E+01  0.89656292807E+01  0.00000000000E+00 0.  1.
<mgrwt>
<rscale>  0 0.96391686E+03</rscale>
<asrwt>0</asrwt>
<pdfrwt beam="1">  1        2 0.21207771E+00 0.96391686E+03</pdfrwt>
<pdfrwt beam="2">  1       -2 0.11925940E+00 0.96391686E+03</pdfrwt>
<totfact> 0.80043956E+00</totfact>
</mgrwt>
</event>
<event>
12    1  0.1418317E-007  0.2287082E+04  0.7818608E-02  0.8483032E-01
         -2   -1    0    0    0  501 -0.00000000000E+00  0.00000000000E+00  0.29314825098E+04  0.29314825098E+04  0.00000000000E+00 0.  1.
          2   -1    0    0  501    0  0.00000000000E+00 -0.00000000000E+00 -0.21715939014E+04  0.21715939014E+04  0.00000000000E+00 0. -1.
         23    2    1    2    0    0  0.13310623691E+04 -0.18194728192E+04  0.14361510823E+04  0.26744123077E+04  0.87993693131E+02 0.  0.
    5000000    2    1    2    0    0 -0.13310623691E+04  0.18194728192E+04 -0.67626247385E+03  0.24286641035E+04  0.59905761317E+03 0.  0.
         23    2    4    4    0    0 -0.12902357523E+04  0.14350502085E+04 -0.51074037306E+03  0.19983226690E+04  0.91435024143E+02 0.  0.
         23    2    4    4    0    0 -0.40826616823E+02  0.38442261073E+03 -0.16552210079E+03  0.43034143447E+03  0.91370827364E+02 0.  0.
          3    1    3    3  502    0  0.60465282659E+03 -0.75590532274E+03  0.63115869741E+03  0.11555774310E+04  0.00000000000E+00 0. -1.
         -3    1    3    3    0  502  0.72640954249E+03 -0.10635674965E+04  0.80499238487E+03  0.15188348767E+04  0.00000000000E+00 0.  1.
         11    1    5    5    0    0 -0.99059851763E+03  0.11478504961E+04 -0.42308672618E+03  0.15741183445E+04  0.00000000000E+00 0.  1.
        -11    1    5    5    0    0 -0.29963723463E+03  0.28719971235E+03 -0.87653646886E+02  0.42420432455E+03  0.00000000000E+00 0. -1.
          2    1    6    6  503    0 -0.35254004228E+01  0.10630640771E+03 -0.91070205928E+02  0.14002593751E+03  0.00000000000E+00 0. -1.
         -2    1    6    6    0  503 -0.37301216400E+02  0.27811620302E+03 -0.74451894862E+02  0.29031549696E+03  0.00000000000E+00 0.  1.
<mgrwt>
<rscale>  0 0.22870821E+04</rscale>
<asrwt>0</asrwt>
<pdfrwt beam="1">  1        2 0.33409137E+00 0.22870821E+04</pdfrwt>
<pdfrwt beam="2">  1       -2 0.45099731E+00 0.22870821E+04</pdfrwt>
<totfact> 0.15672908E-02</totfact>
</mgrwt>
</event>
<event>
12    1  0.1418317E-007  0.3776271E+03  0.7818608E-02  0.1051814E+00
          2   -1    0    0  501    0  0.00000000000E+00  0.00000000000E+00  0.24823953987E+04  0.24823953987E+04  0.00000000000E+00 0. -1.
         -2   -1    0    0    0  501 -0.00000000000E+00 -0.00000000000E+00 -0.10470043514E+03  0.10470043514E+03  0.00000000000E+00 0.  1.
         23    2    1    2    0    0  0.25441757560E+03  0.20092921202E+03  0.81848758650E+03  0.88507880245E+03  0.91332941910E+02 0.  0.
    5000000    2    1    2    0    0 -0.25441757560E+03 -0.20092921202E+03  0.15592073771E+04  0.17020170314E+04  0.60052766753E+03 0.  0.
         23    2    4    4    0    0 -0.26744461824E+03 -0.58961165230E+02  0.24989947873E+03  0.38189155483E+03  0.91588030596E+02 0.  0.
         23    2    4    4    0    0  0.13027042641E+02 -0.14196804679E+03  0.13093078983E+04  0.13201254766E+04  0.90108107889E+02 0.  0.
          4    1    3    3  502    0  0.16683004903E+03  0.14707135565E+03  0.65713303226E+03  0.69374784396E+03  0.00000000000E+00 0.  1.
         -4    1    3    3    0  502  0.87587526572E+02  0.53857856365E+02  0.16135455424E+03  0.19133095849E+03  0.00000000000E+00 0. -1.
         13    1    5    5    0    0 -0.42254719107E+02 -0.44901577598E+02  0.70314402453E+02  0.93518597882E+02  0.00000000000E+00 0. -1.
        -13    1    5    5    0    0 -0.22518989913E+03 -0.14059587633E+02  0.17958507627E+03  0.28837295694E+03  0.00000000000E+00 0.  1.
          2    1    6    6  503    0  0.12888033109E+02 -0.10639134064E+03  0.57157361676E+03  0.58153384952E+03  0.00000000000E+00 0. -1.
         -2    1    6    6    0  503  0.13900953252E+00 -0.35576706149E+02  0.73773428157E+03  0.73859162705E+03  0.00000000000E+00 0.  1.
<mgrwt>
<rscale>  0 0.37762710E+03</rscale>
<asrwt>0</asrwt>
<pdfrwt beam="1">  1        2 0.38190694E+00 0.37762710E+03</pdfrwt>
<pdfrwt beam="2">  1       -2 0.16107761E-01 0.37762710E+03</pdfrwt>
<totfact> 0.12172847E+02</totfact>
</mgrwt>
</event>
<event>
12    1  0.1418317E-007  0.7535183E+03  0.7818608E-02  0.9629847E-01
          2   -1    0    0  501    0  0.00000000000E+00  0.00000000000E+00  0.34818703866E+04  0.34818703866E+04  0.00000000000E+00 0. -1.
         -2   -1    0    0    0  501 -0.00000000000E+00 -0.00000000000E+00 -0.21540451487E+03  0.21540451487E+03  0.00000000000E+00 0.  1.
         23    2    1    2    0    0 -0.72309183972E+03  0.13068261723E+03  0.18523247027E+04  0.19948442998E+04  0.91417838009E+02 0.  0.
    5000000    2    1    2    0    0  0.72309183972E+03 -0.13068261723E+03  0.14141411690E+04  0.17024306016E+04  0.59877788238E+03 0.  0.
         23    2    4    4    0    0  0.15709762379E+03 -0.76739331421E+02  0.25715645308E+02  0.19930154655E+03  0.92147835875E+02 0.  0.
         23    2    4    4    0    0  0.56599421593E+03 -0.53943285812E+02  0.13884255237E+04  0.15031290551E+04  0.91717996436E+02 0.  0.
          3    1    3    3  502    0 -0.19572053515E+03  0.18064806515E+02  0.59920734182E+03  0.63062057024E+03  0.00000000000E+00 0. -1.
         -3    1    3    3    0  502 -0.52737130457E+03  0.11261781072E+03  0.12531173609E+04  0.13642237296E+04  0.00000000000E+00 0.  1.
         13    1    5    5    0    0 -0.29439558564E+01 -0.29317748357E+02 -0.40713254647E+01  0.29745132977E+02  0.00000000000E+00 0.  1.
        -13    1    5    5    0    0  0.16004157965E+03 -0.47421583064E+02  0.29786970773E+02  0.16955641357E+03  0.00000000000E+00 0. -1.
          1    1    6    6  503    0  0.31850779832E+03 -0.72505295648E+02  0.74323194178E+03  0.81184848018E+03  0.00000000000E+00 0. -1.
         -1    1    6    6    0  503  0.24748641762E+03  0.18562009836E+02  0.64519358190E+03  0.69128057491E+03  0.00000000000E+00 0.  1.
<mgrwt>
<rscale>  0 0.75351829E+03</rscale>
<asrwt>0</asrwt>
<pdfrwt beam="1">  1        2 0.53567233E+00 0.75351829E+03</pdfrwt>
<pdfrwt beam="2">  1       -2 0.33139159E-01 0.75351829E+03</pdfrwt>
<totfact> 0.76845172E+00</totfact>
</mgrwt>
</event>
<event>
12    1  0.1702635E-007  0.1307884E+04  0.7818608E-02  0.9023337E-01
          2   -1    0    0  501    0  0.00000000000E+00  0.00000000000E+00  0.22477840589E+04  0.22477840589E+04  0.00000000000E+00 0. -1.
         -2   -1    0    0    0  501 -0.00000000000E+00 -0.00000000000E+00 -0.10352283043E+04  0.10352283043E+04  0.00000000000E+00 0.  1.
         23    2    1    2    0    0  0.10572979815E+04  0.70951034160E+03 -0.19484413312E+03  0.12924976787E+04  0.10631117855E+03 0.  0.
    5000000    2    1    2    0    0 -0.10572979815E+04 -0.70951034160E+03  0.14073998877E+04  0.19905146845E+04  0.60007526076E+03 0.  0.
         23    2    4    4    0    0 -0.10051320191E+04 -0.50638169802E+03  0.93499321975E+03  0.14654680867E+04  0.81679815337E+02 0.  0.
         23    2    4    4    0    0 -0.52165962445E+02 -0.20312864359E+03  0.47240666796E+03  0.52504659779E+03  0.92321917385E+02 0.  0.
          2    1    3    3  502    0  0.77429346790E+03  0.46221021219E+03 -0.14615146849E+03  0.91352553683E+03  0.00000000000E+00 0. -1.
         -2    1    3    3    0  502  0.28300451363E+03  0.24730012941E+03 -0.48692664629E+02  0.37897214189E+03  0.00000000000E+00 0.  1.
         11    1    5    5    0    0 -0.59789597616E+03 -0.25614763231E+03  0.53514020380E+03  0.84229819278E+03  0.00000000000E+00 0.  1.
        -11    1    5    5    0    0 -0.40723604293E+03 -0.25023406571E+03  0.39985301595E+03  0.62316989391E+03  0.00000000000E+00 0. -1.
          2    1    6    6  503    0 -0.27165503428E+02 -0.11284878158E+03  0.15214694457E+03  0.19136746020E+03  0.00000000000E+00 0.  1.
         -2    1    6    6    0  503 -0.25000459017E+02 -0.90279862006E+02  0.32025972339E+03  0.33367913759E+03  0.00000000000E+00 0. -1.
<mgrwt>
<rscale>  0 0.13078836E+04</rscale>
<asrwt>0</asrwt>
<pdfrwt beam="1">  1        2 0.34581293E+00 0.13078836E+04</pdfrwt>
<pdfrwt beam="2">  1       -2 0.15926589E+00 0.13078836E+04</pdfrwt>
<totfact> 0.11911131E+00</totfact>
</mgrwt>
</event>
<event>
12    1  0.1418317E-007  0.4581219E+03  0.7818608E-02  0.1025327E+00
         -2   -1    0    0    0  501 -0.00000000000E+00  0.00000000000E+00  0.33787273225E+03  0.33787273225E+03  0.00000000000E+00 0.  1.
          2   -1    0    0  501    0  0.00000000000E+00 -0.00000000000E+00 -0.98345891162E+03  0.98345891162E+03  0.00000000000E+00 0. -1.
         23    2    1    2    0    0  0.26550487378E+03 -0.14482911429E+03  0.86541935383E+02  0.32767173183E+03  0.91711214785E+02 0.  0.
    5000000    2    1    2    0    0 -0.26550487378E+03  0.14482911429E+03 -0.73212811475E+03  0.99365991203E+03  0.59990010336E+03 0.  0.
         23    2    4    4    0    0  0.44895793235E+01  0.28726070445E+03 -0.54904144646E+03  0.62619988940E+03  0.90227063075E+02 0.  0.
         23    2    4    4    0    0 -0.26999445310E+03 -0.14243159016E+03 -0.18308666829E+03  0.36746002263E+03  0.91227065825E+02 0.  0.
          1    1    3    3  502    0  0.14531756240E+03 -0.12421777477E+03  0.74348362010E+02  0.20512174055E+03  0.00000000000E+00 0. -1.
         -1    1    3    3    0  502  0.12018731138E+03 -0.20611339515E+02  0.12193573373E+02  0.12254999129E+03  0.00000000000E+00 0.  1.
         11    1    5    5    0    0  0.19803216713E+02  0.16273511668E+02 -0.23813763725E+02  0.34986996398E+02  0.00000000000E+00 0. -1.
        -11    1    5    5    0    0 -0.15313637389E+02  0.27098719278E+03 -0.52522768274E+03  0.59121289300E+03  0.00000000000E+00 0.  1.
          3    1    6    6  503    0 -0.91324492928E+02 -0.36384052694E+02 -0.13426063144E+02  0.99218050125E+02  0.00000000000E+00 0. -1.
         -3    1    6    6    0  503 -0.17866996017E+03 -0.10604753747E+03 -0.16966060515E+03  0.26824197250E+03  0.00000000000E+00 0.  1.
<mgrwt>
<rscale>  0 0.45812185E+03</rscale>
<asrwt>0</asrwt>
<pdfrwt beam="1">  1        2 0.15130137E+00 0.45812185E+03</pdfrwt>
<pdfrwt beam="2">  1       -2 0.51980421E-01 0.45812185E+03</pdfrwt>
<totfact> 0.93993294E+01</totfact>
</mgrwt>
</event>
<event>
12    1  0.1418317E-007  0.1019871E+04  0.7818608E-02  0.9287015E-01
          1   -1    0    0  501    0  0.00000000000E+00  0.00000000000E+00  0.18231090735E+04  0.18231090735E+04  0.00000000000E+00 0. -1.
         -1   -1    0    0    0  501 -0.00000000000E+00 -0.00000000000E+00 -0.71972820357E+03  0.71972820357E+03  0.00000000000E+00 0.  1.
         23    2    1    2    0    0 -0.33092614528E+03  0.95074187722E+03  0.12924310710E+03  0.10189452193E+04  0.90129620007E+02 0.  0.
    5000000    2    1    2    0    0  0.33092614528E+03 -0.95074187722E+03  0.97413776283E+03  0.15238920578E+04  0.59990031845E+03 0.  0.
         23    2    4    4    0    0  0.28977542515E+03 -0.79440415712E+03  0.43875058219E+03  0.95731747768E+03  0.94376468574E+02 0.  0.
         23    2    4    4    0    0  0.41150720129E+02 -0.15633772010E+03  0.53538718064E+03  0.56657458011E+03  0.90732888945E+02 0.  0.
          1    1    3    3  502    0 -0.96192078643E+02  0.22349242629E+03 -0.33325079292E+01  0.24333698077E+03  0.00000000000E+00 0. -1.
         -1    1    3    3    0  502 -0.23473406664E+03  0.72724945094E+03  0.13257561503E+03  0.77560823850E+03  0.00000000000E+00 0.  1.
         11    1    5    5    0    0  0.19683615459E+03 -0.60051287421E+03  0.28652547165E+03  0.69387104692E+03  0.00000000000E+00 0.  1.
        -11    1    5    5    0    0  0.92939270564E+02 -0.19389128291E+03  0.15222511053E+03  0.26344643075E+03  0.00000000000E+00 0. -1.
          1    1    6    6  503    0  0.69657739514E+02 -0.12345562283E+03  0.41787716106E+03  0.44126501472E+03  0.00000000000E+00 0. -1.
         -1    1    6    6    0  503 -0.28507019385E+02 -0.32882097272E+02  0.11751001959E+03  0.12530956539E+03  0.00000000000E+00 0.  1.
<mgrwt>
<rscale>  0 0.10198714E+04</rscale>
<asrwt>0</asrwt>
<pdfrwt beam="1">  1        1 0.28047832E+00 0.10198714E+04</pdfrwt>
<pdfrwt beam="2">  1       -1 0.11072742E+00 0.10198714E+04</pdfrwt>
<totfact> 0.29704077E+00</totfact>
</mgrwt>
</event>
<event>
12    1  0.1418317E-007  0.8887261E+03  0.7818608E-02  0.9439785E-01
         -1   -1    0    0    0  501 -0.00000000000E+00  0.00000000000E+00  0.71722600397E+03  0.71722600397E+03  0.00000000000E+00 0.  1.
          1   -1    0    0  501    0  0.00000000000E+00 -0.00000000000E+00 -0.13376896247E+04  0.13376896247E+04  0.00000000000E+00 0. -1.
         23    2    1    2    0    0  0.10810934135E+03 -0.79825830034E+03  0.10292470300E+03  0.81709751552E+03  0.90282399377E+02 0.  0.
    5000000    2    1    2    0    0 -0.10810934135E+03  0.79825830034E+03 -0.72338832375E+03  0.12378181132E+04  0.59999922547E+03 0.  0.
         23    2    4    4    0    0 -0.28380693661E+03  0.23816088679E+03 -0.14319702074E+03  0.40699820221E+03  0.88742124112E+02 0.  0.
         23    2    4    4    0    0  0.17569759526E+03  0.56009741355E+03 -0.58019130301E+03  0.83081991094E+03  0.95189383236E+02 0.  0.
          1    1    3    3  502    0  0.87132471376E+02 -0.31959170412E+03  0.51145645159E+02  0.33518174463E+03  0.00000000000E+00 0. -1.
         -1    1    3    3    0  502  0.20976869976E+02 -0.47866659621E+03  0.51779057846E+02  0.48191577089E+03  0.00000000000E+00 0.  1.
         11    1    5    5    0    0 -0.18686594817E+03  0.19989504113E+03 -0.12645158814E+03  0.30144139430E+03  0.00000000000E+00 0.  1.
        -11    1    5    5    0    0 -0.96940988437E+02  0.38265845651E+02 -0.16745432597E+02  0.10555680791E+03  0.00000000000E+00 0. -1.
          2    1    6    6  503    0  0.75332886753E+02  0.16200083530E+03 -0.12628057661E+03  0.21878322261E+03  0.00000000000E+00 0. -1.
         -2    1    6    6    0  503  0.10036470850E+03  0.39809657826E+03 -0.45391072640E+03  0.61203668834E+03  0.00000000000E+00 0.  1.
<mgrwt>
<rscale>  0 0.88872609E+03</rscale>
<asrwt>0</asrwt>
<pdfrwt beam="1">  1        1 0.20579840E+00 0.88872609E+03</pdfrwt>
<pdfrwt beam="2">  1       -1 0.11034246E+00 0.88872609E+03</pdfrwt>
<totfact> 0.65574905E+00</totfact>
</mgrwt>
</event>
<event>
12    1  0.1418317E-007  0.1310323E+04  0.7818608E-02  0.9021419E-01
         -1   -1    0    0    0  501 -0.00000000000E+00  0.00000000000E+00  0.54265181070E+03  0.54265181070E+03  0.00000000000E+00 0.  1.
          1   -1    0    0  501    0  0.00000000000E+00 -0.00000000000E+00 -0.41247201213E+04  0.41247201213E+04  0.00000000000E+00 0. -1.
         23    2    1    2    0    0  0.11647390456E+04  0.58663727946E+03 -0.26524570059E+04  0.29571391779E+04  0.91562040832E+02 0.  0.
    5000000    2    1    2    0    0 -0.11647390456E+04 -0.58663727946E+03 -0.92961130471E+03  0.17102327541E+04  0.59996546025E+03 0.  0.
         23    2    4    4    0    0 -0.58466359229E+03 -0.31321077804E+03 -0.81198197227E+03  0.10520150727E+04  0.86536017179E+02 0.  0.
         23    2    4    4    0    0 -0.58007545329E+03 -0.27342650142E+03 -0.11762933244E+03  0.65821768142E+03  0.90356367254E+02 0.  0.
          1    1    3    3  502    0  0.26164028523E+03  0.11039859560E+03 -0.50615530044E+03  0.58037632355E+03  0.00000000000E+00 0. -1.
         -1    1    3    3    0  502  0.90309876035E+03  0.47623868386E+03 -0.21463017055E+04  0.23767628544E+04  0.00000000000E+00 0.  1.
         13    1    5    5    0    0 -0.48526530848E+03 -0.29234757472E+03 -0.70643142667E+03  0.90553568933E+03  0.00000000000E+00 0. -1.
        -13    1    5    5    0    0 -0.99398283811E+02 -0.20863203323E+02 -0.10555054560E+03  0.14647938337E+03  0.00000000000E+00 0.  1.
          4    1    6    6  503    0 -0.30417112435E+03 -0.19292694695E+03 -0.67866143207E+02  0.36653334520E+03  0.00000000000E+00 0. -1.
         -4    1    6    6    0  503 -0.27590432894E+03 -0.80499554461E+02 -0.49763189231E+02  0.29168433622E+03  0.00000000000E+00 0.  1.
<mgrwt>
<rscale>  0 0.13103226E+04</rscale>
<asrwt>0</asrwt>
<pdfrwt beam="1">  1        1 0.63457234E+00 0.13103226E+04</pdfrwt>
<pdfrwt beam="2">  1       -1 0.83484892E-01 0.13103226E+04</pdfrwt>
<totfact> 0.10576997E-01</totfact>
</mgrwt>
</event>
<event>
12    1  0.1418317E-007  0.1423085E+04  0.7818608E-02  0.8937276E-01
          2   -1    0    0  501    0  0.00000000000E+00  0.00000000000E+00  0.26039262678E+04  0.26039262678E+04  0.00000000000E+00 0. -1.
         -2   -1    0    0    0  501 -0.00000000000E+00 -0.00000000000E+00 -0.88951948423E+03  0.88951948423E+03  0.00000000000E+00 0.  1.
         23    2    1    2    0    0 -0.11652077297E+04 -0.79473665183E+03  0.12634111856E+04  0.18957593796E+04  0.91544536964E+02 0.  0.
    5000000    2    1    2    0    0  0.11652077297E+04  0.79473665183E+03  0.45099559793E+03  0.15976863724E+04  0.59990775641E+03 0.  0.
         23    2    4    4    0    0  0.10072314421E+04  0.75138693674E+03  0.18727119689E+03  0.12738917922E+04  0.92910119959E+02 0.  0.
         23    2    4    4    0    0  0.15797628755E+03  0.43349715093E+02  0.26372440103E+03  0.32379458020E+03  0.91960128526E+02 0.  0.
          2    1    3    3  502    0 -0.31137865266E+03 -0.19716107502E+03  0.27993972204E+03  0.46281249207E+03  0.00000000000E+00 0. -1.
         -2    1    3    3    0  502 -0.85382907702E+03 -0.59757557681E+03  0.98347146357E+03  0.14329468875E+04  0.00000000000E+00 0.  1.
         11    1    5    5    0    0  0.92084391880E+03  0.65931653076E+03  0.18545487595E+03  0.11476259502E+04  0.00000000000E+00 0.  1.
        -11    1    5    5    0    0  0.86387523337E+02  0.92070405975E+02  0.18163209440E+01  0.12626584204E+03  0.00000000000E+00 0. -1.
          1    1    6    6  503    0  0.48355960277E+02 -0.17320234204E+02  0.13371089747E+03  0.14323719318E+03  0.00000000000E+00 0. -1.
         -1    1    6    6    0  503  0.10962032727E+03  0.60669949297E+02  0.13001350356E+03  0.18055738702E+03  0.00000000000E+00 0.  1.
<mgrwt>
<rscale>  0 0.14230850E+04</rscale>
<asrwt>0</asrwt>
<pdfrwt beam="1">  1        2 0.40060404E+00 0.14230850E+04</pdfrwt>
<pdfrwt beam="2">  1       -2 0.13684915E+00 0.14230850E+04</pdfrwt>
<totfact> 0.11013081E+00</totfact>
</mgrwt>
</event>
<event>
12    1  0.1418317E-007  0.5635719E+03  0.7818608E-02  0.9984005E-01
         -1   -1    0    0    0  501 -0.00000000000E+00  0.00000000000E+00  0.14333247319E+04  0.14333247319E+04  0.00000000000E+00 0. -1.
          1   -1    0    0  501    0  0.00000000000E+00 -0.00000000000E+00 -0.60199507251E+03  0.60199507251E+03  0.00000000000E+00 0.  1.
         23    2    1    2    0    0 -0.46452086010E+03 -0.15952265877E+03 -0.35863683323E+03  0.61498657055E+03  0.91438480311E+02 0.  0.
    5000000    2    1    2    0    0  0.46452086010E+03  0.15952265877E+03  0.11899664926E+04  0.14203332338E+04  0.60008260554E+03 0.  0.
         23    2    4    4    0    0  0.83280838615E+02 -0.10700327735E+03  0.76566776984E+03  0.78425246210E+03  0.10207541865E+03 0.  0.
         23    2    4    4    0    0  0.38124002148E+03  0.26652593613E+03  0.42429872275E+03  0.63608077172E+03  0.90494825361E+02 0.  0.
          3    1    3    3  502    0 -0.15932225139E+03 -0.66759563339E+02 -0.75704796234E+02  0.18860444125E+03  0.00000000000E+00 0. -1.
         -3    1    3    3    0  502 -0.30519860871E+03 -0.92763095436E+02 -0.28293203700E+03  0.42638212930E+03  0.00000000000E+00 0.  1.
         11    1    5    5    0    0  0.10716618677E+03 -0.93011126676E+02  0.62858756329E+03  0.64440514120E+03  0.00000000000E+00 0.  1.
        -11    1    5    5    0    0 -0.23885348154E+02 -0.13992150677E+02  0.13708020655E+03  0.13984732091E+03  0.00000000000E+00 0. -1.
          3    1    6    6  503    0  0.14042785100E+03  0.11297717139E+03  0.22270552128E+03  0.28649881640E+03  0.00000000000E+00 0. -1.
         -3    1    6    6    0  503  0.24081217048E+03  0.15354876474E+03  0.20159320147E+03  0.34958195532E+03  0.00000000000E+00 0.  1.
<mgrwt>
<rscale>  0 0.56357193E+03</rscale>
<asrwt>0</asrwt>
<pdfrwt beam="1">  1        1 0.92614627E-01 0.56357193E+03</pdfrwt>
<pdfrwt beam="2">  1       -1 0.22051150E+00 0.56357193E+03</pdfrwt>
<totfact> 0.39965710E+00</totfact>
</mgrwt>
</event>
<event>
12    1  0.1418317E-007  0.8428089E+03  0.7818608E-02  0.9500040E-01
          2   -1    0    0  501    0  0.00000000000E+00  0.00000000000E+00  0.18016681866E+04  0.18016681866E+04  0.00000000000E+00 0. -1.
         -2   -1    0    0    0  501 -0.00000000000E+00 -0.00000000000E+00 -0.47334969187E+03  0.47334969187E+03  0.00000000000E+00 0.  1.
         23    2    1    2    0    0  0.45726955998E+03 -0.64028519501E+03  0.89388523683E+03  0.11943771789E+04  0.91899115201E+02 0.  0.
    5000000    2    1    2    0    0 -0.45726955998E+03  0.64028519501E+03  0.43443325788E+03  0.10806406996E+04  0.59999290380E+03 0.  0.
         23    2    4    4    0    0 -0.22883225343E+03  0.24567825284E+02  0.32248863091E+03  0.40707730040E+03  0.93515951509E+02 0.  0.
         23    2    4    4    0    0 -0.22843730654E+03  0.61571736973E+03  0.11194462697E+03  0.67356339918E+03  0.99320545711E+02 0.  0.
          4    1    3    3  502    0  0.59507754903E+02 -0.10451558830E+03  0.18660177542E+03  0.22200203531E+03  0.00000000000E+00 0.  1.
         -4    1    3    3    0  502  0.39776180507E+03 -0.53576960671E+03  0.70728346140E+03  0.97237514356E+03  0.00000000000E+00 0. -1.
         11    1    5    5    0    0 -0.14222691686E+03 -0.19923516301E+02  0.14178874937E+03  0.20181548957E+03  0.00000000000E+00 0. -1.
        -11    1    5    5    0    0 -0.86605336572E+02  0.44491341585E+02  0.18069988154E+03  0.20526181083E+03  0.00000000000E+00 0.  1.
          3    1    6    6  503    0 -0.91587257058E+02  0.27790267812E+03  0.98832458809E+02  0.30884620619E+03  0.00000000000E+00 0. -1.
         -3    1    6    6    0  503 -0.13685004949E+03  0.33781469160E+03  0.13112168162E+02  0.36471719299E+03  0.00000000000E+00 0.  1.
<mgrwt>
<rscale>  0 0.84280889E+03</rscale>
<asrwt>0</asrwt>
<pdfrwt beam="1">  1        2 0.27717972E+00 0.84280889E+03</pdfrwt>
<pdfrwt beam="2">  1       -2 0.72823030E-01 0.84280889E+03</pdfrwt>
<totfact> 0.14939217E+01</totfact>
</mgrwt>
</event>
<event>
12    1  0.1418317E-007  0.1978010E+04  0.7818608E-02  0.8616971E-01
         -2   -1    0    0    0  501 -0.00000000000E+00  0.00000000000E+00  0.14975809450E+04  0.14975809450E+04  0.00000000000E+00 0.  1.
          2   -1    0    0  501    0  0.00000000000E+00 -0.00000000000E+00 -0.35336640454E+04  0.35336640454E+04  0.00000000000E+00 0. -1.
         23    2    1    2    0    0 -0.13823900599E+04  0.13528790392E+04  0.27783004076E+03  0.19562628991E+04  0.92146763432E+02 0.  0.
    5000000    2    1    2    0    0  0.13823900599E+04 -0.13528790392E+04 -0.23139131411E+04  0.30749820914E+04  0.60003072003E+03 0.  0.
         23    2    4    4    0    0  0.65383550758E+03 -0.26229928855E+03 -0.79436952318E+03  0.10656327167E+04  0.90820480596E+02 0.  0.
         23    2    4    4    0    0  0.72855455236E+03 -0.10905797507E+04 -0.15195436179E+04  0.20093493747E+04  0.91193061634E+02 0.  0.
          2    1    3    3  502    0 -0.42687280630E+03  0.39347977979E+03  0.44577013076E+02  0.58226612469E+03  0.00000000000E+00 0. -1.
         -2    1    3    3    0  502 -0.95551725365E+03  0.95939925945E+03  0.23325302768E+03  0.13739967744E+04  0.00000000000E+00 0.  1.
         13    1    5    5    0    0  0.16734841586E+03 -0.10754489885E+03 -0.19930585693E+03  0.28159229777E+03  0.00000000000E+00 0. -1.
        -13    1    5    5    0    0  0.48648709173E+03 -0.15475438970E+03 -0.59506366624E+03  0.78404041888E+03  0.00000000000E+00 0.  1.
          3    1    6    6  503    0  0.47145064095E+03 -0.67658366454E+03 -0.89164695468E+03  0.12145227267E+04  0.00000000000E+00 0. -1.
         -3    1    6    6    0  503  0.25710391141E+03 -0.41399608615E+03 -0.62789666327E+03  0.79482664799E+03  0.00000000000E+00 0.  1.
<mgrwt>
<rscale>  0 0.19780095E+04</rscale>
<asrwt>0</asrwt>
<pdfrwt beam="1">  1        2 0.54364062E+00 0.19780095E+04</pdfrwt>
<pdfrwt beam="2">  1       -2 0.23039707E+00 0.19780095E+04</pdfrwt>
<totfact> 0.58403159E-02</totfact>
</mgrwt>
</event>
<event>
12    1  0.1418317E-007  0.2020673E+04  0.7818608E-02  0.8597016E-01
         -2   -1    0    0    0  501 -0.00000000000E+00  0.00000000000E+00  0.48736578982E+04  0.48736578982E+04  0.00000000000E+00 0.  1.
          2   -1    0    0  501    0  0.00000000000E+00 -0.00000000000E+00 -0.38051253564E+04  0.38051253564E+04  0.00000000000E+00 0. -1.
         23    2    1    2    0    0 -0.35405718380E+03  0.19558392289E+04  0.43569684468E+04  0.47897767530E+04  0.90131674988E+02 0.  0.
    5000000    2    1    2    0    0  0.35405718380E+03 -0.19558392289E+04 -0.32884359050E+04  0.38890065016E+04  0.59991440189E+03 0.  0.
         23    2    4    4    0    0  0.12602928248E+03 -0.16768440206E+04 -0.24624645884E+04  0.29832771186E+04  0.92310711868E+02 0.  0.
         23    2    4    4    0    0  0.22802790133E+03 -0.27899520831E+03 -0.82597131659E+03  0.90572938305E+03  0.91005766031E+02 0.  0.
          3    1    3    3  502    0 -0.18981308464E+03  0.11718261011E+04  0.26932272271E+04  0.29432428230E+04  0.00000000000E+00 0. -1.
         -3    1    3    3    0  502 -0.16424409916E+03  0.78401312784E+03  0.16637412197E+04  0.18465339301E+04  0.00000000000E+00 0.  1.
         13    1    5    5    0    0  0.79549070303E+01 -0.16670604206E+03 -0.29561849827E+03  0.33947677612E+03  0.00000000000E+00 0. -1.
        -13    1    5    5    0    0  0.11807437545E+03 -0.15101379785E+04 -0.21668460901E+04  0.26438003425E+04  0.00000000000E+00 0.  1.
          3    1    6    6  503    0  0.63831856309E+02 -0.23814926888E+02 -0.15829447949E+03  0.17233339450E+03  0.00000000000E+00 0. -1.
         -3    1    6    6    0  503  0.16419604502E+03 -0.25518028142E+03 -0.66767683710E+03  0.73339598856E+03  0.00000000000E+00 0.  1.
<mgrwt>
<rscale>  0 0.20206733E+04</rscale>
<asrwt>0</asrwt>
<pdfrwt beam="1">  1        2 0.58540390E+00 0.20206733E+04</pdfrwt>
<pdfrwt beam="2">  1       -2 0.74979353E+00 0.20206733E+04</pdfrwt>
<totfact> 0.60803507E-05</totfact>
</mgrwt>
</event>
<event>
12    1  0.1418317E-007  0.6835098E+03  0.7818608E-02  0.9745856E-01
          1   -1    0    0  501    0  0.00000000000E+00  0.00000000000E+00  0.50065037220E+03  0.50065037220E+03  0.00000000000E+00 0. -1.
         -1   -1    0    0    0  501 -0.00000000000E+00 -0.00000000000E+00 -0.15534751875E+04  0.15534751875E+04  0.00000000000E+00 0.  1.
         23    2    1    2    0    0 -0.48161745828E+03  0.28239287300E+03 -0.10960092932E+04  0.12333831906E+04  0.91085747056E+02 0.  0.
    5000000    2    1    2    0    0  0.48161745828E+03 -0.28239287300E+03  0.43184477859E+02  0.82074236911E+03  0.60004335383E+03 0.  0.
         23    2    4    4    0    0  0.97362678538E+02 -0.38613759965E+03 -0.58236025974E+01  0.40937854877E+03  0.94737240886E+02 0.  0.
         23    2    4    4    0    0  0.38425477974E+03  0.10374472665E+03  0.49008080456E+02  0.41136382034E+03  0.91671678673E+02 0.  0.
          4    1    3    3  502    0 -0.12935851291E+03  0.89867644186E+02 -0.40011435536E+03  0.43000152988E+03  0.00000000000E+00 0. -1.
         -4    1    3    3    0  502 -0.35225894537E+03  0.19252522882E+03 -0.69589493779E+03  0.80338166071E+03  0.00000000000E+00 0.  1.
         11    1    5    5    0    0  0.91807085931E+02 -0.17218674791E+03  0.33080703579E+01  0.19516085805E+03  0.00000000000E+00 0.  1.
        -11    1    5    5    0    0  0.55555926070E+01 -0.21395085174E+03 -0.91316729553E+01  0.21421769072E+03  0.00000000000E+00 0. -1.
          4    1    6    6  503    0  0.23274578814E+03  0.49220234815E+02 -0.14350256917E+02  0.23832575037E+03  0.00000000000E+00 0.  1.
         -4    1    6    6    0  503  0.15150899160E+03  0.54524491830E+02  0.63358337373E+02  0.17303806997E+03  0.00000000000E+00 0. -1.
<mgrwt>
<rscale>  0 0.68350984E+03</rscale>
<asrwt>0</asrwt>
<pdfrwt beam="1">  1        1 0.77023137E-01 0.68350984E+03</pdfrwt>
<pdfrwt beam="2">  1       -1 0.23899618E+00 0.68350984E+03</pdfrwt>
<totfact> 0.38298172E+00</totfact>
</mgrwt>
</event>
<event>
12    1  0.1418317E-007  0.2274025E+04  0.7818608E-02  0.8488234E-01
         -2   -1    0    0    0  501 -0.00000000000E+00  0.00000000000E+00  0.35075382427E+04  0.35075382427E+04  0.00000000000E+00 0. -1.
          2   -1    0    0  501    0  0.00000000000E+00 -0.00000000000E+00 -0.16833959513E+04  0.16833959513E+04  0.00000000000E+00 0.  1.
         23    2    1    2    0    0  0.17617079408E+04  0.14079963660E+04  0.17500091168E+04  0.28560964398E+04  0.93200477405E+02 0.  0.
    5000000    2    1    2    0    0 -0.17617079408E+04 -0.14079963660E+04  0.74133174599E+02  0.23348377542E+04  0.59991914084E+03 0.  0.
         23    2    4    4    0    0 -0.10542072069E+04 -0.59098766451E+03 -0.16742951949E+03  0.12235579048E+04  0.91880616707E+02 0.  0.
         23    2    4    4    0    0 -0.70750073392E+03 -0.81700870145E+03  0.24156269409E+03  0.11112798494E+04  0.92357250712E+02 0.  0.
          1    1    3    3  502    0  0.86469263001E+03  0.69444474099E+03  0.91946830632E+03  0.14406140389E+04  0.00000000000E+00 0. -1.
         -1    1    3    3    0  502  0.89701531080E+03  0.71355162497E+03  0.83054081053E+03  0.14154824009E+04  0.00000000000E+00 0.  1.
         13    1    5    5    0    0 -0.76221983434E+03 -0.45208784193E+03 -0.15729244692E+03  0.90005744624E+03  0.00000000000E+00 0.  1.
        -13    1    5    5    0    0 -0.29198737254E+03 -0.13889982258E+03 -0.10137072566E+02  0.32350045854E+03  0.00000000000E+00 0. -1.
          3    1    6    6  503    0 -0.49631548349E+03 -0.52011042078E+03  0.18728941428E+03  0.74291401498E+03  0.00000000000E+00 0. -1.
         -3    1    6    6    0  503 -0.21118525044E+03 -0.29689828067E+03  0.54273279813E+02  0.36836583442E+03  0.00000000000E+00 0.  1.
<mgrwt>
<rscale>  0 0.22740251E+04</rscale>
<asrwt>0</asrwt>
<pdfrwt beam="1">  1        2 0.25898399E+00 0.22740251E+04</pdfrwt>
<pdfrwt beam="2">  1       -2 0.53962127E+00 0.22740251E+04</pdfrwt>
<totfact> 0.82660313E-03</totfact>
</mgrwt>
</event>
<event>
12    1  0.1679609E-007  0.9557455E+03  0.7818608E-02  0.9358460E-01
         -2   -1    0    0    0  501 -0.00000000000E+00  0.00000000000E+00  0.51667677829E+03  0.51667677829E+03  0.00000000000E+00 0.  1.
          2   -1    0    0  501    0  0.00000000000E+00 -0.00000000000E+00 -0.24142529195E+04  0.24142529195E+04  0.00000000000E+00 0. -1.
         23    2    1    2    0    0 -0.80329733082E+02 -0.91271218539E+03 -0.15127271248E+04  0.17700406272E+04  0.72139229029E+02 0.  0.
    5000000    2    1    2    0    0  0.80329733082E+02  0.91271218539E+03 -0.38484901641E+03  0.11608890706E+04  0.60004855595E+03 0.  0.
         23    2    4    4    0    0  0.23130353262E+03  0.53389028537E+03  0.61190606570E+01  0.58879963742E+03  0.90041152313E+02 0.  0.
         23    2    4    4    0    0 -0.15097379954E+03  0.37882190002E+03 -0.39096807706E+03  0.57208943320E+03  0.90172957240E+02 0.  0.
          1    1    3    3  502    0 -0.34243967310E+01 -0.41678864529E+03 -0.65970281880E+03  0.78034115006E+03  0.00000000000E+00 0. -1.
         -1    1    3    3    0  502 -0.76905336351E+02 -0.49592354010E+03 -0.85302430598E+03  0.98969947711E+03  0.00000000000E+00 0.  1.
         11    1    5    5    0    0  0.26514048153E+02  0.47099051052E+02  0.26700732849E+02  0.60284695355E+02  0.00000000000E+00 0. -1.
        -11    1    5    5    0    0  0.20478948447E+03  0.48679123432E+03 -0.20581672192E+02  0.52851494207E+03  0.00000000000E+00 0.  1.
          1    1    6    6  503    0 -0.12011035159E+03  0.23896877027E+03 -0.20296262686E+03  0.33574752065E+03  0.00000000000E+00 0. -1.
         -1    1    6    6    0  503 -0.30863447948E+02  0.13985312975E+03 -0.18800545021E+03  0.23634191255E+03  0.00000000000E+00 0.  1.
<mgrwt>
<rscale>  0 0.95574552E+03</rscale>
<asrwt>0</asrwt>
<pdfrwt beam="1">  1        2 0.37142352E+00 0.95574552E+03</pdfrwt>
<pdfrwt beam="2">  1       -2 0.79488736E-01 0.95574552E+03</pdfrwt>
<totfact> 0.55512487E+00</totfact>
</mgrwt>
</event>
<event>
12    1  0.1418317E-007  0.8884747E+03  0.7818608E-02  0.9440104E-01
         -2   -1    0    0    0  501 -0.00000000000E+00  0.00000000000E+00  0.39663151491E+03  0.39663151491E+03  0.00000000000E+00 0.  1.
          2   -1    0    0  501    0  0.00000000000E+00 -0.00000000000E+00 -0.24312631206E+04  0.24312631206E+04  0.00000000000E+00 0. -1.
         23    2    1    2    0    0 -0.80956900411E+03 -0.34957747249E+03 -0.10638633476E+04  0.13856863681E+04  0.10351379990E+03 0.  0.
    5000000    2    1    2    0    0  0.80956900411E+03  0.34957747249E+03 -0.97076825806E+03  0.14422082673E+04  0.59997274425E+03 0.  0.
         23    2    4    4    0    0  0.38317930225E+03  0.17926460954E+03 -0.86010499744E+03  0.96306560514E+03  0.93555199057E+02 0.  0.
         23    2    4    4    0    0  0.42638970186E+03  0.17031286295E+03 -0.11066326063E+03  0.47914266221E+03  0.80725983177E+02 0.  0.
          3    1    3    3  502    0 -0.62856592881E+03 -0.23016788587E+03 -0.83887014658E+03  0.10732080438E+04  0.00000000000E+00 0. -1.
         -3    1    3    3    0  502 -0.18100307530E+03 -0.11940958662E+03 -0.22499320104E+03  0.31247832431E+03  0.00000000000E+00 0.  1.
         11    1    5    5    0    0  0.12909248282E+03  0.21460962621E+02 -0.31894674081E+03  0.34474985934E+03  0.00000000000E+00 0. -1.
        -11    1    5    5    0    0  0.25408681944E+03  0.15780364692E+03 -0.54115825662E+03  0.61831574580E+03  0.00000000000E+00 0.  1.
          4    1    6    6  503    0  0.17152434572E+03  0.88975587529E+02 -0.10623113115E+02  0.19352030096E+03  0.00000000000E+00 0. -1.
         -4    1    6    6    0  503  0.25486535614E+03  0.81337275419E+02 -0.10004014751E+03  0.28562236125E+03  0.00000000000E+00 0.  1.
<mgrwt>
<rscale>  0 0.88847466E+03</rscale>
<asrwt>0</asrwt>
<pdfrwt beam="1">  1        2 0.37404048E+00 0.88847466E+03</pdfrwt>
<pdfrwt beam="2">  1       -2 0.61020233E-01 0.88847466E+03</pdfrwt>
<totfact> 0.97709975E+00</totfact>
</mgrwt>
</event>
<event>
12    1  0.1418317E-007  0.3867180E+03  0.7818608E-02  0.1048478E+00
          2   -1    0    0  501    0  0.00000000000E+00  0.00000000000E+00  0.19505416406E+04  0.19505416406E+04  0.00000000000E+00 0.  1.
         -2   -1    0    0    0  501 -0.00000000000E+00 -0.00000000000E+00 -0.21736289456E+03  0.21736289456E+03  0.00000000000E+00 0. -1.
         23    2    1    2    0    0 -0.17485287375E+03 -0.46078894670E+02  0.14767959902E+04  0.14906883360E+04  0.92350020949E+02 0.  0.
    5000000    2    1    2    0    0  0.17485287375E+03  0.46078894670E+02  0.25638275589E+03  0.67721619923E+03  0.60016070430E+03 0.  0.
         23    2    4    4    0    0  0.46006979435E+02  0.29553370391E+03  0.21407009203E+03  0.37911726278E+03  0.91908010146E+02 0.  0.
         23    2    4    4    0    0  0.12884589431E+03 -0.24945480924E+03  0.42312663859E+02  0.29809893645E+03  0.90794537573E+02 0.  0.
          4    1    3    3  502    0 -0.32971033440E+02  0.35966371331E+01  0.61394447435E+03  0.61483968839E+03  0.00000000000E+00 0.  1.
         -4    1    3    3    0  502 -0.14188184031E+03 -0.49675531803E+02  0.86285151583E+03  0.87584864757E+03  0.00000000000E+00 0. -1.
         11    1    5    5    0    0  0.59927874810E+02  0.22901006564E+03  0.19957488877E+03  0.30962412143E+03  0.00000000000E+00 0.  1.
        -11    1    5    5    0    0 -0.13920895374E+02  0.66523638273E+02  0.14495203265E+02  0.69493141351E+02  0.00000000000E+00 0. -1.
          3    1    6    6  503    0  0.97719839383E+02 -0.13506860737E+03 -0.13132782387E+02  0.16722788547E+03  0.00000000000E+00 0. -1.
         -3    1    6    6    0  503  0.31126054930E+02 -0.11438620187E+03  0.55445446247E+02  0.13087105098E+03  0.00000000000E+00 0.  1.
<mgrwt>
<rscale>  0 0.38671805E+03</rscale>
<asrwt>0</asrwt>
<pdfrwt beam="1">  1        2 0.30008332E+00 0.38671805E+03</pdfrwt>
<pdfrwt beam="2">  1       -2 0.33440447E-01 0.38671805E+03</pdfrwt>
<totfact> 0.64733944E+01</totfact>
</mgrwt>
</event>
<event>
12    1  0.1418317E-007  0.4685533E+03  0.7818608E-02  0.1022329E+00
          2   -1    0    0  501    0  0.00000000000E+00  0.00000000000E+00  0.82174879037E+03  0.82174879037E+03  0.00000000000E+00 0. -1.
         -2   -1    0    0    0  501 -0.00000000000E+00 -0.00000000000E+00 -0.29084594375E+03  0.29084594375E+03  0.00000000000E+00 0.  1.
         23    2    1    2    0    0  0.35847212662E+02 -0.29012865863E+03  0.18977265309E+03  0.36301867762E+03  0.10153442384E+03 0.  0.
    5000000    2    1    2    0    0 -0.35847212662E+02  0.29012865863E+03  0.34113019352E+03  0.74957605650E+03  0.60002899458E+03 0.  0.
         23    2    4    4    0    0 -0.26763142061E+03  0.45784704640E+02  0.26770261599E+03  0.39210849057E+03  0.91441573124E+02 0.  0.
         23    2    4    4    0    0  0.23178420795E+03  0.24434395399E+03  0.73427577538E+02  0.35746756593E+03  0.94676103860E+02 0.  0.
          1    1    3    3  502    0 -0.29402685022E+02 -0.67830992754E+02  0.71709481553E+02  0.10299422901E+03  0.00000000000E+00 0. -1.
         -1    1    3    3    0  502  0.65249897684E+02 -0.22229766588E+03  0.11806317154E+03  0.26002444861E+03  0.00000000000E+00 0.  1.
         11    1    5    5    0    0 -0.22158610048E+03  0.70014776659E+02  0.23585388531E+03  0.33110349453E+03  0.00000000000E+00 0. -1.
        -11    1    5    5    0    0 -0.46045320132E+02 -0.24230072019E+02  0.31848730680E+02  0.61004996041E+02  0.00000000000E+00 0.  1.
          3    1    6    6  503    0  0.12298734220E+02  0.57623862218E+02 -0.40785313387E+01  0.59062702091E+02  0.00000000000E+00 0. -1.
         -3    1    6    6    0  503  0.21948547373E+03  0.18672009177E+03  0.77506108877E+02  0.29840486384E+03  0.00000000000E+00 0.  1.
<mgrwt>
<rscale>  0 0.46855328E+03</rscale>
<asrwt>0</asrwt>
<pdfrwt beam="1">  1        2 0.12642289E+00 0.46855328E+03</pdfrwt>
<pdfrwt beam="2">  1       -2 0.44745530E-01 0.46855328E+03</pdfrwt>
<totfact> 0.16228133E+02</totfact>
</mgrwt>
</event>
<event>
12    1  0.1418317E-007  0.4324495E+03  0.7818608E-02  0.1033089E+00
         -1   -1    0    0    0  501 -0.00000000000E+00  0.00000000000E+00  0.39793128928E+03  0.39793128928E+03  0.00000000000E+00 0.  1.
          1   -1    0    0  501    0  0.00000000000E+00 -0.00000000000E+00 -0.51679106917E+03  0.51679106917E+03  0.00000000000E+00 0. -1.
         23    2    1    2    0    0 -0.23481794406E+03  0.50077945828E+02 -0.75380744312E+02  0.26698731498E+03  0.89177924607E+02 0.  0.
    5000000    2    1    2    0    0  0.23481794406E+03 -0.50077945828E+02 -0.43479035570E+02  0.64773504347E+03  0.60001916010E+03 0.  0.
         23    2    4    4    0    0  0.51563270640E+02 -0.29946889909E+03  0.11400090476E+02  0.31921047909E+03  0.97082312991E+02 0.  0.
         23    2    4    4    0    0  0.18325467342E+03  0.24939095326E+03 -0.54879126046E+02  0.32852456438E+03  0.95595753173E+02 0.  0.
          1    1    3    3  502    0 -0.22926530852E+03  0.59631048897E+02 -0.54075001195E+02  0.24298672688E+03  0.00000000000E+00 0. -1.
         -1    1    3    3    0  502 -0.55526355407E+01 -0.95531030688E+01 -0.21305743117E+02  0.24000588107E+02  0.00000000000E+00 0.  1.
         11    1    5    5    0    0  0.89048826990E+01 -0.49094238315E+02  0.39554849883E+02  0.63672029345E+02  0.00000000000E+00 0. -1.
        -11    1    5    5    0    0  0.42658387941E+02 -0.25037466077E+03 -0.28154759408E+02  0.25553844974E+03  0.00000000000E+00 0.  1.
          4    1    6    6  503    0  0.16405638672E+03  0.19190861443E+03 -0.92143887411E+01  0.25264267113E+03  0.00000000000E+00 0. -1.
         -4    1    6    6    0  503  0.19198286704E+02  0.57482338829E+02 -0.45664737305E+02  0.75881893247E+02  0.00000000000E+00 0.  1.
<mgrwt>
<rscale>  0 0.43244953E+03</rscale>
<asrwt>0</asrwt>
<pdfrwt beam="1">  1        1 0.79506318E-01 0.43244953E+03</pdfrwt>
<pdfrwt beam="2">  1       -1 0.61220198E-01 0.43244953E+03</pdfrwt>
<totfact> 0.11955936E+02</totfact>
</mgrwt>
</event>
<event>
12    1  0.1418317E-007  0.1164536E+04  0.7818608E-02  0.9144478E-01
         -1   -1    0    0    0  501 -0.00000000000E+00  0.00000000000E+00  0.16041813156E+04  0.16041813156E+04  0.00000000000E+00 0.  1.
          1   -1    0    0  501    0  0.00000000000E+00 -0.00000000000E+00 -0.32611945569E+04  0.32611945569E+04  0.00000000000E+00 0. -1.
         23    2    1    2    0    0 -0.10357481448E+04  0.40572163112E+03 -0.28909878934E+04  0.30989017566E+04  0.89425028090E+02 0.  0.
    5000000    2    1    2    0    0  0.10357481448E+04 -0.40572163112E+03  0.12339746522E+04  0.17664741159E+04  0.60029417674E+03 0.  0.
         23    2    4    4    0    0 -0.49848698544E+02 -0.49673470380E+02  0.14311308753E+03  0.18419958644E+03  0.92172584944E+02 0.  0.
         23    2    4    4    0    0  0.10855968433E+04 -0.35604816074E+03  0.10908615647E+04  0.15822745295E+04  0.91230118001E+02 0.  0.
          3    1    3    3  502    0 -0.52337389106E+03  0.22856103283E+03 -0.13747595939E+04  0.14886652802E+04  0.00000000000E+00 0. -1.
         -3    1    3    3    0  502 -0.51237425370E+03  0.17716059829E+03 -0.15162282996E+04  0.16102364764E+04  0.00000000000E+00 0.  1.
         11    1    5    5    0    0 -0.18943692818E+02 -0.11937712822E+02  0.13237510653E+03  0.13425550758E+03  0.00000000000E+00 0. -1.
        -11    1    5    5    0    0 -0.30905005726E+02 -0.37735757558E+02  0.10737980998E+02  0.49944078862E+02  0.00000000000E+00 0.  1.
          4    1    6    6  503    0  0.34607124607E+03 -0.79230479427E+02  0.37590992643E+03  0.51706000523E+03  0.00000000000E+00 0. -1.
         -4    1    6    6    0  503  0.73952559724E+03 -0.27681768131E+03  0.71495163824E+03  0.10652145243E+04  0.00000000000E+00 0.  1.
<mgrwt>
<rscale>  0 0.11645357E+04</rscale>
<asrwt>0</asrwt>
<pdfrwt beam="1">  1        1 0.50172224E+00 0.11645357E+04</pdfrwt>
<pdfrwt beam="2">  1       -1 0.24679712E+00 0.11645357E+04</pdfrwt>
<totfact> 0.28061912E-02</totfact>
</mgrwt>
</event>
<event>
12    1  0.1418317E-007  0.1178414E+04  0.7818608E-02  0.9131963E-01
         -1   -1    0    0    0  501 -0.00000000000E+00  0.00000000000E+00  0.45681912059E+03  0.45681912059E+03  0.00000000000E+00 0.  1.
          1   -1    0    0  501    0  0.00000000000E+00 -0.00000000000E+00 -0.33345396328E+04  0.33345396328E+04  0.00000000000E+00 0. -1.
         23    2    1    2    0    0 -0.48947289647E+03 -0.10025222322E+04 -0.18405620586E+04  0.21542368616E+04  0.91832576518E+02 0.  0.
    5000000    2    1    2    0    0  0.48947289647E+03  0.10025222322E+04 -0.10371584537E+04  0.16371218918E+04  0.59986322445E+03 0.  0.
         23    2    4    4    0    0  0.13648615164E+03  0.82443248489E+03 -0.55765901359E+03  0.10088787151E+04  0.92386658080E+02 0.  0.
         23    2    4    4    0    0  0.35298674483E+03  0.17808974734E+03 -0.47949944012E+03  0.62824317671E+03  0.91946592579E+02 0.  0.
          2    1    3    3  502    0 -0.60760038113E+02 -0.94497579195E+02 -0.23599133154E+03  0.26136848178E+03  0.00000000000E+00 0. -1.
         -2    1    3    3    0  502 -0.42871285835E+03 -0.90802465303E+03 -0.16045707270E+04  0.18928683798E+04  0.00000000000E+00 0.  1.
         13    1    5    5    0    0  0.67816218635E+02  0.64288746564E+03 -0.43791728421E+03  0.78081680361E+03  0.00000000000E+00 0.  1.
        -13    1    5    5    0    0  0.68669933007E+02  0.18154501925E+03 -0.11974172937E+03  0.22806191148E+03  0.00000000000E+00 0. -1.
          1    1    6    6  503    0  0.10993363842E+03  0.87114592520E+02 -0.11838440337E+03  0.18354624498E+03  0.00000000000E+00 0. -1.
         -1    1    6    6    0  503  0.24305310641E+03  0.90975154816E+02 -0.36111503674E+03  0.44469693173E+03  0.00000000000E+00 0.  1.
<mgrwt>
<rscale>  0 0.11784141E+04</rscale>
<asrwt>0</asrwt>
<pdfrwt beam="1">  1        1 0.51300610E+00 0.11784141E+04</pdfrwt>
<pdfrwt beam="2">  1       -1 0.70279865E-01 0.11784141E+04</pdfrwt>
<totfact> 0.69262123E-01</totfact>
</mgrwt>
</event>
<event>
12    1  0.1418317E-007  0.3640450E+03  0.7818608E-02  0.1056994E+00
         -2   -1    0    0    0  501 -0.00000000000E+00  0.00000000000E+00  0.37967710402E+03  0.37967710402E+03  0.00000000000E+00 0.  1.
          2   -1    0    0  501    0  0.00000000000E+00 -0.00000000000E+00 -0.65875918566E+03  0.65875918566E+03  0.00000000000E+00 0. -1.
         23    2    1    2    0    0 -0.14561196985E+03  0.27361254883E+02 -0.37170481266E+03  0.41351502401E+03  0.10430111836E+03 0.  0.
    5000000    2    1    2    0    0  0.14561196985E+03 -0.27361254883E+02  0.92622731028E+02  0.62492126567E+03  0.59999677828E+03 0.  0.
         23    2    4    4    0    0  0.22764798445E+03  0.21767336225E+03 -0.21377471009E+02  0.32855476413E+03  0.91027134999E+02 0.  0.
         23    2    4    4    0    0 -0.82036014598E+02 -0.24503461713E+03  0.11400020204E+03  0.29636650154E+03  0.89806379998E+02 0.  0.
          3    1    3    3  502    0 -0.13304785932E+03  0.26255001036E+02 -0.37637806344E+03  0.40006437555E+03  0.00000000000E+00 0. -1.
         -3    1    3    3    0  502 -0.12564110537E+02  0.11062538474E+01  0.46732507750E+01  0.13450648459E+02  0.00000000000E+00 0.  1.
         13    1    5    5    0    0  0.58327980093E+02  0.92372795410E+02 -0.41702376876E+02  0.11693577225E+03  0.00000000000E+00 0. -1.
        -13    1    5    5    0    0  0.16932000436E+03  0.12530056684E+03  0.20324905868E+02  0.21161899188E+03  0.00000000000E+00 0.  1.
          2    1    6    6  503    0 -0.63298611472E+02 -0.14518592893E+03  0.23130186962E+02  0.16006459234E+03  0.00000000000E+00 0. -1.
         -2    1    6    6    0  503 -0.18737403126E+02 -0.99848688202E+02  0.90870015074E+02  0.13630190920E+03  0.00000000000E+00 0.  1.
<mgrwt>
<rscale>  0 0.36404504E+03</rscale>
<asrwt>0</asrwt>
<pdfrwt beam="1">  1        2 0.10134757E+00 0.36404504E+03</pdfrwt>
<pdfrwt beam="2">  1       -2 0.58411863E-01 0.36404504E+03</pdfrwt>
<totfact> 0.12624513E+02</totfact>
</mgrwt>
</event>
<event>
12    1  0.1418317E-007  0.8707297E+03  0.7818608E-02  0.9462929E-01
          2   -1    0    0  501    0  0.00000000000E+00  0.00000000000E+00  0.23370734661E+04  0.23370734661E+04  0.00000000000E+00 0. -1.
         -2   -1    0    0    0  501 -0.00000000000E+00 -0.00000000000E+00 -0.41439114479E+03  0.41439114479E+03  0.00000000000E+00 0.  1.
         23    2    1    2    0    0 -0.18554840217E+03 -0.83493642231E+03  0.12182205344E+04  0.14913873293E+04  0.92886256461E+02 0.  0.
    5000000    2    1    2    0    0  0.18554840217E+03  0.83493642231E+03  0.70446178689E+03  0.12600772816E+04  0.59998442274E+03 0.  0.
         23    2    4    4    0    0 -0.97629773017E+01  0.15301666052E+03 -0.81372892055E+02  0.19750274504E+03  0.94214503204E+02 0.  0.
         23    2    4    4    0    0  0.19531137947E+03  0.68191976179E+03  0.78583467895E+03  0.10625745365E+04  0.91473529538E+02 0.  0.
          1    1    3    3  502    0 -0.87545012066E+02 -0.52993018307E+03  0.70329668585E+03  0.88493861730E+03  0.00000000000E+00 0. -1.
         -1    1    3    3    0  502 -0.98003390105E+02 -0.30500623925E+03  0.51492384855E+03  0.60644871198E+03  0.00000000000E+00 0.  1.
         13    1    5    5    0    0 -0.42426536045E+02  0.11329133584E+03 -0.29634859564E+02  0.12455184719E+03  0.00000000000E+00 0.  1.
        -13    1    5    5    0    0  0.32663558743E+02  0.39725324679E+02 -0.51738032491E+02  0.72950897847E+02  0.00000000000E+00 0. -1.
          4    1    6    6  503    0  0.12509323931E+03  0.33433126370E+03  0.44769982059E+03  0.57259133923E+03  0.00000000000E+00 0. -1.
         -4    1    6    6    0  503  0.70218140160E+02  0.34758849809E+03  0.33813485836E+03  0.48998319731E+03  0.00000000000E+00 0.  1.
<mgrwt>
<rscale>  0 0.87072974E+03</rscale>
<asrwt>0</asrwt>
<pdfrwt beam="1">  1        2 0.35954976E+00 0.87072974E+03</pdfrwt>
<pdfrwt beam="2">  1       -2 0.63752485E-01 0.87072974E+03</pdfrwt>
<totfact> 0.10078339E+01</totfact>
</mgrwt>
</event>
<event>
12    1  0.1418317E-007  0.2201600E+04  0.7818608E-02  0.8517762E-01
          1   -1    0    0  501    0  0.00000000000E+00  0.00000000000E+00  0.24817574828E+04  0.24817574828E+04  0.00000000000E+00 0. -1.
         -1   -1    0    0    0  501 -0.00000000000E+00 -0.00000000000E+00 -0.22286451479E+04  0.22286451479E+04  0.00000000000E+00 0.  1.
         23    2    1    2    0    0 -0.20646068229E+04 -0.67693187648E+03  0.91799177251E+03  0.23603380565E+04  0.87457121900E+02 0.  0.
    5000000    2    1    2    0    0  0.20646068229E+04  0.67693187648E+03 -0.66487943763E+03  0.23500645742E+04  0.59991727595E+03 0.  0.
         23    2    4    4    0    0  0.13319253191E+04  0.19016932099E+03 -0.24282578700E+03  0.13701726312E+04  0.90660080124E+02 0.  0.
         23    2    4    4    0    0  0.73268150378E+03  0.48676255549E+03 -0.42205365064E+03  0.97989194304E+03  0.91098653190E+02 0.  0.
          2    1    3    3  502    0 -0.60224497538E+03 -0.22850627715E+03  0.30138581166E+03  0.71115929056E+03  0.00000000000E+00 0. -1.
         -2    1    3    3    0  502 -0.14623618475E+04 -0.44842559933E+03  0.61660596084E+03  0.16491787659E+04  0.00000000000E+00 0.  1.
         13    1    5    5    0    0  0.63874012517E+03  0.87861938083E+02 -0.70490649039E+02  0.64859663835E+03  0.00000000000E+00 0. -1.
        -13    1    5    5    0    0  0.69318519390E+03  0.10230738290E+03 -0.17233513796E+03  0.72157599282E+03  0.00000000000E+00 0.  1.
          4    1    6    6  503    0  0.37521149658E+02  0.51998323433E+02 -0.37352733593E+02  0.74208416089E+02  0.00000000000E+00 0. -1.
         -4    1    6    6    0  503  0.69516035412E+03  0.43476423206E+03 -0.38470091704E+03  0.90568352695E+03  0.00000000000E+00 0.  1.
<mgrwt>
<rscale>  0 0.22016000E+04</rscale>
<asrwt>0</asrwt>
<pdfrwt beam="1">  1        1 0.38180884E+00 0.22016000E+04</pdfrwt>
<pdfrwt beam="2">  1       -1 0.34286849E+00 0.22016000E+04</pdfrwt>
<totfact> 0.20957016E-02</totfact>
</mgrwt>
</event>
<event>
12    1  0.1418317E-007  0.1259097E+04  0.7818608E-02  0.9062646E-01
          1   -1    0    0  501    0  0.00000000000E+00  0.00000000000E+00  0.13816933190E+04  0.13816933190E+04  0.00000000000E+00 0. -1.
         -1   -1    0    0    0  501 -0.00000000000E+00 -0.00000000000E+00 -0.14501266343E+04  0.14501266343E+04  0.00000000000E+00 0.  1.
         23    2    1    2    0    0 -0.11146711598E+04  0.44416565745E+03 -0.65235539719E+03  0.13688180011E+04  0.91215296601E+02 0.  0.
    5000000    2    1    2    0    0  0.11146711598E+04 -0.44416565745E+03  0.58392208192E+03  0.14630019522E+04  0.59969558011E+03 0.  0.
         23    2    4    4    0    0  0.38475776911E+03  0.96960840893E+02  0.66069657069E+02  0.41336959280E+03  0.95232741775E+02 0.  0.
         23    2    4    4    0    0  0.72991339066E+03 -0.54112649834E+03  0.51785242485E+03  0.10496323594E+04  0.89249711405E+02 0.  0.
          1    1    3    3  502    0 -0.39742201124E+03  0.11926673438E+03 -0.25224571338E+03  0.48558903289E+03  0.00000000000E+00 0. -1.
         -1    1    3    3    0  502 -0.71724914853E+03  0.32489892307E+03 -0.40010968381E+03  0.88322896825E+03  0.00000000000E+00 0.  1.
         11    1    5    5    0    0  0.24792082923E+03  0.16486129984E+02  0.53216422270E+02  0.25410336017E+03  0.00000000000E+00 0.  1.
        -11    1    5    5    0    0  0.13683693988E+03  0.80474710909E+02  0.12853234799E+02  0.15926623263E+03  0.00000000000E+00 0. -1.
          3    1    6    6  503    0  0.32334734595E+03 -0.23589869511E+03  0.27922459022E+03  0.48802466359E+03  0.00000000000E+00 0. -1.
         -3    1    6    6    0  503  0.40656604471E+03 -0.30522780324E+03  0.23862783463E+03  0.56160769585E+03  0.00000000000E+00 0.  1.
<mgrwt>
<rscale>  0 0.12590967E+04</rscale>
<asrwt>0</asrwt>
<pdfrwt beam="1">  1        1 0.21256820E+00 0.12590967E+04</pdfrwt>
<pdfrwt beam="2">  1       -1 0.22309641E+00 0.12590967E+04</pdfrwt>
<totfact> 0.80789941E-01</totfact>
</mgrwt>
</event>
<event>
12    1  0.1418317E-007  0.7670975E+03  0.7818608E-02  0.9608902E-01
         -1   -1    0    0    0  501 -0.00000000000E+00  0.00000000000E+00  0.87436586712E+03  0.87436586712E+03  0.00000000000E+00 0.  1.
          1   -1    0    0  501    0  0.00000000000E+00 -0.00000000000E+00 -0.91158068584E+03  0.91158068584E+03  0.00000000000E+00 0. -1.
         23    2    1    2    0    0  0.49167351800E+03  0.52362940558E+03 -0.34397679190E+03  0.80133092832E+03  0.88772859781E+02 0.  0.
    5000000    2    1    2    0    0 -0.49167351800E+03 -0.52362940558E+03  0.30676197318E+03  0.98461562464E+03  0.59952849591E+03 0.  0.
         23    2    4    4    0    0 -0.42799468918E+03 -0.19100015786E+03 -0.54173010472E+02  0.48144193729E+03  0.95870275123E+02 0.  0.
         23    2    4    4    0    0 -0.63678828826E+02 -0.33262924772E+03  0.36093498365E+03  0.50317368735E+03  0.90622776052E+02 0.  0.
          4    1    3    3  502    0  0.27471238940E+03  0.31648203010E+03 -0.15515249522E+03  0.44687813667E+03  0.00000000000E+00 0. -1.
         -4    1    3    3    0  502  0.21696112860E+03  0.20714737548E+03 -0.18882429667E+03  0.35445279165E+03  0.00000000000E+00 0.  1.
         11    1    5    5    0    0 -0.21245308027E+03 -0.53452028945E+02  0.44412179965E+01  0.21911904329E+03  0.00000000000E+00 0.  1.
        -11    1    5    5    0    0 -0.21554160891E+03 -0.13754812892E+03 -0.58614228469E+02  0.26232289400E+03  0.00000000000E+00 0. -1.
          3    1    6    6  503    0 -0.37312223354E+01 -0.10260648970E+03  0.57372258584E+02  0.11761628205E+03  0.00000000000E+00 0. -1.
         -3    1    6    6    0  503 -0.59947606490E+02 -0.23002275802E+03  0.30356272507E+03  0.38555740530E+03  0.00000000000E+00 0.  1.
<mgrwt>
<rscale>  0 0.76709748E+03</rscale>
<asrwt>0</asrwt>
<pdfrwt beam="1">  1        1 0.14024318E+00 0.76709748E+03</pdfrwt>
<pdfrwt beam="2">  1       -1 0.13451783E+00 0.76709748E+03</pdfrwt>
<totfact> 0.85275478E+00</totfact>
</mgrwt>
</event>
<event>
12    1  0.1418317E-007  0.1380241E+04  0.7818608E-02  0.8968246E-01
         -1   -1    0    0    0  501 -0.00000000000E+00  0.00000000000E+00  0.17263952161E+04  0.17263952161E+04  0.00000000000E+00 0.  1.
          1   -1    0    0  501    0  0.00000000000E+00 -0.00000000000E+00 -0.11709415403E+04  0.11709415403E+04  0.00000000000E+00 0. -1.
         23    2    1    2    0    0 -0.10706042519E+04  0.80673362819E+03  0.51775582665E+02  0.13447829000E+04  0.93529279835E+02 0.  0.
    5000000    2    1    2    0    0  0.10706042519E+04 -0.80673362819E+03  0.50367809310E+03  0.15525538565E+04  0.59976599170E+03 0.  0.
         23    2    4    4    0    0  0.10340022332E+04 -0.58235867478E+03  0.53629640817E+03  0.13056214552E+04  0.93441439226E+02 0.  0.
         23    2    4    4    0    0  0.36602018649E+02 -0.22437495340E+03 -0.32618315070E+02  0.24693240123E+03  0.90707380159E+02 0.  0.
          4    1    3    3  502    0 -0.51645641692E+03  0.33184686459E+03  0.14988524900E+02  0.61406370028E+03  0.00000000000E+00 0. -1.
         -4    1    3    3    0  502 -0.55414783494E+03  0.47488676360E+03  0.36787057765E+02  0.73071919971E+03  0.00000000000E+00 0.  1.
         13    1    5    5    0    0  0.72785041518E+03 -0.38973806289E+03  0.32932226669E+03  0.88888421061E+03  0.00000000000E+00 0.  1.
        -13    1    5    5    0    0  0.30615181804E+03 -0.19262061189E+03  0.20697414148E+03  0.41673724462E+03  0.00000000000E+00 0. -1.
          2    1    6    6  503    0  0.41915563238E+02 -0.21016002599E+03 -0.37657743017E+01  0.21433229347E+03  0.00000000000E+00 0. -1.
         -2    1    6    6    0  503 -0.53135445893E+01 -0.14214927412E+02 -0.28852540769E+02  0.32600107764E+02  0.00000000000E+00 0.  1.
<mgrwt>
<rscale>  0 0.13802415E+04</rscale>
<asrwt>0</asrwt>
<pdfrwt beam="1">  1        1 0.18014485E+00 0.13802415E+04</pdfrwt>
<pdfrwt beam="2">  1       -1 0.26559926E+00 0.13802415E+04</pdfrwt>
<totfact> 0.59535908E-01</totfact>
</mgrwt>
</event>
<event>
12    1  0.1418317E-007  0.8440681E+03  0.7818608E-02  0.9498333E-01
         -2   -1    0    0    0  501 -0.00000000000E+00  0.00000000000E+00  0.19019728553E+04  0.19019728553E+04  0.00000000000E+00 0.  1.
          2   -1    0    0  501    0  0.00000000000E+00 -0.00000000000E+00 -0.70418577466E+03  0.70418577466E+03  0.00000000000E+00 0. -1.
         23    2    1    2    0    0 -0.40585974747E+03  0.70571805773E+03  0.13542547664E+04  0.15828235816E+04  0.92544079509E+02 0.  0.
    5000000    2    1    2    0    0  0.40585974747E+03 -0.70571805773E+03 -0.15646768570E+03  0.10233350484E+04  0.59997697700E+03 0.  0.
         23    2    4    4    0    0  0.51223082261E+01 -0.65415508252E+02  0.16296089677E+03  0.19837340494E+03  0.92142971237E+02 0.  0.
         23    2    4    4    0    0  0.40073743924E+03 -0.64030254948E+03 -0.31942858248E+03  0.82496164343E+03  0.89158531567E+02 0.  0.
          3    1    3    3  502    0 -0.22918125127E+03  0.30826914438E+03  0.61497142257E+03  0.72508190013E+03  0.00000000000E+00 0. -1.
         -3    1    3    3    0  502 -0.17667849620E+03  0.39744891335E+03  0.73928334382E+03  0.85774168151E+03  0.00000000000E+00 0.  1.
         13    1    5    5    0    0  0.48459519004E+02 -0.39387372792E+02  0.94545486609E+02  0.11330727759E+03  0.00000000000E+00 0. -1.
        -13    1    5    5    0    0 -0.43337210778E+02 -0.26028135460E+02  0.68415410165E+02  0.85066127345E+02  0.00000000000E+00 0.  1.
          4    1    6    6  503    0  0.33180782380E+03 -0.55183078562E+03 -0.23849111789E+03  0.68665250397E+03  0.00000000000E+00 0. -1.
         -4    1    6    6    0  503  0.68929615444E+02 -0.88471763858E+02 -0.80937464590E+02  0.13830913946E+03  0.00000000000E+00 0.  1.
<mgrwt>
<rscale>  0 0.84406807E+03</rscale>
<asrwt>0</asrwt>
<pdfrwt beam="1">  1        2 0.10833627E+00 0.84406807E+03</pdfrwt>
<pdfrwt beam="2">  1       -2 0.29261121E+00 0.84406807E+03</pdfrwt>
<totfact> 0.14711219E+00</totfact>
</mgrwt>
</event>
<event>
12    1  0.1418317E-007  0.6412594E+03  0.7818608E-02  0.9823320E-01
          2   -1    0    0  501    0  0.00000000000E+00  0.00000000000E+00  0.10829057605E+04  0.10829057605E+04  0.00000000000E+00 0. -1.
         -2   -1    0    0    0  501 -0.00000000000E+00 -0.00000000000E+00 -0.14674692712E+04  0.14674692712E+04  0.00000000000E+00 0.  1.
         23    2    1    2    0    0 -0.44776187011E+03 -0.23955438718E+03 -0.12674273971E+04  0.13683051988E+04  0.89498118922E+02 0.  0.
    5000000    2    1    2    0    0  0.44776187011E+03  0.23955438718E+03  0.88286388648E+03  0.11820698329E+04  0.59996954178E+03 0.  0.
         23    2    4    4    0    0 -0.10721629773E+03  0.15788371219E+03  0.27498018512E+03  0.34984400274E+03  0.10175521105E+03 0.  0.
         23    2    4    4    0    0  0.55497816784E+03  0.81670674987E+02  0.60788370136E+03  0.83222583015E+03  0.91686269808E+02 0.  0.
          2    1    3    3  502    0 -0.24824717444E+03 -0.15816752411E+03 -0.83079485300E+03  0.88139872537E+03  0.00000000000E+00 0. -1.
         -2    1    3    3    0  502 -0.19951469567E+03 -0.81386863066E+02 -0.43663254411E+03  0.48690647341E+03  0.00000000000E+00 0.  1.
         11    1    5    5    0    0 -0.10969469696E+03  0.16589658691E+03  0.22988967290E+03  0.30398004177E+03  0.00000000000E+00 0.  1.
        -11    1    5    5    0    0  0.24783992335E+01 -0.80128747192E+01  0.45090512217E+02  0.45863960972E+02  0.00000000000E+00 0. -1.
          2    1    6    6  503    0  0.17977981040E+03 -0.68854440848E+01  0.15490830088E+03  0.23741266025E+03  0.00000000000E+00 0. -1.
         -2    1    6    6    0  503  0.37519835744E+03  0.88556119072E+02  0.45297540048E+03  0.59481316990E+03  0.00000000000E+00 0.  1.
<mgrwt>
<rscale>  0 0.64125941E+03</rscale>
<asrwt>0</asrwt>
<pdfrwt beam="1">  1        2 0.16660089E+00 0.64125941E+03</pdfrwt>
<pdfrwt beam="2">  1       -2 0.22576450E+00 0.64125941E+03</pdfrwt>
<totfact> 0.21310024E+00</totfact>
</mgrwt>
</event>
<event>
12    1  0.1418317E-007  0.4939082E+03  0.7818608E-02  0.1015381E+00
         -1   -1    0    0    0  501 -0.00000000000E+00  0.00000000000E+00  0.27222719892E+03  0.27222719892E+03  0.00000000000E+00 0.  1.
          1   -1    0    0  501    0  0.00000000000E+00 -0.00000000000E+00 -0.11987401951E+04  0.11987401951E+04  0.00000000000E+00 0. -1.
         23    2    1    2    0    0 -0.33795280082E+03  0.67463399504E+02 -0.61822901358E+03  0.71346980550E+03  0.89825632639E+02 0.  0.
    5000000    2    1    2    0    0  0.33795280082E+03 -0.67463399504E+02 -0.30828398262E+03  0.75749758853E+03  0.60000014736E+03 0.  0.
         23    2    4    4    0    0  0.21784056642E+03 -0.29944099185E+03 -0.59780673055E+02  0.38665151540E+03  0.93841597966E+02 0.  0.
         23    2    4    4    0    0  0.12011223440E+03  0.23197759235E+03 -0.24850330956E+03  0.37084607313E+03  0.86789186478E+02 0.  0.
          1    1    3    3  502    0 -0.79498386283E+02  0.40887431653E+02 -0.10261570468E+03  0.13609466682E+03  0.00000000000E+00 0. -1.
         -1    1    3    3    0  502 -0.25845441454E+03  0.26575967851E+02 -0.51561330889E+03  0.57737513868E+03  0.00000000000E+00 0.  1.
         13    1    5    5    0    0  0.19755831120E+03 -0.22297385550E+03 -0.72310526639E+02  0.30655413686E+03  0.00000000000E+00 0. -1.
        -13    1    5    5    0    0  0.20282255224E+02 -0.76467136348E+02  0.12529853584E+02  0.80097378541E+02  0.00000000000E+00 0.  1.
          3    1    6    6  503    0  0.64317950317E+02  0.10933942853E+03 -0.63165446895E+02  0.14171020798E+03  0.00000000000E+00 0. -1.
         -3    1    6    6    0  503  0.55794284083E+02  0.12263816382E+03 -0.18533786267E+03  0.22913586516E+03  0.00000000000E+00 0.  1.
<mgrwt>
<rscale>  0 0.49390815E+03</rscale>
<asrwt>0</asrwt>
<pdfrwt beam="1">  1        1 0.18442156E+00 0.49390815E+03</pdfrwt>
<pdfrwt beam="2">  1       -1 0.41881108E-01 0.49390815E+03</pdfrwt>
<totfact> 0.63281294E+01</totfact>
</mgrwt>
</event>
<event>
12    1  0.1418317E-007  0.4596199E+03  0.7818608E-02  0.1024892E+00
         -2   -1    0    0    0  501 -0.00000000000E+00  0.00000000000E+00  0.61683856250E+03  0.61683856250E+03  0.00000000000E+00 0.  1.
          2   -1    0    0  501    0  0.00000000000E+00 -0.00000000000E+00 -0.99018966462E+03  0.99018966462E+03  0.00000000000E+00 0. -1.
         23    2    1    2    0    0  0.33198674926E+03 -0.26976215613E+03  0.36065549146E+03  0.56692235976E+03  0.91333213637E+02 0.  0.
    5000000    2    1    2    0    0 -0.33198674926E+03  0.26976215613E+03 -0.73400659358E+03  0.10401058674E+04  0.60005642513E+03 0.  0.
         23    2    4    4    0    0 -0.81236964198E+02 -0.25120454880E+02 -0.61130860867E+03  0.62386640157E+03  0.90997749262E+02 0.  0.
         23    2    4    4    0    0 -0.25074978507E+03  0.29488261101E+03 -0.12269798491E+03  0.41623946579E+03  0.91483814942E+02 0.  0.
          3    1    3    3  502    0  0.13131341364E+03 -0.53155262715E+02  0.12937401564E+03  0.19184976017E+03  0.00000000000E+00 0. -1.
         -3    1    3    3    0  502  0.20067333562E+03 -0.21660689341E+03  0.23128147582E+03  0.37507259959E+03  0.00000000000E+00 0.  1.
         11    1    5    5    0    0 -0.67677711614E+02 -0.36855519807E+02 -0.23879885520E+03  0.25092527819E+03  0.00000000000E+00 0. -1.
        -11    1    5    5    0    0 -0.13559252584E+02  0.11735064927E+02 -0.37250975347E+03  0.37294112339E+03  0.00000000000E+00 0.  1.
          2    1    6    6  503    0 -0.90675362379E+02  0.96980607530E+02 -0.88155264509E+02  0.15936941438E+03  0.00000000000E+00 0. -1.
         -2    1    6    6    0  503 -0.16007442269E+03  0.19790200348E+03 -0.34542720399E+02  0.25687005141E+03  0.00000000000E+00 0.  1.
<mgrwt>
<rscale>  0 0.45961993E+03</rscale>
<asrwt>0</asrwt>
<pdfrwt beam="1">  1        2 0.15233687E+00 0.45961993E+03</pdfrwt>
<pdfrwt beam="2">  1       -2 0.94898240E-01 0.45961993E+03</pdfrwt>
<totfact> 0.25182289E+01</totfact>
</mgrwt>
</event>
<event>
12    1  0.1418317E-007  0.1729925E+04  0.7818608E-02  0.8744479E-01
          2   -1    0    0  501    0  0.00000000000E+00  0.00000000000E+00  0.38107973648E+04  0.38107973648E+04  0.00000000000E+00 0. -1.
         -2   -1    0    0    0  501 -0.00000000000E+00 -0.00000000000E+00 -0.82707164690E+03  0.82707164690E+03  0.00000000000E+00 0.  1.
         23    2    1    2    0    0 -0.11871098434E+04 -0.12480043677E+04  0.15265272064E+04  0.23032725274E+04  0.89634488292E+02 0.  0.
    5000000    2    1    2    0    0  0.11871098434E+04  0.12480043677E+04  0.14571985115E+04  0.23345964843E+04  0.60014045093E+03 0.  0.
         23    2    4    4    0    0  0.35606792465E+03  0.31500469003E+03  0.76005163058E+03  0.90091870633E+03  0.89239635563E+02 0.  0.
         23    2    4    4    0    0  0.83104191873E+03  0.93299967762E+03  0.69714688087E+03  0.14336777780E+04  0.91099552373E+02 0.  0.
          3    1    3    3  502    0 -0.78894232556E+03 -0.78836386677E+03  0.94460125914E+03  0.14615810338E+04  0.00000000000E+00 0. -1.
         -3    1    3    3    0  502 -0.39816751781E+03 -0.45964050089E+03  0.58192594731E+03  0.84169149363E+03  0.00000000000E+00 0.  1.
         13    1    5    5    0    0  0.76431549804E+01 -0.61833364828E+01  0.15314066287E+02  0.18198134364E+02  0.00000000000E+00 0.  1.
        -13    1    5    5    0    0  0.34842476967E+03  0.32118802652E+03  0.74473756429E+03  0.88272057196E+03  0.00000000000E+00 0. -1.
          3    1    6    6  503    0  0.31166974330E+03  0.28580467577E+03  0.22840269159E+03  0.48061432678E+03  0.00000000000E+00 0. -1.
         -3    1    6    6    0  503  0.51937217543E+03  0.64719500185E+03  0.46874418928E+03  0.95306345120E+03  0.00000000000E+00 0.  1.
<mgrwt>
<rscale>  0 0.17299251E+04</rscale>
<asrwt>0</asrwt>
<pdfrwt beam="1">  1        2 0.58627651E+00 0.17299251E+04</pdfrwt>
<pdfrwt beam="2">  1       -2 0.12724179E+00 0.17299251E+04</pdfrwt>
<totfact> 0.20662316E-01</totfact>
</mgrwt>
</event>
<event>
12    1  0.1418317E-007  0.2220139E+04  0.7818608E-02  0.8510092E-01
         -1   -1    0    0    0  501 -0.00000000000E+00  0.00000000000E+00  0.27409891857E+04  0.27409891857E+04  0.00000000000E+00 0.  1.
          1   -1    0    0  501    0  0.00000000000E+00 -0.00000000000E+00 -0.28204640996E+04  0.28204640996E+04  0.00000000000E+00 0. -1.
         23    2    1    2    0    0  0.15197532541E+04 -0.15972701569E+04  0.16001348291E+04  0.27255820763E+04  0.86280217429E+02 0.  0.
    5000000    2    1    2    0    0 -0.15197532541E+04  0.15972701569E+04 -0.16796097431E+04  0.28358712090E+04  0.60012891741E+03 0.  0.
         23    2    4    4    0    0 -0.90750198731E+02  0.25890678890E+03 -0.40456125276E+03  0.49768169184E+03  0.93535743174E+02 0.  0.
         23    2    4    4    0    0 -0.14290030553E+04  0.13383633680E+04 -0.12750484903E+04  0.23381895172E+04  0.90085117681E+02 0.  0.
          4    1    3    3  502    0  0.10802640598E+04 -0.11864045544E+04  0.11446126274E+04  0.19709551675E+04  0.00000000000E+00 0.  1.
         -4    1    3    3    0  502  0.43948919424E+03 -0.41086560259E+03  0.45552220169E+03  0.75462690880E+03  0.00000000000E+00 0. -1.
         11    1    5    5    0    0 -0.84451974080E+02  0.24824516686E+03 -0.40784902038E+03  0.48486969612E+03  0.00000000000E+00 0. -1.
        -11    1    5    5    0    0 -0.62982246513E+01  0.10661622041E+02  0.32877676209E+01  0.12811995716E+02  0.00000000000E+00 0.  1.
          1    1    6    6  503    0 -0.84854652773E+03  0.84823237010E+03 -0.80453901805E+03  0.14445803526E+04  0.00000000000E+00 0. -1.
         -1    1    6    6    0  503 -0.58045652761E+03  0.49013099794E+03 -0.47050947225E+03  0.89360916460E+03  0.00000000000E+00 0.  1.
<mgrwt>
<rscale>  0 0.22201392E+04</rscale>
<asrwt>0</asrwt>
<pdfrwt beam="1">  1        1 0.43391755E+00 0.22201392E+04</pdfrwt>
<pdfrwt beam="2">  1       -1 0.42169065E+00 0.22201392E+04</pdfrwt>
<totfact> 0.35084151E-03</totfact>
</mgrwt>
</event>
<event>
12    1  0.1418317E-007  0.1268322E+04  0.7818608E-02  0.9055070E-01
          2   -1    0    0  501    0  0.00000000000E+00  0.00000000000E+00  0.22712584746E+04  0.22712584746E+04  0.00000000000E+00 0. -1.
         -2   -1    0    0    0  501 -0.00000000000E+00 -0.00000000000E+00 -0.95874118966E+03  0.95874118966E+03  0.00000000000E+00 0.  1.
         23    2    1    2    0    0  0.89821274481E+03  0.86187884544E+03 -0.10197434196E+03  0.12524178111E+04  0.92359774459E+02 0.  0.
    5000000    2    1    2    0    0 -0.89821274481E+03 -0.86187884544E+03  0.14144916269E+04  0.19775818532E+04  0.60035168383E+03 0.  0.
         23    2    4    4    0    0 -0.28194543987E+02 -0.11233535059E+03 -0.79146956504E+01  0.14721591419E+03  0.90530214175E+02 0.  0.
         23    2    4    4    0    0 -0.87001820083E+03 -0.74954349485E+03  0.14224063225E+04  0.18303659390E+04  0.90843842677E+02 0.  0.
          4    1    3    3  502    0  0.41549262976E+03  0.43024039903E+03 -0.89240594759E+02  0.60473532235E+03  0.00000000000E+00 0. -1.
         -4    1    3    3    0  502  0.48272011505E+03  0.43163844642E+03 -0.12733747196E+02  0.64768248874E+03  0.00000000000E+00 0.  1.
         13    1    5    5    0    0  0.22144652854E+02 -0.71597125892E+02 -0.27072176364E+02  0.79683353463E+02  0.00000000000E+00 0. -1.
        -13    1    5    5    0    0 -0.50339196841E+02 -0.40738224702E+02  0.19157480714E+02  0.67532560723E+02  0.00000000000E+00 0.  1.
          3    1    6    6  503    0 -0.74368477416E+03 -0.67647800559E+03  0.12624552740E+04  0.16138410251E+04  0.00000000000E+00 0. -1.
         -3    1    6    6    0  503 -0.12633342667E+03 -0.73065489255E+02  0.15995104852E+03  0.21652491389E+03  0.00000000000E+00 0.  1.
<mgrwt>
<rscale>  0 0.12683225E+04</rscale>
<asrwt>0</asrwt>
<pdfrwt beam="1">  1        2 0.34942438E+00 0.12683225E+04</pdfrwt>
<pdfrwt beam="2">  1       -2 0.14749865E+00 0.12683225E+04</pdfrwt>
<totfact> 0.14269277E+00</totfact>
</mgrwt>
</event>
<event>
12    1  0.1418317E-007  0.1210592E+04  0.7818608E-02  0.9103636E-01
         -3   -1    0    0    0  501 -0.00000000000E+00  0.00000000000E+00  0.72892089081E+03  0.72892089081E+03  0.00000000000E+00 0.  1.
          3   -1    0    0  501    0  0.00000000000E+00 -0.00000000000E+00 -0.22900309379E+04  0.22900309379E+04  0.00000000000E+00 0. -1.
         23    2    1    2    0    0  0.10395298708E+04  0.52311085821E+03 -0.11713315769E+04  0.16529260237E+04  0.76677600593E+02 0.  0.
    5000000    2    1    2    0    0 -0.10395298708E+04 -0.52311085821E+03 -0.38977847016E+03  0.13660258050E+04  0.59985991843E+03 0.  0.
         23    2    4    4    0    0 -0.48351721821E+03 -0.49577355868E+03 -0.39355136403E+03  0.80211274992E+03  0.94455628008E+02 0.  0.
         23    2    4    4    0    0 -0.55601265263E+03 -0.27337299534E+02  0.37728938651E+01  0.56391305507E+03  0.89923862907E+02 0.  0.
          1    1    3    3  502    0  0.85715650525E+03  0.42472946425E+03 -0.10019982093E+04  0.13853204697E+04  0.00000000000E+00 0. -1.
         -1    1    3    3    0  502  0.18237336559E+03  0.98381393956E+02 -0.16933336757E+03  0.26760555399E+03  0.00000000000E+00 0.  1.
         13    1    5    5    0    0 -0.12561995921E+03 -0.18412857989E+03 -0.15028027205E+03  0.26882683692E+03  0.00000000000E+00 0. -1.
        -13    1    5    5    0    0 -0.35789725900E+03 -0.31164497879E+03 -0.24327109198E+03  0.53328591299E+03  0.00000000000E+00 0.  1.
          2    1    6    6  503    0 -0.41156643517E+03  0.61385726060E+01 -0.26933149188E+02  0.41249243285E+03  0.00000000000E+00 0. -1.
         -2    1    6    6    0  503 -0.14444621746E+03 -0.33475872140E+02  0.30706043053E+02  0.15142062222E+03  0.00000000000E+00 0.  1.
<mgrwt>
<rscale>  0 0.12105918E+04</rscale>
<asrwt>0</asrwt>
<pdfrwt beam="1">  1        3 0.35231245E+00 0.12105918E+04</pdfrwt>
<pdfrwt beam="2">  1       -3 0.11214168E+00 0.12105918E+04</pdfrwt>
<totfact> 0.33520053E-02</totfact>
</mgrwt>
</event>
<event>
12    1  0.1418317E-007  0.5395817E+03  0.7818608E-02  0.1003935E+00
          2   -1    0    0  501    0  0.00000000000E+00  0.00000000000E+00  0.17267805851E+04  0.17267805851E+04  0.00000000000E+00 0. -1.
         -2   -1    0    0    0  501 -0.00000000000E+00 -0.00000000000E+00 -0.23670805210E+03  0.23670805210E+03  0.00000000000E+00 0.  1.
         23    2    1    2    0    0  0.19087163117E+03  0.38076000505E+03  0.96349688349E+03  0.10573820204E+04  0.91215851892E+02 0.  0.
    5000000    2    1    2    0    0 -0.19087163117E+03 -0.38076000505E+03  0.52657564948E+03  0.90610661672E+03  0.60194445358E+03 0.  0.
         23    2    4    4    0    0  0.14182323464E+03 -0.16611943805E+03 -0.35261570193E+01  0.23803640276E+03  0.94548388016E+02 0.  0.
         23    2    4    4    0    0 -0.33269486581E+03 -0.21464056701E+03  0.53010180650E+03  0.66807021395E+03  0.92484802963E+02 0.  0.
          1    1    3    3  502    0  0.13585527736E+03  0.17300681418E+03  0.45751415980E+03  0.50764871767E+03  0.00000000000E+00 0. -1.
         -1    1    3    3    0  502  0.55016353812E+02  0.20775319087E+03  0.50598272369E+03  0.54973330277E+03  0.00000000000E+00 0.  1.
         13    1    5    5    0    0  0.62282902714E+02 -0.10827919051E+02 -0.63638638808E+01  0.63536623809E+02  0.00000000000E+00 0.  1.
        -13    1    5    5    0    0  0.79540331923E+02 -0.15529151900E+03  0.28377068616E+01  0.17449977895E+03  0.00000000000E+00 0. -1.
          2    1    6    6  503    0 -0.83194321511E+02 -0.10523703525E+03  0.17548308855E+03  0.22088558823E+03  0.00000000000E+00 0. -1.
         -2    1    6    6    0  503 -0.24950054430E+03 -0.10940353175E+03  0.35461871794E+03  0.44718462572E+03  0.00000000000E+00 0.  1.
<mgrwt>
<rscale>  0 0.53958172E+03</rscale>
<asrwt>0</asrwt>
<pdfrwt beam="1">  1        2 0.26565854E+00 0.53958172E+03</pdfrwt>
<pdfrwt beam="2">  1       -2 0.36416624E-01 0.53958172E+03</pdfrwt>
<totfact> 0.70658487E+01</totfact>
</mgrwt>
</event>
<event>
12    1  0.1418317E-007  0.6194065E+03  0.7818608E-02  0.9865942E-01
         -2   -1    0    0    0  501 -0.00000000000E+00  0.00000000000E+00  0.66652558930E+03  0.66652558930E+03  0.00000000000E+00 0.  1.
          2   -1    0    0  501    0  0.00000000000E+00 -0.00000000000E+00 -0.66090914625E+03  0.66090914625E+03  0.00000000000E+00 0. -1.
         23    2    1    2    0    0  0.51970687898E+03  0.39770186217E+02 -0.35657523645E+02  0.53145421204E+03  0.97443382185E+02 0.  0.
    5000000    2    1    2    0    0 -0.51970687898E+03 -0.39770186217E+02  0.41273966699E+02  0.79598052351E+03  0.60017043054E+03 0.  0.
         23    2    4    4    0    0 -0.16374265147E+03 -0.23608100291E+03 -0.15094003779E+03  0.33678141195E+03  0.89960705777E+02 0.  0.
         23    2    4    4    0    0 -0.35596422751E+03  0.19631081669E+03  0.19221400449E+03  0.45919911156E+03  0.93108176413E+02 0.  0.
          3    1    3    3  502    0  0.28936890242E+03 -0.20323434306E+02 -0.43233355816E+02  0.29328574245E+03  0.00000000000E+00 0. -1.
         -3    1    3    3    0  502  0.23033797656E+03  0.60093620523E+02  0.75758321713E+01  0.23816846959E+03  0.00000000000E+00 0.  1.
         13    1    5    5    0    0 -0.81464556089E+02 -0.46776142028E+02 -0.36606884528E+02  0.10081936995E+03  0.00000000000E+00 0. -1.
        -13    1    5    5    0    0 -0.82278095381E+02 -0.18930486088E+03 -0.11433315326E+03  0.23596204200E+03  0.00000000000E+00 0.  1.
          1    1    6    6  503    0 -0.55833584715E+02  0.55806730493E+02  0.62322581896E+01  0.79187255241E+02  0.00000000000E+00 0. -1.
         -1    1    6    6    0  503 -0.30013064280E+03  0.14050408620E+03  0.18598174630E+03  0.38001185631E+03  0.00000000000E+00 0.  1.
<mgrwt>
<rscale>  0 0.61940648E+03</rscale>
<asrwt>0</asrwt>
<pdfrwt beam="1">  1        2 0.10167833E+00 0.61940648E+03</pdfrwt>
<pdfrwt beam="2">  1       -2 0.10254240E+00 0.61940648E+03</pdfrwt>
<totfact> 0.35115089E+01</totfact>
</mgrwt>
</event>
<event>
12    1  0.1418317E-007  0.6064366E+03  0.7818608E-02  0.9892141E-01
          1   -1    0    0  501    0  0.00000000000E+00  0.00000000000E+00  0.71329475049E+03  0.71329475049E+03  0.00000000000E+00 0. -1.
         -1   -1    0    0    0  501 -0.00000000000E+00 -0.00000000000E+00 -0.54783015573E+03  0.54783015573E+03  0.00000000000E+00 0.  1.
         23    2    1    2    0    0  0.56074962646E+02 -0.46911604584E+03  0.12044722401E+03  0.49611142044E+03  0.91677378975E+02 0.  0.
    5000000    2    1    2    0    0 -0.56074962646E+02  0.46911604584E+03  0.45017370749E+02  0.76501348579E+03  0.60000400321E+03 0.  0.
         23    2    4    4    0    0  0.15706285717E+03  0.48314612569E+03 -0.39545918887E+02  0.51803314255E+03  0.93249864401E+02 0.  0.
         23    2    4    4    0    0 -0.21313781982E+03 -0.14030079849E+02  0.84563289637E+02  0.24698034323E+03  0.90684985593E+02 0.  0.
          1    1    3    3  502    0  0.12776523141E+02 -0.27429631919E+03  0.11140868244E+03  0.29633360388E+03  0.00000000000E+00 0. -1.
         -1    1    3    3    0  502  0.43298439505E+02 -0.19481972665E+03  0.90385415752E+01  0.19977781656E+03  0.00000000000E+00 0.  1.
         11    1    5    5    0    0  0.12035948251E+03  0.32381222546E+03  0.14680190585E+02  0.34576909981E+03  0.00000000000E+00 0.  1.
        -11    1    5    5    0    0  0.36703374663E+02  0.15933390023E+03 -0.54226109472E+02  0.17226404274E+03  0.00000000000E+00 0. -1.
          1    1    6    6  503    0 -0.34538173325E+02 -0.35890360224E+02  0.33200528706E+02  0.59860491813E+02  0.00000000000E+00 0. -1.
         -1    1    6    6    0  503 -0.17859964649E+03  0.21860280375E+02  0.51362760931E+02  0.18711985142E+03  0.00000000000E+00 0.  1.
<mgrwt>
<rscale>  0 0.60643656E+03</rscale>
<asrwt>0</asrwt>
<pdfrwt beam="1">  1        1 0.10973765E+00 0.60643656E+03</pdfrwt>
<pdfrwt beam="2">  1       -1 0.84281563E-01 0.60643656E+03</pdfrwt>
<totfact> 0.38386568E+01</totfact>
</mgrwt>
</event>
<event>
12    1  0.1418317E-007  0.7746841E+03  0.7818608E-02  0.9597401E-01
         -2   -1    0    0    0  501 -0.00000000000E+00  0.00000000000E+00  0.76589212798E+03  0.76589212798E+03  0.00000000000E+00 0.  1.
          2   -1    0    0  501    0  0.00000000000E+00 -0.00000000000E+00 -0.15856832287E+04  0.15856832287E+04  0.00000000000E+00 0. -1.
         23    2    1    2    0    0  0.35782196583E+03  0.61956681420E+03 -0.11532195175E+04  0.13601638318E+04  0.90723741673E+02 0.  0.
    5000000    2    1    2    0    0 -0.35782196583E+03 -0.61956681420E+03  0.33342841676E+03  0.99141152489E+03  0.59985223688E+03 0.  0.
         23    2    4    4    0    0 -0.27238692674E+01 -0.41810339382E+03 -0.40747890032E+02  0.43044652201E+03  0.93840025442E+02 0.  0.
         23    2    4    4    0    0 -0.35509809656E+03 -0.20146342038E+03  0.37417630679E+03  0.56096500288E+03  0.89396073542E+02 0.  0.
          1    1    3    3  502    0  0.25031866973E+03  0.34504595378E+03 -0.69279051580E+03  0.81343398344E+03  0.00000000000E+00 0. -1.
         -1    1    3    3    0  502  0.10750329610E+03  0.27452086042E+03 -0.46042900167E+03  0.54672984833E+03  0.00000000000E+00 0.  1.
         11    1    5    5    0    0  0.14096767569E+02 -0.27753680949E+03 -0.68430472855E+02  0.28619596275E+03  0.00000000000E+00 0.  1.
        -11    1    5    5    0    0 -0.16820636837E+02 -0.14056658433E+03  0.27682582823E+02  0.14425055926E+03  0.00000000000E+00 0. -1.
          4    1    6    6  503    0 -0.10471882271E+03 -0.48589486974E+02  0.56405795955E+02  0.12848573420E+03  0.00000000000E+00 0.  1.
         -4    1    6    6    0  503 -0.25037927385E+03 -0.15287393340E+03  0.31777051083E+03  0.43247926869E+03  0.00000000000E+00 0. -1.
<mgrwt>
<rscale>  0 0.77468410E+03</rscale>
<asrwt>0</asrwt>
<pdfrwt beam="1">  1        2 0.24395126E+00 0.77468410E+03</pdfrwt>
<pdfrwt beam="2">  1       -2 0.11782956E+00 0.77468410E+03</pdfrwt>
<totfact> 0.64567515E+00</totfact>
</mgrwt>
</event>
<event>
12    1  0.1418317E-007  0.1438590E+04  0.7818608E-02  0.8926349E-01
         -1   -1    0    0    0  501 -0.00000000000E+00  0.00000000000E+00  0.26520079392E+04  0.26520079392E+04  0.00000000000E+00 0.  1.
          1   -1    0    0  501    0  0.00000000000E+00 -0.00000000000E+00 -0.82860790534E+03  0.82860790534E+03  0.00000000000E+00 0. -1.
         23    2    1    2    0    0 -0.13777085578E+04  0.30544982809E+03  0.10625952245E+04  0.17690449231E+04  0.95030842612E+02 0.  0.
    5000000    2    1    2    0    0  0.13777085578E+04 -0.30544982809E+03  0.76080480939E+03  0.17115709215E+04  0.59939185304E+03 0.  0.
         23    2    4    4    0    0  0.10274709289E+04 -0.55161696018E+02  0.74237646993E+03  0.12721022738E+04  0.91553532374E+02 0.  0.
         23    2    4    4    0    0  0.35023762889E+03 -0.25028813207E+03  0.18428339460E+02  0.43946864772E+03  0.86501692978E+02 0.  0.
          3    1    3    3  502    0 -0.80887921436E+02  0.21158002937E+02  0.37029816920E+02  0.91442464225E+02  0.00000000000E+00 0. -1.
         -3    1    3    3    0  502 -0.12968206364E+04  0.28429182515E+03  0.10255654076E+04  0.16776024589E+04  0.00000000000E+00 0.  1.
         13    1    5    5    0    0  0.30820412479E+03 -0.46126760886E+02  0.18813937860E+03  0.36402456838E+03  0.00000000000E+00 0.  1.
        -13    1    5    5    0    0  0.71926680414E+03 -0.90349351322E+01  0.55423709133E+03  0.90807770537E+03  0.00000000000E+00 0. -1.
          1    1    6    6  503    0  0.29489369628E+03 -0.17983451147E+03  0.38846096184E+02  0.34757986536E+03  0.00000000000E+00 0.  1.
         -1    1    6    6    0  503  0.55343932614E+02 -0.70453620601E+02 -0.20417756724E+02  0.91888782355E+02  0.00000000000E+00 0. -1.
<mgrwt>
<rscale>  0 0.14385900E+04</rscale>
<asrwt>0</asrwt>
<pdfrwt beam="1">  1        1 0.12747814E+00 0.14385900E+04</pdfrwt>
<pdfrwt beam="2">  1       -1 0.40800122E+00 0.14385900E+04</pdfrwt>
<totfact> 0.12679292E-01</totfact>
</mgrwt>
</event>
<event>
12    1  0.1418317E-007  0.5608948E+03  0.7818608E-02  0.9990032E-01
          2   -1    0    0  501    0  0.00000000000E+00  0.00000000000E+00  0.13754844473E+04  0.13754844473E+04  0.00000000000E+00 0.  1.
         -2   -1    0    0    0  501 -0.00000000000E+00 -0.00000000000E+00 -0.27418002288E+03  0.27418002288E+03  0.00000000000E+00 0. -1.
         23    2    1    2    0    0 -0.41548163185E+03 -0.12490518304E+03  0.63317470885E+03  0.77368336915E+03  0.97208294992E+02 0.  0.
    5000000    2    1    2    0    0  0.41548163185E+03  0.12490518304E+03  0.46812971561E+03  0.87598110107E+03  0.59997597255E+03 0.  0.
         23    2    4    4    0    0  0.53267659631E+03  0.16901687997E+03  0.44493339321E+03  0.71977113436E+03  0.88281931908E+02 0.  0.
         23    2    4    4    0    0 -0.11719496445E+03 -0.44111696933E+02  0.23196322406E+02  0.15620996671E+03  0.90459840959E+02 0.  0.
          2    1    3    3  502    0 -0.13098174886E+03 -0.31953784978E+02  0.12464159748E+03  0.18361043197E+03  0.00000000000E+00 0. -1.
         -2    1    3    3    0  502 -0.28449988300E+03 -0.92951398061E+02  0.50853311137E+03  0.59007293717E+03  0.00000000000E+00 0.  1.
         13    1    5    5    0    0  0.28046120405E+03  0.11764385212E+03  0.28457547165E+03  0.41651141879E+03  0.00000000000E+00 0. -1.
        -13    1    5    5    0    0  0.25221539225E+03  0.51373027854E+02  0.16035792156E+03  0.30325971557E+03  0.00000000000E+00 0.  1.
          1    1    6    6  503    0 -0.39580551911E+02 -0.22680337812E+02 -0.34465066508E+02  0.57173933066E+02  0.00000000000E+00 0. -1.
         -1    1    6    6    0  503 -0.77614412542E+02 -0.21431359121E+02  0.57661388914E+02  0.99036033642E+02  0.00000000000E+00 0.  1.
<mgrwt>
<rscale>  0 0.56089481E+03</rscale>
<asrwt>0</asrwt>
<pdfrwt beam="1">  1        2 0.21161299E+00 0.56089481E+03</pdfrwt>
<pdfrwt beam="2">  1       -2 0.42181543E-01 0.56089481E+03</pdfrwt>
<totfact> 0.82668924E+01</totfact>
</mgrwt>
</event>
<event>
12    1  0.1418317E-007  0.8326282E+03  0.7818608E-02  0.9513954E-01
          2   -1    0    0  501    0  0.00000000000E+00  0.00000000000E+00  0.23235485890E+04  0.23235485890E+04  0.00000000000E+00 0. -1.
         -2   -1    0    0    0  501 -0.00000000000E+00 -0.00000000000E+00 -0.34300277411E+03  0.34300277411E+03  0.00000000000E+00 0.  1.
         23    2    1    2    0    0  0.48133400170E+03  0.61152851258E+03  0.68306474001E+03  0.10389461834E+04  0.84747802553E+02 0.  0.
    5000000    2    1    2    0    0 -0.48133400170E+03 -0.61152851258E+03  0.12974810749E+04  0.16276051797E+04  0.59999328207E+03 0.  0.
         23    2    4    4    0    0 -0.27884532925E+03 -0.63941472379E+02  0.80351050882E+03  0.85788520265E+03  0.92166445153E+02 0.  0.
         23    2    4    4    0    0 -0.20248867245E+03 -0.54758704020E+03  0.49397056605E+03  0.76971997707E+03  0.87227827630E+02 0.  0.
          2    1    3    3  502    0  0.14456166565E+03  0.12968156248E+03  0.18973787454E+03  0.27150661845E+03  0.00000000000E+00 0. -1.
         -2    1    3    3    0  502  0.33677233605E+03  0.48184695009E+03  0.49332686547E+03  0.76743956494E+03  0.00000000000E+00 0.  1.
         13    1    5    5    0    0 -0.13371944669E+03  0.11957445473E+02  0.30730469023E+03  0.33535062780E+03  0.00000000000E+00 0.  1.
        -13    1    5    5    0    0 -0.14512588257E+03 -0.75898917851E+02  0.49620581858E+03  0.52253457485E+03  0.00000000000E+00 0. -1.
          4    1    6    6  503    0 -0.17312124727E+03 -0.42101916502E+03  0.42424290827E+03  0.62226212225E+03  0.00000000000E+00 0. -1.
         -4    1    6    6    0  503 -0.29367425176E+02 -0.12656787518E+03  0.69727657786E+02  0.14745785482E+03  0.00000000000E+00 0.  1.
<mgrwt>
<rscale>  0 0.83262823E+03</rscale>
<asrwt>0</asrwt>
<pdfrwt beam="1">  1        2 0.35746900E+00 0.83262823E+03</pdfrwt>
<pdfrwt beam="2">  1       -2 0.52769659E-01 0.83262823E+03</pdfrwt>
<totfact> 0.15339736E+01</totfact>
</mgrwt>
</event>
<event>
12    1  0.1418317E-007  0.4165164E+03  0.7818608E-02  0.1038206E+00
         -3   -1    0    0    0  501 -0.00000000000E+00  0.00000000000E+00  0.72288938321E+03  0.72288938321E+03  0.00000000000E+00 0.  1.
          3   -1    0    0  501    0  0.00000000000E+00 -0.00000000000E+00 -0.31077290469E+03  0.31077290469E+03  0.00000000000E+00 0. -1.
         23    2    1    2    0    0 -0.15415227363E+03 -0.12616510444E+03 -0.79381719272E+02  0.23264961265E+03  0.90243159682E+02 0.  0.
    5000000    2    1    2    0    0  0.15415227363E+03  0.12616510444E+03  0.49149819779E+03  0.80101267524E+03  0.60030847938E+03 0.  0.
         23    2    4    4    0    0  0.20640317262E+02  0.34317889160E+03  0.33608444435E+03  0.48913236574E+03  0.89999684140E+02 0.  0.
         23    2    4    4    0    0  0.13351195637E+03 -0.21701378716E+03  0.15541375344E+03  0.31188030949E+03  0.90528815189E+02 0.  0.
          3    1    3    3  502    0 -0.49416957097E+02 -0.96694376549E+02 -0.52293180360E+02  0.12052557744E+03  0.00000000000E+00 0. -1.
         -3    1    3    3    0  502 -0.10473531654E+03 -0.29470727887E+02 -0.27088538912E+02  0.11212403521E+03  0.00000000000E+00 0.  1.
         13    1    5    5    0    0 -0.33096404710E+02  0.17443190119E+03  0.18406388641E+03  0.25573692427E+03  0.00000000000E+00 0. -1.
        -13    1    5    5    0    0  0.53736721972E+02  0.16874699041E+03  0.15202055794E+03  0.23339544147E+03  0.00000000000E+00 0.  1.
          3    1    6    6  503    0  0.20067365377E+02 -0.83120408243E+02  0.91182945101E+02  0.12500412352E+03  0.00000000000E+00 0. -1.
         -3    1    6    6    0  503  0.11344459100E+03 -0.13389337892E+03  0.64230808337E+02  0.18687618597E+03  0.00000000000E+00 0.  1.
<mgrwt>
<rscale>  0 0.41651645E+03</rscale>
<asrwt>0</asrwt>
<pdfrwt beam="1">  1        3 0.47811216E-01 0.41651645E+03</pdfrwt>
<pdfrwt beam="2">  1       -3 0.11121375E+00 0.41651645E+03</pdfrwt>
<totfact> 0.76960474E+00</totfact>
</mgrwt>
</event>
<event>
12    1  0.1418317E-007  0.2031844E+04  0.7818608E-02  0.8591876E-01
          2   -1    0    0  501    0  0.00000000000E+00  0.00000000000E+00  0.24529665990E+04  0.24529665990E+04  0.00000000000E+00 0.  1.
         -2   -1    0    0    0  501 -0.00000000000E+00 -0.00000000000E+00 -0.17061720246E+04  0.17061720246E+04  0.00000000000E+00 0. -1.
         23    2    1    2    0    0  0.13642427158E+04  0.14509381122E+04  0.17054641895E+03  0.20007967770E+04  0.87875302619E+02 0.  0.
    5000000    2    1    2    0    0 -0.13642427158E+04 -0.14509381122E+04  0.57624815549E+03  0.21583418467E+04  0.59999833119E+03 0.  0.
         23    2    4    4    0    0 -0.13839226558E+04 -0.13323816173E+04  0.57991733219E+03  0.20088560383E+04  0.93358338308E+02 0.  0.
         23    2    4    4    0    0  0.19679939977E+02 -0.11855649486E+03 -0.36691767022E+01  0.14948580832E+03  0.88823428891E+02 0.  0.
          4    1    3    3  502    0  0.58100444615E+03  0.55636158211E+03  0.59844330988E+02  0.80665092850E+03  0.00000000000E+00 0. -1.
         -4    1    3    3    0  502  0.78323826964E+03  0.89457653004E+03  0.11070208796E+03  0.11941458485E+04  0.00000000000E+00 0.  1.
         13    1    5    5    0    0 -0.36076684598E+03 -0.29770765266E+03  0.15998566251E+03  0.49434600819E+03  0.00000000000E+00 0. -1.
        -13    1    5    5    0    0 -0.10231558098E+04 -0.10346739646E+04  0.41993166968E+03  0.15145100301E+04  0.00000000000E+00 0.  1.
          2    1    6    6  503    0  0.22812673146E+02  0.53574139334E+01 -0.97557506601E+01  0.25382959068E+02  0.00000000000E+00 0. -1.
         -2    1    6    6    0  503 -0.31327331680E+01 -0.12391390880E+03  0.60865739579E+01  0.12410284925E+03  0.00000000000E+00 0.  1.
<mgrwt>
<rscale>  0 0.20318442E+04</rscale>
<asrwt>0</asrwt>
<pdfrwt beam="1">  1        2 0.37737948E+00 0.20318442E+04</pdfrwt>
<pdfrwt beam="2">  1       -2 0.26248800E+00 0.20318442E+04</pdfrwt>
<totfact> 0.17705874E-01</totfact>
</mgrwt>
</event>
<event>
12    1  0.1418317E-007  0.5152616E+03  0.7818608E-02  0.1009870E+00
          3   -1    0    0  501    0  0.00000000000E+00  0.00000000000E+00  0.57047921087E+03  0.57047921087E+03  0.00000000000E+00 0. -1.
         -3   -1    0    0    0  501 -0.00000000000E+00 -0.00000000000E+00 -0.47429198621E+03  0.47429198621E+03  0.00000000000E+00 0.  1.
         23    2    1    2    0    0 -0.17176050186E+02 -0.33905763715E+03  0.37547945316E+02  0.35277349954E+03  0.88228089458E+02 0.  0.
    5000000    2    1    2    0    0  0.17176050186E+02  0.33905763715E+03  0.58639279346E+02  0.69199769755E+03  0.60013927577E+03 0.  0.
         23    2    4    4    0    0 -0.22147136892E+03  0.35544553716E+03 -0.43634855867E+01  0.42845179545E+03  0.90337167797E+02 0.  0.
         23    2    4    4    0    0  0.23864741910E+03 -0.16387900006E+02  0.63002764933E+02  0.26354590209E+03  0.90917216241E+02 0.  0.
          1    1    3    3  502    0 -0.48297776554E+02 -0.19222384161E+03  0.61033268766E+00  0.19819952828E+03  0.00000000000E+00 0. -1.
         -1    1    3    3    0  502  0.31121726367E+02 -0.14683379554E+03  0.36937612628E+02  0.15457397126E+03  0.00000000000E+00 0.  1.
         11    1    5    5    0    0 -0.49764476313E+02  0.24355710034E+02 -0.29419857132E+01  0.55482961293E+02  0.00000000000E+00 0. -1.
        -11    1    5    5    0    0 -0.17170689260E+03  0.33108982712E+03 -0.14214998735E+01  0.37296883416E+03  0.00000000000E+00 0.  1.
          4    1    6    6  503    0  0.11885773861E+03 -0.50747200447E+02  0.15435834631E+02  0.13015646497E+03  0.00000000000E+00 0. -1.
         -4    1    6    6    0  503  0.11978968049E+03  0.34359300441E+02  0.47566930302E+02  0.13338943713E+03  0.00000000000E+00 0.  1.
<mgrwt>
<rscale>  0 0.51526160E+03</rscale>
<asrwt>0</asrwt>
<pdfrwt beam="1">  1        3 0.87766033E-01 0.51526160E+03</pdfrwt>
<pdfrwt beam="2">  1       -3 0.72967998E-01 0.51526160E+03</pdfrwt>
<totfact> 0.54999362E+00</totfact>
</mgrwt>
</event>
<event>
12    1  0.1418317E-007  0.5057228E+03  0.7818608E-02  0.1012296E+00
         -2   -1    0    0    0  501 -0.00000000000E+00  0.00000000000E+00  0.14145258745E+03  0.14145258745E+03  0.00000000000E+00 0.  1.
          2   -1    0    0  501    0  0.00000000000E+00 -0.00000000000E+00 -0.27384275571E+04  0.27384275571E+04  0.00000000000E+00 0. -1.
         23    2    1    2    0    0  0.46635297133E+03  0.43152113812E+02 -0.11441366844E+04  0.12396262765E+04  0.90979965363E+02 0.  0.
    5000000    2    1    2    0    0 -0.46635297133E+03 -0.43152113812E+02 -0.14528382853E+04  0.16402538681E+04  0.60028865531E+03 0.  0.
         23    2    4    4    0    0 -0.13103887446E+03  0.78661543147E+02 -0.42306132647E+02  0.18225579963E+03  0.89825066930E+02 0.  0.
         23    2    4    4    0    0 -0.33531409687E+03 -0.12181365696E+03 -0.14105321527E+04  0.14579980684E+04  0.94251277627E+02 0.  0.
          3    1    3    3  502    0  0.12900760879E+03  0.19857895838E+02 -0.22310857234E+03  0.25848546227E+03  0.00000000000E+00 0. -1.
         -3    1    3    3    0  502  0.33734536254E+03  0.23294217974E+02 -0.92102811204E+03  0.98114081425E+03  0.00000000000E+00 0.  1.
         11    1    5    5    0    0 -0.85154925187E+02  0.92750369551E+02 -0.14396439434E+02  0.12673298625E+03  0.00000000000E+00 0. -1.
        -11    1    5    5    0    0 -0.45883949270E+02 -0.14088826404E+02 -0.27909693214E+02  0.55522813377E+02  0.00000000000E+00 0.  1.
          2    1    6    6  503    0 -0.90339741302E+02  0.96247474180E+01 -0.36474195675E+03  0.37588641853E+03  0.00000000000E+00 0. -1.
         -2    1    6    6    0  503 -0.24497435557E+03 -0.13143840438E+03 -0.10457901959E+04  0.10821116499E+04  0.00000000000E+00 0.  1.
<mgrwt>
<rscale>  0 0.50572281E+03</rscale>
<asrwt>0</asrwt>
<pdfrwt beam="1">  1        2 0.42129650E+00 0.50572281E+03</pdfrwt>
<pdfrwt beam="2">  1       -2 0.21761939E-01 0.50572281E+03</pdfrwt>
<totfact> 0.50552128E+01</totfact>
</mgrwt>
</event>
<event>
12    1  0.1418317E-007  0.5869893E+03  0.7818608E-02  0.9932773E-01
          2   -1    0    0  501    0  0.00000000000E+00  0.00000000000E+00  0.29511154630E+03  0.29511154630E+03  0.00000000000E+00 0. -1.
         -2   -1    0    0    0  501 -0.00000000000E+00 -0.00000000000E+00 -0.15461464050E+04  0.15461464050E+04  0.00000000000E+00 0.  1.
         23    2    1    2    0    0  0.43687731775E+03 -0.66809700501E+02 -0.92129798635E+03  0.10263266892E+04  0.96078959484E+02 0.  0.
    5000000    2    1    2    0    0 -0.43687731775E+03  0.66809700501E+02 -0.32973687239E+03  0.81493126215E+03  0.60005102296E+03 0.  0.
         23    2    4    4    0    0 -0.15634960314E+03  0.30690031840E+03 -0.96675831151E+02  0.36924593613E+03  0.91451304995E+02 0.  0.
         23    2    4    4    0    0 -0.28052771462E+03 -0.24009061790E+03 -0.23306104124E+03  0.44568532601E+03  0.89323330704E+02 0.  0.
          4    1    3    3  502    0  0.19094382896E+03  0.14228691053E+01 -0.31287937139E+03  0.36654477409E+03  0.00000000000E+00 0. -1.
         -4    1    3    3    0  502  0.24593348879E+03 -0.68232569606E+02 -0.60841861496E+03  0.65978191510E+03  0.00000000000E+00 0.  1.
         11    1    5    5    0    0 -0.84262633340E+02  0.96540330155E+02 -0.67910621673E+02  0.14502440919E+03  0.00000000000E+00 0.  1.
        -11    1    5    5    0    0 -0.72086969797E+02  0.21035998825E+03 -0.28765209478E+02  0.22422152695E+03  0.00000000000E+00 0. -1.
          4    1    6    6  503    0 -0.20252888132E+03 -0.21498014205E+03 -0.16003087980E+03  0.33592304436E+03  0.00000000000E+00 0. -1.
         -4    1    6    6    0  503 -0.77998833301E+02 -0.25110475849E+02 -0.73030161436E+02  0.10976228165E+03  0.00000000000E+00 0.  1.
<mgrwt>
<rscale>  0 0.58698927E+03</rscale>
<asrwt>0</asrwt>
<pdfrwt beam="1">  1        2 0.45401775E-01 0.58698927E+03</pdfrwt>
<pdfrwt beam="2">  1       -2 0.23786869E+00 0.58698927E+03</pdfrwt>
<totfact> 0.89228050E+00</totfact>
</mgrwt>
</event>
<event>
12    1  0.1418317E-007  0.5360797E+03  0.7818608E-02  0.1004768E+00
         -2   -1    0    0    0  501 -0.00000000000E+00  0.00000000000E+00  0.16177356160E+03  0.16177356160E+03  0.00000000000E+00 0.  1.
          2   -1    0    0  501    0  0.00000000000E+00 -0.00000000000E+00 -0.21526793069E+04  0.21526793069E+04  0.00000000000E+00 0. -1.
         23    2    1    2    0    0 -0.40202573409E+03  0.14928652099E+03 -0.65050776503E+03  0.78454995462E+03  0.91908229843E+02 0.  0.
    5000000    2    1    2    0    0  0.40202573409E+03 -0.14928652099E+03 -0.13403979803E+04  0.15299029139E+04  0.60002085310E+03 0.  0.
         23    2    4    4    0    0  0.19529668491E+02  0.14223443688E+03 -0.10024696193E+03  0.19735513430E+03  0.91035996583E+02 0.  0.
         23    2    4    4    0    0  0.38249606560E+03 -0.29152095786E+03 -0.12401510183E+04  0.13325477796E+04  0.80133185969E+02 0.  0.
          1    1    3    3  502    0 -0.36977417735E+03  0.10720574362E+03 -0.58416245994E+03  0.69962260777E+03  0.00000000000E+00 0. -1.
         -1    1    3    3    0  502 -0.32251556738E+02  0.42080777361E+02 -0.66345305094E+02  0.84927346852E+02  0.00000000000E+00 0.  1.
         13    1    5    5    0    0 -0.16923531156E+02  0.35531400718E+02  0.89808558606E+01  0.40367587440E+02  0.00000000000E+00 0.  1.
        -13    1    5    5    0    0  0.36453199647E+02  0.10670303616E+03 -0.10922781779E+03  0.15698754686E+03  0.00000000000E+00 0. -1.
          3    1    6    6  503    0  0.27051300189E+03 -0.18711167330E+03 -0.93446060726E+03  0.99065871469E+03  0.00000000000E+00 0. -1.
         -3    1    6    6    0  503  0.11198306371E+03 -0.10440928456E+03 -0.30569041107E+03  0.34188906487E+03  0.00000000000E+00 0.  1.
<mgrwt>
<rscale>  0 0.53607970E+03</rscale>
<asrwt>0</asrwt>
<pdfrwt beam="1">  1        2 0.33118144E+00 0.53607970E+03</pdfrwt>
<pdfrwt beam="2">  1       -2 0.24888240E-01 0.53607970E+03</pdfrwt>
<totfact> 0.84117392E+01</totfact>
</mgrwt>
</event>
<event>
12    1  0.1418317E-007  0.1853754E+04  0.7818608E-02  0.8678225E-01
          3   -1    0    0  501    0  0.00000000000E+00  0.00000000000E+00  0.20771246952E+04  0.20771246952E+04  0.00000000000E+00 0. -1.
         -3   -1    0    0    0  501 -0.00000000000E+00 -0.00000000000E+00 -0.16909121269E+04  0.16909121269E+04  0.00000000000E+00 0.  1.
         23    2    1    2    0    0 -0.59406295871E+03  0.17213443452E+04  0.31151140902E+03  0.18492688033E+04  0.82574785276E+02 0.  0.
    5000000    2    1    2    0    0  0.59406295871E+03 -0.17213443452E+04  0.74701159219E+02  0.19187680188E+04  0.60012773085E+03 0.  0.
         23    2    4    4    0    0  0.31331940706E+03 -0.30172301960E+03  0.14804650955E+03  0.46761206350E+03  0.86818440145E+02 0.  0.
         23    2    4    4    0    0  0.28074355166E+03 -0.14196213256E+04 -0.73345350330E+02  0.14511559553E+04  0.79576481747E+02 0.  0.
          2    1    3    3  502    0 -0.34147193699E+03  0.87821528035E+03  0.18099350484E+03  0.95949143361E+03  0.00000000000E+00 0. -1.
         -2    1    3    3    0  502 -0.25259102173E+03  0.84312906484E+03  0.13051790418E+03  0.88977736966E+03  0.00000000000E+00 0.  1.
         11    1    5    5    0    0  0.21631701995E+03 -0.17558857248E+03  0.57330665874E+02  0.28444895000E+03  0.00000000000E+00 0. -1.
        -11    1    5    5    0    0  0.97002387100E+02 -0.12613444712E+03  0.90715843675E+02  0.18316311350E+03  0.00000000000E+00 0.  1.
          2    1    6    6  503    0  0.39609170000E+02 -0.25230875302E+03  0.15665265482E+02  0.25587886537E+03  0.00000000000E+00 0.  1.
         -2    1    6    6    0  503  0.24113438166E+03 -0.11673125726E+04 -0.89010615812E+02  0.11952770900E+04  0.00000000000E+00 0. -1.
<mgrwt>
<rscale>  0 0.18537540E+04</rscale>
<asrwt>0</asrwt>
<pdfrwt beam="1">  1        3 0.31955765E+00 0.18537540E+04</pdfrwt>
<pdfrwt beam="2">  1       -3 0.26014033E+00 0.18537540E+04</pdfrwt>
<totfact> 0.44560693E-03</totfact>
</mgrwt>
</event>
<event>
12    1  0.1418317E-007  0.6413773E+03  0.7818608E-02  0.9823095E-01
         -1   -1    0    0    0  501 -0.00000000000E+00  0.00000000000E+00  0.19131856326E+03  0.19131856326E+03  0.00000000000E+00 0.  1.
          1   -1    0    0  501    0  0.00000000000E+00 -0.00000000000E+00 -0.30926227334E+04  0.30926227334E+04  0.00000000000E+00 0. -1.
         23    2    1    2    0    0 -0.35074768854E+03 -0.51975252024E+03 -0.15884785604E+04  0.17101937126E+04  0.91278552589E+02 0.  0.
    5000000    2    1    2    0    0  0.35074768854E+03  0.51975252024E+03 -0.13128256097E+04  0.15737475841E+04  0.60000312803E+03 0.  0.
         23    2    4    4    0    0  0.96770680377E+02  0.17695008268E+03 -0.36699267144E+02  0.22465479138E+03  0.91907794777E+02 0.  0.
         23    2    4    4    0    0  0.25397700816E+03  0.34280243755E+03 -0.12761263425E+04  0.13490927927E+04  0.97647781925E+02 0.  0.
          1    1    3    3  502    0 -0.29111778493E+03 -0.37400300672E+03 -0.11276652812E+04  0.12232157619E+04  0.00000000000E+00 0. -1.
         -1    1    3    3    0  502 -0.59629903612E+02 -0.14574951352E+03 -0.46081327929E+03  0.48697795069E+03  0.00000000000E+00 0.  1.
         11    1    5    5    0    0  0.64782736251E+02  0.47492758857E+02 -0.43083543043E+02  0.91151284913E+02  0.00000000000E+00 0.  1.
        -11    1    5    5    0    0  0.31987944126E+02  0.12945732383E+03  0.63842758982E+01  0.13350350647E+03  0.00000000000E+00 0. -1.
          4    1    6    6  503    0  0.17035166216E+03  0.29678884829E+03 -0.10024478869E+04  0.10592474098E+04  0.00000000000E+00 0. -1.
         -4    1    6    6    0  503  0.83625346001E+02  0.46013589261E+02 -0.27367845562E+03  0.28984538286E+03  0.00000000000E+00 0.  1.
<mgrwt>
<rscale>  0 0.64137734E+03</rscale>
<asrwt>0</asrwt>
<pdfrwt beam="1">  1        1 0.47578808E+00 0.64137734E+03</pdfrwt>
<pdfrwt beam="2">  1       -1 0.29433627E-01 0.64137734E+03</pdfrwt>
<totfact> 0.58848160E+00</totfact>
</mgrwt>
</event>
<event>
12    1  0.1418317E-007  0.7617089E+03  0.7818608E-02  0.9617158E-01
          2   -1    0    0  501    0  0.00000000000E+00  0.00000000000E+00  0.12379457859E+04  0.12379457859E+04  0.00000000000E+00 0.  1.
         -2   -1    0    0    0  501 -0.00000000000E+00 -0.00000000000E+00 -0.52553080817E+03  0.52553080817E+03  0.00000000000E+00 0. -1.
         23    2    1    2    0    0 -0.13913448960E+03 -0.64626832784E+03  0.85571018914E+02  0.67258992462E+03  0.89630628963E+02 0.  0.
    5000000    2    1    2    0    0  0.13913448960E+03  0.64626832784E+03  0.62684395885E+03  0.10908866695E+04  0.60006601231E+03 0.  0.
         23    2    4    4    0    0  0.34027545083E+03  0.36804780834E+03  0.50047285508E+03  0.71408886769E+03  0.90571853347E+02 0.  0.
         23    2    4    4    0    0 -0.20114096123E+03  0.27822051951E+03  0.12637110377E+03  0.37679780180E+03  0.90236266598E+02 0.  0.
          1    1    3    3  502    0 -0.96556035355E+00 -0.18408391002E+03  0.10471831045E+02  0.18438404888E+03  0.00000000000E+00 0. -1.
         -1    1    3    3    0  502 -0.13816892925E+03 -0.46218441782E+03  0.75099187869E+02  0.48820587574E+03  0.00000000000E+00 0.  1.
         11    1    5    5    0    0  0.65744320950E+02  0.55402945968E+02  0.44475058581E+02  0.96797897678E+02  0.00000000000E+00 0.  1.
        -11    1    5    5    0    0  0.27453112988E+03  0.31264486237E+03  0.45599779650E+03  0.61729097001E+03  0.00000000000E+00 0. -1.
          1    1    6    6  503    0 -0.19741241347E+03  0.28527001062E+03  0.12228617662E+03  0.36783766657E+03  0.00000000000E+00 0. -1.
         -1    1    6    6    0  503 -0.37285477607E+01 -0.70494911189E+01  0.40849271495E+01  0.89601352253E+01  0.00000000000E+00 0.  1.
<mgrwt>
<rscale>  0 0.76170889E+03</rscale>
<asrwt>0</asrwt>
<pdfrwt beam="1">  1        2 0.19045320E+00 0.76170889E+03</pdfrwt>
<pdfrwt beam="2">  1       -2 0.80850894E-01 0.76170889E+03</pdfrwt>
<totfact> 0.24709420E+01</totfact>
</mgrwt>
</event>
<event>
12    1  0.1418317E-007  0.1596258E+04  0.7818608E-02  0.8822850E-01
         -1   -1    0    0    0  501 -0.00000000000E+00  0.00000000000E+00  0.13925881027E+04  0.13925881027E+04  0.00000000000E+00 0.  1.
          1   -1    0    0  501    0  0.00000000000E+00 -0.00000000000E+00 -0.21996382960E+04  0.21996382960E+04  0.00000000000E+00 0. -1.
         23    2    1    2    0    0 -0.10478523687E+04  0.11295545068E+04  0.33966100621E+03  0.15800862403E+04  0.86110147653E+02 0.  0.
    5000000    2    1    2    0    0  0.10478523687E+04 -0.11295545068E+04 -0.11467111994E+04  0.20121401583E+04  0.59989455048E+03 0.  0.
         23    2    4    4    0    0  0.56417034086E+03 -0.20768331946E+03 -0.45930262785E+03  0.76204696434E+03  0.91302449108E+02 0.  0.
         23    2    4    4    0    0  0.48368202780E+03 -0.92187118729E+03 -0.68740857159E+03  0.12500931940E+04  0.80047857244E+02 0.  0.
          4    1    3    3  502    0 -0.84505190656E+03  0.95589248204E+03  0.26941016959E+03  0.13040034515E+04  0.00000000000E+00 0. -1.
         -4    1    3    3    0  502 -0.20280046210E+03  0.17366202472E+03  0.70250836625E+02  0.27608278886E+03  0.00000000000E+00 0.  1.
         13    1    5    5    0    0  0.21453310310E+03 -0.11768095860E+03 -0.15302952452E+03  0.28860231412E+03  0.00000000000E+00 0. -1.
        -13    1    5    5    0    0  0.34963723776E+03 -0.90002360857E+02 -0.30627310333E+03  0.47344465021E+03  0.00000000000E+00 0.  1.
          2    1    6    6  503    0  0.35283166690E+03 -0.74070020350E+03 -0.53010496608E+03  0.97680000599E+03  0.00000000000E+00 0. -1.
         -2    1    6    6    0  503  0.13085036090E+03 -0.18117098379E+03 -0.15730360551E+03  0.27329318803E+03  0.00000000000E+00 0.  1.
<mgrwt>
<rscale>  0 0.15962585E+04</rscale>
<asrwt>0</asrwt>
<pdfrwt beam="1">  1        1 0.33840589E+00 0.15962585E+04</pdfrwt>
<pdfrwt beam="2">  1       -1 0.21424432E+00 0.15962585E+04</pdfrwt>
<totfact> 0.24497917E-01</totfact>
</mgrwt>
</event>
<event>
12    1  0.1418317E-007  0.3913781E+03  0.7818608E-02  0.1046807E+00
         -1   -1    0    0    0  501 -0.00000000000E+00  0.00000000000E+00  0.59562621362E+03  0.59562621362E+03  0.00000000000E+00 0.  1.
          1   -1    0    0  501    0  0.00000000000E+00 -0.00000000000E+00 -0.51812829149E+03  0.51812829149E+03  0.00000000000E+00 0. -1.
         23    2    1    2    0    0 -0.24107823691E+03 -0.14424335065E+03  0.29393050033E+03  0.41681098936E+03  0.91713692056E+02 0.  0.
    5000000    2    1    2    0    0  0.24107823691E+03  0.14424335065E+03 -0.21643257820E+03  0.69694351575E+03  0.59996861811E+03 0.  0.
         23    2    4    4    0    0  0.33468225160E+03  0.17225547041E+02  0.72882235644E+02  0.35421557073E+03  0.88588494006E+02 0.  0.
         23    2    4    4    0    0 -0.93604014691E+02  0.12701780361E+03 -0.28931481384E+03  0.34272794502E+03  0.94149608529E+02 0.  0.
          3    1    3    3  502    0 -0.18974399020E+03 -0.12193373281E+03  0.27922482777E+03  0.35893888262E+03  0.00000000000E+00 0. -1.
         -3    1    3    3    0  502 -0.51334246708E+02 -0.22309617841E+02  0.14705672563E+02  0.57872106743E+02  0.00000000000E+00 0.  1.
         13    1    5    5    0    0  0.50504441164E+02  0.38311023798E+01  0.46059518941E+02  0.68460610630E+02  0.00000000000E+00 0. -1.
        -13    1    5    5    0    0  0.28417781044E+03  0.13394444661E+02  0.26822716703E+02  0.28575496010E+03  0.00000000000E+00 0.  1.
          3    1    6    6  503    0 -0.52455324551E+02  0.10941663155E+03 -0.13256361976E+03  0.17971275307E+03  0.00000000000E+00 0. -1.
         -3    1    6    6    0  503 -0.41148690140E+02  0.17601172063E+02 -0.15675119408E+03  0.16301519194E+03  0.00000000000E+00 0.  1.
<mgrwt>
<rscale>  0 0.39137814E+03</rscale>
<asrwt>0</asrwt>
<pdfrwt beam="1">  1        1 0.79712045E-01 0.39137814E+03</pdfrwt>
<pdfrwt beam="2">  1       -1 0.91634802E-01 0.39137814E+03</pdfrwt>
<totfact> 0.52116163E+01</totfact>
</mgrwt>
</event>
<event>
12    1  0.1418317E-007  0.5904598E+03  0.7818608E-02  0.9925399E-01
          1   -1    0    0  501    0  0.00000000000E+00  0.00000000000E+00  0.72147365239E+03  0.72147365239E+03  0.00000000000E+00 0. -1.
         -1   -1    0    0    0  501 -0.00000000000E+00 -0.00000000000E+00 -0.77957342221E+03  0.77957342221E+03  0.00000000000E+00 0.  1.
         23    2    1    2    0    0 -0.38395830290E+03  0.44223218332E+03  0.19791946410E+03  0.62436862902E+03  0.87583036651E+02 0.  0.
    5000000    2    1    2    0    0  0.38395830290E+03 -0.44223218332E+03 -0.25601923392E+03  0.87667844558E+03  0.60002163835E+03 0.  0.
         23    2    4    4    0    0  0.21933772951E+03 -0.28219953120E+03  0.15297437033E+03  0.39901882035E+03  0.89828982055E+02 0.  0.
         23    2    4    4    0    0  0.16462057339E+03 -0.16003265212E+03 -0.40899360424E+03  0.47765962524E+03  0.90402247436E+02 0.  0.
          2    1    3    3  502    0 -0.89893288128E+02  0.11483727199E+03  0.89604389109E+02  0.17116468338E+03  0.00000000000E+00 0. -1.
         -2    1    3    3    0  502 -0.29406501477E+03  0.32739491132E+03  0.10831507499E+03  0.45320394564E+03  0.00000000000E+00 0.  1.
         13    1    5    5    0    0  0.91127902746E+02 -0.10149180504E+03  0.13179957538E+02  0.13703500439E+03  0.00000000000E+00 0.  1.
        -13    1    5    5    0    0  0.12820982677E+03 -0.18070772616E+03  0.13979441279E+03  0.26198381595E+03  0.00000000000E+00 0. -1.
          1    1    6    6  503    0  0.12707376446E+02 -0.44247369016E+02 -0.35412951521E+02  0.58080842077E+02  0.00000000000E+00 0. -1.
         -1    1    6    6    0  503  0.15191319694E+03 -0.11578528310E+03 -0.37358065272E+03  0.41957878316E+03  0.00000000000E+00 0.  1.
<mgrwt>
<rscale>  0 0.59045979E+03</rscale>
<asrwt>0</asrwt>
<pdfrwt beam="1">  1        1 0.11099595E+00 0.59045979E+03</pdfrwt>
<pdfrwt beam="2">  1       -1 0.11993437E+00 0.59045979E+03</pdfrwt>
<totfact> 0.16931938E+01</totfact>
</mgrwt>
</event>
<event>
12    1  0.1418317E-007  0.5644766E+03  0.7818608E-02  0.9981976E-01
          2   -1    0    0  501    0  0.00000000000E+00  0.00000000000E+00  0.14609614324E+04  0.14609614324E+04  0.00000000000E+00 0. -1.
         -2   -1    0    0    0  501 -0.00000000000E+00 -0.00000000000E+00 -0.33736974135E+03  0.33736974135E+03  0.00000000000E+00 0.  1.
         23    2    1    2    0    0  0.48965850309E+03 -0.19404111534E+03  0.18417545212E+03  0.56536017571E+03  0.91072097920E+02 0.  0.
    5000000    2    1    2    0    0 -0.48965850309E+03  0.19404111534E+03  0.93941623898E+03  0.12329709981E+04  0.60024762221E+03 0.  0.
         23    2    4    4    0    0 -0.41468198100E+01  0.98843359216E+02  0.62731238276E+03  0.64106190722E+03  0.87477640240E+02 0.  0.
         23    2    4    4    0    0 -0.48551168328E+03  0.95197756128E+02  0.31210385622E+03  0.59190909087E+03  0.90351244680E+02 0.  0.
          2    1    3    3  502    0  0.21220238330E+03 -0.88110588219E+02  0.33057635307E+02  0.23213387190E+03  0.00000000000E+00 0.  1.
         -2    1    3    3    0  502  0.27745611979E+03 -0.10593052713E+03  0.15111781682E+03  0.33322630380E+03  0.00000000000E+00 0. -1.
         11    1    5    5    0    0 -0.45818261997E+01  0.13338717386E+02  0.87066466816E+01  0.16574685797E+02  0.00000000000E+00 0.  1.
        -11    1    5    5    0    0  0.43500638964E+00  0.85504641830E+02  0.61860573608E+03  0.62448722142E+03  0.00000000000E+00 0. -1.
          4    1    6    6  503    0 -0.51051270870E+02  0.39543752611E+02  0.47693234576E+02  0.80278174196E+02  0.00000000000E+00 0.  1.
         -4    1    6    6    0  503 -0.43446041241E+03  0.55654003517E+02  0.26441062164E+03  0.51163091667E+03  0.00000000000E+00 0. -1.
<mgrwt>
<rscale>  0 0.56447662E+03</rscale>
<asrwt>0</asrwt>
<pdfrwt beam="1">  1        2 0.22476329E+00 0.56447662E+03</pdfrwt>
<pdfrwt beam="2">  1       -2 0.51903038E-01 0.56447662E+03</pdfrwt>
<totfact> 0.48893018E+01</totfact>
</mgrwt>
</event>
<event>
12    1  0.1418317E-007  0.4462759E+03  0.7818608E-02  0.1028838E+00
         -2   -1    0    0    0  501 -0.00000000000E+00  0.00000000000E+00  0.20726866734E+03  0.20726866734E+03  0.00000000000E+00 0.  1.
          2   -1    0    0  501    0  0.00000000000E+00 -0.00000000000E+00 -0.11970347529E+04  0.11970347529E+04  0.00000000000E+00 0. -1.
         23    2    1    2    0    0  0.13371989930E+02 -0.30457554035E+03 -0.25189237799E+03  0.40598196011E+03  0.91796034525E+02 0.  0.
    5000000    2    1    2    0    0 -0.13371989930E+02  0.30457554035E+03 -0.73787370762E+03  0.99832146016E+03  0.59936888436E+03 0.  0.
         23    2    4    4    0    0 -0.21445816011E+03  0.27730410470E+03 -0.67634644549E+03  0.76752110647E+03  0.93564232629E+02 0.  0.
         23    2    4    4    0    0  0.20108617018E+03  0.27271435646E+02 -0.61527262131E+02  0.23080035370E+03  0.91125299682E+02 0.  0.
          3    1    3    3  502    0 -0.25454966650E+02 -0.19211999653E+03 -0.11811515934E+03  0.22695646996E+03  0.00000000000E+00 0. -1.
         -3    1    3    3    0  502  0.38826956580E+02 -0.11245554382E+03 -0.13377721865E+03  0.17902549015E+03  0.00000000000E+00 0.  1.
         11    1    5    5    0    0 -0.84755950784E+02  0.16650486116E+03 -0.28714898296E+03  0.34258134567E+03  0.00000000000E+00 0.  1.
        -11    1    5    5    0    0 -0.12970220932E+03  0.11079924355E+03 -0.38919746252E+03  0.42493976080E+03  0.00000000000E+00 0. -1.
          1    1    6    6  503    0  0.48407308102E+02 -0.32604083703E+02 -0.18967398983E+02  0.61368200038E+02  0.00000000000E+00 0. -1.
         -1    1    6    6    0  503  0.15267886208E+03  0.59875519349E+02 -0.42559863148E+02  0.16943215366E+03  0.00000000000E+00 0.  1.
<mgrwt>
<rscale>  0 0.44627593E+03</rscale>
<asrwt>0</asrwt>
<pdfrwt beam="1">  1        2 0.18415920E+00 0.44627593E+03</pdfrwt>
<pdfrwt beam="2">  1       -2 0.31887487E-01 0.44627593E+03</pdfrwt>
<totfact> 0.18069102E+02</totfact>
</mgrwt>
</event>
<event>
12    1  0.1418317E-007  0.6724612E+03  0.7818608E-02  0.9765522E-01
         -2   -1    0    0    0  501 -0.00000000000E+00  0.00000000000E+00  0.17855460124E+03  0.17855460124E+03  0.00000000000E+00 0. -1.
          2   -1    0    0  501    0  0.00000000000E+00 -0.00000000000E+00 -0.26340304837E+04  0.26340304837E+04  0.00000000000E+00 0.  1.
         23    2    1    2    0    0  0.66757942246E+02 -0.54567389899E+03 -0.97926628519E+03  0.11268027083E+04  0.92223962632E+02 0.  0.
    5000000    2    1    2    0    0 -0.66757942246E+02  0.54567389899E+03 -0.14762095973E+04  0.16857823766E+04  0.60037556522E+03 0.  0.
         23    2    4    4    0    0 -0.16174079795E+03 -0.48087663695E+02 -0.22765712788E+03  0.29709074090E+03  0.89233577378E+02 0.  0.
         23    2    4    4    0    0  0.94982855706E+02  0.59376156268E+03 -0.12485524694E+04  0.13886916357E+04  0.89479908708E+02 0.  0.
          3    1    3    3  502    0  0.11839528085E+02 -0.23285525978E+03 -0.33047923149E+03  0.40444810406E+03  0.00000000000E+00 0. -1.
         -3    1    3    3    0  502  0.54918414161E+02 -0.31281863921E+03 -0.64878705369E+03  0.72235460426E+03  0.00000000000E+00 0.  1.
         13    1    5    5    0    0 -0.80002534562E+02  0.19221504157E+02 -0.12472732069E+03  0.14942147196E+03  0.00000000000E+00 0. -1.
        -13    1    5    5    0    0 -0.81738263390E+02 -0.67309167851E+02 -0.10292980720E+03  0.14766926894E+03  0.00000000000E+00 0.  1.
          1    1    6    6  503    0  0.27960811988E+02  0.39995122401E+03 -0.87713196247E+03  0.96441861667E+03  0.00000000000E+00 0. -1.
         -1    1    6    6    0  503  0.67022043718E+02  0.19381033867E+03 -0.37142050691E+03  0.42427301902E+03  0.00000000000E+00 0.  1.
<mgrwt>
<rscale>  0 0.67246118E+03</rscale>
<asrwt>0</asrwt>
<pdfrwt beam="1">  1        2 0.40523543E+00 0.67246118E+03</pdfrwt>
<pdfrwt beam="2">  1       -2 0.27469941E-01 0.67246118E+03</pdfrwt>
<totfact> 0.37110794E+01</totfact>
</mgrwt>
</event>
<event>
12    1  0.1418317E-007  0.4926067E+03  0.7818608E-02  0.1015727E+00
         -2   -1    0    0    0  501 -0.00000000000E+00  0.00000000000E+00  0.25904779416E+03  0.25904779416E+03  0.00000000000E+00 0.  1.
          2   -1    0    0  501    0  0.00000000000E+00 -0.00000000000E+00 -0.12606214466E+04  0.12606214466E+04  0.00000000000E+00 0. -1.
         23    2    1    2    0    0 -0.37449516436E+03 -0.15524515844E+02 -0.57854977869E+03  0.69542929070E+03  0.91730110755E+02 0.  0.
    5000000    2    1    2    0    0  0.37449516436E+03  0.15524515844E+02 -0.42302387378E+03  0.82423995008E+03  0.59994554653E+03 0.  0.
         23    2    4    4    0    0  0.46352688648E+03 -0.25356748432E+01 -0.11024097909E+03  0.48604153926E+03  0.96019270362E+02 0.  0.
         23    2    4    4    0    0 -0.89031722117E+02  0.18060190687E+02 -0.31278289469E+03  0.33819841082E+03  0.91061560726E+02 0.  0.
          3    1    3    3  502    0 -0.60213682605E+02  0.31168193007E+02 -0.11328155212E+03  0.13202217192E+03  0.00000000000E+00 0. -1.
         -3    1    3    3    0  502 -0.31428148175E+03 -0.46692708851E+02 -0.46526822657E+03  0.56340711878E+03  0.00000000000E+00 0.  1.
         11    1    5    5    0    0  0.14257006099E+03  0.43595678198E+02 -0.32071880596E+02  0.15249724907E+03  0.00000000000E+00 0. -1.
        -11    1    5    5    0    0  0.32095682548E+03 -0.46131353041E+02 -0.78169098491E+02  0.33354429019E+03  0.00000000000E+00 0.  1.
          4    1    6    6  503    0 -0.55069987551E+01 -0.29643606635E+02 -0.50274300479E+02  0.58622314337E+02  0.00000000000E+00 0.  1.
         -4    1    6    6    0  503 -0.83524723362E+02  0.47703797321E+02 -0.26250859421E+03  0.27957609648E+03  0.00000000000E+00 0. -1.
<mgrwt>
<rscale>  0 0.49260666E+03</rscale>
<asrwt>0</asrwt>
<pdfrwt beam="1">  1        2 0.19394176E+00 0.49260666E+03</pdfrwt>
<pdfrwt beam="2">  1       -2 0.39853507E-01 0.49260666E+03</pdfrwt>
<totfact> 0.10818918E+02</totfact>
</mgrwt>
</event>
<event>
12    1  0.1418317E-007  0.9360787E+03  0.7818608E-02  0.9381572E-01
         -1   -1    0    0    0  501 -0.00000000000E+00  0.00000000000E+00  0.85388525137E+03  0.85388525137E+03  0.00000000000E+00 0.  1.
          1   -1    0    0  501    0  0.00000000000E+00 -0.00000000000E+00 -0.10900765979E+04  0.10900765979E+04  0.00000000000E+00 0. -1.
         23    2    1    2    0    0  0.75499133193E+03  0.42975228650E+03 -0.99590707793E+02  0.87942475537E+03  0.93651760530E+02 0.  0.
    5000000    2    1    2    0    0 -0.75499133193E+03 -0.42975228650E+03 -0.13660063871E+03  0.10645370939E+04  0.59990045067E+03 0.  0.
         23    2    4    4    0    0 -0.29553572611E+03 -0.45017484977E+03  0.70647333697E+02  0.55072669935E+03  0.91159699708E+02 0.  0.
         23    2    4    4    0    0 -0.45945560582E+03  0.20422563271E+02 -0.20724797241E+03  0.51381039452E+03  0.97636389963E+02 0.  0.
          3    1    3    3  502    0  0.46332017186E+03  0.21164516551E+03 -0.67214245173E+02  0.51378693296E+03  0.00000000000E+00 0. -1.
         -3    1    3    3    0  502  0.29167116007E+03  0.21810712099E+03 -0.32376462620E+02  0.36563782241E+03  0.00000000000E+00 0.  1.
         13    1    5    5    0    0 -0.18295323078E+03 -0.26773389087E+03  0.86942556816E+02  0.33572656904E+03  0.00000000000E+00 0. -1.
        -13    1    5    5    0    0 -0.11258249533E+03 -0.18244095890E+03 -0.16295223119E+02  0.21500013032E+03  0.00000000000E+00 0.  1.
          2    1    6    6  503    0 -0.14431083233E+03  0.44253889289E+01 -0.17076766496E+02  0.14538506233E+03  0.00000000000E+00 0. -1.
         -2    1    6    6    0  503 -0.31514477349E+03  0.15997174342E+02 -0.19017120591E+03  0.36842533220E+03  0.00000000000E+00 0.  1.
<mgrwt>
<rscale>  0 0.93607873E+03</rscale>
<asrwt>0</asrwt>
<pdfrwt beam="1">  1        1 0.16770409E+00 0.93607873E+03</pdfrwt>
<pdfrwt beam="2">  1       -1 0.13136696E+00 0.93607873E+03</pdfrwt>
<totfact> 0.64357137E+00</totfact>
</mgrwt>
</event>
<event>
12    1  0.1418317E-007  0.9144253E+03  0.7818608E-02  0.9407727E-01
          2   -1    0    0  501    0  0.00000000000E+00  0.00000000000E+00  0.15389190463E+04  0.15389190463E+04  0.00000000000E+00 0. -1.
         -2   -1    0    0    0  501 -0.00000000000E+00 -0.00000000000E+00 -0.62653013784E+03  0.62653013784E+03  0.00000000000E+00 0.  1.
         23    2    1    2    0    0 -0.51097138844E+03  0.66558878247E+03  0.93454228583E+02  0.84877355790E+03  0.87078542757E+02 0.  0.
    5000000    2    1    2    0    0  0.51097138844E+03 -0.66558878247E+03  0.81893467987E+03  0.13166756262E+04  0.59906636333E+03 0.  0.
         23    2    4    4    0    0  0.54789680089E+03 -0.33057248258E+03  0.35980443839E+03  0.73984059960E+03  0.91846656278E+02 0.  0.
         23    2    4    4    0    0 -0.36925412449E+02 -0.33501629988E+03  0.45913024147E+03  0.57683502663E+03  0.91316274758E+02 0.  0.
          3    1    3    3  502    0 -0.37491120774E+03  0.42263414824E+03  0.71189769763E+02  0.56942604460E+03  0.00000000000E+00 0. -1.
         -3    1    3    3    0  502 -0.13606018070E+03  0.24295463422E+03  0.22264458820E+02  0.27934751330E+03  0.00000000000E+00 0.  1.
         11    1    5    5    0    0  0.44786477519E+03 -0.25873157114E+03  0.32863285535E+03  0.61280048660E+03  0.00000000000E+00 0.  1.
        -11    1    5    5    0    0  0.10003202570E+03 -0.71840911448E+02  0.31171583040E+02  0.12704011301E+03  0.00000000000E+00 0. -1.
          4    1    6    6  503    0 -0.59555869506E+02 -0.25743583609E+03  0.38642992562E+03  0.46813267213E+03  0.00000000000E+00 0. -1.
         -4    1    6    6    0  503  0.22630457057E+02 -0.77580463792E+02  0.72700315851E+02  0.10870235450E+03  0.00000000000E+00 0.  1.
<mgrwt>
<rscale>  0 0.91442529E+03</rscale>
<asrwt>0</asrwt>
<pdfrwt beam="1">  1        2 0.23675678E+00 0.91442529E+03</pdfrwt>
<pdfrwt beam="2">  1       -2 0.96389252E-01 0.91442529E+03</pdfrwt>
<totfact> 0.10925896E+01</totfact>
</mgrwt>
</event>
<event>
12    1  0.1433778E-007  0.1676343E+04  0.7818608E-02  0.8774973E-01
          1   -1    0    0  501    0  0.00000000000E+00  0.00000000000E+00  0.27199705255E+04  0.27199705255E+04  0.00000000000E+00 0. -1.
         -1   -1    0    0    0  501 -0.00000000000E+00 -0.00000000000E+00 -0.10877766890E+04  0.10877766890E+04  0.00000000000E+00 0.  1.
         23    2    1    2    0    0  0.64711912977E+03  0.14888561380E+04  0.37543811317E+03  0.16687272111E+04  0.90779736352E+02 0.  0.
    5000000    2    1    2    0    0 -0.64711912977E+03 -0.14888561380E+04  0.12567557233E+04  0.21390200034E+04  0.60042972871E+03 0.  0.
         23    2    4    4    0    0  0.80618949951E+02 -0.39290336524E+03  0.28987186529E+03  0.50385411305E+03  0.94714304319E+02 0.  0.
         23    2    4    4    0    0 -0.72773807973E+03 -0.10959527727E+04  0.96688385801E+03  0.16351658903E+04  0.90487022707E+02 0.  0.
          1    1    3    3  502    0  0.23812905443E+03  0.62431058428E+03  0.18799621972E+03  0.69412659569E+03  0.00000000000E+00 0. -1.
         -1    1    3    3    0  502  0.40899007534E+03  0.86454555369E+03  0.18744189345E+03  0.97460061541E+03  0.00000000000E+00 0.  1.
         13    1    5    5    0    0  0.53940450521E+02 -0.72613027695E+02  0.56283400503E+02  0.10653659074E+03  0.00000000000E+00 0. -1.
        -13    1    5    5    0    0  0.26678499431E+02 -0.32029033755E+03  0.23358846479E+03  0.39731752232E+03  0.00000000000E+00 0.  1.
          2    1    6    6  503    0 -0.46880923229E+03 -0.66904401422E+03  0.55149934810E+03  0.98567414504E+03  0.00000000000E+00 0. -1.
         -2    1    6    6    0  503 -0.25892884744E+03 -0.42690875851E+03  0.41538450991E+03  0.64949174529E+03  0.00000000000E+00 0.  1.
<mgrwt>
<rscale>  0 0.16763429E+04</rscale>
<asrwt>0</asrwt>
<pdfrwt beam="1">  1        1 0.41845700E+00 0.16763429E+04</pdfrwt>
<pdfrwt beam="2">  1       -1 0.16735026E+00 0.16763429E+04</pdfrwt>
<totfact> 0.22740661E-01</totfact>
</mgrwt>
</event>
<event>
12    1  0.1418317E-007  0.1195192E+04  0.7818608E-02  0.9117075E-01
         -1   -1    0    0    0  501 -0.00000000000E+00  0.00000000000E+00  0.52171540153E+03  0.52171540153E+03  0.00000000000E+00 0.  1.
          1   -1    0    0  501    0  0.00000000000E+00 -0.00000000000E+00 -0.28046412009E+04  0.28046412009E+04  0.00000000000E+00 0. -1.
         23    2    1    2    0    0 -0.10727516954E+04  0.34238626885E+03 -0.12501748420E+04  0.16850237269E+04  0.91341488086E+02 0.  0.
    5000000    2    1    2    0    0  0.10727516954E+04 -0.34238626885E+03 -0.10327509574E+04  0.16413328756E+04  0.59947853276E+03 0.  0.
         23    2    4    4    0    0  0.78560589700E+03 -0.50074442325E+03 -0.74267682096E+03  0.11941552362E+04  0.80723384974E+02 0.  0.
         23    2    4    4    0    0  0.28714579845E+03  0.15835815440E+03 -0.29007413643E+03  0.44717763939E+03  0.91075912902E+02 0.  0.
          3    1    3    3  502    0 -0.89533990600E+03  0.31523713557E+03 -0.10774427355E+04  0.14359285662E+04  0.00000000000E+00 0. -1.
         -3    1    3    3    0  502 -0.17741178945E+03  0.27149133282E+02 -0.17273210658E+03  0.24909516076E+03  0.00000000000E+00 0.  1.
         13    1    5    5    0    0  0.28038862858E+03 -0.16790385955E+03 -0.21344930852E+03  0.39034612385E+03  0.00000000000E+00 0.  1.
        -13    1    5    5    0    0  0.50521726841E+03 -0.33284056370E+03 -0.52922751244E+03  0.80380911233E+03  0.00000000000E+00 0. -1.
          1    1    6    6  503    0  0.69037231894E+02  0.56227400967E+02 -0.33108347272E+02  0.94993803304E+02  0.00000000000E+00 0. -1.
         -1    1    6    6    0  503  0.21810856656E+03  0.10213075344E+03 -0.25696578915E+03  0.35218383608E+03  0.00000000000E+00 0.  1.
<mgrwt>
<rscale>  0 0.11951921E+04</rscale>
<asrwt>0</asrwt>
<pdfrwt beam="1">  1        1 0.43148325E+00 0.11951921E+04</pdfrwt>
<pdfrwt beam="2">  1       -1 0.80263909E-01 0.11951921E+04</pdfrwt>
<totfact> 0.12759605E+00</totfact>
</mgrwt>
</event>
<event>
12    1  0.1418317E-007  0.6276144E+03  0.7818608E-02  0.9849715E-01
         -2   -1    0    0    0  501 -0.00000000000E+00  0.00000000000E+00  0.36399908809E+03  0.36399908809E+03  0.00000000000E+00 0.  1.
          2   -1    0    0  501    0  0.00000000000E+00 -0.00000000000E+00 -0.17018231865E+04  0.17018231865E+04  0.00000000000E+00 0. -1.
         23    2    1    2    0    0 -0.14706895791E+03 -0.58801996166E+03 -0.20176523531E+03  0.64523283540E+03  0.90661171416E+02 0.  0.
    5000000    2    1    2    0    0  0.14706895791E+03  0.58801996166E+03 -0.11360588631E+04  0.14205894392E+04  0.60003988254E+03 0.  0.
         23    2    4    4    0    0  0.46669402688E+02  0.58978484600E+02 -0.73071379912E+03  0.74014503243E+03  0.90639494763E+02 0.  0.
         23    2    4    4    0    0  0.10039955522E+03  0.52904147706E+03 -0.40534506399E+03  0.68044440678E+03  0.93461300401E+02 0.  0.
          4    1    3    3  502    0 -0.13486949498E+03 -0.36160960771E+03 -0.13492811058E+03  0.40884824090E+03  0.00000000000E+00 0. -1.
         -4    1    3    3    0  502 -0.12199462930E+02 -0.22641035396E+03 -0.66837124723E+02  0.23638459450E+03  0.00000000000E+00 0.  1.
         13    1    5    5    0    0  0.62090811444E+02  0.62650856302E+02 -0.70043737007E+03  0.70596948096E+03  0.00000000000E+00 0.  1.
        -13    1    5    5    0    0 -0.15421408756E+02 -0.36723717015E+01 -0.30276429051E+02  0.34175551466E+02  0.00000000000E+00 0. -1.
          4    1    6    6  503    0  0.32653319324E+02  0.16638804271E+03 -0.75674605530E+02  0.18568216377E+03  0.00000000000E+00 0. -1.
         -4    1    6    6    0  503  0.67746235899E+02  0.36265343435E+03 -0.32967045846E+03  0.49476224301E+03  0.00000000000E+00 0.  1.
<mgrwt>
<rscale>  0 0.62761441E+03</rscale>
<asrwt>0</asrwt>
<pdfrwt beam="1">  1        2 0.26181896E+00 0.62761441E+03</pdfrwt>
<pdfrwt beam="2">  1       -2 0.55999858E-01 0.62761441E+03</pdfrwt>
<totfact> 0.30573718E+01</totfact>
</mgrwt>
</event>
<event>
12    1  0.1418317E-007  0.2264216E+04  0.7818608E-02  0.8492165E-01
         -2   -1    0    0    0  501 -0.00000000000E+00  0.00000000000E+00  0.15506033129E+04  0.15506033129E+04  0.00000000000E+00 0.  1.
          2   -1    0    0  501    0  0.00000000000E+00 -0.00000000000E+00 -0.35237346800E+04  0.35237346800E+04  0.00000000000E+00 0. -1.
         23    2    1    2    0    0 -0.21828261655E+04 -0.48752870799E+03 -0.15436755086E+04  0.27191620730E+04  0.92162863794E+02 0.  0.
    5000000    2    1    2    0    0  0.21828261655E+04  0.48752870799E+03 -0.42945585844E+03  0.23551759199E+04  0.60000580765E+03 0.  0.
         23    2    4    4    0    0  0.57921433103E+03 -0.86952077221E+02 -0.23874379207E+03  0.63857008409E+03  0.87882017723E+02 0.  0.
         23    2    4    4    0    0  0.16036118345E+04  0.57448078521E+03 -0.19071206638E+03  0.17166058358E+04  0.93623794494E+02 0.  0.
          4    1    3    3  502    0 -0.13210636921E+04 -0.31765073079E+03 -0.98502289200E+03  0.16782077830E+04  0.00000000000E+00 0. -1.
         -4    1    3    3    0  502 -0.86176247347E+03 -0.16987797720E+03 -0.55865261659E+03  0.10409542900E+04  0.00000000000E+00 0.  1.
         13    1    5    5    0    0  0.17595962615E+03 -0.58641964011E+01 -0.34817398791E+02  0.17946707244E+03  0.00000000000E+00 0. -1.
        -13    1    5    5    0    0  0.40325470488E+03 -0.81087880820E+02 -0.20392639328E+03  0.45910301164E+03  0.00000000000E+00 0.  1.
          1    1    6    6  503    0  0.87412226020E+03  0.28967026030E+03 -0.61698345526E+02  0.92293297227E+03  0.00000000000E+00 0. -1.
         -1    1    6    6    0  503  0.72948957430E+03  0.28481052491E+03 -0.12901372085E+03  0.79367286352E+03  0.00000000000E+00 0.  1.
<mgrwt>
<rscale>  0 0.22642164E+04</rscale>
<asrwt>0</asrwt>
<pdfrwt beam="1">  1        2 0.54211302E+00 0.22642164E+04</pdfrwt>
<pdfrwt beam="2">  1       -2 0.23855436E+00 0.22642164E+04</pdfrwt>
<totfact> 0.51242621E-02</totfact>
</mgrwt>
</event>
<event>
12    1  0.1418317E-007  0.9926344E+03  0.7818608E-02  0.9316660E-01
          3   -1    0    0  501    0  0.00000000000E+00  0.00000000000E+00  0.10152152140E+04  0.10152152140E+04  0.00000000000E+00 0. -1.
         -3   -1    0    0    0  501 -0.00000000000E+00 -0.00000000000E+00 -0.11384990197E+04  0.11384990197E+04  0.00000000000E+00 0.  1.
         23    2    1    2    0    0 -0.89953439862E+03  0.25162191822E+03  0.26909542567E+03  0.97628411717E+03  0.90788794944E+02 0.  0.
    5000000    2    1    2    0    0  0.89953439862E+03 -0.25162191822E+03 -0.39237923135E+03  0.11774301166E+04  0.59992040653E+03 0.  0.
         23    2    4    4    0    0  0.56945046859E+03 -0.38225986574E+03 -0.42071102454E+03  0.80967149128E+03  0.90408608544E+02 0.  0.
         23    2    4    4    0    0  0.33008393003E+03  0.13063794752E+03  0.28331793182E+02  0.36775862528E+03  0.91771682831E+02 0.  0.
          4    1    3    3  502    0 -0.85195795064E+03  0.21577043960E+03  0.25411695721E+03  0.91485772675E+03  0.00000000000E+00 0. -1.
         -4    1    3    3    0  502 -0.47576447982E+02  0.35851478619E+02  0.14978468463E+02  0.61426390414E+02  0.00000000000E+00 0.  1.
         13    1    5    5    0    0  0.61618826023E+02 -0.13703862783E+02 -0.25334075767E+02  0.68018313494E+02  0.00000000000E+00 0. -1.
        -13    1    5    5    0    0  0.50783164257E+03 -0.36855600296E+03 -0.39537694877E+03  0.74165317779E+03  0.00000000000E+00 0.  1.
          4    1    6    6  503    0  0.21110752848E+03  0.98759060165E+02 -0.23246123575E+02  0.23422237896E+03  0.00000000000E+00 0. -1.
         -4    1    6    6    0  503  0.11897640155E+03  0.31878887357E+02  0.51577916756E+02  0.13353624632E+03  0.00000000000E+00 0.  1.
<mgrwt>
<rscale>  0 0.99263438E+03</rscale>
<asrwt>0</asrwt>
<pdfrwt beam="1">  1        3 0.15618696E+00 0.99263438E+03</pdfrwt>
<pdfrwt beam="2">  1       -3 0.17515370E+00 0.99263438E+03</pdfrwt>
<totfact> 0.15743230E-01</totfact>
</mgrwt>
</event>
<event>
12    1  0.1949221E-007  0.1548308E+04  0.7818608E-02  0.8852949E-01
         -2   -1    0    0    0  501 -0.00000000000E+00  0.00000000000E+00  0.14028825582E+04  0.14028825582E+04  0.00000000000E+00 0.  1.
          2   -1    0    0  501    0  0.00000000000E+00 -0.00000000000E+00 -0.18967911626E+04  0.18967911626E+04  0.00000000000E+00 0. -1.
         23    2    1    2    0    0  0.34737569164E+03  0.14630827112E+04  0.23464142837E+03  0.15239209567E+04  0.77444118200E+02 0.  0.
    5000000    2    1    2    0    0 -0.34737569164E+03 -0.14630827112E+04 -0.72855003282E+03  0.17757527641E+04  0.60102565507E+03 0.  0.
         23    2    4    4    0    0 -0.51410883150E+02 -0.62088740542E+01  0.23435166968E+02  0.10726108291E+03  0.90962101078E+02 0.  0.
         23    2    4    4    0    0 -0.29596480849E+03 -0.14568738371E+04 -0.75198519979E+03  0.16684916812E+04  0.91138380476E+02 0.  0.
          1    1    3    3  502    0  0.17003787774E+03  0.75732299404E+03  0.83124301444E+02  0.78061555625E+03  0.00000000000E+00 0. -1.
         -1    1    3    3    0  502  0.17733781389E+03  0.70575971712E+03  0.15151712693E+03  0.74330540043E+03  0.00000000000E+00 0.  1.
         11    1    5    5    0    0 -0.54010512918E+02 -0.41806424143E+02  0.95570178756E+01  0.68965565292E+02  0.00000000000E+00 0.  1.
        -11    1    5    5    0    0  0.25996297688E+01  0.35597550089E+02  0.13878149093E+02  0.38295517616E+02  0.00000000000E+00 0. -1.
          3    1    6    6  503    0 -0.13020282014E+03 -0.83817140170E+03 -0.45329736228E+03  0.96174974481E+03  0.00000000000E+00 0. -1.
         -3    1    6    6    0  503 -0.16576198835E+03 -0.61870243541E+03 -0.29868783751E+03  0.70674193638E+03  0.00000000000E+00 0.  1.
<mgrwt>
<rscale>  0 0.15483078E+04</rscale>
<asrwt>0</asrwt>
<pdfrwt beam="1">  1        2 0.29181402E+00 0.15483078E+04</pdfrwt>
<pdfrwt beam="2">  1       -2 0.21582809E+00 0.15483078E+04</pdfrwt>
<totfact> 0.74848830E-01</totfact>
</mgrwt>
</event>
<event>
12    1  0.1418317E-007  0.7266917E+03  0.7818608E-02  0.9672644E-01
          2   -1    0    0  501    0  0.00000000000E+00  0.00000000000E+00  0.13958678198E+04  0.13958678198E+04  0.00000000000E+00 0. -1.
         -2   -1    0    0    0  501 -0.00000000000E+00 -0.00000000000E+00 -0.43326629051E+03  0.43326629051E+03  0.00000000000E+00 0.  1.
         23    2    1    2    0    0  0.58698455413E+03  0.20270243548E+03  0.15526167571E+03  0.64681961637E+03  0.92899322082E+02 0.  0.
    5000000    2    1    2    0    0 -0.58698455413E+03 -0.20270243548E+03  0.80733985362E+03  0.11823144940E+04  0.60035887541E+03 0.  0.
         23    2    4    4    0    0  0.86758225274E+02 -0.76588925350E+02  0.50391881146E+02  0.15731719894E+03  0.93896252625E+02 0.  0.
         23    2    4    4    0    0 -0.67374277940E+03 -0.12611351013E+03  0.75694797247E+03  0.10249972950E+04  0.88404024613E+02 0.  0.
          3    1    3    3  502    0  0.44793951698E+03  0.17357046282E+03  0.15492339778E+03  0.50475516403E+03  0.00000000000E+00 0. -1.
         -3    1    3    3    0  502  0.13904503715E+03  0.29131972658E+02  0.33827792895E+00  0.14206445234E+03  0.00000000000E+00 0.  1.
         13    1    5    5    0    0  0.87847677890E+02 -0.22089899262E+02  0.13709873121E+02  0.91614075234E+02  0.00000000000E+00 0.  1.
        -13    1    5    5    0    0 -0.10894526158E+01 -0.54499026087E+02  0.36682008025E+02  0.65703123702E+02  0.00000000000E+00 0. -1.
          2    1    6    6  503    0 -0.50209607160E+03 -0.83686102666E+02  0.50352760484E+03  0.71599153468E+03  0.00000000000E+00 0. -1.
         -2    1    6    6    0  503 -0.17164670780E+03 -0.42427407466E+02  0.25342036763E+03  0.30900576036E+03  0.00000000000E+00 0.  1.
<mgrwt>
<rscale>  0 0.72669171E+03</rscale>
<asrwt>0</asrwt>
<pdfrwt beam="1">  1        2 0.21474889E+00 0.72669171E+03</pdfrwt>
<pdfrwt beam="2">  1       -2 0.66656353E-01 0.72669171E+03</pdfrwt>
<totfact> 0.30813195E+01</totfact>
</mgrwt>
</event>
<event>
12    1  0.1418317E-007  0.8483214E+03  0.7818608E-02  0.9492593E-01
         -2   -1    0    0    0  501 -0.00000000000E+00  0.00000000000E+00  0.41983825237E+03  0.41983825237E+03  0.00000000000E+00 0.  1.
          2   -1    0    0  501    0  0.00000000000E+00 -0.00000000000E+00 -0.21956591237E+04  0.21956591237E+04  0.00000000000E+00 0. -1.
         23    2    1    2    0    0 -0.79811419039E+03 -0.12405948592E+03 -0.12195604146E+04  0.14657189879E+04  0.92884496670E+02 0.  0.
    5000000    2    1    2    0    0  0.79811419039E+03  0.12405948592E+03 -0.55626045678E+03  0.11497783882E+04  0.60015633734E+03 0.  0.
         23    2    4    4    0    0  0.74823498540E+03  0.17905447871E+03 -0.23823561217E+03  0.81041652709E+03  0.90014669575E+02 0.  0.
         23    2    4    4    0    0  0.49879204989E+02 -0.54994992789E+02 -0.31802484461E+03  0.33936186112E+03  0.92272892398E+02 0.  0.
          1    1    3    3  502    0 -0.67482294634E+03 -0.10119629503E+03 -0.10854500056E+04  0.12821187206E+04  0.00000000000E+00 0. -1.
         -1    1    3    3    0  502 -0.12329124405E+03 -0.22863190889E+02 -0.13411040897E+03  0.18360026729E+03  0.00000000000E+00 0.  1.
         13    1    5    5    0    0  0.43182641755E+03  0.12456714474E+03 -0.17985769864E+03  0.48408658338E+03  0.00000000000E+00 0.  1.
        -13    1    5    5    0    0  0.31640856785E+03  0.54487333965E+02 -0.58377913533E+02  0.32632994371E+03  0.00000000000E+00 0. -1.
          2    1    6    6  503    0  0.73702756488E+02 -0.20575033472E+02 -0.20067144055E+03  0.21476604799E+03  0.00000000000E+00 0.  1.
         -2    1    6    6    0  503 -0.23823551499E+02 -0.34419959317E+02 -0.11735340406E+03  0.12459581313E+03  0.00000000000E+00 0. -1.
<mgrwt>
<rscale>  0 0.84832139E+03</rscale>
<asrwt>0</asrwt>
<pdfrwt beam="1">  1        2 0.33779372E+00 0.84832139E+03</pdfrwt>
<pdfrwt beam="2">  1       -2 0.64590498E-01 0.84832139E+03</pdfrwt>
<totfact> 0.11782672E+01</totfact>
</mgrwt>
</event>
<event>
12    1  0.1418317E-007  0.3708589E+03  0.7818608E-02  0.1054365E+00
         -2   -1    0    0    0  501 -0.00000000000E+00  0.00000000000E+00  0.93183743256E+02  0.93183743256E+02  0.00000000000E+00 0.  1.
          2   -1    0    0  501    0  0.00000000000E+00 -0.00000000000E+00 -0.32786143261E+04  0.32786143261E+04  0.00000000000E+00 0. -1.
         23    2    1    2    0    0  0.32849241394E+03  0.12418207421E+03 -0.66765944302E+03  0.75984659648E+03  0.90935497798E+02 0.  0.
    5000000    2    1    2    0    0 -0.32849241394E+03 -0.12418207421E+03 -0.25177711398E+04  0.26119514729E+04  0.59982541671E+03 0.  0.
         23    2    4    4    0    0 -0.26660610096E+03 -0.49627599984E+02 -0.40892360483E+03  0.49887123496E+03  0.90068211537E+02 0.  0.
         23    2    4    4    0    0 -0.61886312980E+02 -0.74554474229E+02 -0.21088475350E+04  0.21130802379E+04  0.92097126200E+02 0.  0.
          2    1    3    3  502    0  0.25041480730E+03  0.66991885433E+02 -0.41524796128E+03  0.48951645301E+03  0.00000000000E+00 0. -1.
         -2    1    3    3    0  502  0.78077606647E+02  0.57190188780E+02 -0.25241148174E+03  0.27033014347E+03  0.00000000000E+00 0.  1.
         11    1    5    5    0    0 -0.13509919228E+03 -0.49454187948E+02 -0.27953524379E+03  0.31438425689E+03  0.00000000000E+00 0. -1.
        -11    1    5    5    0    0 -0.13150690868E+03 -0.17341203546E+00 -0.12938836104E+03  0.18448697806E+03  0.00000000000E+00 0.  1.
          1    1    6    6  503    0 -0.54751267903E+02 -0.24849159324E+02 -0.52415445629E+03  0.52759177032E+03  0.00000000000E+00 0. -1.
         -1    1    6    6    0  503 -0.71350450771E+01 -0.49705314905E+02 -0.15846930787E+04  0.15854884676E+04  0.00000000000E+00 0.  1.
<mgrwt>
<rscale>  0 0.37085891E+03</rscale>
<asrwt>0</asrwt>
<pdfrwt beam="1">  1        2 0.50440208E+00 0.37085891E+03</pdfrwt>
<pdfrwt beam="2">  1       -2 0.14335964E-01 0.37085891E+03</pdfrwt>
<totfact> 0.50353516E+01</totfact>
</mgrwt>
</event>
<event>
12    1  0.1418317E-007  0.8526039E+03  0.7818608E-02  0.9486849E-01
          1   -1    0    0  501    0  0.00000000000E+00  0.00000000000E+00  0.66446294540E+03  0.66446294540E+03  0.00000000000E+00 0. -1.
         -1   -1    0    0    0  501 -0.00000000000E+00 -0.00000000000E+00 -0.19560952130E+04  0.19560952130E+04  0.00000000000E+00 0.  1.
         23    2    1    2    0    0 -0.73097042556E+03  0.26227157891E+03  0.22576538754E+03  0.81358646008E+03  0.88593304873E+02 0.  0.
    5000000    2    1    2    0    0  0.73097042556E+03 -0.26227157891E+03 -0.15173976552E+04  0.18069716983E+04  0.59962232325E+03 0.  0.
         23    2    4    4    0    0  0.21450389806E+03 -0.32443285576E+03 -0.37763134354E+03  0.55068259636E+03  0.96836409141E+02 0.  0.
         23    2    4    4    0    0  0.51646652751E+03  0.62161276852E+02 -0.11397663116E+04  0.12562891020E+04  0.92700400433E+02 0.  0.
          1    1    3    3  502    0 -0.30959058634E+03  0.65448596927E+02  0.98441011270E+02  0.33139173600E+03  0.00000000000E+00 0. -1.
         -1    1    3    3    0  502 -0.42137983923E+03  0.19682298198E+03  0.12732437627E+03  0.48219472409E+03  0.00000000000E+00 0.  1.
         13    1    5    5    0    0  0.12191734176E+03 -0.10537600905E+03 -0.12698660440E+03  0.20516710069E+03  0.00000000000E+00 0. -1.
        -13    1    5    5    0    0  0.92586556295E+02 -0.21905684671E+03 -0.25064473913E+03  0.34551549568E+03  0.00000000000E+00 0.  1.
          1    1    6    6  503    0  0.42093277655E+03  0.77392040248E+02 -0.98217504288E+03  0.10713737654E+04  0.00000000000E+00 0. -1.
         -1    1    6    6    0  503  0.95533750955E+02 -0.15230763396E+02 -0.15759126875E+03  0.18491533660E+03  0.00000000000E+00 0.  1.
<mgrwt>
<rscale>  0 0.85260387E+03</rscale>
<asrwt>0</asrwt>
<pdfrwt beam="1">  1        1 0.10222507E+00 0.85260387E+03</pdfrwt>
<pdfrwt beam="2">  1       -1 0.30093773E+00 0.85260387E+03</pdfrwt>
<totfact> 0.99556031E-01</totfact>
</mgrwt>
</event>
<event>
12    1  0.1418317E-007  0.7275290E+03  0.7818608E-02  0.9671279E-01
          1   -1    0    0  501    0  0.00000000000E+00  0.00000000000E+00  0.66659760939E+03  0.66659760939E+03  0.00000000000E+00 0. -1.
         -1   -1    0    0    0  501 -0.00000000000E+00 -0.00000000000E+00 -0.15156810586E+04  0.15156810586E+04  0.00000000000E+00 0.  1.
         23    2    1    2    0    0 -0.63621649338E+03  0.58509373066E+02  0.32087958139E+03  0.72047911315E+03  0.89059943549E+02 0.  0.
    5000000    2    1    2    0    0  0.63621649338E+03 -0.58509373066E+02 -0.11699630306E+04  0.14617995549E+04  0.59987471390E+03 0.  0.
         23    2    4    4    0    0 -0.36109557421E+02 -0.11665899020E+03 -0.68517298622E+02  0.16677799051E+03  0.90592813051E+02 0.  0.
         23    2    4    4    0    0  0.67232605080E+03  0.58149617139E+02 -0.11014457320E+04  0.12950215643E+04  0.92165367756E+02 0.  0.
          4    1    3    3  502    0 -0.50824347864E+03  0.23722711257E+02  0.28462032425E+03  0.58299479379E+03  0.00000000000E+00 0. -1.
         -4    1    3    3    0  502 -0.12797301474E+03  0.34786661808E+02  0.36259257143E+02  0.13748431936E+03  0.00000000000E+00 0.  1.
         11    1    5    5    0    0 -0.46566720093E+02 -0.40117610041E+02  0.29534547602E+01  0.61535395917E+02  0.00000000000E+00 0. -1.
        -11    1    5    5    0    0  0.10457162672E+02 -0.76541380163E+02 -0.71470753382E+02  0.10524259460E+03  0.00000000000E+00 0.  1.
          3    1    6    6  503    0  0.48810820506E+03  0.47187719869E+02 -0.87349553959E+03  0.10017338761E+04  0.00000000000E+00 0. -1.
         -3    1    6    6    0  503  0.18421784574E+03  0.10961897270E+02 -0.22795019241E+03  0.29328768829E+03  0.00000000000E+00 0.  1.
<mgrwt>
<rscale>  0 0.72752900E+03</rscale>
<asrwt>0</asrwt>
<pdfrwt beam="1">  1        1 0.10255348E+00 0.72752900E+03</pdfrwt>
<pdfrwt beam="2">  1       -1 0.23318170E+00 0.72752900E+03</pdfrwt>
<totfact> 0.27595954E+00</totfact>
</mgrwt>
</event>
<event>
12    1  0.1418317E-007  0.1215107E+04  0.7818608E-02  0.9099735E-01
         -2   -1    0    0    0  501 -0.00000000000E+00  0.00000000000E+00  0.18356948019E+04  0.18356948019E+04  0.00000000000E+00 0.  1.
          2   -1    0    0  501    0  0.00000000000E+00 -0.00000000000E+00 -0.17616983132E+04  0.17616983132E+04  0.00000000000E+00 0. -1.
         23    2    1    2    0    0  0.11603563758E+04 -0.31977297964E+03 -0.12304940468E+04  0.17237876094E+04  0.92986265721E+02 0.  0.
    5000000    2    1    2    0    0 -0.11603563758E+04  0.31977297964E+03  0.13044905354E+04  0.18736055057E+04  0.60001696369E+03 0.  0.
         23    2    4    4    0    0 -0.47209764444E+03  0.21778557935E+03  0.95420869981E+03  0.10903117881E+04  0.89212151406E+02 0.  0.
         23    2    4    4    0    0 -0.68825873138E+03  0.10198740029E+03  0.35028183559E+03  0.78329371766E+03  0.82159434235E+02 0.  0.
          1    1    3    3  502    0  0.97090202170E+03 -0.30145478501E+03 -0.10238588562E+04  0.14428488073E+04  0.00000000000E+00 0. -1.
         -1    1    3    3    0  502  0.18945435413E+03 -0.18318194632E+02 -0.20663519056E+03  0.28093880211E+03  0.00000000000E+00 0.  1.
         13    1    5    5    0    0 -0.18500653637E+03  0.38445740330E+02  0.34885072237E+03  0.39673961228E+03  0.00000000000E+00 0. -1.
        -13    1    5    5    0    0 -0.28709110808E+03  0.17933983902E+03  0.60535797743E+03  0.69357217580E+03  0.00000000000E+00 0.  1.
          3    1    6    6  503    0 -0.38448495242E+03  0.59292808885E+02  0.15002780294E+03  0.41695642156E+03  0.00000000000E+00 0. -1.
         -3    1    6    6    0  503 -0.30377377896E+03  0.42694591407E+02  0.20025403265E+03  0.36633729610E+03  0.00000000000E+00 0.  1.
<mgrwt>
<rscale>  0 0.12151068E+04</rscale>
<asrwt>0</asrwt>
<pdfrwt beam="1">  1        2 0.27103051E+00 0.12151068E+04</pdfrwt>
<pdfrwt beam="2">  1       -2 0.28241459E+00 0.12151068E+04</pdfrwt>
<totfact> 0.35866783E-01</totfact>
</mgrwt>
</event>
<event>
12    1  0.1418317E-007  0.6743662E+03  0.7818608E-02  0.9762102E-01
          2   -1    0    0  501    0  0.00000000000E+00  0.00000000000E+00  0.22746141736E+04  0.22746141736E+04  0.00000000000E+00 0.  1.
         -2   -1    0    0    0  501 -0.00000000000E+00 -0.00000000000E+00 -0.25613649785E+03  0.25613649785E+03  0.00000000000E+00 0. -1.
         23    2    1    2    0    0  0.33337573466E+03  0.54750016792E+03  0.92947169385E+03  0.11319219248E+04  0.80210970285E+02 0.  0.
    5000000    2    1    2    0    0 -0.33337573466E+03 -0.54750016792E+03  0.10890059819E+04  0.13988287467E+04  0.59991000961E+03 0.  0.
         23    2    4    4    0    0 -0.76770739739E+02 -0.17373718546E+02  0.64319825316E+03  0.65420370110E+03  0.89904933608E+02 0.  0.
         23    2    4    4    0    0 -0.25660499493E+03 -0.53012644938E+03  0.44580772875E+03  0.74462504560E+03  0.94030589607E+02 0.  0.
          4    1    3    3  502    0  0.10411017223E+03  0.24676434122E+03  0.38062308925E+03  0.46540896438E+03  0.00000000000E+00 0. -1.
         -4    1    3    3    0  502  0.22926556244E+03  0.30073582670E+03  0.54884860460E+03  0.66651296038E+03  0.00000000000E+00 0.  1.
         13    1    5    5    0    0 -0.20172988950E+02  0.30401875395E+02  0.11017888904E+03  0.11606296180E+03  0.00000000000E+00 0.  1.
        -13    1    5    5    0    0 -0.56597750789E+02 -0.47775593941E+02  0.53301936411E+03  0.53814073930E+03  0.00000000000E+00 0. -1.
          3    1    6    6  503    0 -0.10646941288E+03 -0.29074146691E+03  0.27716712656E+03  0.41555739978E+03  0.00000000000E+00 0. -1.
         -3    1    6    6    0  503 -0.15013558205E+03 -0.23938498246E+03  0.16864060218E+03  0.32906764583E+03  0.00000000000E+00 0.  1.
<mgrwt>
<rscale>  0 0.67436619E+03</rscale>
<asrwt>0</asrwt>
<pdfrwt beam="1">  1        2 0.34994063E+00 0.67436619E+03</pdfrwt>
<pdfrwt beam="2">  1       -2 0.39405617E-01 0.67436619E+03</pdfrwt>
<totfact> 0.29965982E+01</totfact>
</mgrwt>
</event>
<event>
12    1  0.1418317E-007  0.6925206E+03  0.7818608E-02  0.9730109E-01
         -2   -1    0    0    0  501 -0.00000000000E+00  0.00000000000E+00  0.33085372674E+03  0.33085372674E+03  0.00000000000E+00 0.  1.
          2   -1    0    0  501    0  0.00000000000E+00 -0.00000000000E+00 -0.15096943305E+04  0.15096943305E+04  0.00000000000E+00 0. -1.
         23    2    1    2    0    0 -0.55342082089E+03 -0.15613258721E+03 -0.46726504465E+03  0.74647208550E+03  0.90730164201E+02 0.  0.
    5000000    2    1    2    0    0  0.55342082089E+03  0.15613258721E+03 -0.71157555911E+03  0.10940759717E+04  0.60000872145E+03 0.  0.
         23    2    4    4    0    0 -0.80783643923E+02 -0.64563365982E+02 -0.48905495696E+02  0.14630914076E+03  0.91215085413E+02 0.  0.
         23    2    4    4    0    0  0.63420446482E+03  0.22069595320E+03 -0.66267006341E+03  0.94776683098E+03  0.90599922790E+02 0.  0.
          2    1    3    3  502    0 -0.52362124207E+03 -0.13129434860E+03 -0.41265885700E+03  0.67948858959E+03  0.00000000000E+00 0. -1.
         -2    1    3    3    0  502 -0.29799578824E+02 -0.24838238614E+02 -0.54606187642E+02  0.66983495910E+02  0.00000000000E+00 0.  1.
         11    1    5    5    0    0 -0.29080974742E+02  0.19716291835E+02 -0.28756222990E+02  0.45402154314E+02  0.00000000000E+00 0. -1.
        -11    1    5    5    0    0 -0.51702669181E+02 -0.84279657817E+02 -0.20149272706E+02  0.10090698644E+03  0.00000000000E+00 0.  1.
          3    1    6    6  503    0  0.26580986313E+03  0.11071855603E+03 -0.22659012688E+03  0.36641038138E+03  0.00000000000E+00 0. -1.
         -3    1    6    6    0  503  0.36839460169E+03  0.10997739717E+03 -0.43607993653E+03  0.58135644960E+03  0.00000000000E+00 0.  1.
<mgrwt>
<rscale>  0 0.69252057E+03</rscale>
<asrwt>0</asrwt>
<pdfrwt beam="1">  1        2 0.23226067E+00 0.69252057E+03</pdfrwt>
<pdfrwt beam="2">  1       -2 0.50900573E-01 0.69252057E+03</pdfrwt>
<totfact> 0.47041959E+01</totfact>
</mgrwt>
</event>
<event>
12    1  0.1514622E-007  0.1160110E+04  0.7818608E-02  0.9148507E-01
          2   -1    0    0  501    0  0.00000000000E+00  0.00000000000E+00  0.16718741745E+04  0.16718741745E+04  0.00000000000E+00 0. -1.
         -2   -1    0    0    0  501 -0.00000000000E+00 -0.00000000000E+00 -0.91756300577E+03  0.91756300577E+03  0.00000000000E+00 0.  1.
         23    2    1    2    0    0 -0.70356166033E+03 -0.89063442662E+03  0.85363486828E+02  0.11417868545E+04  0.90341598657E+02 0.  0.
    5000000    2    1    2    0    0  0.70356166033E+03  0.89063442662E+03  0.66894768193E+03  0.14476503258E+04  0.59997647690E+03 0.  0.
         23    2    4    4    0    0  0.68107576401E+03  0.83378641075E+03  0.39068910484E+03  0.11489069628E+04  0.91023390102E+02 0.  0.
         23    2    4    4    0    0  0.22485896322E+02  0.56848015869E+02  0.27825857709E+03  0.29874336295E+03  0.89902440121E+02 0.  0.
          4    1    3    3  502    0 -0.35958823255E+03 -0.44201586236E+03 -0.16997645351E+01  0.56981102900E+03  0.00000000000E+00 0. -1.
         -4    1    3    3    0  502 -0.34397342778E+03 -0.44861856426E+03  0.87063251363E+02  0.57197582550E+03  0.00000000000E+00 0.  1.
         13    1    5    5    0    0  0.41456955188E+03  0.51301488429E+03  0.28605812274E+03  0.71894466716E+03  0.00000000000E+00 0.  1.
        -13    1    5    5    0    0  0.26650621213E+03  0.32077152647E+03  0.10463098210E+03  0.42996229569E+03  0.00000000000E+00 0. -1.
          4    1    6    6  503    0 -0.34616680675E+02  0.27887561457E+02  0.12388269543E+03  0.13161668926E+03  0.00000000000E+00 0. -1.
         -4    1    6    6    0  503  0.57102576997E+02  0.28960454412E+02  0.15437588166E+03  0.16712667369E+03  0.00000000000E+00 0.  1.
<mgrwt>
<rscale>  0 0.11601102E+04</rscale>
<asrwt>0</asrwt>
<pdfrwt beam="1">  1        2 0.25721141E+00 0.11601102E+04</pdfrwt>
<pdfrwt beam="2">  1       -2 0.14116354E+00 0.11601102E+04</pdfrwt>
<totfact> 0.34908268E+00</totfact>
</mgrwt>
</event>
<event>
12    1  0.1418317E-007  0.8115539E+03  0.7818608E-02  0.9543442E-01
          2   -1    0    0  501    0  0.00000000000E+00  0.00000000000E+00  0.78000405471E+03  0.78000405471E+03  0.00000000000E+00 0.  1.
         -2   -1    0    0    0  501 -0.00000000000E+00 -0.00000000000E+00 -0.15501084304E+04  0.15501084304E+04  0.00000000000E+00 0. -1.
         23    2    1    2    0    0 -0.69291036728E+03  0.12888343130E+03  0.41762199233E+03  0.82430998402E+03  0.91340600661E+02 0.  0.
    5000000    2    1    2    0    0  0.69291036728E+03 -0.12888343130E+03 -0.11877263680E+04  0.15058025011E+04  0.60000960913E+03 0.  0.
         23    2    4    4    0    0  0.62770635894E+03 -0.31180241371E+03 -0.84079886484E+03  0.10983883784E+04  0.90985055620E+02 0.  0.
         23    2    4    4    0    0  0.65204008340E+02  0.18291898241E+03 -0.34692750316E+03  0.40741412272E+03  0.88975604004E+02 0.  0.
          2    1    3    3  502    0 -0.13338812132E+03  0.61680478124E+02  0.78791944727E+02  0.16674844180E+03  0.00000000000E+00 0. -1.
         -2    1    3    3    0  502 -0.55952224597E+03  0.67202953178E+02  0.33883004761E+03  0.65756154222E+03  0.00000000000E+00 0.  1.
         11    1    5    5    0    0  0.24027984751E+03 -0.10980878726E+03 -0.25121769680E+03  0.36455823412E+03  0.00000000000E+00 0.  1.
        -11    1    5    5    0    0  0.38742651143E+03 -0.20199362646E+03 -0.58958116804E+03  0.73383014425E+03  0.00000000000E+00 0. -1.
          4    1    6    6  503    0 -0.47642935016E+01  0.11121188645E+03 -0.21089978625E+03  0.23847327318E+03  0.00000000000E+00 0. -1.
         -4    1    6    6    0  503  0.69968301841E+02  0.71707095957E+02 -0.13602771691E+03  0.16894084953E+03  0.00000000000E+00 0.  1.
<mgrwt>
<rscale>  0 0.81155387E+03</rscale>
<asrwt>0</asrwt>
<pdfrwt beam="1">  1        2 0.12000062E+00 0.81155387E+03</pdfrwt>
<pdfrwt beam="2">  1       -2 0.23847822E+00 0.81155387E+03</pdfrwt>
<totfact> 0.27502808E+00</totfact>
</mgrwt>
</event>
<event>
12    1  0.1418317E-007  0.7131861E+03  0.7818608E-02  0.9694944E-01
         -1   -1    0    0    0  501 -0.00000000000E+00  0.00000000000E+00  0.34714472253E+03  0.34714472253E+03  0.00000000000E+00 0.  1.
          1   -1    0    0  501    0  0.00000000000E+00 -0.00000000000E+00 -0.30075185790E+04  0.30075185790E+04  0.00000000000E+00 0. -1.
         23    2    1    2    0    0 -0.44546049272E+03  0.49229780998E+03 -0.22902877448E+04  0.23863251218E+04  0.91309630584E+02 0.  0.
    5000000    2    1    2    0    0  0.44546049272E+03 -0.49229780998E+03 -0.37008611166E+03  0.96833817973E+03  0.59993575989E+03 0.  0.
         23    2    4    4    0    0  0.41590368411E+03 -0.20696388896E+03 -0.45419335681E+03  0.65596731620E+03  0.90507396188E+02 0.  0.
         23    2    4    4    0    0  0.29556808608E+02 -0.28533392102E+03  0.84107245145E+02  0.31237086353E+03  0.90622713906E+02 0.  0.
          4    1    3    3  502    0 -0.34136822728E+03  0.31467813035E+03 -0.15783545044E+04  0.16452226396E+04  0.00000000000E+00 0. -1.
         -4    1    3    3    0  502 -0.10409226544E+03  0.17761967963E+03 -0.71193324046E+03  0.74110248224E+03  0.00000000000E+00 0.  1.
         11    1    5    5    0    0  0.39763988041E+03 -0.18445399295E+03 -0.39499258981E+03  0.59005075715E+03  0.00000000000E+00 0. -1.
        -11    1    5    5    0    0  0.18263803698E+02 -0.22509896010E+02 -0.59200766995E+02  0.65916559048E+02  0.00000000000E+00 0.  1.
          4    1    6    6  503    0  0.36975480352E+02 -0.21351222786E+03  0.23236925128E+02  0.21793258655E+03  0.00000000000E+00 0. -1.
         -4    1    6    6    0  503 -0.74186717442E+01 -0.71821693161E+02  0.60870320016E+02  0.94438276974E+02  0.00000000000E+00 0.  1.
<mgrwt>
<rscale>  0 0.71318608E+03</rscale>
<asrwt>0</asrwt>
<pdfrwt beam="1">  1        1 0.46269516E+00 0.71318608E+03</pdfrwt>
<pdfrwt beam="2">  1       -1 0.53406881E-01 0.71318608E+03</pdfrwt>
<totfact> 0.22595313E+00</totfact>
</mgrwt>
</event>
<event>
12    1  0.1418317E-007  0.7693128E+03  0.7818608E-02  0.9605529E-01
         -1   -1    0    0    0  501 -0.00000000000E+00  0.00000000000E+00  0.84771827839E+03  0.84771827839E+03  0.00000000000E+00 0.  1.
          1   -1    0    0  501    0  0.00000000000E+00 -0.00000000000E+00 -0.13321325490E+04  0.13321325490E+04  0.00000000000E+00 0. -1.
         23    2    1    2    0    0  0.49787936693E+03 -0.43736537341E+03  0.51118055581E+03  0.84176743624E+03  0.89969562736E+02 0.  0.
    5000000    2    1    2    0    0 -0.49787936693E+03  0.43736537341E+03 -0.99559482637E+03  0.13380833911E+04  0.60007147024E+03 0.  0.
         23    2    4    4    0    0 -0.60771901671E+03  0.42656135065E+03 -0.78723073449E+03  0.10858819528E+04  0.90168713956E+02 0.  0.
         23    2    4    4    0    0  0.10983964978E+03  0.10804022757E+02 -0.20836409188E+03  0.25220143830E+03  0.89490195672E+02 0.  0.
          3    1    3    3  502    0  0.12803388828E+02 -0.29909798529E+02  0.10137947000E+02  0.34077863532E+02  0.00000000000E+00 0. -1.
         -3    1    3    3    0  502  0.48507597810E+03 -0.40745557488E+03  0.50104260881E+03  0.80768957271E+03  0.00000000000E+00 0.  1.
         13    1    5    5    0    0 -0.43811653330E+03  0.33149765782E+03 -0.62943533696E+03  0.83547928598E+03  0.00000000000E+00 0. -1.
        -13    1    5    5    0    0 -0.16960248341E+03  0.95063692827E+02 -0.15779539753E+03  0.25040266683E+03  0.00000000000E+00 0.  1.
          4    1    6    6  503    0  0.76167415477E+02  0.38338828061E+02 -0.18289437384E+03  0.20179616672E+03  0.00000000000E+00 0. -1.
         -4    1    6    6    0  503  0.33672234306E+02 -0.27534805304E+02 -0.25469718039E+02  0.50405271582E+02  0.00000000000E+00 0.  1.
<mgrwt>
<rscale>  0 0.76931285E+03</rscale>
<asrwt>0</asrwt>
<pdfrwt beam="1">  1        1 0.20494347E+00 0.76931285E+03</pdfrwt>
<pdfrwt beam="2">  1       -1 0.13041820E+00 0.76931285E+03</pdfrwt>
<totfact> 0.44762976E+00</totfact>
</mgrwt>
</event>
<event>
12    1  0.1418317E-007  0.5085626E+03  0.7818608E-02  0.1011568E+00
          2   -1    0    0  501    0  0.00000000000E+00  0.00000000000E+00  0.16813106608E+04  0.16813106608E+04  0.00000000000E+00 0. -1.
         -2   -1    0    0    0  501 -0.00000000000E+00 -0.00000000000E+00 -0.25273971588E+03  0.25273971588E+03  0.00000000000E+00 0.  1.
         23    2    1    2    0    0  0.85065854019E+01  0.49252017867E+03  0.37937689077E+03  0.62879823672E+03  0.93871768177E+02 0.  0.
    5000000    2    1    2    0    0 -0.85065854019E+01 -0.49252017867E+03  0.10491940542E+04  0.13052521400E+04  0.60018871801E+03 0.  0.
         23    2    4    4    0    0 -0.11958318533E+02 -0.12690850486E+03  0.87792218146E+03  0.89201939092E+03  0.93287014595E+02 0.  0.
         23    2    4    4    0    0  0.34517331309E+01 -0.36561167381E+03  0.17127187269E+03  0.41323274904E+03  0.87996818247E+02 0.  0.
          4    1    3    3  502    0  0.12212855685E+02  0.28712585677E+02  0.53524816639E+02  0.61955406676E+02  0.00000000000E+00 0. -1.
         -4    1    3    3    0  502 -0.37062702829E+01  0.46380759299E+03  0.32585207413E+03  0.56684283004E+03  0.00000000000E+00 0.  1.
         13    1    5    5    0    0 -0.37653860989E+02 -0.37779405815E+02  0.17344097334E+03  0.18145762035E+03  0.00000000000E+00 0. -1.
        -13    1    5    5    0    0  0.25695542456E+02 -0.89129099048E+02  0.70448120812E+03  0.71056177057E+03  0.00000000000E+00 0.  1.
          3    1    6    6  503    0 -0.42091621415E+02 -0.16473776484E+03  0.81302981465E+02  0.18846859301E+03  0.00000000000E+00 0. -1.
         -3    1    6    6    0  503  0.45543354546E+02 -0.20087390897E+03  0.89968891228E+02  0.22476415603E+03  0.00000000000E+00 0.  1.
<mgrwt>
<rscale>  0 0.50856263E+03</rscale>
<asrwt>0</asrwt>
<pdfrwt beam="1">  1        2 0.25866317E+00 0.50856263E+03</pdfrwt>
<pdfrwt beam="2">  1       -2 0.38883034E-01 0.50856263E+03</pdfrwt>
<totfact> 0.66251619E+01</totfact>
</mgrwt>
</event>
<event>
12    1  0.1418317E-007  0.6127819E+03  0.7818608E-02  0.9879237E-01
          2   -1    0    0  501    0  0.00000000000E+00  0.00000000000E+00  0.10247720544E+04  0.10247720544E+04  0.00000000000E+00 0. -1.
         -2   -1    0    0    0  501 -0.00000000000E+00 -0.00000000000E+00 -0.46633629789E+03  0.46633629789E+03  0.00000000000E+00 0.  1.
         23    2    1    2    0    0 -0.45502322677E+03  0.13164887873E+03  0.54294379840E+03  0.72641724297E+03  0.92284768440E+02 0.  0.
    5000000    2    1    2    0    0  0.45502322677E+03 -0.13164887873E+03  0.15491958132E+02  0.76469110934E+03  0.60011242928E+03 0.  0.
         23    2    4    4    0    0  0.42006184265E+03 -0.32783037988E+03  0.51573573643E+02  0.54306922232E+03  0.91321613578E+02 0.  0.
         23    2    4    4    0    0  0.34961384119E+02  0.19618150115E+03 -0.36081615511E+02  0.22162188703E+03  0.90027207320E+02 0.  0.
          4    1    3    3  502    0 -0.14377421762E+03  0.31620567086E+02  0.10933175088E+03  0.18336934767E+03  0.00000000000E+00 0. -1.
         -4    1    3    3    0  502 -0.31124900914E+03  0.10002831165E+03  0.43361204752E+03  0.54304789529E+03  0.00000000000E+00 0.  1.
         13    1    5    5    0    0  0.32799002551E+03 -0.21645464303E+03  0.11642414257E+02  0.39314833731E+03  0.00000000000E+00 0. -1.
        -13    1    5    5    0    0  0.92071817144E+02 -0.11137573685E+03  0.39931159386E+02  0.14992088500E+03  0.00000000000E+00 0.  1.
          1    1    6    6  503    0 -0.22998419064E+02  0.90891427084E+02  0.68249894425E+01  0.94004038624E+02  0.00000000000E+00 0. -1.
         -1    1    6    6    0  503  0.57959803183E+02  0.10529007407E+03 -0.42906604954E+02  0.12761784840E+03  0.00000000000E+00 0.  1.
<mgrwt>
<rscale>  0 0.61278189E+03</rscale>
<asrwt>0</asrwt>
<pdfrwt beam="1">  1        2 0.15765724E+00 0.61278189E+03</pdfrwt>
<pdfrwt beam="2">  1       -2 0.71744046E-01 0.61278189E+03</pdfrwt>
<totfact> 0.44056597E+01</totfact>
</mgrwt>
</event>
<event>
12    1  0.1418317E-007  0.5354606E+03  0.7818608E-02  0.1004916E+00
          1   -1    0    0  501    0  0.00000000000E+00  0.00000000000E+00  0.34818121061E+04  0.34818121061E+04  0.00000000000E+00 0. -1.
         -1   -1    0    0    0  501 -0.00000000000E+00 -0.00000000000E+00 -0.12859448572E+03  0.12859448572E+03  0.00000000000E+00 0.  1.
         23    2    1    2    0    0  0.24150731527E+03  0.34722264570E+03  0.22081844679E+04  0.22502313974E+04  0.92592378027E+02 0.  0.
    5000000    2    1    2    0    0 -0.24150731527E+03 -0.34722264570E+03  0.11450331524E+04  0.13601751944E+04  0.60007190424E+03 0.  0.
         23    2    4    4    0    0 -0.10277711176E+03 -0.44791047433E+03  0.10441864921E+04  0.11443429062E+04  0.89489267062E+02 0.  0.
         23    2    4    4    0    0 -0.13873020351E+03  0.10068782863E+03  0.10084666029E+03  0.21583228818E+03  0.83841633616E+02 0.  0.
          2    1    3    3  502    0  0.12673579681E+03  0.15718827073E+03  0.82534851183E+03  0.84968834324E+03  0.00000000000E+00 0. -1.
         -2    1    3    3    0  502  0.11477151847E+03  0.19003437498E+03  0.13828359561E+04  0.14005430542E+04  0.00000000000E+00 0.  1.
         11    1    5    5    0    0 -0.11065783913E+03 -0.40418333927E+03  0.88719728023E+03  0.98118721106E+03  0.00000000000E+00 0.  1.
        -11    1    5    5    0    0  0.78807273657E+01 -0.43727135058E+02  0.15698921192E+03  0.16315569516E+03  0.00000000000E+00 0. -1.
          2    1    6    6  503    0 -0.12384500692E+03  0.55088004099E+02  0.98963622379E+02  0.16782750814E+03  0.00000000000E+00 0. -1.
         -2    1    6    6    0  503 -0.14885196597E+02  0.45599824528E+02  0.18830379120E+01  0.48004780038E+02  0.00000000000E+00 0.  1.
<mgrwt>
<rscale>  0 0.53546055E+03</rscale>
<asrwt>0</asrwt>
<pdfrwt beam="1">  1        1 0.53566333E+00 0.53546055E+03</pdfrwt>
<pdfrwt beam="2">  1       -1 0.19783770E-01 0.53546055E+03</pdfrwt>
<totfact> 0.60722635E+00</totfact>
</mgrwt>
</event>
<event>
12    1  0.1418317E-007  0.3953835E+03  0.7818608E-02  0.1045390E+00
          2   -1    0    0  501    0  0.00000000000E+00  0.00000000000E+00  0.14805500475E+04  0.14805500475E+04  0.00000000000E+00 0.  1.
         -2   -1    0    0    0  501 -0.00000000000E+00 -0.00000000000E+00 -0.23196779770E+03  0.23196779770E+03  0.00000000000E+00 0. -1.
         23    2    1    2    0    0 -0.26536260429E+03 -0.24734812818E+03  0.13749436552E+03  0.39876168166E+03  0.92237573397E+02 0.  0.
    5000000    2    1    2    0    0  0.26536260429E+03  0.24734812818E+03  0.11110878843E+04  0.13137561636E+04  0.59986712059E+03 0.  0.
         23    2    4    4    0    0  0.69373030553E+01  0.96806048420E+02  0.95493233354E+03  0.96410584607E+03  0.90469793829E+02 0.  0.
         23    2    4    4    0    0  0.25842530123E+03  0.15054207976E+03  0.15615555076E+03  0.34965031748E+03  0.91783628115E+02 0.  0.
          4    1    3    3  502    0 -0.11633977999E+03 -0.13509938319E+03  0.22754453899E+02  0.17973467367E+03  0.00000000000E+00 0.  1.
         -4    1    3    3    0  502 -0.14902282430E+03 -0.11224874499E+03  0.11473991162E+03  0.21902700799E+03  0.00000000000E+00 0. -1.
         13    1    5    5    0    0 -0.21155191253E+02  0.76452734488E+02  0.84766071070E+03  0.85136434221E+03  0.00000000000E+00 0. -1.
        -13    1    5    5    0    0  0.28092494308E+02  0.20353313932E+02  0.10727162284E+03  0.11274150386E+03  0.00000000000E+00 0.  1.
          2    1    6    6  503    0  0.11790726399E+03  0.11972555721E+03  0.70528604548E+02  0.18223780072E+03  0.00000000000E+00 0. -1.
         -2    1    6    6    0  503  0.14051803724E+03  0.30816522543E+02  0.85626946208E+02  0.16741251676E+03  0.00000000000E+00 0.  1.
<mgrwt>
<rscale>  0 0.39538349E+03</rscale>
<asrwt>0</asrwt>
<pdfrwt beam="1">  1        2 0.22777692E+00 0.39538349E+03</pdfrwt>
<pdfrwt beam="2">  1       -2 0.35687354E-01 0.39538349E+03</pdfrwt>
<totfact> 0.10215240E+02</totfact>
</mgrwt>
</event>
<event>
12    1  0.1418317E-007  0.5557893E+03  0.7818608E-02  0.1000163E+00
         -2   -1    0    0    0  501 -0.00000000000E+00  0.00000000000E+00  0.10767417737E+03  0.10767417737E+03  0.00000000000E+00 0.  1.
          2   -1    0    0  501    0  0.00000000000E+00 -0.00000000000E+00 -0.32339558834E+04  0.32339558834E+04  0.00000000000E+00 0. -1.
         23    2    1    2    0    0 -0.25620577853E+03  0.31860208117E+03 -0.81652224169E+03  0.92044428089E+03  0.11558726557E+03 0.  0.
    5000000    2    1    2    0    0  0.25620577853E+03 -0.31860208117E+03 -0.23097594644E+04  0.24211857799E+04  0.60000259209E+03 0.  0.
         23    2    4    4    0    0  0.17736110696E+03  0.13884532607E+03 -0.10141199084E+04  0.10424570528E+04  0.86847749202E+02 0.  0.
         23    2    4    4    0    0  0.78844671571E+02 -0.45744740724E+03 -0.12956395559E+04  0.13787287271E+04  0.82075765374E+02 0.  0.
          3    1    3    3  502    0 -0.16498039298E+03  0.13928456847E+03 -0.33463917865E+03  0.39824879280E+03  0.00000000000E+00 0. -1.
         -3    1    3    3    0  502 -0.91225385557E+02  0.17931751271E+03 -0.48188306304E+03  0.52219548809E+03  0.00000000000E+00 0.  1.
         13    1    5    5    0    0  0.67697289558E+02  0.80886126950E+02 -0.63109377997E+03  0.63984751907E+03  0.00000000000E+00 0. -1.
        -13    1    5    5    0    0  0.10966381740E+03  0.57959199118E+02 -0.38302612845E+03  0.40260953377E+03  0.00000000000E+00 0.  1.
          2    1    6    6  503    0  0.51135363405E+02 -0.21807345096E+03 -0.73821230157E+03  0.77144556360E+03  0.00000000000E+00 0. -1.
         -2    1    6    6    0  503  0.27709308166E+02 -0.23937395628E+03 -0.55742725437E+03  0.60728316345E+03  0.00000000000E+00 0.  1.
<mgrwt>
<rscale>  0 0.55578930E+03</rscale>
<asrwt>0</asrwt>
<pdfrwt beam="1">  1        2 0.49753168E+00 0.55578930E+03</pdfrwt>
<pdfrwt beam="2">  1       -2 0.16565258E-01 0.55578930E+03</pdfrwt>
<totfact> 0.40194503E+01</totfact>
</mgrwt>
</event>
<event>
12    1  0.1418317E-007  0.9228964E+03  0.7818608E-02  0.9397404E-01
         -3   -1    0    0    0  501 -0.00000000000E+00  0.00000000000E+00  0.15517058271E+04  0.15517058271E+04  0.00000000000E+00 0.  1.
          3   -1    0    0  501    0  0.00000000000E+00 -0.00000000000E+00 -0.68943569541E+03  0.68943569541E+03  0.00000000000E+00 0. -1.
         23    2    1    2    0    0  0.83448211480E+03  0.36727469407E+03  0.66315551842E+03  0.11314776686E+04  0.95996729975E+02 0.  0.
    5000000    2    1    2    0    0 -0.83448211480E+03 -0.36727469407E+03  0.19911461326E+03  0.11096638539E+04  0.60037999512E+03 0.  0.
         23    2    4    4    0    0 -0.15670721268E+03 -0.10079708192E+02 -0.17447471237E+03  0.25253704283E+03  0.93138508266E+02 0.  0.
         23    2    4    4    0    0 -0.67777490212E+03 -0.35719498588E+03  0.37358932563E+03  0.85712681104E+03  0.90168232171E+02 0.  0.
          4    1    3    3  502    0  0.40697717561E+03  0.20152269732E+03  0.27644135963E+03  0.53165933107E+03  0.00000000000E+00 0.  1.
         -4    1    3    3    0  502  0.42750493919E+03  0.16575199675E+03  0.38671415879E+03  0.59981833756E+03  0.00000000000E+00 0. -1.
         11    1    5    5    0    0 -0.54711610610E+02  0.20655738801E+02 -0.14351019367E+02  0.60216041366E+02  0.00000000000E+00 0. -1.
        -11    1    5    5    0    0 -0.10199560207E+03 -0.30735446993E+02 -0.16012369300E+03  0.19232100147E+03  0.00000000000E+00 0.  1.
          4    1    6    6  503    0 -0.47855596280E+03 -0.28021724385E+03  0.23353766017E+03  0.60172863651E+03  0.00000000000E+00 0. -1.
         -4    1    6    6    0  503 -0.19921893933E+03 -0.76977742025E+02  0.14005166546E+03  0.25539817453E+03  0.00000000000E+00 0.  1.
<mgrwt>
<rscale>  0 0.92289643E+03</rscale>
<asrwt>0</asrwt>
<pdfrwt beam="1">  1        3 0.10606703E+00 0.92289643E+03</pdfrwt>
<pdfrwt beam="2">  1       -3 0.23872397E+00 0.92289643E+03</pdfrwt>
<totfact> 0.16643578E-01</totfact>
</mgrwt>
</event>
<event>
12    1  0.1418317E-007  0.7999950E+03  0.7818608E-02  0.9560024E-01
         -2   -1    0    0    0  501 -0.00000000000E+00  0.00000000000E+00  0.10669502475E+04  0.10669502475E+04  0.00000000000E+00 0.  1.
          2   -1    0    0  501    0  0.00000000000E+00 -0.00000000000E+00 -0.62504569333E+03  0.62504569333E+03  0.00000000000E+00 0. -1.
         23    2    1    2    0    0  0.34028332200E+03 -0.61395750283E+03  0.23255962316E+03  0.74514380477E+03  0.91753784471E+02 0.  0.
    5000000    2    1    2    0    0 -0.34028332200E+03  0.61395750283E+03  0.20934493101E+03  0.94685213605E+03  0.59997259345E+03 0.  0.
         23    2    4    4    0    0 -0.83507549745E+02  0.61184419848E+03  0.25134177472E+03  0.67294036813E+03  0.91374051375E+02 0.  0.
         23    2    4    4    0    0 -0.25677577225E+03  0.21133043491E+01 -0.41996843709E+02  0.27391176792E+03  0.85590060474E+02 0.  0.
          3    1    3    3  502    0  0.85397699657E+01 -0.71401034934E+02  0.20432111495E+02  0.74756315056E+02  0.00000000000E+00 0. -1.
         -3    1    3    3    0  502  0.33174355203E+03 -0.54255646789E+03  0.21212751167E+03  0.67038748972E+03  0.00000000000E+00 0.  1.
         13    1    5    5    0    0 -0.94719391394E+02  0.38246189462E+03  0.14488665593E+03  0.41981067996E+03  0.00000000000E+00 0.  1.
        -13    1    5    5    0    0  0.11211841650E+02  0.22938230386E+03  0.10645511879E+03  0.25312968817E+03  0.00000000000E+00 0. -1.
          3    1    6    6  503    0 -0.11775678619E+03 -0.38067633933E+02 -0.19859618280E+01  0.12377297561E+03  0.00000000000E+00 0. -1.
         -3    1    6    6    0  503 -0.13901898607E+03  0.40180938282E+02 -0.40010881881E+02  0.15013879231E+03  0.00000000000E+00 0.  1.
<mgrwt>
<rscale>  0 0.79999501E+03</rscale>
<asrwt>0</asrwt>
<pdfrwt beam="1">  1        2 0.96160876E-01 0.79999501E+03</pdfrwt>
<pdfrwt beam="2">  1       -2 0.16414619E+00 0.79999501E+03</pdfrwt>
<totfact> 0.11199531E+01</totfact>
</mgrwt>
</event>
<event>
12    1  0.1418317E-007  0.8225860E+03  0.7818608E-02  0.9527888E-01
         -2   -1    0    0    0  501 -0.00000000000E+00  0.00000000000E+00  0.11332168583E+04  0.11332168583E+04  0.00000000000E+00 0.  1.
          2   -1    0    0  501    0  0.00000000000E+00 -0.00000000000E+00 -0.97992624697E+03  0.97992624697E+03  0.00000000000E+00 0. -1.
         23    2    1    2    0    0  0.44507112931E+03 -0.67955513227E+03 -0.45333419393E+03  0.93484234313E+03  0.92384128401E+02 0.  0.
    5000000    2    1    2    0    0 -0.44507112931E+03  0.67955513227E+03  0.60662480527E+03  0.11783007621E+04  0.60042946610E+03 0.  0.
         23    2    4    4    0    0 -0.33642980303E+03  0.46631120642E+03  0.69607888549E+03  0.90701265454E+03  0.86689025028E+02 0.  0.
         23    2    4    4    0    0 -0.10864132628E+03  0.21324392585E+03 -0.89454080223E+02  0.27128810761E+03  0.91210170344E+02 0.  0.
          3    1    3    3  502    0  0.16751358667E+03 -0.28186716287E+03 -0.13418219202E+03  0.35428062306E+03  0.00000000000E+00 0. -1.
         -3    1    3    3    0  502  0.27755754263E+03 -0.39768796941E+03 -0.31915200191E+03  0.58056172007E+03  0.00000000000E+00 0.  1.
         13    1    5    5    0    0 -0.19099196085E+03  0.19355719101E+03  0.30754576310E+03  0.41052005031E+03  0.00000000000E+00 0. -1.
        -13    1    5    5    0    0 -0.14543784218E+03  0.27275401541E+03  0.38853312239E+03  0.49649260423E+03  0.00000000000E+00 0.  1.
          3    1    6    6  503    0 -0.12002039550E+03  0.18176913061E+03 -0.94512322949E+02  0.23743944779E+03  0.00000000000E+00 0. -1.
         -3    1    6    6    0  503  0.11379069224E+02  0.31474795242E+02  0.50582427264E+01  0.33848659817E+02  0.00000000000E+00 0.  1.
<mgrwt>
<rscale>  0 0.82258605E+03</rscale>
<asrwt>0</asrwt>
<pdfrwt beam="1">  1        2 0.15075788E+00 0.82258605E+03</pdfrwt>
<pdfrwt beam="2">  1       -2 0.17434105E+00 0.82258605E+03</pdfrwt>
<totfact> 0.52102917E+00</totfact>
</mgrwt>
</event>
<event>
12    1  0.1418317E-007  0.9997779E+03  0.7818608E-02  0.9308788E-01
         -1   -1    0    0    0  501 -0.00000000000E+00  0.00000000000E+00  0.55675061763E+03  0.55675061763E+03  0.00000000000E+00 0.  1.
          1   -1    0    0  501    0  0.00000000000E+00 -0.00000000000E+00 -0.19380358538E+04  0.19380358538E+04  0.00000000000E+00 0. -1.
         23    2    1    2    0    0 -0.77338709185E+02 -0.94603241268E+03 -0.66939945346E+03  0.11652193569E+04  0.93176819046E+02 0.  0.
    5000000    2    1    2    0    0  0.77338709185E+02  0.94603241268E+03 -0.71188578268E+03  0.13295671145E+04  0.60000728544E+03 0.  0.
         23    2    4    4    0    0 -0.14566703651E+03  0.63838831368E+03 -0.66136715021E+03  0.93522129698E+03  0.92053475584E+02 0.  0.
         23    2    4    4    0    0  0.22300574570E+03  0.30764409900E+03 -0.50518632474E+02  0.39434581752E+03  0.92628490803E+02 0.  0.
          1    1    3    3  502    0 -0.48008392444E+02 -0.81706870099E+03 -0.54260162790E+03  0.98199928435E+03  0.00000000000E+00 0. -1.
         -1    1    3    3    0  502 -0.29330316741E+02 -0.12896371170E+03 -0.12679782556E+03  0.18322007254E+03  0.00000000000E+00 0.  1.
         11    1    5    5    0    0 -0.12610407850E+03  0.38749807248E+03 -0.44441860696E+03  0.60296342593E+03  0.00000000000E+00 0.  1.
        -11    1    5    5    0    0 -0.19562958007E+02  0.25089024120E+03 -0.21694854325E+03  0.33225787105E+03  0.00000000000E+00 0. -1.
          4    1    6    6  503    0  0.17270770158E+03  0.28770476229E+03 -0.55060307824E+02  0.34004943454E+03  0.00000000000E+00 0. -1.
         -4    1    6    6    0  503  0.50298044119E+02  0.19939336704E+02  0.45416753497E+01  0.54296382986E+02  0.00000000000E+00 0.  1.
<mgrwt>
<rscale>  0 0.99977793E+03</rscale>
<asrwt>0</asrwt>
<pdfrwt beam="1">  1        1 0.29815936E+00 0.99977793E+03</pdfrwt>
<pdfrwt beam="2">  1       -1 0.85653941E-01 0.99977793E+03</pdfrwt>
<totfact> 0.44670962E+00</totfact>
</mgrwt>
</event>
<event>
12    1  0.1418317E-007  0.1481575E+04  0.7818608E-02  0.8896799E-01
         -2   -1    0    0    0  501 -0.00000000000E+00  0.00000000000E+00  0.94997929992E+03  0.94997929992E+03  0.00000000000E+00 0.  1.
          2   -1    0    0  501    0  0.00000000000E+00 -0.00000000000E+00 -0.30453276946E+04  0.30453276946E+04  0.00000000000E+00 0. -1.
         23    2    1    2    0    0 -0.12303554328E+04  0.82011610401E+03 -0.16485144862E+03  0.14906585013E+04  0.92313879663E+02 0.  0.
    5000000    2    1    2    0    0  0.12303554328E+04 -0.82011610401E+03 -0.19304969461E+04  0.25046484932E+04  0.60006724668E+03 0.  0.
         23    2    4    4    0    0  0.46090254921E+03 -0.30698416289E+03 -0.11943455398E+04  0.13191919899E+04  0.84473674543E+02 0.  0.
         23    2    4    4    0    0  0.76945288361E+03 -0.51313194111E+03 -0.73615140626E+03  0.11854565033E+04  0.89588498725E+02 0.  0.
          3    1    3    3  502    0 -0.49294914423E+02  0.54128541324E+02 -0.17391102675E+02  0.75248508464E+02  0.00000000000E+00 0. -1.
         -3    1    3    3    0  502 -0.11810605184E+04  0.76598756268E+03 -0.14746034595E+03  0.14154099929E+04  0.00000000000E+00 0.  1.
         11    1    5    5    0    0  0.18382244295E+03 -0.85924913649E+02 -0.37287867983E+03  0.42451418256E+03  0.00000000000E+00 0.  1.
        -11    1    5    5    0    0  0.27708010625E+03 -0.22105924924E+03 -0.82146685998E+03  0.89467780737E+03  0.00000000000E+00 0. -1.
          4    1    6    6  503    0  0.24535413426E+03 -0.16287902511E+03 -0.28892871300E+03  0.41256275791E+03  0.00000000000E+00 0. -1.
         -4    1    6    6    0  503  0.52409874934E+03 -0.35025291600E+03 -0.44722269326E+03  0.77289374535E+03  0.00000000000E+00 0.  1.
<mgrwt>
<rscale>  0 0.14815746E+04</rscale>
<asrwt>0</asrwt>
<pdfrwt beam="1">  1        2 0.46851196E+00 0.14815746E+04</pdfrwt>
<pdfrwt beam="2">  1       -2 0.14615066E+00 0.14815746E+04</pdfrwt>
<totfact> 0.49745478E-01</totfact>
</mgrwt>
</event>
<event>
12    1  0.1418317E-007  0.6198128E+03  0.7818608E-02  0.9865132E-01
         -1   -1    0    0    0  501 -0.00000000000E+00  0.00000000000E+00  0.19558658891E+03  0.19558658891E+03  0.00000000000E+00 0.  1.
          1   -1    0    0  501    0  0.00000000000E+00 -0.00000000000E+00 -0.22016206056E+04  0.22016206056E+04  0.00000000000E+00 0. -1.
         23    2    1    2    0    0  0.38663800451E+03 -0.30355428411E+03 -0.10744856300E+04  0.11850264677E+04  0.90189856166E+02 0.  0.
    5000000    2    1    2    0    0 -0.38663800451E+03  0.30355428411E+03 -0.93154838666E+03  0.12121807268E+04  0.59997130575E+03 0.  0.
         23    2    4    4    0    0 -0.21695997016E+03  0.44640914309E+03 -0.77726924999E+03  0.92682343607E+03  0.92203269883E+02 0.  0.
         23    2    4    4    0    0 -0.16967803435E+03 -0.14285485898E+03 -0.15427913667E+03  0.28535729070E+03  0.91807326885E+02 0.  0.
          1    1    3    3  502    0  0.12294503506E+03 -0.59110535549E+02 -0.36432246481E+03  0.38902492905E+03  0.00000000000E+00 0. -1.
         -1    1    3    3    0  502  0.26369296945E+03 -0.24444374856E+03 -0.71016316523E+03  0.79600153869E+03  0.00000000000E+00 0.  1.
         11    1    5    5    0    0 -0.49157496905E+02  0.19674213632E+03 -0.34497418515E+03  0.40016386159E+03  0.00000000000E+00 0.  1.
        -11    1    5    5    0    0 -0.16780247325E+03  0.24966700677E+03 -0.43229506485E+03  0.52665957448E+03  0.00000000000E+00 0. -1.
          2    1    6    6  503    0 -0.96531401191E+02 -0.22376057533E+02 -0.65483740111E+02  0.11877339595E+03  0.00000000000E+00 0. -1.
         -2    1    6    6    0  503 -0.73146633159E+02 -0.12047880144E+03 -0.88795396557E+02  0.16658389475E+03  0.00000000000E+00 0.  1.
<mgrwt>
<rscale>  0 0.61981280E+03</rscale>
<asrwt>0</asrwt>
<pdfrwt beam="1">  1        1 0.33871089E+00 0.61981280E+03</pdfrwt>
<pdfrwt beam="2">  1       -1 0.30090242E-01 0.61981280E+03</pdfrwt>
<totfact> 0.23452928E+01</totfact>
</mgrwt>
</event>
<event>
12    1  0.1418317E-007  0.5745435E+03  0.7818608E-02  0.9959675E-01
         -2   -1    0    0    0  501 -0.00000000000E+00  0.00000000000E+00  0.13437995185E+03  0.13437995185E+03  0.00000000000E+00 0.  1.
          2   -1    0    0  501    0  0.00000000000E+00 -0.00000000000E+00 -0.36547868254E+04  0.36547868254E+04  0.00000000000E+00 0. -1.
         23    2    1    2    0    0 -0.14230663338E+03 -0.39189276997E+03 -0.24869364936E+04  0.25233682285E+04  0.93289722767E+02 0.  0.
    5000000    2    1    2    0    0  0.14230663338E+03  0.39189276997E+03 -0.10334703799E+04  0.12657985487E+04  0.60029477652E+03 0.  0.
         23    2    4    4    0    0  0.31746419450E+03  0.41738161690E+03 -0.76664714729E+03  0.93330444470E+03  0.91205313023E+02 0.  0.
         23    2    4    4    0    0 -0.17515756112E+03 -0.25488846936E+02 -0.26682323262E+03  0.33249410402E+03  0.89598209842E+02 0.  0.
          2    1    3    3  502    0 -0.25460933312E+02 -0.18203672078E+03 -0.12343122985E+04  0.12479232657E+04  0.00000000000E+00 0. -1.
         -2    1    3    3    0  502 -0.11684570007E+03 -0.20985604919E+03 -0.12526241951E+04  0.12754449628E+04  0.00000000000E+00 0.  1.
         13    1    5    5    0    0  0.33165034991E+02  0.84806062997E+01 -0.50974482328E+02  0.61402264435E+02  0.00000000000E+00 0. -1.
        -13    1    5    5    0    0  0.28429915951E+03  0.40890101060E+03 -0.71567266497E+03  0.87190218026E+03  0.00000000000E+00 0.  1.
          3    1    6    6  503    0 -0.14830632239E+03  0.96359354103E+01 -0.23487802953E+03  0.27794838598E+03  0.00000000000E+00 0.  1.
         -3    1    6    6    0  503 -0.26851238731E+02 -0.35124782346E+02 -0.31945203087E+02  0.54545718041E+02  0.00000000000E+00 0. -1.
<mgrwt>
<rscale>  0 0.57454351E+03</rscale>
<asrwt>0</asrwt>
<pdfrwt beam="1">  1        2 0.56227488E+00 0.57454351E+03</pdfrwt>
<pdfrwt beam="2">  1       -2 0.20673839E-01 0.57454351E+03</pdfrwt>
<totfact> 0.14286962E+01</totfact>
</mgrwt>
</event>
<event>
12    1  0.1418317E-007  0.1000006E+04  0.7818608E-02  0.9308539E-01
          2   -1    0    0  501    0  0.00000000000E+00  0.00000000000E+00  0.57107903002E+03  0.57107903002E+03  0.00000000000E+00 0. -1.
         -2   -1    0    0    0  501 -0.00000000000E+00 -0.00000000000E+00 -0.19767958318E+04  0.19767958318E+04  0.00000000000E+00 0.  1.
         23    2    1    2    0    0  0.95713636300E+03  0.99789914555E+02 -0.84423752573E+03  0.12827402688E+04  0.81348343441E+02 0.  0.
    5000000    2    1    2    0    0 -0.95713636300E+03 -0.99789914555E+02 -0.56147927605E+03  0.12651345930E+04  0.59936509453E+03 0.  0.
         23    2    4    4    0    0 -0.90804099846E+03  0.41951481793E+01 -0.28747686997E+03  0.95687003137E+03  0.91658343908E+02 0.  0.
         23    2    4    4    0    0 -0.49095364532E+02 -0.10398506273E+03 -0.27400240608E+03  0.30826456162E+03  0.82015079860E+02 0.  0.
          3    1    3    3  502    0  0.31965168667E+03 -0.28579649990E+01 -0.29696127384E+03  0.43631567347E+03  0.00000000000E+00 0. -1.
         -3    1    3    3    0  502  0.63748467632E+03  0.10264787955E+03 -0.54727625189E+03  0.84642459534E+03  0.00000000000E+00 0.  1.
         13    1    5    5    0    0 -0.10696562947E+03 -0.24730807087E+02 -0.18413559787E+02  0.11132078823E+03  0.00000000000E+00 0. -1.
        -13    1    5    5    0    0 -0.80107536899E+03  0.28925955267E+02 -0.26906331018E+03  0.84554924314E+03  0.00000000000E+00 0.  1.
          4    1    6    6  503    0 -0.57264960668E+02 -0.83867549332E+02 -0.14251194570E+03  0.17499341764E+03  0.00000000000E+00 0. -1.
         -4    1    6    6    0  503  0.81695961360E+01 -0.20117513402E+02 -0.13149046038E+03  0.13327114398E+03  0.00000000000E+00 0.  1.
<mgrwt>
<rscale>  0 0.10000057E+04</rscale>
<asrwt>0</asrwt>
<pdfrwt beam="1">  1        2 0.87858314E-01 0.10000057E+04</pdfrwt>
<pdfrwt beam="2">  1       -2 0.30412243E+00 0.10000057E+04</pdfrwt>
<totfact> 0.15894699E+00</totfact>
</mgrwt>
</event>
<event>
12    1  0.1418317E-007  0.6972530E+03  0.7818608E-02  0.9721942E-01
          1   -1    0    0  501    0  0.00000000000E+00  0.00000000000E+00  0.58066263271E+03  0.58066263271E+03  0.00000000000E+00 0. -1.
         -1   -1    0    0    0  501 -0.00000000000E+00 -0.00000000000E+00 -0.13584179097E+04  0.13584179097E+04  0.00000000000E+00 0.  1.
         23    2    1    2    0    0  0.57130644999E+03  0.17450090066E+03 -0.89952554016E+03  0.10835340010E+04  0.89766975416E+02 0.  0.
    5000000    2    1    2    0    0 -0.57130644999E+03 -0.17450090066E+03  0.12177026320E+03  0.85554654133E+03  0.60024183731E+03 0.  0.
         23    2    4    4    0    0 -0.58248348593E+03 -0.29158895806E+03  0.19749106212E+03  0.68629256646E+03  0.87656347817E+02 0.  0.
         23    2    4    4    0    0  0.11177035939E+02  0.11708805741E+03 -0.75720798919E+02  0.16925397488E+03  0.95282366173E+02 0.  0.
          3    1    3    3  502    0  0.17669668316E+03  0.55850290081E+02 -0.20825551558E+03  0.27876752414E+03  0.00000000000E+00 0. -1.
         -3    1    3    3    0  502  0.39460976683E+03  0.11865061057E+03 -0.69127002458E+03  0.80476647690E+03  0.00000000000E+00 0.  1.
         13    1    5    5    0    0 -0.29261801465E+03 -0.19257398788E+03  0.90090689649E+02  0.36169928901E+03  0.00000000000E+00 0. -1.
        -13    1    5    5    0    0 -0.28986547128E+03 -0.99014970185E+02  0.10740037247E+03  0.32459327745E+03  0.00000000000E+00 0.  1.
          3    1    6    6  503    0  0.30356937173E+02  0.10349210131E+02 -0.47291203280E+02  0.57141120855E+02  0.00000000000E+00 0. -1.
         -3    1    6    6    0  503 -0.19179901234E+02  0.10673884728E+03 -0.28429595639E+02  0.11211285402E+03  0.00000000000E+00 0.  1.
<mgrwt>
<rscale>  0 0.69725299E+03</rscale>
<asrwt>0</asrwt>
<pdfrwt beam="1">  1        1 0.89332714E-01 0.69725299E+03</pdfrwt>
<pdfrwt beam="2">  1       -1 0.20898737E+00 0.69725299E+03</pdfrwt>
<totfact> 0.49011310E+00</totfact>
</mgrwt>
</event>
<event>
12    1  0.1418317E-007  0.7765532E+03  0.7818608E-02  0.9594589E-01
         -1   -1    0    0    0  501 -0.00000000000E+00  0.00000000000E+00  0.13493621363E+04  0.13493621363E+04  0.00000000000E+00 0.  1.
          1   -1    0    0  501    0  0.00000000000E+00 -0.00000000000E+00 -0.57626291520E+03  0.57626291520E+03  0.00000000000E+00 0. -1.
         23    2    1    2    0    0  0.30006055836E+03 -0.67082078091E+03  0.61775617153E+03  0.96421011137E+03  0.89674927444E+02 0.  0.
    5000000    2    1    2    0    0 -0.30006055836E+03  0.67082078091E+03  0.15534304957E+03  0.96141494012E+03  0.60012529129E+03 0.  0.
         23    2    4    4    0    0 -0.37114277948E+03  0.61864070740E+03 -0.37980855699E+02  0.72919226358E+03  0.99073327646E+02 0.  0.
         23    2    4    4    0    0  0.71082221124E+02  0.52180073516E+02  0.19332390527E+03  0.23222267654E+03  0.93689897643E+02 0.  0.
          2    1    3    3  502    0  0.81242730974E+02 -0.18266916842E+03  0.22219767748E+03  0.29889833439E+03  0.00000000000E+00 0.  1.
         -2    1    3    3    0  502  0.21881782738E+03 -0.48815161250E+03  0.39555849405E+03  0.66531177697E+03  0.00000000000E+00 0. -1.
         11    1    5    5    0    0 -0.89749823609E+02  0.95935872804E+02 -0.33349531509E+02  0.13553934403E+03  0.00000000000E+00 0.  1.
        -11    1    5    5    0    0 -0.28139295587E+03  0.52270483459E+03 -0.46313241903E+01  0.59365291955E+03  0.00000000000E+00 0. -1.
          2    1    6    6  503    0  0.41498087166E+02  0.47832090707E+02  0.19213028202E+03  0.20229692387E+03  0.00000000000E+00 0. -1.
         -2    1    6    6    0  503  0.29584133957E+02  0.43479828095E+01  0.11936232522E+01  0.29925752672E+02  0.00000000000E+00 0.  1.
<mgrwt>
<rscale>  0 0.77655322E+03</rscale>
<asrwt>0</asrwt>
<pdfrwt beam="1">  1        1 0.88655834E-01 0.77655322E+03</pdfrwt>
<pdfrwt beam="2">  1       -1 0.20759417E+00 0.77655322E+03</pdfrwt>
<totfact> 0.50036352E+00</totfact>
</mgrwt>
</event>
<event>
12    1  0.1418317E-007  0.1269102E+04  0.7818608E-02  0.9054433E-01
          2   -1    0    0  501    0  0.00000000000E+00  0.00000000000E+00  0.16015902943E+04  0.16015902943E+04  0.00000000000E+00 0. -1.
         -2   -1    0    0    0  501 -0.00000000000E+00 -0.00000000000E+00 -0.11148847873E+04  0.11148847873E+04  0.00000000000E+00 0.  1.
         23    2    1    2    0    0 -0.83768662242E+03  0.94052982249E+03  0.37332578401E+03  0.13167750080E+04  0.90603842597E+02 0.  0.
    5000000    2    1    2    0    0  0.83768662242E+03 -0.94052982249E+03  0.11337972293E+03  0.13997000736E+04  0.59999175831E+03 0.  0.
         23    2    4    4    0    0  0.58621871790E+03 -0.76136742671E+03 -0.15861426461E+03  0.97829656556E+03  0.92590180759E+02 0.  0.
         23    2    4    4    0    0  0.25146790452E+03 -0.17916239577E+03  0.27199398753E+03  0.42140350802E+03  0.90911584804E+02 0.  0.
          3    1    3    3  502    0 -0.59953710369E+03  0.67884000600E+03  0.31033723829E+03  0.95738064213E+03  0.00000000000E+00 0. -1.
         -3    1    3    3    0  502 -0.23814951873E+03  0.26168981648E+03  0.62988545726E+02  0.35939436587E+03  0.00000000000E+00 0.  1.
         11    1    5    5    0    0  0.21905818115E+03 -0.28284403265E+03 -0.13876701311E+02  0.35802206129E+03  0.00000000000E+00 0.  1.
        -11    1    5    5    0    0  0.36716053676E+03 -0.47852339406E+03 -0.14473756330E+03  0.62027450427E+03  0.00000000000E+00 0. -1.
          2    1    6    6  503    0 -0.27084695821E+01  0.37542117110E+01  0.16835884152E+02  0.17460724734E+02  0.00000000000E+00 0. -1.
         -2    1    6    6    0  503  0.25417637410E+03 -0.18291660748E+03  0.25515810338E+03  0.40394278328E+03  0.00000000000E+00 0.  1.
<mgrwt>
<rscale>  0 0.12691019E+04</rscale>
<asrwt>0</asrwt>
<pdfrwt beam="1">  1        2 0.24639851E+00 0.12691019E+04</pdfrwt>
<pdfrwt beam="2">  1       -2 0.17152074E+00 0.12691019E+04</pdfrwt>
<totfact> 0.22301044E+00</totfact>
</mgrwt>
</event>
<event>
12    1  0.1418317E-007  0.5968923E+03  0.7818608E-02  0.9911875E-01
          2   -1    0    0  501    0  0.00000000000E+00  0.00000000000E+00  0.41637662162E+04  0.41637662162E+04  0.00000000000E+00 0. -1.
         -2   -1    0    0    0  501 -0.00000000000E+00 -0.00000000000E+00 -0.13950844279E+03  0.13950844279E+03  0.00000000000E+00 0.  1.
         23    2    1    2    0    0 -0.45006383302E+03  0.12393930381E+03  0.29444404124E+04  0.29825957846E+04  0.90718617267E+02 0.  0.
    5000000    2    1    2    0    0  0.45006383302E+03 -0.12393930381E+03  0.10798173610E+04  0.13206788744E+04  0.60022391756E+03 0.  0.
         23    2    4    4    0    0  0.19456982232E+03  0.21879423173E+03  0.31559609011E+03  0.43977452573E+03  0.89846590313E+02 0.  0.
         23    2    4    4    0    0  0.25549401071E+03 -0.34273353554E+03  0.76422127091E+03  0.88090434863E+03  0.95994034400E+02 0.  0.
          2    1    3    3  502    0 -0.21267360344E+03  0.93711755788E+02  0.16401086511E+04  0.16564927836E+04  0.00000000000E+00 0. -1.
         -2    1    3    3    0  502 -0.23739022958E+03  0.30227548017E+02  0.13043317612E+04  0.13261030009E+04  0.00000000000E+00 0.  1.
         13    1    5    5    0    0  0.78107632247E+02  0.64661703370E+02  0.16970462070E+03  0.19769065831E+03  0.00000000000E+00 0. -1.
        -13    1    5    5    0    0  0.11646219007E+03  0.15413252836E+03  0.14589146941E+03  0.24208386741E+03  0.00000000000E+00 0.  1.
          3    1    6    6  503    0  0.20146865452E+03 -0.26908606535E+03  0.51041500652E+03  0.61116316005E+03  0.00000000000E+00 0. -1.
         -3    1    6    6    0  503  0.54025356189E+02 -0.73647470192E+02  0.25380626439E+03  0.26974118858E+03  0.00000000000E+00 0.  1.
<mgrwt>
<rscale>  0 0.59689232E+03</rscale>
<asrwt>0</asrwt>
<pdfrwt beam="1">  1        2 0.64057932E+00 0.59689232E+03</pdfrwt>
<pdfrwt beam="2">  1       -2 0.21462841E-01 0.59689232E+03</pdfrwt>
<totfact> 0.54381982E+00</totfact>
</mgrwt>
</event>
<event>
12    1  0.1418317E-007  0.5753196E+03  0.7818608E-02  0.9957976E-01
          2   -1    0    0  501    0  0.00000000000E+00  0.00000000000E+00  0.10606232343E+04  0.10606232343E+04  0.00000000000E+00 0. -1.
         -2   -1    0    0    0  501 -0.00000000000E+00 -0.00000000000E+00 -0.60191566328E+03  0.60191566328E+03  0.00000000000E+00 0.  1.
         23    2    1    2    0    0  0.28753702309E+03 -0.41946443789E+03 -0.27644676692E+03  0.58616357606E+03  0.92395717690E+02 0.  0.
    5000000    2    1    2    0    0 -0.28753702309E+03  0.41946443789E+03  0.73515433796E+03  0.10763753216E+04  0.59958650578E+03 0.  0.
         23    2    4    4    0    0  0.83154456997E+02  0.72518376171E+02  0.47974212280E+03  0.50088752460E+03  0.92532314978E+02 0.  0.
         23    2    4    4    0    0 -0.37069148009E+03  0.34694606172E+03  0.25541221517E+03  0.57548779695E+03  0.90371796641E+02 0.  0.
          2    1    3    3  502    0  0.20853116694E+02 -0.51967557078E+02 -0.63447266167E+02  0.84622899079E+02  0.00000000000E+00 0. -1.
         -2    1    3    3    0  502  0.26668390640E+03 -0.36749688081E+03 -0.21299950075E+03  0.50154067698E+03  0.00000000000E+00 0.  1.
         13    1    5    5    0    0  0.96382954933E+02  0.59228010237E+02  0.30788436884E+03  0.32800978000E+03  0.00000000000E+00 0. -1.
        -13    1    5    5    0    0 -0.13228497936E+02  0.13290365934E+02  0.17185775396E+03  0.17287774460E+03  0.00000000000E+00 0.  1.
          2    1    6    6  503    0 -0.19550032567E+03  0.20442342835E+03  0.94664849488E+02  0.29827964919E+03  0.00000000000E+00 0. -1.
         -2    1    6    6    0  503 -0.17519115442E+03  0.14252263338E+03  0.16074736568E+03  0.27720814776E+03  0.00000000000E+00 0.  1.
<mgrwt>
<rscale>  0 0.57531955E+03</rscale>
<asrwt>0</asrwt>
<pdfrwt beam="1">  1        2 0.16317280E+00 0.57531955E+03</pdfrwt>
<pdfrwt beam="2">  1       -2 0.92602410E-01 0.57531955E+03</pdfrwt>
<totfact> 0.23679041E+01</totfact>
</mgrwt>
</event>
<event>
12    1  0.1418317E-007  0.7387366E+03  0.7818608E-02  0.9653188E-01
         -1   -1    0    0    0  501 -0.00000000000E+00  0.00000000000E+00  0.26667250182E+03  0.26667250182E+03  0.00000000000E+00 0.  1.
          1   -1    0    0  501    0  0.00000000000E+00 -0.00000000000E+00 -0.27451200531E+04  0.27451200531E+04  0.00000000000E+00 0. -1.
         23    2    1    2    0    0  0.20117528477E+02  0.72959439258E+03 -0.13721860515E+04  0.15569147350E+04  0.91521796456E+02 0.  0.
    5000000    2    1    2    0    0 -0.20117528477E+02 -0.72959439258E+03 -0.11062614998E+04  0.14548778200E+04  0.60011854881E+03 0.  0.
         23    2    4    4    0    0 -0.81921701240E+02 -0.30724282873E+03 -0.92419321383E+03  0.98164602691E+03  0.91577861497E+02 0.  0.
         23    2    4    4    0    0  0.61804172763E+02 -0.42235156385E+03 -0.18206828593E+03  0.47323179308E+03  0.92730092148E+02 0.  0.
          3    1    3    3  502    0 -0.21130178792E+01  0.26555869301E+03 -0.59293715393E+03  0.64969250634E+03  0.00000000000E+00 0. -1.
         -3    1    3    3    0  502  0.22230546356E+02  0.46403569956E+03 -0.77924889761E+03  0.90722222861E+03  0.00000000000E+00 0.  1.
         13    1    5    5    0    0 -0.22733164283E+02 -0.43674732454E+02 -0.26001023384E+03  0.26463106529E+03  0.00000000000E+00 0. -1.
        -13    1    5    5    0    0 -0.59188536956E+02 -0.26356809627E+03 -0.66418297999E+03  0.71701496162E+03  0.00000000000E+00 0.  1.
          3    1    6    6  503    0  0.48910695011E+02 -0.39132792595E+03 -0.19139823587E+03  0.43836410256E+03  0.00000000000E+00 0.  1.
         -3    1    6    6    0  503  0.12893477752E+02 -0.31023637892E+02  0.93299499416E+01  0.34867690524E+02  0.00000000000E+00 0. -1.
<mgrwt>
<rscale>  0 0.73873656E+03</rscale>
<asrwt>0</asrwt>
<pdfrwt beam="1">  1        1 0.42232616E+00 0.73873656E+03</pdfrwt>
<pdfrwt beam="2">  1       -1 0.41026539E-01 0.73873656E+03</pdfrwt>
<totfact> 0.56419572E+00</totfact>
</mgrwt>
</event>
<event>
12    1  0.1418317E-007  0.5671508E+03  0.7818608E-02  0.9976003E-01
         -3   -1    0    0    0  501 -0.00000000000E+00  0.00000000000E+00  0.64319698196E+03  0.64319698196E+03  0.00000000000E+00 0.  1.
          3   -1    0    0  501    0  0.00000000000E+00 -0.00000000000E+00 -0.94091029916E+03  0.94091029916E+03  0.00000000000E+00 0. -1.
         23    2    1    2    0    0  0.40998887596E+03 -0.90364247950E+01  0.39558570396E+03  0.57969369529E+03  0.10669674688E+03 0.  0.
    5000000    2    1    2    0    0 -0.40998887596E+03  0.90364247950E+01 -0.69329902116E+03  0.10044135858E+04  0.60000881934E+03 0.  0.
         23    2    4    4    0    0 -0.96945234568E+02 -0.26575606175E+03 -0.24319579399E+03  0.38421449864E+03  0.91934345525E+02 0.  0.
         23    2    4    4    0    0 -0.31304364139E+03  0.27479248654E+03 -0.45010322717E+03  0.62019908720E+03  0.92448691565E+02 0.  0.
          3    1    3    3  502    0  0.10108922757E+03 -0.48000056550E+02  0.11707088655E+03  0.16195255427E+03  0.00000000000E+00 0. -1.
         -3    1    3    3    0  502  0.30889964840E+03  0.38963631755E+02  0.27851481741E+03  0.41774114101E+03  0.00000000000E+00 0.  1.
         11    1    5    5    0    0 -0.96918583701E+02 -0.16577085888E+03 -0.12375419063E+03  0.22844756339E+03  0.00000000000E+00 0. -1.
        -11    1    5    5    0    0 -0.26650866722E-01 -0.99985202866E+02 -0.11944160336E+03  0.15576693524E+03  0.00000000000E+00 0.  1.
          2    1    6    6  503    0 -0.10174777010E+03  0.61938628021E+02 -0.18430633602E+03  0.21944891857E+03  0.00000000000E+00 0.  1.
         -2    1    6    6    0  503 -0.21129587129E+03  0.21285385852E+03 -0.26579689115E+03  0.40075016863E+03  0.00000000000E+00 0. -1.
<mgrwt>
<rscale>  0 0.56715081E+03</rscale>
<asrwt>0</asrwt>
<pdfrwt beam="1">  1        3 0.14475543E+00 0.56715081E+03</pdfrwt>
<pdfrwt beam="2">  1       -3 0.98953383E-01 0.56715081E+03</pdfrwt>
<totfact> 0.83158148E-01</totfact>
</mgrwt>
</event>
<event>
12    1  0.1418317E-007  0.4630044E+03  0.7818608E-02  0.1023913E+00
         -2   -1    0    0    0  501 -0.00000000000E+00  0.00000000000E+00  0.88486246296E+03  0.88486246296E+03  0.00000000000E+00 0.  1.
          2   -1    0    0  501    0  0.00000000000E+00 -0.00000000000E+00 -0.68179198145E+03  0.68179198145E+03  0.00000000000E+00 0. -1.
         23    2    1    2    0    0 -0.25569492608E+03  0.12616762675E+03  0.68403027839E+03  0.74652447735E+03  0.90017821905E+02 0.  0.
    5000000    2    1    2    0    0  0.25569492608E+03 -0.12616762675E+03 -0.48095979689E+03  0.82012996706E+03  0.59999389279E+03 0.  0.
         23    2    4    4    0    0 -0.17404479465E+03  0.26066864559E+02 -0.11568666087E+03  0.22913521490E+03  0.90268882966E+02 0.  0.
         23    2    4    4    0    0  0.42973972073E+03 -0.15223449130E+03 -0.36527313602E+03  0.59099475215E+03  0.89435816414E+02 0.  0.
          2    1    3    3  502    0 -0.77298640058E+02  0.59374186529E+02  0.33504794371E+03  0.34893767118E+03  0.00000000000E+00 0. -1.
         -2    1    3    3    0  502 -0.17839628602E+03  0.66793440217E+02  0.34898233468E+03  0.39758680617E+03  0.00000000000E+00 0.  1.
         13    1    5    5    0    0 -0.38688207050E+02 -0.13282270760E+02 -0.69785074819E+02  0.80889756761E+02  0.00000000000E+00 0. -1.
        -13    1    5    5    0    0 -0.13535658760E+03  0.39349135319E+02 -0.45901586050E+02  0.14824545814E+03  0.00000000000E+00 0.  1.
          3    1    6    6  503    0  0.27180257708E+03 -0.88138186147E+02 -0.17290689201E+03  0.33397870302E+03  0.00000000000E+00 0. -1.
         -3    1    6    6    0  503  0.15793714366E+03 -0.64096305158E+02 -0.19236624401E+03  0.25701604914E+03  0.00000000000E+00 0.  1.
<mgrwt>
<rscale>  0 0.46300443E+03</rscale>
<asrwt>0</asrwt>
<pdfrwt beam="1">  1        2 0.10489107E+00 0.46300443E+03</pdfrwt>
<pdfrwt beam="2">  1       -2 0.13613269E+00 0.46300443E+03</pdfrwt>
<totfact> 0.17185551E+01</totfact>
</mgrwt>
</event>
<event>
12    1  0.1418317E-007  0.8672601E+03  0.7818608E-02  0.9467459E-01
         -2   -1    0    0    0  501 -0.00000000000E+00  0.00000000000E+00  0.32603711755E+03  0.32603711755E+03  0.00000000000E+00 0.  1.
          2   -1    0    0  501    0  0.00000000000E+00 -0.00000000000E+00 -0.26218131279E+04  0.26218131279E+04  0.00000000000E+00 0. -1.
         23    2    1    2    0    0  0.21653461845E+03 -0.79156231197E+03 -0.11566951468E+04  0.14210981224E+04  0.90100367656E+02 0.  0.
    5000000    2    1    2    0    0 -0.21653461845E+03  0.79156231197E+03 -0.11390808636E+04  0.15267521231E+04  0.60000724722E+03 0.  0.
         23    2    4    4    0    0 -0.24189555399E+03  0.19027716594E+03 -0.12568313716E+03  0.34465559550E+03  0.90952567986E+02 0.  0.
         23    2    4    4    0    0  0.25360935547E+02  0.60128514604E+03 -0.10133977265E+04  0.11820965276E+04  0.90499970229E+02 0.  0.
          1    1    3    3  502    0  0.39775779380E+02 -0.22931135880E+03 -0.38815863374E+03  0.45258472891E+03  0.00000000000E+00 0. -1.
         -1    1    3    3    0  502  0.17675883907E+03 -0.56225095317E+03 -0.76853651304E+03  0.96851339351E+03  0.00000000000E+00 0.  1.
         13    1    5    5    0    0 -0.12639326809E+03  0.11528983123E+03 -0.11581788235E+03  0.20659328468E+03  0.00000000000E+00 0.  1.
        -13    1    5    5    0    0 -0.11550228590E+03  0.74987334702E+02 -0.98652548086E+01  0.13806231081E+03  0.00000000000E+00 0. -1.
          2    1    6    6  503    0 -0.13764438230E+02  0.13845616382E+03 -0.17434394654E+03  0.22305914183E+03  0.00000000000E+00 0. -1.
         -2    1    6    6    0  503  0.39125373777E+02  0.46282898222E+03 -0.83905377993E+03  0.95903738575E+03  0.00000000000E+00 0.  1.
<mgrwt>
<rscale>  0 0.86726012E+03</rscale>
<asrwt>0</asrwt>
<pdfrwt beam="1">  1        2 0.40335587E+00 0.86726012E+03</pdfrwt>
<pdfrwt beam="2">  1       -2 0.50159556E-01 0.86726012E+03</pdfrwt>
<totfact> 0.11469608E+01</totfact>
</mgrwt>
</event>
<event>
12    1  0.1418317E-007  0.2101089E+04  0.7818608E-02  0.8560764E-01
         -2   -1    0    0    0  501 -0.00000000000E+00  0.00000000000E+00  0.22111084180E+04  0.22111084180E+04  0.00000000000E+00 0.  1.
          2   -1    0    0  501    0  0.00000000000E+00 -0.00000000000E+00 -0.22087327436E+04  0.22087327436E+04  0.00000000000E+00 0. -1.
         23    2    1    2    0    0 -0.18288566510E+04  0.96871003876E+03 -0.64526277620E+03  0.21697715791E+04  0.91808856005E+02 0.  0.
    5000000    2    1    2    0    0  0.18288566510E+04 -0.96871003876E+03  0.64763845052E+03  0.22500695825E+04  0.60021810577E+03 0.  0.
         23    2    4    4    0    0  0.15952892107E+04 -0.64578350818E+03  0.39209122487E+03  0.17672000874E+04  0.85303077861E+02 0.  0.
         23    2    4    4    0    0  0.23356744030E+03 -0.32292653058E+03  0.25554722564E+03  0.48286949511E+03  0.94990901982E+02 0.  0.
          4    1    3    3  502    0 -0.88505063936E+03  0.43697455322E+03 -0.34559003498E+03  0.10457981960E+04  0.00000000000E+00 0.  1.
         -4    1    3    3    0  502 -0.94380601162E+03  0.53173548553E+03 -0.29967274122E+03  0.11239733831E+04  0.00000000000E+00 0. -1.
         11    1    5    5    0    0  0.78019247528E+03 -0.28199077561E+03  0.21848121328E+03  0.85787711041E+03  0.00000000000E+00 0. -1.
        -11    1    5    5    0    0  0.81509673540E+03 -0.36379273257E+03  0.17361001159E+03  0.90932297698E+03  0.00000000000E+00 0.  1.
          1    1    6    6  503    0  0.50576131820E+02 -0.17332098789E+02  0.30870206858E+02  0.61735860161E+02  0.00000000000E+00 0. -1.
         -1    1    6    6    0  503  0.18299130848E+03 -0.30559443179E+03  0.22467701878E+03  0.42113363495E+03  0.00000000000E+00 0.  1.
<mgrwt>
<rscale>  0 0.21010887E+04</rscale>
<asrwt>0</asrwt>
<pdfrwt beam="1">  1        2 0.33980504E+00 0.21010887E+04</pdfrwt>
<pdfrwt beam="2">  1       -2 0.34017052E+00 0.21010887E+04</pdfrwt>
<totfact> 0.80436696E-02</totfact>
</mgrwt>
</event>
<event>
12    1  0.1418317E-007  0.7952280E+03  0.7818608E-02  0.9566950E-01
          2   -1    0    0  501    0  0.00000000000E+00  0.00000000000E+00  0.82296363532E+03  0.82296363532E+03  0.00000000000E+00 0. -1.
         -2   -1    0    0    0  501 -0.00000000000E+00 -0.00000000000E+00 -0.91189084322E+03  0.91189084322E+03  0.00000000000E+00 0.  1.
         23    2    1    2    0    0  0.22158635211E+03  0.67742918119E+03  0.22111825228E+03  0.75184095562E+03  0.91437049849E+02 0.  0.
    5000000    2    1    2    0    0 -0.22158635211E+03 -0.67742918119E+03 -0.31004546018E+03  0.98301352293E+03  0.60181109321E+03 0.  0.
         23    2    4    4    0    0 -0.36911054463E+03 -0.44500048729E+03 -0.38419564880E+02  0.58582385376E+03  0.86287292356E+02 0.  0.
         23    2    4    4    0    0  0.14752419252E+03 -0.23242869389E+03 -0.27162589530E+03  0.39718966916E+03  0.90512547039E+02 0.  0.
          3    1    3    3  502    0  0.20505426451E+03  0.50192873516E+03  0.17260258528E+03  0.56900910276E+03  0.00000000000E+00 0. -1.
         -3    1    3    3    0  502  0.16532087598E+02  0.17550044602E+03  0.48515667008E+02  0.18283185286E+03  0.00000000000E+00 0.  1.
         11    1    5    5    0    0 -0.29495318208E+03 -0.30709234243E+03 -0.55721054142E+01  0.42583345894E+03  0.00000000000E+00 0. -1.
        -11    1    5    5    0    0 -0.74157362548E+02 -0.13790814487E+03 -0.32847459466E+02  0.15999039482E+03  0.00000000000E+00 0.  1.
          2    1    6    6  503    0  0.73668695097E+02 -0.40756212923E+02 -0.72493999040E+02  0.11110141955E+03  0.00000000000E+00 0. -1.
         -2    1    6    6    0  503  0.73855497422E+02 -0.19167248097E+03 -0.19913189626E+03  0.28608824961E+03  0.00000000000E+00 0.  1.
<mgrwt>
<rscale>  0 0.79522795E+03</rscale>
<asrwt>0</asrwt>
<pdfrwt beam="1">  1        2 0.12660979E+00 0.79522795E+03</pdfrwt>
<pdfrwt beam="2">  1       -2 0.14029090E+00 0.79522795E+03</pdfrwt>
<totfact> 0.11976157E+01</totfact>
</mgrwt>
</event>
<event>
12    1  0.1418317E-007  0.6288566E+03  0.7818608E-02  0.9847283E-01
          1   -1    0    0  501    0  0.00000000000E+00  0.00000000000E+00  0.85264647308E+03  0.85264647308E+03  0.00000000000E+00 0. -1.
         -1   -1    0    0    0  501 -0.00000000000E+00 -0.00000000000E+00 -0.63080150462E+03  0.63080150462E+03  0.00000000000E+00 0.  1.
         23    2    1    2    0    0  0.70736999876E+02  0.58299336565E+03 -0.60496322415E+02  0.59762948438E+03  0.92823531660E+02 0.  0.
    5000000    2    1    2    0    0 -0.70736999876E+02 -0.58299336565E+03  0.28234129087E+03  0.88581849332E+03  0.60006067279E+03 0.  0.
         23    2    4    4    0    0 -0.16897767732E+03 -0.19036135194E+03  0.37440451014E+03  0.46089294391E+03  0.86328840997E+02 0.  0.
         23    2    4    4    0    0  0.98240677448E+02 -0.39263201371E+03 -0.92063219269E+02  0.42492554940E+03  0.90966792281E+02 0.  0.
          3    1    3    3  502    0  0.10775461963E+02  0.15926337913E+03 -0.57498880429E+02  0.16966748587E+03  0.00000000000E+00 0. -1.
         -3    1    3    3    0  502  0.59961537913E+02  0.42372998652E+03 -0.29974419854E+01  0.42796199851E+03  0.00000000000E+00 0.  1.
         11    1    5    5    0    0 -0.90333453842E+02 -0.47455328926E+02  0.18197043870E+03  0.20862737521E+03  0.00000000000E+00 0. -1.
        -11    1    5    5    0    0 -0.78644223482E+02 -0.14290602302E+03  0.19243407144E+03  0.25226556870E+03  0.00000000000E+00 0.  1.
          3    1    6    6  503    0  0.50329558678E+02 -0.22958991590E+03 -0.98549714248E+02  0.25486592580E+03  0.00000000000E+00 0. -1.
         -3    1    6    6    0  503  0.47911118770E+02 -0.16304209781E+03  0.64864949783E+01  0.17005962360E+03  0.00000000000E+00 0.  1.
<mgrwt>
<rscale>  0 0.62885655E+03</rscale>
<asrwt>0</asrwt>
<pdfrwt beam="1">  1        1 0.13117638E+00 0.62885655E+03</pdfrwt>
<pdfrwt beam="2">  1       -1 0.97046385E-01 0.62885655E+03</pdfrwt>
<totfact> 0.21219181E+01</totfact>
</mgrwt>
</event>
<event>
12    1  0.1418317E-007  0.3377623E+03  0.7818608E-02  0.1067753E+00
          1   -1    0    0  501    0  0.00000000000E+00  0.00000000000E+00  0.27037660436E+04  0.27037660436E+04  0.00000000000E+00 0. -1.
         -1   -1    0    0    0  501 -0.00000000000E+00 -0.00000000000E+00 -0.81012674029E+02  0.81012674029E+02  0.00000000000E+00 0.  1.
         23    2    1    2    0    0 -0.11768685496E+03 -0.23731289228E+03  0.73923108828E+03  0.79056412751E+03  0.91440872495E+02 0.  0.
    5000000    2    1    2    0    0  0.11768685496E+03  0.23731289228E+03  0.18835222813E+04  0.19942145902E+04  0.59922286558E+03 0.  0.
         23    2    4    4    0    0  0.78716187526E+02 -0.36073644525E+02  0.15363450698E+04  0.15414365634E+04  0.90404421074E+02 0.  0.
         23    2    4    4    0    0  0.38970667437E+02  0.27338653681E+03  0.34717721152E+03  0.45277802679E+03  0.90647746318E+02 0.  0.
          3    1    3    3  502    0 -0.41220698376E+02 -0.56014000827E+02  0.31977384413E+03  0.32724917976E+03  0.00000000000E+00 0. -1.
         -3    1    3    3    0  502 -0.76466156586E+02 -0.18129889146E+03  0.41945724415E+03  0.46331494776E+03  0.00000000000E+00 0.  1.
         13    1    5    5    0    0 -0.12287743988E+02 -0.25412627572E+02  0.20386571240E+03  0.20581063866E+03  0.00000000000E+00 0. -1.
        -13    1    5    5    0    0  0.91003931514E+02 -0.10661016953E+02  0.13324793574E+04  0.13356259247E+04  0.00000000000E+00 0.  1.
          4    1    6    6  503    0  0.60355996317E+02  0.25195582997E+03  0.32276553937E+03  0.41388667525E+03  0.00000000000E+00 0. -1.
         -4    1    6    6    0  503 -0.21385328881E+02  0.21430706841E+02  0.24411672156E+02  0.38891351539E+02  0.00000000000E+00 0.  1.
<mgrwt>
<rscale>  0 0.33776231E+03</rscale>
<asrwt>0</asrwt>
<pdfrwt beam="1">  1        1 0.41596394E+00 0.33776231E+03</pdfrwt>
<pdfrwt beam="2">  1       -1 0.12463490E-01 0.33776231E+03</pdfrwt>
<totfact> 0.49052135E+01</totfact>
</mgrwt>
</event>
<event>
12    1  0.1418317E-007  0.9814201E+03  0.7818608E-02  0.9329161E-01
         -2   -1    0    0    0  501 -0.00000000000E+00  0.00000000000E+00  0.58332376461E+03  0.58332376461E+03  0.00000000000E+00 0.  1.
          2   -1    0    0  501    0  0.00000000000E+00 -0.00000000000E+00 -0.36485678899E+04  0.36485678899E+04  0.00000000000E+00 0. -1.
         23    2    1    2    0    0 -0.71237872913E+03 -0.54904169764E+03  0.78558498076E+02  0.90740119555E+03  0.90968415468E+02 0.  0.
    5000000    2    1    2    0    0  0.71237872913E+03  0.54904169764E+03 -0.31438026234E+04  0.33244904590E+04  0.59984301081E+03 0.  0.
         23    2    4    4    0    0  0.34273820676E+03  0.58521798248E+03 -0.17514833044E+04  0.18804029855E+04  0.90950848843E+02 0.  0.
         23    2    4    4    0    0  0.36964052236E+03 -0.36176284844E+02 -0.13923193190E+04  0.14440874734E+04  0.94301143625E+02 0.  0.
          3    1    3    3  502    0 -0.54489007095E+03 -0.36915189444E+03  0.61051930885E+02  0.66098838784E+03  0.00000000000E+00 0. -1.
         -3    1    3    3    0  502 -0.16748865817E+03 -0.17988980319E+03  0.17506567191E+02  0.24641280771E+03  0.00000000000E+00 0.  1.
         11    1    5    5    0    0  0.28270339104E+03  0.53849602425E+03 -0.15576184826E+04  0.16721466780E+04  0.00000000000E+00 0.  1.
        -11    1    5    5    0    0  0.60034815724E+02  0.46721958231E+02 -0.19386482182E+03  0.20825630752E+03  0.00000000000E+00 0. -1.
          2    1    6    6  503    0  0.17540040934E+03  0.73851044666E+01 -0.50283434216E+03  0.53259949214E+03  0.00000000000E+00 0. -1.
         -2    1    6    6    0  503  0.19424011302E+03 -0.43561389311E+02 -0.88948497679E+03  0.91148798131E+03  0.00000000000E+00 0.  1.
<mgrwt>
<rscale>  0 0.98142007E+03</rscale>
<asrwt>0</asrwt>
<pdfrwt beam="1">  1        2 0.56131814E+00 0.98142007E+03</pdfrwt>
<pdfrwt beam="2">  1       -2 0.89742117E-01 0.98142007E+03</pdfrwt>
<totfact> 0.70632396E-01</totfact>
</mgrwt>
</event>
<event>
12    1  0.1418317E-007  0.7115684E+03  0.7818608E-02  0.9697651E-01
          2   -1    0    0  501    0  0.00000000000E+00  0.00000000000E+00  0.85730363051E+03  0.85730363051E+03  0.00000000000E+00 0. -1.
         -2   -1    0    0    0  501 -0.00000000000E+00 -0.00000000000E+00 -0.59855284195E+03  0.59855284195E+03  0.00000000000E+00 0.  1.
         23    2    1    2    0    0  0.28842185976E+02  0.58621538281E+03  0.10143658894E+03  0.60184399465E+03  0.86292905716E+02 0.  0.
    5000000    2    1    2    0    0 -0.28842185976E+02 -0.58621538281E+03  0.15731419962E+03  0.85401247782E+03  0.60009099987E+03 0.  0.
         23    2    4    4    0    0 -0.26870678009E+03 -0.48636979633E+03  0.12219528947E+03  0.57616571127E+03  0.90974313061E+02 0.  0.
         23    2    4    4    0    0  0.23986459411E+03 -0.99845586487E+02  0.35118910153E+02  0.27784676655E+03  0.91985450917E+02 0.  0.
          3    1    3    3  502    0 -0.26174470504E+02  0.30868343301E+03  0.65481164536E+02  0.31663598600E+03  0.00000000000E+00 0. -1.
         -3    1    3    3    0  502  0.55016656480E+02  0.27753194980E+03  0.35955424400E+02  0.28520800865E+03  0.00000000000E+00 0.  1.
         11    1    5    5    0    0 -0.19171117166E+03 -0.36575443558E+03  0.12979091881E+03  0.43286852864E+03  0.00000000000E+00 0. -1.
        -11    1    5    5    0    0 -0.76995608430E+02 -0.12061536074E+03 -0.75956293346E+01  0.14329718263E+03  0.00000000000E+00 0.  1.
          3    1    6    6  503    0  0.24631447588E+03 -0.10324141130E+03  0.38455162272E+02  0.26983033473E+03  0.00000000000E+00 0. -1.
         -3    1    6    6    0  503 -0.64498817648E+01  0.33958248099E+01 -0.33362521198E+01  0.80164318200E+01  0.00000000000E+00 0.  1.
<mgrwt>
<rscale>  0 0.71156841E+03</rscale>
<asrwt>0</asrwt>
<pdfrwt beam="1">  1        2 0.13189287E+00 0.71156841E+03</pdfrwt>
<pdfrwt beam="2">  1       -2 0.92085052E-01 0.71156841E+03</pdfrwt>
<totfact> 0.32011179E+01</totfact>
</mgrwt>
</event>
<event>
12    1  0.1418317E-007  0.8059038E+03  0.7818608E-02  0.9551511E-01
         -2   -1    0    0    0  501 -0.00000000000E+00  0.00000000000E+00  0.10788628858E+04  0.10788628858E+04  0.00000000000E+00 0.  1.
          2   -1    0    0  501    0  0.00000000000E+00 -0.00000000000E+00 -0.68417671936E+03  0.68417671936E+03  0.00000000000E+00 0. -1.
         23    2    1    2    0    0 -0.46300178971E+03  0.54490379006E+03 -0.54913334319E+02  0.72677707589E+03  0.11789251911E+03 0.  0.
    5000000    2    1    2    0    0  0.46300178971E+03 -0.54490379006E+03  0.44959950077E+03  0.10362625293E+04  0.60034117032E+03 0.  0.
         23    2    4    4    0    0 -0.11609216286E+03 -0.99481445080E+02  0.17765123887E+03  0.25176566697E+03  0.91934978104E+02 0.  0.
         23    2    4    4    0    0  0.57909395257E+03 -0.44542234498E+03  0.27194826190E+03  0.78449686230E+03  0.87912447967E+02 0.  0.
          4    1    3    3  502    0 -0.47790083367E+02  0.16347855888E+02 -0.18013785858E+02  0.53625002949E+02  0.00000000000E+00 0. -1.
         -4    1    3    3    0  502 -0.41521170635E+03  0.52855593417E+03 -0.36899548461E+02  0.67315207294E+03  0.00000000000E+00 0.  1.
         11    1    5    5    0    0 -0.40296880324E+01 -0.19221402617E+02 -0.74282993030E+01  0.20997150634E+02  0.00000000000E+00 0.  1.
        -11    1    5    5    0    0 -0.11206247482E+03 -0.80260042463E+02  0.18507953817E+03  0.23076851633E+03  0.00000000000E+00 0. -1.
          2    1    6    6  503    0  0.38983602382E+03 -0.32317774208E+03  0.22616703637E+03  0.55458769080E+03  0.00000000000E+00 0. -1.
         -2    1    6    6    0  503  0.18925792874E+03 -0.12224460289E+03  0.45781225528E+02  0.22990917150E+03  0.00000000000E+00 0.  1.
<mgrwt>
<rscale>  0 0.80590382E+03</rscale>
<asrwt>0</asrwt>
<pdfrwt beam="1">  1        2 0.10525796E+00 0.80590382E+03</pdfrwt>
<pdfrwt beam="2">  1       -2 0.16597891E+00 0.80590382E+03</pdfrwt>
<totfact> 0.97064350E+00</totfact>
</mgrwt>
</event>
<event>
12    1  0.1418317E-007  0.4593468E+03  0.7818608E-02  0.1024971E+00
          2   -1    0    0  501    0  0.00000000000E+00  0.00000000000E+00  0.68790058426E+03  0.68790058426E+03  0.00000000000E+00 0. -1.
         -2   -1    0    0    0  501 -0.00000000000E+00 -0.00000000000E+00 -0.43649264306E+03  0.43649264306E+03  0.00000000000E+00 0.  1.
         23    2    1    2    0    0 -0.26194736296E+03 -0.26546222207E+03  0.14943566257E+03  0.41061115246E+03  0.84757825407E+02 0.  0.
    5000000    2    1    2    0    0  0.26194736296E+03  0.26546222207E+03  0.10197227864E+03  0.71378207487E+03  0.59999991040E+03 0.  0.
         23    2    4    4    0    0  0.33249134652E+03  0.26598055320E+03  0.26875538700E+03  0.51137292319E+03  0.89312139975E+02 0.  0.
         23    2    4    4    0    0 -0.70543983558E+02 -0.51833112499E+00 -0.16678310836E+03  0.20240915167E+03  0.90421994908E+02 0.  0.
          3    1    3    3  502    0 -0.13999981774E+03 -0.18713017663E+03  0.63766213486E+02  0.24224735697E+03  0.00000000000E+00 0. -1.
         -3    1    3    3    0  502 -0.12194754521E+03 -0.78332045439E+02  0.85669449079E+02  0.16836379549E+03  0.00000000000E+00 0.  1.
         13    1    5    5    0    0  0.15807681721E+03  0.14460048353E+03  0.85128967675E+02  0.23053095479E+03  0.00000000000E+00 0.  1.
        -13    1    5    5    0    0  0.17441452930E+03  0.12138006966E+03  0.18362641932E+03  0.28084196840E+03  0.00000000000E+00 0. -1.
          3    1    6    6  503    0 -0.11441250319E+02 -0.40420748398E+02 -0.77392697252E+02  0.88058893349E+02  0.00000000000E+00 0. -1.
         -3    1    6    6    0  503 -0.59102733239E+02  0.39902417273E+02 -0.89390411109E+02  0.11435025832E+03  0.00000000000E+00 0.  1.
<mgrwt>
<rscale>  0 0.45934685E+03</rscale>
<asrwt>0</asrwt>
<pdfrwt beam="1">  1        2 0.10583086E+00 0.45934685E+03</pdfrwt>
<pdfrwt beam="2">  1       -2 0.67152714E-01 0.45934685E+03</pdfrwt>
<totfact> 0.88297607E+01</totfact>
</mgrwt>
</event>
<event>
12    1  0.1418317E-007  0.5713364E+03  0.7818608E-02  0.9966726E-01
          2   -1    0    0  501    0  0.00000000000E+00  0.00000000000E+00  0.24398883428E+04  0.24398883428E+04  0.00000000000E+00 0. -1.
         -2   -1    0    0    0  501 -0.00000000000E+00 -0.00000000000E+00 -0.15143648348E+03  0.15143648348E+03  0.00000000000E+00 0.  1.
         23    2    1    2    0    0  0.43468739953E+03  0.98052396052E+02  0.10607308620E+04  0.11540115050E+04  0.89583394657E+02 0.  0.
    5000000    2    1    2    0    0 -0.43468739953E+03 -0.98052396052E+02  0.12277209974E+04  0.14373133213E+04  0.60000277363E+03 0.  0.
         23    2    4    4    0    0 -0.52799214930E+03  0.29501846803E+02  0.10666727776E+04  0.11940433553E+04  0.91118884827E+02 0.  0.
         23    2    4    4    0    0  0.93304749769E+02 -0.12755424285E+03  0.16104821973E+03  0.24326996591E+03  0.90927916712E+02 0.  0.
          4    1    3    3  502    0  0.35753161882E+03  0.83992650109E+02  0.77344333817E+03  0.85621155160E+03  0.00000000000E+00 0. -1.
         -4    1    3    3    0  502  0.77155780705E+02  0.14059745943E+02  0.28728752378E+03  0.29779995344E+03  0.00000000000E+00 0.  1.
         11    1    5    5    0    0 -0.35466295272E+03  0.62164496667E+02  0.72950239912E+03  0.81352565110E+03  0.00000000000E+00 0.  1.
        -11    1    5    5    0    0 -0.17332919658E+03 -0.32662649865E+02  0.33717037852E+03  0.38051770424E+03  0.00000000000E+00 0. -1.
          2    1    6    6  503    0  0.73716549871E+02 -0.78376898616E+02  0.15679771229E+03  0.19016464062E+03  0.00000000000E+00 0.  1.
         -2    1    6    6    0  503  0.19588199899E+02 -0.49177344238E+02  0.42505074434E+01  0.53105325299E+02  0.00000000000E+00 0. -1.
<mgrwt>
<rscale>  0 0.57133638E+03</rscale>
<asrwt>0</asrwt>
<pdfrwt beam="1">  1        2 0.37536741E+00 0.57133638E+03</pdfrwt>
<pdfrwt beam="2">  1       -2 0.23297922E-01 0.57133638E+03</pdfrwt>
<totfact> 0.65393681E+01</totfact>
</mgrwt>
</event>
<event>
12    1  0.1418317E-007  0.5946069E+03  0.7818608E-02  0.9916659E-01
         -1   -1    0    0    0  501 -0.00000000000E+00  0.00000000000E+00  0.63504767339E+03  0.63504767339E+03  0.00000000000E+00 0.  1.
          1   -1    0    0  501    0  0.00000000000E+00 -0.00000000000E+00 -0.59703959214E+03  0.59703959214E+03  0.00000000000E+00 0. -1.
         23    2    1    2    0    0 -0.26728221556E+03  0.37775038160E+03  0.47764683698E+02  0.47412001871E+03  0.91505156039E+02 0.  0.
    5000000    2    1    2    0    0  0.26728221556E+03 -0.37775038160E+03 -0.97566024441E+01  0.75796724682E+03  0.60023663868E+03 0.  0.
         23    2    4    4    0    0  0.15005944779E+03 -0.51149139859E+03  0.65694173987E+02  0.54479901325E+03  0.91372597861E+02 0.  0.
         23    2    4    4    0    0  0.11722276777E+03  0.13374101699E+03 -0.75450776431E+02  0.21316823358E+03  0.90111260298E+02 0.  0.
          4    1    3    3  502    0 -0.31074533720E+02  0.71017344563E+01  0.76228050657E+01  0.32774508925E+02  0.00000000000E+00 0. -1.
         -4    1    3    3    0  502 -0.23620768184E+03  0.37064864714E+03  0.40141878632E+02  0.44134550978E+03  0.00000000000E+00 0.  1.
         11    1    5    5    0    0  0.19529005960E+02 -0.19986288988E+03  0.48014541191E+02  0.20647506627E+03  0.00000000000E+00 0. -1.
        -11    1    5    5    0    0  0.13053044183E+03 -0.31162850870E+03  0.17679632796E+02  0.33832394698E+03  0.00000000000E+00 0.  1.
          2    1    6    6  503    0  0.62693102919E+02  0.87546200912E+02  0.21131568483E+01  0.10769971160E+03  0.00000000000E+00 0. -1.
         -2    1    6    6    0  503  0.54529664850E+02  0.46194816081E+02 -0.77563933279E+02  0.10546852197E+03  0.00000000000E+00 0.  1.
<mgrwt>
<rscale>  0 0.59460686E+03</rscale>
<asrwt>0</asrwt>
<pdfrwt beam="1">  1        1 0.91852245E-01 0.59460686E+03</pdfrwt>
<pdfrwt beam="2">  1       -1 0.97699642E-01 0.59460686E+03</pdfrwt>
<totfact> 0.36078969E+01</totfact>
</mgrwt>
</event>
<event>
12    1  0.1418317E-007  0.2152339E+04  0.7818608E-02  0.8538532E-01
         -2   -1    0    0    0  501 -0.00000000000E+00  0.00000000000E+00  0.29145668446E+04  0.29145668446E+04  0.00000000000E+00 0.  1.
          2   -1    0    0  501    0  0.00000000000E+00 -0.00000000000E+00 -0.17160062894E+04  0.17160062894E+04  0.00000000000E+00 0. -1.
         23    2    1    2    0    0  0.12363408888E+04  0.17311877483E+04  0.27943695535E+02  0.21294219800E+04  0.90040577827E+02 0.  0.
    5000000    2    1    2    0    0 -0.12363408888E+04 -0.17311877483E+04  0.11706168597E+04  0.25011511540E+04  0.59988619717E+03 0.  0.
         23    2    4    4    0    0 -0.83134337113E+03 -0.79377114866E+03  0.83082331380E+03  0.14210912830E+04  0.89602559162E+02 0.  0.
         23    2    4    4    0    0 -0.40499751771E+03 -0.93741659963E+03  0.33979354591E+03  0.10800598710E+04  0.91086774583E+02 0.  0.
          1    1    3    3  502    0  0.92582506457E+03  0.12784093933E+04  0.58722406299E+02  0.15795350417E+04  0.00000000000E+00 0. -1.
         -1    1    3    3    0  502  0.31051582427E+03  0.45277835497E+03 -0.30778710764E+02  0.54988693828E+03  0.00000000000E+00 0.  1.
         11    1    5    5    0    0 -0.20642686449E+03 -0.15171294516E+03  0.16338822012E+03  0.30384959863E+03  0.00000000000E+00 0. -1.
        -11    1    5    5    0    0 -0.62491650664E+03 -0.64205820350E+03  0.66743509367E+03  0.11172416843E+04  0.00000000000E+00 0.  1.
          1    1    6    6  503    0 -0.22968295261E+03 -0.41929963034E+03  0.14905890754E+03  0.50078438139E+03  0.00000000000E+00 0. -1.
         -1    1    6    6    0  503 -0.17531456511E+03 -0.51811696929E+03  0.19073463836E+03  0.57927548962E+03  0.00000000000E+00 0.  1.
<mgrwt>
<rscale>  0 0.21523389E+04</rscale>
<asrwt>0</asrwt>
<pdfrwt beam="1">  1        2 0.26400097E+00 0.21523389E+04</pdfrwt>
<pdfrwt beam="2">  1       -2 0.44839490E+00 0.21523389E+04</pdfrwt>
<totfact> 0.29863327E-02</totfact>
</mgrwt>
</event>
<event>
12    1  0.1418317E-007  0.7248361E+03  0.7818608E-02  0.9675677E-01
          1   -1    0    0  501    0  0.00000000000E+00  0.00000000000E+00  0.96461639013E+03  0.96461639013E+03  0.00000000000E+00 0. -1.
         -1   -1    0    0    0  501 -0.00000000000E+00 -0.00000000000E+00 -0.57424056442E+03  0.57424056442E+03  0.00000000000E+00 0.  1.
         23    2    1    2    0    0  0.16006522990E+00 -0.62114587885E+03  0.13318356725E+03  0.63771988779E+03  0.55915688851E+02 0.  0.
    5000000    2    1    2    0    0 -0.16006522990E+00  0.62114587885E+03  0.25719225845E+03  0.90113706676E+03  0.60006493553E+03 0.  0.
         23    2    4    4    0    0 -0.24628298640E+03  0.47752183852E+03  0.25912837183E+03  0.60201319093E+03  0.81178527409E+02 0.  0.
         23    2    4    4    0    0  0.24612292117E+03  0.14362404033E+03 -0.19361133748E+01  0.29912387583E+03  0.90922974382E+02 0.  0.
          4    1    3    3  502    0  0.65574583136E+01 -0.27574028665E+03  0.31559266232E+02  0.27761789069E+03  0.00000000000E+00 0. -1.
         -4    1    3    3    0  502 -0.63973930837E+01 -0.34540559220E+03  0.10162430102E+03  0.36010199710E+03  0.00000000000E+00 0.  1.
         13    1    5    5    0    0 -0.30879870168E+01 -0.30512277566E+01  0.45021025719E+01  0.62541651886E+01  0.00000000000E+00 0.  1.
        -13    1    5    5    0    0 -0.24319499939E+03  0.48057306627E+03  0.25462626925E+03  0.59575902574E+03  0.00000000000E+00 0. -1.
          1    1    6    6  503    0  0.10086830375E+03  0.49501118329E+02 -0.44552719172E+02  0.12087067553E+03  0.00000000000E+00 0. -1.
         -1    1    6    6    0  503  0.14525461743E+03  0.94122922004E+02  0.42616605797E+02  0.17825320031E+03  0.00000000000E+00 0.  1.
<mgrwt>
<rscale>  0 0.72483608E+03</rscale>
<asrwt>0</asrwt>
<pdfrwt beam="1">  1        1 0.14840252E+00 0.72483608E+03</pdfrwt>
<pdfrwt beam="2">  1       -1 0.88344703E-01 0.72483608E+03</pdfrwt>
<totfact> 0.20948907E+01</totfact>
</mgrwt>
</event>
<event>
12    1  0.1418317E-007  0.1070266E+04  0.7818608E-02  0.9234667E-01
          2   -1    0    0  501    0  0.00000000000E+00  0.00000000000E+00  0.90464363849E+03  0.90464363849E+03  0.00000000000E+00 0. -1.
         -2   -1    0    0    0  501 -0.00000000000E+00 -0.00000000000E+00 -0.13768498458E+04  0.13768498458E+04  0.00000000000E+00 0.  1.
         23    2    1    2    0    0  0.70786645426E+03 -0.75273539694E+03 -0.21811547627E+03  0.10599396945E+04  0.90621742025E+02 0.  0.
    5000000    2    1    2    0    0 -0.70786645426E+03  0.75273539694E+03 -0.25409073107E+03  0.12215537898E+04  0.59995505406E+03 0.  0.
         23    2    4    4    0    0 -0.25701727917E+03  0.49127300119E+02  0.12006330490E+03  0.30153023133E+03  0.89632080250E+02 0.  0.
         23    2    4    4    0    0 -0.45084917509E+03  0.70360809682E+03 -0.37415403597E+03  0.92002355848E+03  0.90126427458E+02 0.  0.
          3    1    3    3  502    0  0.43386781505E+03 -0.39644833165E+03 -0.12991930692E+03  0.60190662641E+03  0.00000000000E+00 0. -1.
         -3    1    3    3    0  502  0.27399863921E+03 -0.35628706529E+03 -0.88196169346E+02  0.45803306810E+03  0.00000000000E+00 0.  1.
         13    1    5    5    0    0 -0.23655609654E+01 -0.58878654851E+01  0.22429794060E+02  0.23310051484E+02  0.00000000000E+00 0. -1.
        -13    1    5    5    0    0 -0.25465171820E+03  0.55015165604E+02  0.97633510842E+02  0.27822017984E+03  0.00000000000E+00 0.  1.
          4    1    6    6  503    0 -0.94536325398E+02  0.17680152510E+03 -0.52139575896E+02  0.20715798674E+03  0.00000000000E+00 0. -1.
         -4    1    6    6    0  503 -0.35631284969E+03  0.52680657173E+03 -0.32201446007E+03  0.71286557174E+03  0.00000000000E+00 0.  1.
<mgrwt>
<rscale>  0 0.10702657E+04</rscale>
<asrwt>0</asrwt>
<pdfrwt beam="1">  1        2 0.13917594E+00 0.10702657E+04</pdfrwt>
<pdfrwt beam="2">  1       -2 0.21182305E+00 0.10702657E+04</pdfrwt>
<totfact> 0.31986848E+00</totfact>
</mgrwt>
</event>
<event>
12    1  0.1418317E-007  0.2903110E+03  0.7818608E-02  0.1090187E+00
          2   -1    0    0  501    0  0.00000000000E+00  0.00000000000E+00  0.10379272594E+04  0.10379272594E+04  0.00000000000E+00 0. -1.
         -2   -1    0    0    0  501 -0.00000000000E+00 -0.00000000000E+00 -0.11972949789E+03  0.11972949789E+03  0.00000000000E+00 0.  1.
         23    2    1    2    0    0 -0.16834935736E+02 -0.26682215427E+02  0.74461990630E+02  0.12179119735E+03  0.91066744873E+02 0.  0.
    5000000    2    1    2    0    0  0.16834935736E+02  0.26682215427E+02  0.84373577092E+03  0.10358655600E+04  0.60011003287E+03 0.  0.
         23    2    4    4    0    0  0.15329855985E+03 -0.18302788430E+03  0.67277378535E+03  0.71963724239E+03  0.90848992804E+02 0.  0.
         23    2    4    4    0    0 -0.13646362411E+03  0.20971009973E+03  0.17096198557E+03  0.31622831760E+03  0.90397465153E+02 0.  0.
          1    1    3    3  502    0  0.22308399636E+02 -0.36480263127E+02  0.68855206084E+02  0.81052536648E+02  0.00000000000E+00 0. -1.
         -1    1    3    3    0  502 -0.39143335373E+02  0.97980476995E+01  0.56067845461E+01  0.40738660702E+02  0.00000000000E+00 0.  1.
         13    1    5    5    0    0  0.12778945438E+02 -0.16750572772E+02  0.12724770185E+02  0.24613063827E+02  0.00000000000E+00 0.  1.
        -13    1    5    5    0    0  0.14051961441E+03 -0.16627731153E+03  0.66004901517E+03  0.69502417856E+03  0.00000000000E+00 0. -1.
          4    1    6    6  503    0 -0.13155370992E+03  0.15284245266E+03  0.16152388196E+03  0.25837406676E+03  0.00000000000E+00 0. -1.
         -4    1    6    6    0  503 -0.49099141951E+01  0.56867647068E+02  0.94381036059E+01  0.57854250839E+02  0.00000000000E+00 0.  1.
<mgrwt>
<rscale>  0 0.29031095E+03</rscale>
<asrwt>0</asrwt>
<pdfrwt beam="1">  1        2 0.15968111E+00 0.29031095E+03</pdfrwt>
<pdfrwt beam="2">  1       -2 0.18419923E-01 0.29031095E+03</pdfrwt>
<totfact> 0.60421568E+02</totfact>
</mgrwt>
</event>
<event>
12    1  0.1418317E-007  0.1408674E+04  0.7818608E-02  0.8947564E-01
          2   -1    0    0  501    0  0.00000000000E+00  0.00000000000E+00  0.31167609641E+04  0.31167609641E+04  0.00000000000E+00 0. -1.
         -2   -1    0    0    0  501 -0.00000000000E+00 -0.00000000000E+00 -0.70632199909E+03  0.70632199909E+03  0.00000000000E+00 0.  1.
         23    2    1    2    0    0  0.40483522130E+03 -0.13397443359E+04  0.83758138391E+03  0.16341807789E+04  0.10098416438E+03 0.  0.
    5000000    2    1    2    0    0 -0.40483522130E+03  0.13397443359E+04  0.15728575811E+04  0.21889021843E+04  0.59883667229E+03 0.  0.
         23    2    4    4    0    0 -0.29197156336E+03  0.64976119612E+03  0.40445482907E+03  0.82434411209E+03  0.92317390489E+02 0.  0.
         23    2    4    4    0    0 -0.11286365794E+03  0.68998313978E+03  0.11684027520E+04  0.13645580722E+04  0.89659372258E+02 0.  0.
          2    1    3    3  502    0  0.35817977859E+03 -0.10496610115E+04  0.67605138735E+03  0.12988943264E+04  0.00000000000E+00 0. -1.
         -2    1    3    3    0  502  0.46655442711E+02 -0.29008332437E+03  0.16152999656E+03  0.33528645246E+03  0.00000000000E+00 0.  1.
         13    1    5    5    0    0 -0.19252257954E+03  0.37092302215E+03  0.19168775135E+03  0.45977497323E+03  0.00000000000E+00 0. -1.
        -13    1    5    5    0    0 -0.99448983820E+02  0.27883817397E+03  0.21276707772E+03  0.36456913885E+03  0.00000000000E+00 0.  1.
          3    1    6    6  503    0 -0.23108041052E+02  0.27216188199E+03  0.38304743510E+03  0.47045872200E+03  0.00000000000E+00 0. -1.
         -3    1    6    6    0  503 -0.89755616884E+02  0.41782125779E+03  0.78535531695E+03  0.89409935023E+03  0.00000000000E+00 0.  1.
<mgrwt>
<rscale>  0 0.14086738E+04</rscale>
<asrwt>0</asrwt>
<pdfrwt beam="1">  1        2 0.47950168E+00 0.14086738E+04</pdfrwt>
<pdfrwt beam="2">  1       -2 0.10866492E+00 0.14086738E+04</pdfrwt>
<totfact> 0.95947752E-01</totfact>
</mgrwt>
</event>
<event>
12    1  0.1418317E-007  0.8800838E+03  0.7818608E-02  0.9450826E-01
          1   -1    0    0  501    0  0.00000000000E+00  0.00000000000E+00  0.30309083303E+03  0.30309083303E+03  0.00000000000E+00 0. -1.
         -1   -1    0    0    0  501 -0.00000000000E+00 -0.00000000000E+00 -0.28801929765E+04  0.28801929765E+04  0.00000000000E+00 0.  1.
         23    2    1    2    0    0  0.67001596239E+03  0.49252087769E+03 -0.12925214777E+04  0.15396266012E+04  0.91324125854E+02 0.  0.
    5000000    2    1    2    0    0 -0.67001596239E+03 -0.49252087769E+03 -0.12845806658E+04  0.16436572084E+04  0.59996943828E+03 0.  0.
         23    2    4    4    0    0 -0.64145510410E+03 -0.55347861711E+03 -0.88207627117E+03  0.12264773843E+04  0.91569622604E+02 0.  0.
         23    2    4    4    0    0 -0.28560858284E+02  0.60957739421E+02 -0.40250439466E+03  0.41717982412E+03  0.86588967630E+02 0.  0.
          2    1    3    3  502    0  0.55202650955E+03  0.36201275315E+03 -0.99872837949E+03  0.11971820566E+04  0.00000000000E+00 0. -1.
         -2    1    3    3    0  502  0.11798945283E+03  0.13050812454E+03 -0.29379309817E+03  0.34244454454E+03  0.00000000000E+00 0.  1.
         11    1    5    5    0    0 -0.38953282227E+03 -0.37296320784E+03 -0.60846387571E+03  0.81305944560E+03  0.00000000000E+00 0. -1.
        -11    1    5    5    0    0 -0.25192228183E+03 -0.18051540926E+03 -0.27361239546E+03  0.41341793867E+03  0.00000000000E+00 0.  1.
          1    1    6    6  503    0 -0.35680848764E+02  0.45218657109E+02 -0.39351098171E+03  0.39770434074E+03  0.00000000000E+00 0. -1.
         -1    1    6    6    0  503  0.71199904801E+01  0.15739082312E+02 -0.89934129490E+01  0.19475483381E+02  0.00000000000E+00 0.  1.
<mgrwt>
<rscale>  0 0.88008382E+03</rscale>
<asrwt>0</asrwt>
<pdfrwt beam="1">  1        1 0.46629358E-01 0.88008382E+03</pdfrwt>
<pdfrwt beam="2">  1       -1 0.44310662E+00 0.88008382E+03</pdfrwt>
<totfact> 0.32694999E-01</totfact>
</mgrwt>
</event>
<event>
12    1  0.1418317E-007  0.8421044E+03  0.7818608E-02  0.9500996E-01
         -1   -1    0    0    0  501 -0.00000000000E+00  0.00000000000E+00  0.47946025960E+03  0.47946025960E+03  0.00000000000E+00 0.  1.
          1   -1    0    0  501    0  0.00000000000E+00 -0.00000000000E+00 -0.18352724461E+04  0.18352724461E+04  0.00000000000E+00 0. -1.
         23    2    1    2    0    0 -0.63390174107E+03  0.40411963610E+03 -0.10705851179E+04  0.13114371782E+04  0.92579048214E+02 0.  0.
    5000000    2    1    2    0    0  0.63390174107E+03 -0.40411963610E+03 -0.28522706860E+03  0.10032955275E+04  0.60008610811E+03 0.  0.
         23    2    4    4    0    0  0.68349172391E+03 -0.47315638977E+03 -0.22918383499E+03  0.86680843363E+03  0.88282073759E+02 0.  0.
         23    2    4    4    0    0 -0.49589982841E+02  0.69036753661E+02 -0.56043233605E+02  0.13648709384E+03  0.90899081391E+02 0.  0.
          4    1    3    3  502    0 -0.25005236438E+03  0.16413568285E+03 -0.50573678668E+03  0.58756821282E+03  0.00000000000E+00 0. -1.
         -4    1    3    3    0  502 -0.38384937669E+03  0.23998395325E+03 -0.56484833120E+03  0.72386896540E+03  0.00000000000E+00 0.  1.
         11    1    5    5    0    0  0.15627237846E+03 -0.14619876204E+03 -0.35633628196E+02  0.21694443932E+03  0.00000000000E+00 0. -1.
        -11    1    5    5    0    0  0.52721934546E+03 -0.32695762772E+03 -0.19355020680E+03  0.64986399431E+03  0.00000000000E+00 0.  1.
          1    1    6    6  503    0 -0.47994031949E+02  0.25273857150E+02  0.12015322992E+02  0.55556844264E+02  0.00000000000E+00 0. -1.
         -1    1    6    6    0  503 -0.15959508917E+01  0.43762896511E+02 -0.68058556597E+02  0.80930249576E+02  0.00000000000E+00 0.  1.
<mgrwt>
<rscale>  0 0.84210439E+03</rscale>
<asrwt>0</asrwt>
<pdfrwt beam="1">  1        1 0.28234960E+00 0.84210439E+03</pdfrwt>
<pdfrwt beam="2">  1       -1 0.73763119E-01 0.84210439E+03</pdfrwt>
<totfact> 0.73535747E+00</totfact>
</mgrwt>
</event>
<event>
12    1  0.1418317E-007  0.6356747E+03  0.7818608E-02  0.9834037E-01
         -2   -1    0    0    0  501 -0.00000000000E+00  0.00000000000E+00  0.23011681978E+03  0.23011681978E+03  0.00000000000E+00 0. -1.
          2   -1    0    0  501    0  0.00000000000E+00 -0.00000000000E+00 -0.19181020914E+04  0.19181020914E+04  0.00000000000E+00 0.  1.
         23    2    1    2    0    0 -0.50549663708E+03 -0.12537636722E+03 -0.58147536631E+03  0.78605194386E+03  0.92292866772E+02 0.  0.
    5000000    2    1    2    0    0  0.50549663708E+03  0.12537636722E+03 -0.11065099053E+04  0.13621669673E+04  0.59990715345E+03 0.  0.
         23    2    4    4    0    0  0.57585089312E+03  0.20065507239E+03 -0.71304602387E+03  0.94269397970E+03  0.91490972332E+02 0.  0.
         23    2    4    4    0    0 -0.70354256032E+02 -0.75278705176E+02 -0.39346388141E+03  0.41947298761E+03  0.10260193254E+03 0.  0.
          2    1    3    3  502    0 -0.30897358735E+03 -0.54952954727E+02 -0.40727890458E+03  0.51416010252E+03  0.00000000000E+00 0. -1.
         -2    1    3    3    0  502 -0.19652304974E+03 -0.70423412492E+02 -0.17419646173E+03  0.27189184134E+03  0.00000000000E+00 0.  1.
         11    1    5    5    0    0  0.17136330161E+03  0.16468931434E+02 -0.19477566934E+03  0.25995031873E+03  0.00000000000E+00 0. -1.
        -11    1    5    5    0    0  0.40448759151E+03  0.18418614096E+03 -0.51827035454E+03  0.68274366097E+03  0.00000000000E+00 0.  1.
          2    1    6    6  503    0 -0.19213031204E+01 -0.62524360378E+02 -0.10070269904E+03  0.11854965474E+03  0.00000000000E+00 0. -1.
         -2    1    6    6    0  503 -0.68432952911E+02 -0.12754344798E+02 -0.29276118238E+03  0.30092333286E+03  0.00000000000E+00 0.  1.
<mgrwt>
<rscale>  0 0.63567469E+03</rscale>
<asrwt>0</asrwt>
<pdfrwt beam="1">  1        2 0.29509263E+00 0.63567469E+03</pdfrwt>
<pdfrwt beam="2">  1       -2 0.35402588E-01 0.63567469E+03</pdfrwt>
<totfact> 0.57965151E+01</totfact>
</mgrwt>
</event>
<event>
12    1  0.1418317E-007  0.3559967E+03  0.7818608E-02  0.1060180E+00
          2   -1    0    0  501    0  0.00000000000E+00  0.00000000000E+00  0.91886651791E+03  0.91886651791E+03  0.00000000000E+00 0.  1.
         -2   -1    0    0    0  501 -0.00000000000E+00 -0.00000000000E+00 -0.21709954420E+03  0.21709954420E+03  0.00000000000E+00 0. -1.
         23    2    1    2    0    0  0.12718743395E+03  0.12665545395E+03  0.38095066249E+03  0.43230454373E+03  0.97701401787E+02 0.  0.
    5000000    2    1    2    0    0 -0.12718743395E+03 -0.12665545395E+03  0.32081631122E+03  0.70366151838E+03  0.59999848295E+03 0.  0.
         23    2    4    4    0    0  0.18639402998E+03 -0.52238334341E+02  0.29928505298E+03  0.36797258587E+03  0.91436879993E+02 0.  0.
         23    2    4    4    0    0 -0.31358146393E+03 -0.74417119605E+02  0.21531258237E+02  0.33568893252E+03  0.91390492513E+02 0.  0.
          1    1    3    3  502    0  0.49948794074E+02  0.57062222158E+02  0.65645933739E+02  0.10030138505E+03  0.00000000000E+00 0. -1.
         -1    1    3    3    0  502  0.77238639875E+02  0.69593231789E+02  0.31530472875E+03  0.33200315868E+03  0.00000000000E+00 0.  1.
         13    1    5    5    0    0  0.12569690530E+02 -0.24495249771E+02  0.92003561884E+02  0.96034732158E+02  0.00000000000E+00 0. -1.
        -13    1    5    5    0    0  0.17382433945E+03 -0.27743084571E+02  0.20728149110E+03  0.27193785371E+03  0.00000000000E+00 0.  1.
          1    1    6    6  503    0 -0.19001285679E+03 -0.12504218498E+02  0.44570464864E+02  0.19557036474E+03  0.00000000000E+00 0. -1.
         -1    1    6    6    0  503 -0.12356860714E+03 -0.61912901107E+02 -0.23039206627E+02  0.14011856778E+03  0.00000000000E+00 0.  1.
<mgrwt>
<rscale>  0 0.35599671E+03</rscale>
<asrwt>0</asrwt>
<pdfrwt beam="1">  1        2 0.14136408E+00 0.35599671E+03</pdfrwt>
<pdfrwt beam="2">  1       -2 0.33399930E-01 0.35599671E+03</pdfrwt>
<totfact> 0.24747813E+02</totfact>
</mgrwt>
</event>
<event>
12    1  0.1418317E-007  0.5453363E+03  0.7818608E-02  0.1002579E+00
         -2   -1    0    0    0  501 -0.00000000000E+00  0.00000000000E+00  0.45679938712E+03  0.45679938712E+03  0.00000000000E+00 0.  1.
          2   -1    0    0  501    0  0.00000000000E+00 -0.00000000000E+00 -0.78186505321E+03  0.78186505321E+03  0.00000000000E+00 0. -1.
         23    2    1    2    0    0  0.36581977868E+03  0.13643277785E+03  0.84940478213E+02  0.41369465871E+03  0.10719315494E+03 0.  0.
    5000000    2    1    2    0    0 -0.36581977868E+03 -0.13643277785E+03 -0.41000614430E+03  0.82496978162E+03  0.60002674013E+03 0.  0.
         23    2    4    4    0    0  0.14189176891E+03 -0.86071848020E+02 -0.54418840276E+02  0.19642952585E+03  0.89897226563E+02 0.  0.
         23    2    4    4    0    0 -0.50771154759E+03 -0.50360929832E+02 -0.35558730402E+03  0.62854025576E+03  0.91177209475E+02 0.  0.
          1    1    3    3  502    0  0.12410482334E+03  0.17259489731E+02 -0.15149610879E+02  0.12621175806E+03  0.00000000000E+00 0. -1.
         -1    1    3    3    0  502  0.24171495533E+03  0.11917328812E+03  0.10009008909E+03  0.28748290065E+03  0.00000000000E+00 0.  1.
         13    1    5    5    0    0  0.11389591678E+03 -0.30422212327E+02 -0.62801366186E+02  0.13357321010E+03  0.00000000000E+00 0.  1.
        -13    1    5    5    0    0  0.27995852132E+02 -0.55649635693E+02  0.83825259104E+01  0.62856315752E+02  0.00000000000E+00 0. -1.
          1    1    6    6  503    0 -0.20150155150E+03 -0.57009335480E+02 -0.11388491733E+03  0.23837515387E+03  0.00000000000E+00 0. -1.
         -1    1    6    6    0  503 -0.30620999609E+03  0.66484056483E+01 -0.24170238669E+03  0.39016510189E+03  0.00000000000E+00 0.  1.
<mgrwt>
<rscale>  0 0.54533632E+03</rscale>
<asrwt>0</asrwt>
<pdfrwt beam="1">  1        2 0.12028693E+00 0.54533632E+03</pdfrwt>
<pdfrwt beam="2">  1       -2 0.70276829E-01 0.54533632E+03</pdfrwt>
<totfact> 0.67464937E+01</totfact>
</mgrwt>
</event>
<event>
12    1  0.1418317E-007  0.4708781E+03  0.7818608E-02  0.1021673E+00
          2   -1    0    0  501    0  0.00000000000E+00  0.00000000000E+00  0.34757869391E+03  0.34757869391E+03  0.00000000000E+00 0. -1.
         -2   -1    0    0    0  501 -0.00000000000E+00 -0.00000000000E+00 -0.13365970161E+04  0.13365970161E+04  0.00000000000E+00 0.  1.
         23    2    1    2    0    0 -0.20131454251E+03 -0.37470514286E+03 -0.82192728777E+03  0.92990286956E+03  0.90682916405E+02 0.  0.
    5000000    2    1    2    0    0  0.20131454251E+03  0.37470514286E+03 -0.16709103446E+03  0.75427284048E+03  0.60006384242E+03 0.  0.
         23    2    4    4    0    0 -0.69588889196E+01  0.10812999987E+02  0.18145893530E+03  0.20314520726E+03  0.90417271184E+02 0.  0.
         23    2    4    4    0    0  0.20827343143E+03  0.36389214287E+03 -0.34854996976E+03  0.55112763322E+03  0.80369601184E+02 0.  0.
          1    1    3    3  502    0 -0.56502341431E+02 -0.19071013037E+03 -0.33489557082E+03  0.38950983527E+03  0.00000000000E+00 0. -1.
         -1    1    3    3    0  502 -0.14481220108E+03 -0.18399501249E+03 -0.48703171694E+03  0.54039303429E+03  0.00000000000E+00 0.  1.
         11    1    5    5    0    0 -0.34201050126E+02 -0.22560162207E+02  0.49084794119E+02  0.63937389392E+02  0.00000000000E+00 0.  1.
        -11    1    5    5    0    0  0.27242161207E+02  0.33373162193E+02  0.13237414118E+03  0.13920781787E+03  0.00000000000E+00 0. -1.
          2    1    6    6  503    0  0.15710530091E+03  0.20856777632E+03 -0.24146342276E+03  0.35565035839E+03  0.00000000000E+00 0. -1.
         -2    1    6    6    0  503  0.51168130522E+02  0.15532436656E+03 -0.10708654701E+03  0.19547727484E+03  0.00000000000E+00 0.  1.
<mgrwt>
<rscale>  0 0.47087810E+03</rscale>
<asrwt>0</asrwt>
<pdfrwt beam="1">  1        2 0.53473646E-01 0.47087810E+03</pdfrwt>
<pdfrwt beam="2">  1       -2 0.20563031E+00 0.47087810E+03</pdfrwt>
<totfact> 0.12001734E+01</totfact>
</mgrwt>
</event>
<event>
12    1  0.1418317E-007  0.4418139E+03  0.7818608E-02  0.1030192E+00
          1   -1    0    0  501    0  0.00000000000E+00  0.00000000000E+00  0.25146056796E+04  0.25146056796E+04  0.00000000000E+00 0. -1.
         -1   -1    0    0    0  501 -0.00000000000E+00 -0.00000000000E+00 -0.12923842696E+03  0.12923842696E+03  0.00000000000E+00 0.  1.
         23    2    1    2    0    0 -0.25371697653E+03  0.30725835373E+03  0.10497039215E+04  0.11263151895E+04  0.89036975301E+02 0.  0.
    5000000    2    1    2    0    0  0.25371697653E+03 -0.30725835373E+03  0.13356633311E+04  0.15175289171E+04  0.60009789210E+03 0.  0.
         23    2    4    4    0    0  0.25550355372E+03 -0.14127606456E+03  0.12834042139E+04  0.13193590025E+04  0.91328029032E+02 0.  0.
         23    2    4    4    0    0 -0.17865771969E+01 -0.16598228917E+03  0.52259117254E+02  0.19816991464E+03  0.94799723403E+02 0.  0.
          3    1    3    3  502    0 -0.23478794214E+03  0.28441444267E+03  0.10186935102E+04  0.10833990127E+04  0.00000000000E+00 0.  1.
         -3    1    3    3    0  502 -0.18929034386E+02  0.22843911058E+02  0.31010411296E+02  0.42916176717E+02  0.00000000000E+00 0. -1.
         11    1    5    5    0    0  0.12294506498E+03 -0.17139433976E+02  0.54273420085E+03  0.55674919126E+03  0.00000000000E+00 0.  1.
        -11    1    5    5    0    0  0.13255848875E+03 -0.12413663059E+03  0.74067001302E+03  0.76260981122E+03  0.00000000000E+00 0. -1.
          1    1    6    6  503    0 -0.27914658599E+02 -0.13929656785E+03  0.10959550327E+02  0.14248815292E+03  0.00000000000E+00 0. -1.
         -1    1    6    6    0  503  0.26128081402E+02 -0.26685721320E+02  0.41299566927E+02  0.55681761722E+02  0.00000000000E+00 0.  1.
<mgrwt>
<rscale>  0 0.44181389E+03</rscale>
<asrwt>0</asrwt>
<pdfrwt beam="1">  1        1 0.38686238E+00 0.44181389E+03</pdfrwt>
<pdfrwt beam="2">  1       -1 0.19882837E-01 0.44181389E+03</pdfrwt>
<totfact> 0.30198591E+01</totfact>
</mgrwt>
</event>
<event>
12    1  0.1418317E-007  0.1870927E+04  0.7818608E-02  0.8669465E-01
          2   -1    0    0  501    0  0.00000000000E+00  0.00000000000E+00  0.32462629428E+04  0.32462629428E+04  0.00000000000E+00 0. -1.
         -2   -1    0    0    0  501 -0.00000000000E+00 -0.00000000000E+00 -0.13374045634E+04  0.13374045634E+04  0.00000000000E+00 0.  1.
         23    2    1    2    0    0 -0.18309719811E+04 -0.13387994889E+03 -0.41801237216E+02  0.18386256557E+04  0.91731793648E+02 0.  0.
    5000000    2    1    2    0    0  0.18309719811E+04  0.13387994889E+03  0.19506596166E+04  0.27450418506E+04  0.59983296440E+03 0.  0.
         23    2    4    4    0    0  0.13138473799E+03 -0.12323723971E+03  0.13631757899E+03  0.24407211374E+03  0.92408591250E+02 0.  0.
         23    2    4    4    0    0  0.16995872431E+04  0.25711718860E+03  0.18143420376E+04  0.25009697368E+04  0.91140273213E+02 0.  0.
          3    1    3    3  502    0 -0.13273132912E+04 -0.85229664003E+02 -0.69535204289E+02  0.13318632863E+04  0.00000000000E+00 0. -1.
         -3    1    3    3    0  502 -0.50365868990E+03 -0.48650284885E+02  0.27733967073E+02  0.50676236942E+03  0.00000000000E+00 0.  1.
         13    1    5    5    0    0  0.10904858601E+03 -0.71787141456E+02  0.13523536217E+03  0.18797231438E+03  0.00000000000E+00 0. -1.
        -13    1    5    5    0    0  0.22336151973E+02 -0.51450098252E+02  0.10822168134E+01  0.56099799361E+02  0.00000000000E+00 0.  1.
          2    1    6    6  503    0  0.67218674328E+03  0.11567433324E+03  0.65871325201E+03  0.94821870767E+03  0.00000000000E+00 0. -1.
         -2    1    6    6    0  503  0.10274004999E+04  0.14144285536E+03  0.11556287856E+04  0.15527510292E+04  0.00000000000E+00 0.  1.
<mgrwt>
<rscale>  0 0.18709269E+04</rscale>
<asrwt>0</asrwt>
<pdfrwt beam="1">  1        2 0.49942507E+00 0.18709269E+04</pdfrwt>
<pdfrwt beam="2">  1       -2 0.20575455E+00 0.18709269E+04</pdfrwt>
<totfact> 0.13340157E-01</totfact>
</mgrwt>
</event>
<event>
12    1  0.1418317E-007  0.4422600E+03  0.7818608E-02  0.1030056E+00
         -1   -1    0    0    0  501 -0.00000000000E+00  0.00000000000E+00  0.23187837559E+03  0.23187837559E+03  0.00000000000E+00 0.  1.
          1   -1    0    0  501    0  0.00000000000E+00 -0.00000000000E+00 -0.23645532675E+04  0.23645532675E+04  0.00000000000E+00 0. -1.
         23    2    1    2    0    0 -0.40861867132E+03 -0.13909881318E+03 -0.12149226649E+03  0.45380279757E+03  0.69705881265E+02 0.  0.
    5000000    2    1    2    0    0  0.40861867132E+03  0.13909881318E+03 -0.20111826254E+04  0.21426288455E+04  0.59973754135E+03 0.  0.
         23    2    4    4    0    0  0.16259889413E+03  0.80222826693E+02 -0.17702924660E+04  0.17818499378E+04  0.90441600757E+02 0.  0.
         23    2    4    4    0    0  0.24601977719E+03  0.58875986488E+02 -0.24089015937E+03  0.36077890774E+03  0.90228813762E+02 0.  0.
          4    1    3    3  502    0 -0.30567189670E+03 -0.80358713203E+02 -0.65757214278E+02  0.32282633482E+03  0.00000000000E+00 0.  1.
         -4    1    3    3    0  502 -0.10294677462E+03 -0.58740099977E+02 -0.55735052216E+02  0.13097646276E+03  0.00000000000E+00 0. -1.
         11    1    5    5    0    0  0.59730500840E+02  0.65702212972E+02 -0.10972257407E+04  0.11008128086E+04  0.00000000000E+00 0. -1.
        -11    1    5    5    0    0  0.10286839329E+03  0.14520613721E+02 -0.67306672532E+03  0.68103712916E+03  0.00000000000E+00 0.  1.
          3    1    6    6  503    0  0.19558302084E+03  0.65773320667E+02 -0.14494857479E+03  0.25216846965E+03  0.00000000000E+00 0. -1.
         -3    1    6    6    0  503  0.50436756354E+02 -0.68973341788E+01 -0.95941584577E+02  0.10861043809E+03  0.00000000000E+00 0.  1.
<mgrwt>
<rscale>  0 0.44225998E+03</rscale>
<asrwt>0</asrwt>
<pdfrwt beam="1">  1        1 0.36377742E+00 0.44225998E+03</pdfrwt>
<pdfrwt beam="2">  1       -1 0.35673597E-01 0.44225998E+03</pdfrwt>
<totfact> 0.14071517E+01</totfact>
</mgrwt>
</event>
<event>
12    1  0.1418317E-007  0.1704996E+04  0.7818608E-02  0.8758520E-01
          2   -1    0    0  501    0  0.00000000000E+00  0.00000000000E+00  0.42567791091E+04  0.42567791091E+04  0.00000000000E+00 0. -1.
         -2   -1    0    0    0  501 -0.00000000000E+00 -0.00000000000E+00 -0.74344258513E+03  0.74344258513E+03  0.00000000000E+00 0.  1.
         23    2    1    2    0    0  0.55178269079E+03 -0.16030519194E+04  0.21719097207E+04  0.27566663437E+04  0.88192411908E+02 0.  0.
    5000000    2    1    2    0    0 -0.55178269079E+03  0.16030519194E+04  0.13414268032E+04  0.22435553505E+04  0.59989594774E+03 0.  0.
         23    2    4    4    0    0 -0.32892619865E+03  0.63497720888E+03  0.89852572195E+03  0.11519596210E+04  0.90961505490E+02 0.  0.
         23    2    4    4    0    0 -0.22285649214E+03  0.96807471052E+03  0.44290108129E+03  0.10915957295E+04  0.92661791284E+02 0.  0.
          4    1    3    3  502    0  0.33971848929E+03 -0.99690135274E+03  0.12792488555E+04  0.16570149648E+04  0.00000000000E+00 0. -1.
         -4    1    3    3    0  502  0.21206420149E+03 -0.60615056666E+03  0.89266086518E+03  0.10996513790E+04  0.00000000000E+00 0.  1.
         11    1    5    5    0    0 -0.23954521352E+03  0.53504874694E+03  0.74885129311E+03  0.95101910082E+03  0.00000000000E+00 0. -1.
        -11    1    5    5    0    0 -0.89380985128E+02  0.99928461941E+02  0.14967442884E+03  0.20094052019E+03  0.00000000000E+00 0.  1.
          1    1    6    6  503    0 -0.12689197608E+03  0.45539089417E+03  0.25548066350E+03  0.53735724571E+03  0.00000000000E+00 0. -1.
         -1    1    6    6    0  503 -0.95964516059E+02  0.51268381635E+03  0.18742041778E+03  0.55423848377E+03  0.00000000000E+00 0.  1.
<mgrwt>
<rscale>  0 0.17049963E+04</rscale>
<asrwt>0</asrwt>
<pdfrwt beam="1">  1        2 0.65488908E+00 0.17049963E+04</pdfrwt>
<pdfrwt beam="2">  1       -2 0.11437578E+00 0.17049963E+04</pdfrwt>
<totfact> 0.11724820E-01</totfact>
</mgrwt>
</event>
<event>
12    1  0.1480385E-007  0.1775195E+04  0.7818608E-02  0.8719603E-01
          2   -1    0    0  501    0  0.00000000000E+00  0.00000000000E+00  0.18438786397E+04  0.18438786397E+04  0.00000000000E+00 0. -1.
         -2   -1    0    0    0  501 -0.00000000000E+00 -0.00000000000E+00 -0.21545530749E+04  0.21545530749E+04  0.00000000000E+00 0.  1.
         23    2    1    2    0    0 -0.16278717383E+04  0.61756854826E+03 -0.10258586696E+04  0.20228739341E+04  0.90970518695E+02 0.  0.
    5000000    2    1    2    0    0  0.16278717383E+04 -0.61756854826E+03  0.71518423434E+03  0.19755577805E+04  0.59998562226E+03 0.  0.
         23    2    4    4    0    0  0.82859307455E+02 -0.18318894308E+03  0.12158220785E+02  0.22118547781E+03  0.91385663891E+02 0.  0.
         23    2    4    4    0    0  0.15450124309E+04 -0.43437960518E+03  0.70302601355E+03  0.17543723027E+04  0.88473430219E+02 0.  0.
          4    1    3    3  502    0 -0.54578231231E+03  0.21776406164E+03 -0.29808985746E+03  0.65890597363E+03  0.00000000000E+00 0. -1.
         -4    1    3    3    0  502 -0.10820894260E+04  0.39980448662E+03 -0.72776881210E+03  0.13639679605E+04  0.00000000000E+00 0.  1.
         11    1    5    5    0    0  0.69857259411E+02 -0.12661578198E+03 -0.32174659752E+02  0.14814452966E+03  0.00000000000E+00 0. -1.
        -11    1    5    5    0    0  0.13002048044E+02 -0.56573161098E+02  0.44332880538E+02  0.73040948151E+02  0.00000000000E+00 0.  1.
          4    1    6    6  503    0  0.73666258143E+03 -0.16981640236E+03  0.30278239724E+03  0.81436266458E+03  0.00000000000E+00 0. -1.
         -4    1    6    6    0  503  0.80834984945E+03 -0.26456320282E+03  0.40024361632E+03  0.94000963814E+03  0.00000000000E+00 0.  1.
<mgrwt>
<rscale>  0 0.17751949E+04</rscale>
<asrwt>0</asrwt>
<pdfrwt beam="1">  1        2 0.28367364E+00 0.17751949E+04</pdfrwt>
<pdfrwt beam="2">  1       -2 0.33146970E+00 0.17751949E+04</pdfrwt>
<totfact> 0.15104722E-01</totfact>
</mgrwt>
</event>
<event>
12    1  0.1418317E-007  0.7310604E+03  0.7818608E-02  0.9665541E-01
         -1   -1    0    0    0  501 -0.00000000000E+00  0.00000000000E+00  0.12128156369E+04  0.12128156369E+04  0.00000000000E+00 0.  1.
          1   -1    0    0  501    0  0.00000000000E+00 -0.00000000000E+00 -0.65507095280E+03  0.65507095280E+03  0.00000000000E+00 0. -1.
         23    2    1    2    0    0  0.64093981601E+03  0.38916384905E+02  0.72496499332E+03  0.97281444738E+03  0.92061798412E+02 0.  0.
    5000000    2    1    2    0    0 -0.64093981601E+03 -0.38916384905E+02 -0.16722030919E+03  0.89507214236E+03  0.60072720553E+03 0.  0.
         23    2    4    4    0    0 -0.31314330270E+03 -0.25765222904E+03 -0.24564251412E+03  0.48305381253E+03  0.92505901955E+02 0.  0.
         23    2    4    4    0    0 -0.32779651330E+03  0.21873584414E+03  0.78422204938E+02  0.41201832983E+03  0.91176412754E+02 0.  0.
          1    1    3    3  502    0  0.43415585301E+03  0.68955346533E+02  0.48209734665E+03  0.65242930358E+03  0.00000000000E+00 0. -1.
         -1    1    3    3    0  502  0.20678396300E+03 -0.30038961628E+02  0.24286764667E+03  0.32038514380E+03  0.00000000000E+00 0.  1.
         13    1    5    5    0    0 -0.12598960003E+03 -0.65482852401E+02 -0.48090263163E+02  0.14991349735E+03  0.00000000000E+00 0. -1.
        -13    1    5    5    0    0 -0.18715370267E+03 -0.19216937664E+03 -0.19755225096E+03  0.33314031518E+03  0.00000000000E+00 0.  1.
          2    1    6    6  503    0 -0.15157256052E+03  0.15266510549E+03  0.57327608376E+02  0.22263721660E+03  0.00000000000E+00 0. -1.
         -2    1    6    6    0  503 -0.17622395279E+03  0.66070738649E+02  0.21094596562E+02  0.18938111323E+03  0.00000000000E+00 0.  1.
<mgrwt>
<rscale>  0 0.73106040E+03</rscale>
<asrwt>0</asrwt>
<pdfrwt beam="1">  1        1 0.10078015E+00 0.73106040E+03</pdfrwt>
<pdfrwt beam="2">  1       -1 0.18658702E+00 0.73106040E+03</pdfrwt>
<totfact> 0.58340401E+00</totfact>
</mgrwt>
</event>
<event>
12    1  0.1418317E-007  0.1539457E+04  0.7818608E-02  0.8858631E-01
         -1   -1    0    0    0  501 -0.00000000000E+00  0.00000000000E+00  0.92709395387E+03  0.92709395387E+03  0.00000000000E+00 0.  1.
          1   -1    0    0  501    0  0.00000000000E+00 -0.00000000000E+00 -0.30659197493E+04  0.30659197493E+04  0.00000000000E+00 0. -1.
         23    2    1    2    0    0 -0.61571987063E+03  0.13658694571E+04 -0.27235412511E+03  0.15255690047E+04  0.92052624615E+02 0.  0.
    5000000    2    1    2    0    0  0.61571987063E+03 -0.13658694571E+04 -0.18664716703E+04  0.24674446984E+04  0.59988041362E+03 0.  0.
         23    2    4    4    0    0  0.49162724093E+03 -0.51368983059E+03 -0.10869533523E+04  0.13021143642E+04  0.91976309125E+02 0.  0.
         23    2    4    4    0    0  0.12409262970E+03 -0.85217962656E+03 -0.77951831806E+03  0.11653303342E+04  0.93471294899E+02 0.  0.
          2    1    3    3  502    0 -0.52676890962E+03  0.10822936261E+04 -0.20894308144E+03  0.12216800680E+04  0.00000000000E+00 0. -1.
         -2    1    3    3    0  502 -0.88950961006E+02  0.28357583107E+03 -0.63411043679E+02  0.30388893677E+03  0.00000000000E+00 0.  1.
         13    1    5    5    0    0  0.18169054749E+03 -0.23949470288E+03 -0.40399697242E+03  0.50356997674E+03  0.00000000000E+00 0.  1.
        -13    1    5    5    0    0  0.30993669344E+03 -0.27419512771E+03 -0.68295637985E+03  0.79854438748E+03  0.00000000000E+00 0. -1.
          1    1    6    6  503    0  0.23032803389E+02 -0.38158688436E+03 -0.39033448800E+03  0.54635160187E+03  0.00000000000E+00 0. -1.
         -1    1    6    6    0  503  0.10105982631E+03 -0.47059274220E+03 -0.38918383006E+03  0.61897873233E+03  0.00000000000E+00 0.  1.
<mgrwt>
<rscale>  0 0.15394565E+04</rscale>
<asrwt>0</asrwt>
<pdfrwt beam="1">  1        1 0.47167995E+00 0.15394565E+04</pdfrwt>
<pdfrwt beam="2">  1       -1 0.14262984E+00 0.15394565E+04</pdfrwt>
<totfact> 0.20249398E-01</totfact>
</mgrwt>
</event>
<event>
12    1  0.1418317E-007  0.8980230E+03  0.7818608E-02  0.9428056E-01
         -2   -1    0    0    0  501 -0.00000000000E+00  0.00000000000E+00  0.98714574474E+03  0.98714574474E+03  0.00000000000E+00 0.  1.
          2   -1    0    0  501    0  0.00000000000E+00 -0.00000000000E+00 -0.99004356593E+03  0.99004356593E+03  0.00000000000E+00 0. -1.
         23    2    1    2    0    0  0.68348427009E+02  0.85440521458E+03 -0.25828352005E+03  0.90001429142E+03  0.92927766864E+02 0.  0.
    5000000    2    1    2    0    0 -0.68348427009E+02 -0.85440521458E+03  0.25538569885E+03  0.10771750193E+04  0.60033689605E+03 0.  0.
         23    2    4    4    0    0  0.11062016361E+03 -0.12619215065E+03  0.26279038288E+03  0.32178414743E+03  0.79529697076E+02 0.  0.
         23    2    4    4    0    0 -0.17896859062E+03 -0.72821306393E+03 -0.74046840269E+01  0.75539087183E+03  0.90755258770E+02 0.  0.
          3    1    3    3  502    0  0.28154846523E+02  0.63292797866E+03 -0.22579232825E+03  0.67258657216E+03  0.00000000000E+00 0. -1.
         -3    1    3    3    0  502  0.40193580485E+02  0.22147723592E+03 -0.32491191799E+02  0.22742771926E+03  0.00000000000E+00 0.  1.
         11    1    5    5    0    0  0.84441749494E+02 -0.38666992770E+02  0.15269574504E+03  0.17872195148E+03  0.00000000000E+00 0. -1.
        -11    1    5    5    0    0  0.26178414120E+02 -0.87525157882E+02  0.11009463784E+03  0.14306219595E+03  0.00000000000E+00 0.  1.
          1    1    6    6  503    0 -0.28327050705E+02 -0.42313676578E+02  0.14027035211E+02  0.52816917214E+02  0.00000000000E+00 0. -1.
         -1    1    6    6    0  503 -0.15064153992E+03 -0.68589938735E+03 -0.21431719238E+02  0.70257395461E+03  0.00000000000E+00 0.  1.
<mgrwt>
<rscale>  0 0.89802300E+03</rscale>
<asrwt>0</asrwt>
<pdfrwt beam="1">  1        2 0.15231439E+00 0.89802300E+03</pdfrwt>
<pdfrwt beam="2">  1       -2 0.15186858E+00 0.89802300E+03</pdfrwt>
<totfact> 0.74211041E+00</totfact>
</mgrwt>
</event>
<event>
12    1  0.1418317E-007  0.8117999E+03  0.7818608E-02  0.9543093E-01
          2   -1    0    0  501    0  0.00000000000E+00  0.00000000000E+00  0.97821710153E+03  0.97821710153E+03  0.00000000000E+00 0. -1.
         -2   -1    0    0    0  501 -0.00000000000E+00 -0.00000000000E+00 -0.75104584900E+03  0.75104584900E+03  0.00000000000E+00 0.  1.
         23    2    1    2    0    0  0.50216475189E+03  0.54468176566E+03  0.20957172365E+03  0.77568894559E+03  0.94474171509E+02 0.  0.
    5000000    2    1    2    0    0 -0.50216475189E+03 -0.54468176566E+03  0.17599528873E+02  0.95357400494E+03  0.60012163400E+03 0.  0.
         23    2    4    4    0    0  0.22233438051E+02 -0.27371287567E+03 -0.16241157737E+03  0.33027711034E+03  0.85395462852E+02 0.  0.
         23    2    4    4    0    0 -0.52439818994E+03 -0.27096888999E+03  0.18001110625E+03  0.62329689459E+03  0.87620884996E+02 0.  0.
          2    1    3    3  502    0  0.21563116695E+03  0.17117721890E+03  0.60342625519E+02  0.28185044418E+03  0.00000000000E+00 0. -1.
         -2    1    3    3    0  502  0.28653358493E+03  0.37350454676E+03  0.14922909814E+03  0.49383850141E+03  0.00000000000E+00 0.  1.
         13    1    5    5    0    0 -0.30678188382E+01 -0.24867369101E+03 -0.12394601548E+03  0.27786800980E+03  0.00000000000E+00 0. -1.
        -13    1    5    5    0    0  0.25301256889E+02 -0.25039184658E+02 -0.38465561889E+02  0.52409100545E+02  0.00000000000E+00 0.  1.
          2    1    6    6  503    0 -0.23413744581E+03 -0.15432832024E+03  0.51526379576E+02  0.28511846967E+03  0.00000000000E+00 0. -1.
         -2    1    6    6    0  503 -0.29026074413E+03 -0.11664056975E+03  0.12848472667E+03  0.33817842492E+03  0.00000000000E+00 0.  1.
<mgrwt>
<rscale>  0 0.81179994E+03</rscale>
<asrwt>0</asrwt>
<pdfrwt beam="1">  1        2 0.15049494E+00 0.81179994E+03</pdfrwt>
<pdfrwt beam="2">  1       -2 0.11554552E+00 0.81179994E+03</pdfrwt>
<totfact> 0.15317078E+01</totfact>
</mgrwt>
</event>
<event>
12    1  0.1418317E-007  0.5028297E+03  0.7818608E-02  0.1013043E+00
         -1   -1    0    0    0  501 -0.00000000000E+00  0.00000000000E+00  0.50297667273E+03  0.50297667273E+03  0.00000000000E+00 0.  1.
          1   -1    0    0  501    0  0.00000000000E+00 -0.00000000000E+00 -0.67830379809E+03  0.67830379809E+03  0.00000000000E+00 0. -1.
         23    2    1    2    0    0 -0.35992739399E+02  0.36681674753E+03 -0.27655989985E+03  0.46987028912E+03  0.91884203409E+02 0.  0.
    5000000    2    1    2    0    0  0.35992739399E+02 -0.36681674753E+03  0.10123277449E+03  0.71141018169E+03  0.60000530700E+03 0.  0.
         23    2    4    4    0    0  0.71335308213E+02  0.10618303535E+03 -0.10186819318E+03  0.18759412019E+03  0.91928569834E+02 0.  0.
         23    2    4    4    0    0 -0.35342568814E+02 -0.47299978288E+03  0.20310096767E+03  0.52381606150E+03  0.90307095192E+02 0.  0.
          2    1    3    3  502    0 -0.53082251202E+02  0.13476037351E+03 -0.81188893937E+02  0.16604132064E+03  0.00000000000E+00 0. -1.
         -2    1    3    3    0  502  0.17089511803E+02  0.23205637402E+03 -0.19537100591E+03  0.30382896848E+03  0.00000000000E+00 0.  1.
         13    1    5    5    0    0  0.89134949780E+02  0.75992166727E+02 -0.55893462317E+02  0.12978415853E+03  0.00000000000E+00 0. -1.
        -13    1    5    5    0    0 -0.17799641567E+02  0.30190868628E+02 -0.45974730866E+02  0.57809961656E+02  0.00000000000E+00 0.  1.
          4    1    6    6  503    0 -0.41003159668E+02 -0.29154048821E+03  0.82109481127E+02  0.30564535374E+03  0.00000000000E+00 0. -1.
         -4    1    6    6    0  503  0.56605908538E+01 -0.18145929467E+03  0.12099148654E+03  0.21817070777E+03  0.00000000000E+00 0.  1.
<mgrwt>
<rscale>  0 0.50282968E+03</rscale>
<asrwt>0</asrwt>
<pdfrwt beam="1">  1        1 0.10435443E+00 0.50282968E+03</pdfrwt>
<pdfrwt beam="2">  1       -1 0.77381026E-01 0.50282968E+03</pdfrwt>
<totfact> 0.50244006E+01</totfact>
</mgrwt>
</event>
<event>
12    1  0.1418317E-007  0.6559423E+03  0.7818608E-02  0.9795692E-01
          2   -1    0    0  501    0  0.00000000000E+00  0.00000000000E+00  0.29819688606E+03  0.29819688606E+03  0.00000000000E+00 0. -1.
         -2   -1    0    0    0  501 -0.00000000000E+00 -0.00000000000E+00 -0.15842789363E+04  0.15842789363E+04  0.00000000000E+00 0.  1.
         23    2    1    2    0    0  0.47847796265E+03 -0.26317278471E+03 -0.63386624584E+03  0.84146785286E+03  0.89892460314E+02 0.  0.
    5000000    2    1    2    0    0 -0.47847796265E+03  0.26317278471E+03 -0.65221580436E+03  0.10410079695E+04  0.60009254425E+03 0.  0.
         23    2    4    4    0    0 -0.56641398276E+03  0.28753529035E+03 -0.64877110714E+03  0.91239841497E+03  0.89808547038E+02 0.  0.
         23    2    4    4    0    0  0.87936020110E+02 -0.24362505638E+02 -0.34446972154E+01  0.12860955449E+03  0.90566419010E+02 0.  0.
          3    1    3    3  502    0  0.42504568609E+02 -0.14166607536E+02 -0.21807910562E+02  0.49828867986E+02  0.00000000000E+00 0. -1.
         -3    1    3    3    0  502  0.43597339404E+03 -0.24900617717E+03 -0.61205833528E+03  0.79163898487E+03  0.00000000000E+00 0.  1.
         11    1    5    5    0    0 -0.35428767043E+03  0.20491012234E+03 -0.46790865280E+03  0.62164814728E+03  0.00000000000E+00 0. -1.
        -11    1    5    5    0    0 -0.21212631233E+03  0.82625168010E+02 -0.18086245435E+03  0.29075026769E+03  0.00000000000E+00 0.  1.
          4    1    6    6  503    0  0.53431394758E+02  0.31791212406E+02 -0.72328123886E+01  0.62593200167E+02  0.00000000000E+00 0.  1.
         -4    1    6    6    0  503  0.34504625351E+02 -0.56153718045E+02  0.37881151732E+01  0.66016354318E+02  0.00000000000E+00 0. -1.
<mgrwt>
<rscale>  0 0.65594228E+03</rscale>
<asrwt>0</asrwt>
<pdfrwt beam="1">  1        2 0.45876444E-01 0.65594228E+03</pdfrwt>
<pdfrwt beam="2">  1       -2 0.24373522E+00 0.65594228E+03</pdfrwt>
<totfact> 0.80530061E+00</totfact>
</mgrwt>
</event>
<event>
12    1  0.1418317E-007  0.5243716E+03  0.7818608E-02  0.1007606E+00
          2   -1    0    0  501    0  0.00000000000E+00  0.00000000000E+00  0.14200758954E+04  0.14200758954E+04  0.00000000000E+00 0. -1.
         -2   -1    0    0    0  501 -0.00000000000E+00 -0.00000000000E+00 -0.28997576314E+03  0.28997576314E+03  0.00000000000E+00 0.  1.
         23    2    1    2    0    0  0.31038150975E+03 -0.19587953442E+03  0.78542601121E+00  0.37954506789E+03  0.96686959124E+02 0.  0.
    5000000    2    1    2    0    0 -0.31038150975E+03  0.19587953442E+03  0.11293147062E+04  0.13305065906E+04  0.60015881930E+03 0.  0.
         23    2    4    4    0    0 -0.40797779049E+03 -0.41333437721E+02  0.54552899428E+03  0.68796316065E+03  0.86816451219E+02 0.  0.
         23    2    4    4    0    0  0.97596280741E+02  0.23721297215E+03  0.58378571193E+03  0.64254342996E+03  0.79128210887E+02 0.  0.
          1    1    3    3  502    0  0.11031830886E+03 -0.10610388208E+03 -0.35895980653E+02  0.15721540793E+03  0.00000000000E+00 0. -1.
         -1    1    3    3    0  502  0.20006320089E+03 -0.89775652340E+02  0.36681406664E+02  0.22232965996E+03  0.00000000000E+00 0.  1.
         13    1    5    5    0    0 -0.13987348930E+03 -0.55073910149E+02  0.18202027974E+03  0.23607013963E+03  0.00000000000E+00 0.  1.
        -13    1    5    5    0    0 -0.26810430119E+03  0.13740472428E+02  0.36350871454E+03  0.45189302102E+03  0.00000000000E+00 0. -1.
          1    1    6    6  503    0  0.48575806036E+02  0.87462501615E+02  0.32004749541E+03  0.33532029083E+03  0.00000000000E+00 0. -1.
         -1    1    6    6    0  503  0.49020474704E+02  0.14975047053E+03  0.26373821652E+03  0.30722313913E+03  0.00000000000E+00 0.  1.
<mgrwt>
<rscale>  0 0.52437159E+03</rscale>
<asrwt>0</asrwt>
<pdfrwt beam="1">  1        2 0.21847321E+00 0.52437159E+03</pdfrwt>
<pdfrwt beam="2">  1       -2 0.44611657E-01 0.52437159E+03</pdfrwt>
<totfact> 0.70231243E+01</totfact>
</mgrwt>
</event>
<event>
12    1  0.1418317E-007  0.5769436E+03  0.7818608E-02  0.9954430E-01
          1   -1    0    0  501    0  0.00000000000E+00  0.00000000000E+00  0.11525668097E+04  0.11525668097E+04  0.00000000000E+00 0. -1.
         -1   -1    0    0    0  501 -0.00000000000E+00 -0.00000000000E+00 -0.43282739896E+03  0.43282739896E+03  0.00000000000E+00 0.  1.
         23    2    1    2    0    0  0.31149014421E+03  0.32458545827E+03  0.69856617638E+03  0.83519699762E+03  0.84720082627E+02 0.  0.
    5000000    2    1    2    0    0 -0.31149014421E+03 -0.32458545827E+03  0.21173234388E+02  0.75019721107E+03  0.59997143264E+03 0.  0.
         23    2    4    4    0    0 -0.12378306040E+03  0.14121583053E+03 -0.88798025714E+02  0.22739780666E+03  0.92523058033E+02 0.  0.
         23    2    4    4    0    0 -0.18770708381E+03 -0.46580128880E+03  0.10997126010E+03  0.52279940441E+03  0.94977625001E+02 0.  0.
          1    1    3    3  502    0  0.89801884658E+02  0.11170059005E+03  0.29447369475E+03  0.32749985833E+03  0.00000000000E+00 0. -1.
         -1    1    3    3    0  502  0.22168825955E+03  0.21288486822E+03  0.40409248163E+03  0.50769713929E+03  0.00000000000E+00 0.  1.
         11    1    5    5    0    0 -0.24350193944E+02  0.73758044417E+02 -0.72298469323E+02  0.10611432386E+03  0.00000000000E+00 0. -1.
        -11    1    5    5    0    0 -0.99432866457E+02  0.67457786110E+02 -0.16499556391E+02  0.12128348280E+03  0.00000000000E+00 0.  1.
          2    1    6    6  503    0 -0.52186454018E+02 -0.20418901410E+03  0.75936802121E+01  0.21088917336E+03  0.00000000000E+00 0. -1.
         -2    1    6    6    0  503 -0.13552062979E+03 -0.26161227469E+03  0.10237757989E+03  0.31191023105E+03  0.00000000000E+00 0.  1.
<mgrwt>
<rscale>  0 0.57694362E+03</rscale>
<asrwt>0</asrwt>
<pdfrwt beam="1">  1        1 0.17731797E+00 0.57694362E+03</pdfrwt>
<pdfrwt beam="2">  1       -1 0.66588831E-01 0.57694362E+03</pdfrwt>
<totfact> 0.27867124E+01</totfact>
</mgrwt>
</event>
<event>
12    1  0.1418317E-007  0.7690204E+03  0.7818608E-02  0.9605974E-01
          1   -1    0    0  501    0  0.00000000000E+00  0.00000000000E+00  0.17172213276E+04  0.17172213276E+04  0.00000000000E+00 0. -1.
         -1   -1    0    0    0  501 -0.00000000000E+00 -0.00000000000E+00 -0.40125875931E+03  0.40125875931E+03  0.00000000000E+00 0.  1.
         23    2    1    2    0    0 -0.54472286622E+03 -0.42538981188E+03  0.32512974172E+03  0.76966487662E+03  0.94842924406E+02 0.  0.
    5000000    2    1    2    0    0  0.54472286622E+03  0.42538981188E+03  0.99083282657E+03  0.13488152103E+04  0.59989439760E+03 0.  0.
         23    2    4    4    0    0  0.59289243226E+03  0.22645417385E+03  0.90052203797E+03  0.11056065441E+04  0.92859896526E+02 0.  0.
         23    2    4    4    0    0 -0.48169566036E+02  0.19893563803E+03  0.90310788602E+02  0.24320866620E+03  0.95387219321E+02 0.  0.
          1    1    3    3  502    0 -0.28397969836E+03 -0.24888615387E+03  0.13061304837E+03  0.39956045234E+03  0.00000000000E+00 0. -1.
         -1    1    3    3    0  502 -0.26074316786E+03 -0.17650365800E+03  0.19451669335E+03  0.37010442427E+03  0.00000000000E+00 0.  1.
         11    1    5    5    0    0  0.48530462807E+03  0.16785727702E+03  0.66567597559E+03  0.84072656195E+03  0.00000000000E+00 0.  1.
        -11    1    5    5    0    0  0.10758780418E+03  0.58596896828E+02  0.23484606237E+03  0.26487998214E+03  0.00000000000E+00 0. -1.
          3    1    6    6  503    0 -0.49375437205E+02  0.10972312702E+03  0.95826787805E+02  0.15381765719E+03  0.00000000000E+00 0. -1.
         -3    1    6    6    0  503  0.12058711695E+01  0.89212511008E+02 -0.55159992028E+01  0.89391009015E+02  0.00000000000E+00 0.  1.
<mgrwt>
<rscale>  0 0.76902042E+03</rscale>
<asrwt>0</asrwt>
<pdfrwt beam="1">  1        1 0.26418789E+00 0.76902042E+03</pdfrwt>
<pdfrwt beam="2">  1       -1 0.61732118E-01 0.76902042E+03</pdfrwt>
<totfact> 0.12806461E+01</totfact>
</mgrwt>
</event>
<event>
12    1  0.1418317E-007  0.7163557E+03  0.7818608E-02  0.9689664E-01
          2   -1    0    0  501    0  0.00000000000E+00  0.00000000000E+00  0.15119578634E+04  0.15119578634E+04  0.00000000000E+00 0. -1.
         -2   -1    0    0    0  501 -0.00000000000E+00 -0.00000000000E+00 -0.12256292402E+04  0.12256292402E+04  0.00000000000E+00 0.  1.
         23    2    1    2    0    0  0.61905319879E+03 -0.56825089152E+02  0.12769397348E+04  0.14230247935E+04  0.89266582561E+02 0.  0.
    5000000    2    1    2    0    0 -0.61905319879E+03  0.56825089152E+02 -0.99061111155E+03  0.13145623102E+04  0.60025639464E+03 0.  0.
         23    2    4    4    0    0 -0.70191159433E+03  0.11514562641E+02 -0.70269548469E+03  0.99819242621E+03  0.98968197517E+02 0.  0.
         23    2    4    4    0    0  0.82858395542E+02  0.45310526511E+02 -0.28791562685E+03  0.31636988396E+03  0.90972181279E+02 0.  0.
          1    1    3    3  502    0  0.20188011059E+03 -0.77324235695E+01  0.51057355092E+03  0.54909081245E+03  0.00000000000E+00 0. -1.
         -1    1    3    3    0  502  0.41717308820E+03 -0.49092665583E+02  0.76636618389E+03  0.87393398100E+03  0.00000000000E+00 0.  1.
         11    1    5    5    0    0 -0.46293313656E+03  0.50239466783E+02 -0.48950926495E+03  0.67561114069E+03  0.00000000000E+00 0.  1.
        -11    1    5    5    0    0 -0.23897845777E+03 -0.38724904142E+02 -0.21318621974E+03  0.32258128552E+03  0.00000000000E+00 0. -1.
          2    1    6    6  503    0  0.22393076278E+02 -0.64359750081E+01 -0.18405285033E+03  0.18552175978E+03  0.00000000000E+00 0. -1.
         -2    1    6    6    0  503  0.60465319265E+02  0.51746501519E+02 -0.10386277653E+03  0.13084812418E+03  0.00000000000E+00 0.  1.
<mgrwt>
<rscale>  0 0.71635567E+03</rscale>
<asrwt>0</asrwt>
<pdfrwt beam="1">  1        2 0.23260890E+00 0.71635567E+03</pdfrwt>
<pdfrwt beam="2">  1       -2 0.18855834E+00 0.71635567E+03</pdfrwt>
<totfact> 0.20544093E+00</totfact>
</mgrwt>
</event>
<event>
12    1  0.1418317E-007  0.5367743E+03  0.7818608E-02  0.1004602E+00
         -4   -1    0    0    0  501 -0.00000000000E+00  0.00000000000E+00  0.35309199981E+03  0.35309199981E+03  0.00000000000E+00 0.  1.
          4   -1    0    0  501    0  0.00000000000E+00 -0.00000000000E+00 -0.14833966633E+04  0.14833966633E+04  0.00000000000E+00 0. -1.
         23    2    1    2    0    0 -0.15947252070E+03 -0.47256634661E+03 -0.57117451837E+02  0.50977104488E+03  0.88620979904E+02 0.  0.
    5000000    2    1    2    0    0  0.15947252070E+03  0.47256634661E+03 -0.10731872116E+04  0.13267176182E+04  0.59974862273E+03 0.  0.
         23    2    4    4    0    0  0.21843318474E+03  0.30045166551E+03 -0.10553282342E+04  0.11224829638E+04  0.90917888698E+02 0.  0.
         23    2    4    4    0    0 -0.58960664039E+02  0.17211468110E+03 -0.17858977404E+02  0.20423465445E+03  0.91066062005E+02 0.  0.
          3    1    3    3  502    0 -0.65341173835E+02 -0.99363217556E+02 -0.36207922817E+02  0.12431223462E+03  0.00000000000E+00 0. -1.
         -3    1    3    3    0  502 -0.94131346868E+02 -0.37320312906E+03 -0.20909529020E+02  0.38545881026E+03  0.00000000000E+00 0.  1.
         13    1    5    5    0    0 -0.44923045744E+01  0.32004522057E+02 -0.11671005572E+03  0.12110205341E+03  0.00000000000E+00 0.  1.
        -13    1    5    5    0    0  0.22292548932E+03  0.26844714346E+03 -0.93861817852E+03  0.10013809104E+04  0.00000000000E+00 0. -1.
          1    1    6    6  503    0 -0.13434032859E+02  0.11332998079E+03  0.27165628025E+02  0.11731210138E+03  0.00000000000E+00 0. -1.
         -1    1    6    6    0  503 -0.45526631180E+02  0.58784700307E+02 -0.45024605429E+02  0.86922553062E+02  0.00000000000E+00 0.  1.
<mgrwt>
<rscale>  0 0.53677433E+03</rscale>
<asrwt>0</asrwt>
<pdfrwt beam="1">  1        4 0.22821487E+00 0.53677433E+03</pdfrwt>
<pdfrwt beam="2">  1       -4 0.54321847E-01 0.53677433E+03</pdfrwt>
<totfact> 0.56041635E-01</totfact>
</mgrwt>
</event>
<event>
12    1  0.1418317E-007  0.6664629E+03  0.7818608E-02  0.9776369E-01
         -2   -1    0    0    0  501 -0.00000000000E+00  0.00000000000E+00  0.48541216378E+03  0.48541216378E+03  0.00000000000E+00 0.  1.
          2   -1    0    0  501    0  0.00000000000E+00 -0.00000000000E+00 -0.15346136405E+04  0.15346136405E+04  0.00000000000E+00 0. -1.
         23    2    1    2    0    0  0.71345263397E+02  0.56502639215E+03  0.11855835249E+03  0.58892556355E+03  0.91827370746E+02 0.  0.
    5000000    2    1    2    0    0 -0.71345263397E+02 -0.56502639215E+03 -0.11677598292E+04  0.14311002407E+04  0.60003325732E+03 0.  0.
         23    2    4    4    0    0  0.20353202352E+03 -0.30474296150E+03 -0.30875369134E+03  0.48792830756E+03  0.91932770079E+02 0.  0.
         23    2    4    4    0    0 -0.27487728692E+03 -0.26028343065E+03 -0.85900613788E+03  0.94317193319E+03  0.91524660657E+02 0.  0.
          4    1    3    3  502    0  0.24689351582E+02  0.16879881596E+03 -0.67981466149E+01  0.17073025259E+03  0.00000000000E+00 0. -1.
         -4    1    3    3    0  502  0.46655911815E+02  0.39622757619E+03  0.12535649910E+03  0.41819531096E+03  0.00000000000E+00 0.  1.
         11    1    5    5    0    0  0.18770738417E+03 -0.22024331520E+03 -0.26040450931E+03  0.38929640177E+03  0.00000000000E+00 0. -1.
        -11    1    5    5    0    0  0.15824639347E+02 -0.84499646304E+02 -0.48349182036E+02  0.98631905789E+02  0.00000000000E+00 0.  1.
          1    1    6    6  503    0 -0.17427299553E+03 -0.21746528536E+03 -0.57899000976E+03  0.64256646249E+03  0.00000000000E+00 0. -1.
         -1    1    6    6    0  503 -0.10060429138E+03 -0.42818145293E+02 -0.28001612812E+03  0.30060547070E+03  0.00000000000E+00 0.  1.
<mgrwt>
<rscale>  0 0.66646290E+03</rscale>
<asrwt>0</asrwt>
<pdfrwt beam="1">  1        2 0.23609440E+00 0.66646290E+03</pdfrwt>
<pdfrwt beam="2">  1       -2 0.74678796E-01 0.66646290E+03</pdfrwt>
<totfact> 0.20265779E+01</totfact>
</mgrwt>
</event>
<event>
12    1  0.1418317E-007  0.8453656E+03  0.7818608E-02  0.9496578E-01
          2   -1    0    0  501    0  0.00000000000E+00  0.00000000000E+00  0.28195956745E+04  0.28195956745E+04  0.00000000000E+00 0. -1.
         -2   -1    0    0    0  501 -0.00000000000E+00 -0.00000000000E+00 -0.32176791409E+03  0.32176791409E+03  0.00000000000E+00 0.  1.
         23    2    1    2    0    0  0.11980624685E+02 -0.83390958946E+03  0.81888788568E+03  0.11730489187E+04  0.99587436388E+02 0.  0.
    5000000    2    1    2    0    0 -0.11980624685E+02  0.83390958946E+03  0.16789398748E+04  0.19683146700E+04  0.59989565609E+03 0.  0.
         23    2    4    4    0    0 -0.74492524263E+02  0.33603845129E+03  0.12564022449E+04  0.13058237148E+04  0.90321626517E+02 0.  0.
         23    2    4    4    0    0  0.62511899578E+02  0.49787113817E+03  0.42253762982E+03  0.66249095514E+03  0.92589465987E+02 0.  0.
          2    1    3    3  502    0  0.26916420987E+02 -0.19779188102E+03  0.14867421483E+03  0.24889785872E+03  0.00000000000E+00 0. -1.
         -2    1    3    3    0  502 -0.14935796302E+02 -0.63611770844E+03  0.67021367084E+03  0.92415105994E+03  0.00000000000E+00 0.  1.
         13    1    5    5    0    0 -0.26528444163E+02  0.22303985117E+02  0.76569324317E+02  0.84048126263E+02  0.00000000000E+00 0.  1.
        -13    1    5    5    0    0 -0.47964080100E+02  0.31373446617E+03  0.11798329206E+04  0.12217755886E+04  0.00000000000E+00 0. -1.
          2    1    6    6  503    0  0.49315202114E+02  0.26562085915E+03  0.17027729598E+03  0.31934430871E+03  0.00000000000E+00 0. -1.
         -2    1    6    6    0  503  0.13196697464E+02  0.23225027902E+03  0.25226033384E+03  0.34314664643E+03  0.00000000000E+00 0.  1.
<mgrwt>
<rscale>  0 0.84536564E+03</rscale>
<asrwt>0</asrwt>
<pdfrwt beam="1">  1        2 0.43378393E+00 0.84536564E+03</pdfrwt>
<pdfrwt beam="2">  1       -2 0.49502758E-01 0.84536564E+03</pdfrwt>
<totfact> 0.90507096E+00</totfact>
</mgrwt>
</event>
<event>
12    1  0.1418317E-007  0.9692820E+03  0.7818608E-02  0.9342893E-01
         -1   -1    0    0    0  501 -0.00000000000E+00  0.00000000000E+00  0.16293739050E+04  0.16293739050E+04  0.00000000000E+00 0.  1.
          1   -1    0    0  501    0  0.00000000000E+00 -0.00000000000E+00 -0.12949884455E+04  0.12949884455E+04  0.00000000000E+00 0. -1.
         23    2    1    2    0    0  0.28124189507E+03  0.86686575761E+03 -0.89497327685E+03  0.12806028413E+04  0.91723636939E+02 0.  0.
    5000000    2    1    2    0    0 -0.28124189507E+03 -0.86686575761E+03  0.12293587364E+04  0.16437595092E+04  0.60005764397E+03 0.  0.
         23    2    4    4    0    0 -0.35403646960E+03 -0.38497508785E+03  0.35769693911E+03  0.64067371458E+03  0.94699885133E+02 0.  0.
         23    2    4    4    0    0  0.72794574524E+02 -0.48189066976E+03  0.87166179727E+03  0.10030857946E+04  0.94176190392E+02 0.  0.
          2    1    3    3  502    0  0.65609035711E+02  0.31666825215E+03 -0.35333936329E+03  0.47899063992E+03  0.00000000000E+00 0.  1.
         -2    1    3    3    0  502  0.21563285936E+03  0.55019750546E+03 -0.54163391356E+03  0.80161220136E+03  0.00000000000E+00 0. -1.
         13    1    5    5    0    0 -0.20430261366E+03 -0.28355092796E+03  0.25573682421E+03  0.43306120809E+03  0.00000000000E+00 0.  1.
        -13    1    5    5    0    0 -0.14973385594E+03 -0.10142415989E+03  0.10196011489E+03  0.20761250649E+03  0.00000000000E+00 0. -1.
          1    1    6    6  503    0  0.77878264743E+02 -0.24793756679E+03  0.40838430283E+03  0.48406177286E+03  0.00000000000E+00 0. -1.
         -1    1    6    6    0  503 -0.50836902190E+01 -0.23395310297E+03  0.46327749444E+03  0.51902402175E+03  0.00000000000E+00 0.  1.
<mgrwt>
<rscale>  0 0.96928199E+03</rscale>
<asrwt>0</asrwt>
<pdfrwt beam="1">  1        1 0.19922899E+00 0.96928199E+03</pdfrwt>
<pdfrwt beam="2">  1       -1 0.25067291E+00 0.96928199E+03</pdfrwt>
<totfact> 0.63875561E-01</totfact>
</mgrwt>
</event>
<event>
12    1  0.1418317E-007  0.8466985E+03  0.7818608E-02  0.9494779E-01
         -1   -1    0    0    0  501 -0.00000000000E+00  0.00000000000E+00  0.13159060289E+04  0.13159060289E+04  0.00000000000E+00 0.  1.
          1   -1    0    0  501    0  0.00000000000E+00 -0.00000000000E+00 -0.86571309971E+03  0.86571309971E+03  0.00000000000E+00 0. -1.
         23    2    1    2    0    0 -0.82365834392E+03 -0.17342269694E+03 -0.30743711903E+03  0.89993352914E+03  0.82911250103E+02 0.  0.
    5000000    2    1    2    0    0  0.82365834392E+03  0.17342269694E+03  0.75763004818E+03  0.12816855994E+04  0.60018845919E+03 0.  0.
         23    2    4    4    0    0  0.33084941559E+03  0.74481948958E+02  0.68031046103E+03  0.76496345467E+03  0.85661351106E+02 0.  0.
         23    2    4    4    0    0  0.49280892833E+03  0.98940747981E+02  0.77319587145E+02  0.51672214475E+03  0.91507075532E+02 0.  0.
          3    1    3    3  502    0 -0.73888264774E+03 -0.17730361803E+03 -0.28986672053E+03  0.81326923941E+03  0.00000000000E+00 0. -1.
         -3    1    3    3    0  502 -0.84775696186E+02  0.38809210915E+01 -0.17570398498E+02  0.86664289738E+02  0.00000000000E+00 0.  1.
         11    1    5    5    0    0  0.33103940819E+03  0.67459978254E+02  0.63660217385E+03  0.72069429454E+03  0.00000000000E+00 0. -1.
        -11    1    5    5    0    0 -0.18999259598E+00  0.70219707041E+01  0.43708287185E+02  0.44269160128E+02  0.00000000000E+00 0.  1.
          1    1    6    6  503    0  0.23982285789E+03  0.30707767719E+02  0.80030905833E+02  0.25468199005E+03  0.00000000000E+00 0. -1.
         -1    1    6    6    0  503  0.25298607044E+03  0.68232980262E+02 -0.27113186880E+01  0.26204015471E+03  0.00000000000E+00 0.  1.
<mgrwt>
<rscale>  0 0.84669851E+03</rscale>
<asrwt>0</asrwt>
<pdfrwt beam="1">  1        1 0.13318663E+00 0.84669851E+03</pdfrwt>
<pdfrwt beam="2">  1       -1 0.20244708E+00 0.84669851E+03</pdfrwt>
<totfact> 0.28828899E+00</totfact>
</mgrwt>
</event>
<event>
12    1  0.1418317E-007  0.6748021E+03  0.7818608E-02  0.9761322E-01
          3   -1    0    0  501    0  0.00000000000E+00  0.00000000000E+00  0.60799913851E+03  0.60799913851E+03  0.00000000000E+00 0. -1.
         -3   -1    0    0    0  501 -0.00000000000E+00 -0.00000000000E+00 -0.76713168976E+03  0.76713168976E+03  0.00000000000E+00 0.  1.
         23    2    1    2    0    0 -0.51110999199E+03  0.18987759690E+03 -0.25447988741E+02  0.55279178641E+03  0.87431306025E+02 0.  0.
    5000000    2    1    2    0    0  0.51110999199E+03 -0.18987759690E+03 -0.13368456250E+03  0.82233904186E+03  0.60090183209E+03 0.  0.
         23    2    4    4    0    0 -0.47491941843E+02 -0.21729477889E+03 -0.71885677616E+02  0.25230954575E+03  0.94973947784E+02 0.  0.
         23    2    4    4    0    0  0.55860193383E+03  0.27417181995E+02 -0.61798884888E+02  0.57002949611E+03  0.91250763897E+02 0.  0.
          4    1    3    3  502    0 -0.23188346031E+03  0.10021972458E+03  0.29798474559E+02  0.25436564518E+03  0.00000000000E+00 0. -1.
         -4    1    3    3    0  502 -0.27922653168E+03  0.89657872314E+02 -0.55246463300E+02  0.29842614123E+03  0.00000000000E+00 0.  1.
         11    1    5    5    0    0 -0.42457895614E+02 -0.24798037393E+02 -0.17850055857E+02  0.52309081932E+02  0.00000000000E+00 0. -1.
        -11    1    5    5    0    0 -0.50340462288E+01 -0.19249674150E+03 -0.54035621759E+02  0.20000046382E+03  0.00000000000E+00 0.  1.
          4    1    6    6  503    0  0.30854393417E+03  0.42605026625E+02  0.21440902603E+01  0.31147896354E+03  0.00000000000E+00 0. -1.
         -4    1    6    6    0  503  0.25005799966E+03 -0.15187844630E+02 -0.63942975148E+02  0.25855053256E+03  0.00000000000E+00 0.  1.
<mgrwt>
<rscale>  0 0.67480209E+03</rscale>
<asrwt>0</asrwt>
<pdfrwt beam="1">  1        3 0.93538329E-01 0.67480209E+03</pdfrwt>
<pdfrwt beam="2">  1       -3 0.11802026E+00 0.67480209E+03</pdfrwt>
<totfact> 0.15663030E+00</totfact>
</mgrwt>
</event>
<event>
12    1  0.2183176E-007  0.1486363E+04  0.7818608E-02  0.8893572E-01
          2   -1    0    0  501    0  0.00000000000E+00  0.00000000000E+00  0.21291497851E+04  0.21291497851E+04  0.00000000000E+00 0. -1.
         -2   -1    0    0    0  501 -0.00000000000E+00 -0.00000000000E+00 -0.11281039222E+04  0.11281039222E+04  0.00000000000E+00 0.  1.
         23    2    1    2    0    0 -0.14201812534E+04 -0.24760524269E+03  0.85356837730E+02  0.14470378509E+04  0.91703890500E+02 0.  0.
    5000000    2    1    2    0    0  0.14201812534E+04  0.24760524269E+03  0.91568902519E+03  0.18102158564E+04  0.60014323897E+03 0.  0.
         23    2    4    4    0    0  0.74525502796E+03  0.38052251187E+03  0.66311696090E+03  0.10718386033E+04  0.94400470843E+02 0.  0.
         23    2    4    4    0    0  0.67492622545E+03 -0.13291726918E+03  0.25257206429E+03  0.73837725316E+03  0.90641657509E+02 0.  0.
          3    1    3    3  502    0 -0.54121830962E+03 -0.55905830831E+02  0.89111492462E+01  0.54417104772E+03  0.00000000000E+00 0. -1.
         -3    1    3    3    0  502 -0.87896294378E+03 -0.19169941185E+03  0.76445688484E+02  0.90286680320E+03  0.00000000000E+00 0.  1.
         11    1    5    5    0    0  0.31780191623E+03  0.19756792042E+03  0.25161173836E+03  0.45093193280E+03  0.00000000000E+00 0. -1.
        -11    1    5    5    0    0  0.42745311173E+03  0.18295459145E+03  0.41150522254E+03  0.62090667047E+03  0.00000000000E+00 0.  1.
          4    1    6    6  503    0  0.97818361320E+02 -0.90923973876E+00  0.90698204890E+01  0.98242150689E+02  0.00000000000E+00 0. -1.
         -4    1    6    6    0  503  0.57710786413E+03 -0.13200802945E+03  0.24350224381E+03  0.64013510247E+03  0.00000000000E+00 0.  1.
<mgrwt>
<rscale>  0 0.14863633E+04</rscale>
<asrwt>0</asrwt>
<pdfrwt beam="1">  1        2 0.32756150E+00 0.14863633E+04</pdfrwt>
<pdfrwt beam="2">  1       -2 0.17355445E+00 0.14863633E+04</pdfrwt>
<totfact> 0.10731220E+00</totfact>
</mgrwt>
</event>
<event>
12    1  0.1418317E-007  0.1083001E+04  0.7818608E-02  0.9221920E-01
          2   -1    0    0  501    0  0.00000000000E+00  0.00000000000E+00  0.40617731884E+04  0.40617731884E+04  0.00000000000E+00 0. -1.
         -2   -1    0    0    0  501 -0.00000000000E+00 -0.00000000000E+00 -0.43086893165E+03  0.43086893165E+03  0.00000000000E+00 0.  1.
         23    2    1    2    0    0  0.99160940131E+03 -0.28181454402E+03  0.29341673424E+04  0.31112918088E+04  0.89944896479E+02 0.  0.
    5000000    2    1    2    0    0 -0.99160940131E+03  0.28181454402E+03  0.69673691428E+03  0.13813503112E+04  0.59998142677E+03 0.  0.
         23    2    4    4    0    0 -0.73213781639E+03 -0.11141545384E+02  0.63562921954E+03  0.97397170631E+03  0.91904644889E+02 0.  0.
         23    2    4    4    0    0 -0.25947158492E+03  0.29295608941E+03  0.61107694745E+02  0.40737860486E+03  0.95259664279E+02 0.  0.
          1    1    3    3  502    0  0.94394486241E+03 -0.28340567199E+03  0.27590475589E+04  0.29297942096E+04  0.00000000000E+00 0. -1.
         -1    1    3    3    0  502  0.47664538899E+02  0.15911279621E+01  0.17511978353E+03  0.18149759927E+03  0.00000000000E+00 0.  1.
         11    1    5    5    0    0 -0.34599599146E+03 -0.31689022326E+02  0.25148587207E+03  0.42890857311E+03  0.00000000000E+00 0. -1.
        -11    1    5    5    0    0 -0.38614182493E+03  0.20547476942E+02  0.38414334747E+03  0.54506313320E+03  0.00000000000E+00 0.  1.
          2    1    6    6  503    0 -0.16468064899E+03  0.12887423336E+03  0.61197846536E+02  0.21788405311E+03  0.00000000000E+00 0. -1.
         -2    1    6    6    0  503 -0.94790935927E+02  0.16408185604E+03 -0.90151790821E-01  0.18949455175E+03  0.00000000000E+00 0.  1.
<mgrwt>
<rscale>  0 0.10830011E+04</rscale>
<asrwt>0</asrwt>
<pdfrwt beam="1">  1        2 0.62488816E+00 0.10830011E+04</pdfrwt>
<pdfrwt beam="2">  1       -2 0.66287531E-01 0.10830011E+04</pdfrwt>
<totfact> 0.66308284E-01</totfact>
</mgrwt>
</event>
<event>
12    1  0.1418317E-007  0.8748435E+03  0.7818608E-02  0.9457586E-01
         -2   -1    0    0    0  501 -0.00000000000E+00  0.00000000000E+00  0.95728300383E+03  0.95728300383E+03  0.00000000000E+00 0.  1.
          2   -1    0    0  501    0  0.00000000000E+00 -0.00000000000E+00 -0.16455817174E+04  0.16455817174E+04  0.00000000000E+00 0. -1.
         23    2    1    2    0    0 -0.73461767519E+03  0.36856004744E+03  0.55521684507E+03  0.99605937977E+03  0.91481723327E+02 0.  0.
    5000000    2    1    2    0    0  0.73461767519E+03 -0.36856004744E+03 -0.12435155586E+04  0.16068053415E+04  0.59999401956E+03 0.  0.
         23    2    4    4    0    0  0.34630463710E+03  0.51267603409E+02 -0.79793511511E+03  0.87580962803E+03  0.88242777491E+02 0.  0.
         23    2    4    4    0    0  0.38831303809E+03 -0.41982765085E+03 -0.44558044352E+03  0.73099571343E+03  0.93651104834E+02 0.  0.
          1    1    3    3  502    0 -0.12330005020E+03  0.71508840957E+02  0.13890261185E+03  0.19902349684E+03  0.00000000000E+00 0. -1.
         -1    1    3    3    0  502 -0.61131762499E+03  0.29705120648E+03  0.41631423321E+03  0.79703588293E+03  0.00000000000E+00 0.  1.
         13    1    5    5    0    0  0.10333788114E+03  0.14433222344E+02 -0.34590333630E+03  0.36129787385E+03  0.00000000000E+00 0.  1.
        -13    1    5    5    0    0  0.24296675595E+03  0.36834381066E+02 -0.45203177881E+03  0.51451175418E+03  0.00000000000E+00 0. -1.
          2    1    6    6  503    0  0.31348408839E+03 -0.28738373354E+03 -0.30004741611E+03  0.52047107114E+03  0.00000000000E+00 0. -1.
         -2    1    6    6    0  503  0.74828949705E+02 -0.13244391731E+03 -0.14553302741E+03  0.21052464229E+03  0.00000000000E+00 0.  1.
<mgrwt>
<rscale>  0 0.87484345E+03</rscale>
<asrwt>0</asrwt>
<pdfrwt beam="1">  1        2 0.25316642E+00 0.87484345E+03</pdfrwt>
<pdfrwt beam="2">  1       -2 0.14727431E+00 0.87484345E+03</pdfrwt>
<totfact> 0.33411781E+00</totfact>
</mgrwt>
</event>
<event>
12    1  0.1418317E-007  0.7361930E+03  0.7818608E-02  0.9657264E-01
         -2   -1    0    0    0  501 -0.00000000000E+00  0.00000000000E+00  0.46475738506E+03  0.46475738506E+03  0.00000000000E+00 0. -1.
          2   -1    0    0  501    0  0.00000000000E+00 -0.00000000000E+00 -0.13961852656E+04  0.13961852656E+04  0.00000000000E+00 0.  1.
         23    2    1    2    0    0 -0.13735633954E+03 -0.62732251623E+03 -0.69519518017E+03  0.95088371667E+03  0.92104292579E+02 0.  0.
    5000000    2    1    2    0    0  0.13735633954E+03  0.62732251623E+03 -0.23623270037E+03  0.91005893400E+03  0.60000089270E+03 0.  0.
         23    2    4    4    0    0  0.23106529826E+03  0.65487249738E+03 -0.30083765280E+03  0.76190038849E+03  0.87975841881E+02 0.  0.
         23    2    4    4    0    0 -0.93708958725E+02 -0.27549981151E+02  0.64604952420E+02  0.14815854551E+03  0.90756731559E+02 0.  0.
          1    1    3    3  502    0 -0.10128788847E+03 -0.35965788662E+03 -0.34436399573E+03  0.50813344047E+03  0.00000000000E+00 0. -1.
         -1    1    3    3    0  502 -0.36068451068E+02 -0.26766462961E+03 -0.35083118443E+03  0.44275027620E+03  0.00000000000E+00 0.  1.
         13    1    5    5    0    0  0.11983270707E+03  0.46251998174E+03 -0.20622614915E+03  0.52039776689E+03  0.00000000000E+00 0.  1.
        -13    1    5    5    0    0  0.11123259119E+03  0.19235251564E+03 -0.94611503649E+02  0.24150262160E+03  0.00000000000E+00 0. -1.
          4    1    6    6  503    0 -0.34021759808E+02 -0.53643423184E+02  0.51350561103E+02  0.81682171353E+02  0.00000000000E+00 0. -1.
         -4    1    6    6    0  503 -0.59687198917E+02  0.26093442033E+02  0.13254391317E+02  0.66476374156E+02  0.00000000000E+00 0.  1.
<mgrwt>
<rscale>  0 0.73619303E+03</rscale>
<asrwt>0</asrwt>
<pdfrwt beam="1">  1        2 0.21479773E+00 0.73619303E+03</pdfrwt>
<pdfrwt beam="2">  1       -2 0.71501136E-01 0.73619303E+03</pdfrwt>
<totfact> 0.26411330E+01</totfact>
</mgrwt>
</event>
<event>
12    1  0.1418317E-007  0.3691372E+03  0.7818608E-02  0.1055023E+00
          3   -1    0    0  501    0  0.00000000000E+00  0.00000000000E+00  0.42769945593E+03  0.42769945593E+03  0.00000000000E+00 0. -1.
         -3   -1    0    0    0  501 -0.00000000000E+00 -0.00000000000E+00 -0.45832604097E+03  0.45832604097E+03  0.00000000000E+00 0.  1.
         23    2    1    2    0    0  0.11306315345E+03 -0.13991067248E+02 -0.20337736853E+03  0.25137335837E+03  0.94059473944E+02 0.  0.
    5000000    2    1    2    0    0 -0.11306315345E+03  0.13991067248E+02  0.17275078349E+03  0.63465213852E+03  0.59996789672E+03 0.  0.
         23    2    4    4    0    0  0.31642889092E+02 -0.26596555760E+03  0.82307625789E+02  0.29412413338E+03  0.89417617463E+02 0.  0.
         23    2    4    4    0    0 -0.14470604254E+03  0.27995662485E+03  0.90443157704E+02  0.34052800514E+03  0.91998950880E+02 0.  0.
          3    1    3    3  502    0  0.11561508617E+02 -0.41081952120E+02 -0.59635818112E+02  0.73333662621E+02  0.00000000000E+00 0. -1.
         -3    1    3    3    0  502  0.10150164483E+03  0.27090884872E+02 -0.14374155042E+03  0.17803969575E+03  0.00000000000E+00 0.  1.
         11    1    5    5    0    0 -0.55976713551E+01 -0.32992827282E+02  0.43722728092E+02  0.55059400001E+02  0.00000000000E+00 0.  1.
        -11    1    5    5    0    0  0.37240560447E+02 -0.23297273032E+03  0.38584897697E+02  0.23906473338E+03  0.00000000000E+00 0. -1.
          3    1    6    6  503    0 -0.88111051823E+02  0.10396804695E+03  0.37223042192E+01  0.13633329670E+03  0.00000000000E+00 0. -1.
         -3    1    6    6    0  503 -0.56594990716E+02  0.17598857790E+03  0.86720853485E+02  0.20419470844E+03  0.00000000000E+00 0.  1.
<mgrwt>
<rscale>  0 0.36913724E+03</rscale>
<asrwt>0</asrwt>
<pdfrwt beam="1">  1        3 0.65799916E-01 0.36913724E+03</pdfrwt>
<pdfrwt beam="2">  1       -3 0.70511699E-01 0.36913724E+03</pdfrwt>
<totfact> 0.11103440E+01</totfact>
</mgrwt>
</event>
<event>
12    1  0.2209337E-007  0.9408735E+03  0.7818608E-02  0.9375882E-01
          1   -1    0    0  501    0  0.00000000000E+00  0.00000000000E+00  0.14770968287E+04  0.14770968287E+04  0.00000000000E+00 0. -1.
         -1   -1    0    0    0  501 -0.00000000000E+00 -0.00000000000E+00 -0.75297209281E+03  0.75297209281E+03  0.00000000000E+00 0.  1.
         23    2    1    2    0    0 -0.13525828802E+03 -0.92406093350E+03  0.68386682755E+02  0.94082435586E+03  0.91051177422E+02 0.  0.
    5000000    2    1    2    0    0  0.13525828802E+03  0.92406093350E+03  0.65573805315E+03  0.12892445657E+04  0.59997978502E+03 0.  0.
         23    2    4    4    0    0  0.30367487940E+02  0.12846580958E+03  0.41786335243E+03  0.44794021943E+03  0.92817079909E+02 0.  0.
         23    2    4    4    0    0  0.10489080008E+03  0.79559512391E+03  0.23787470072E+03  0.84130434623E+03  0.85058501065E+02 0.  0.
          3    1    3    3  502    0 -0.65285815833E+02 -0.48667604610E+03 -0.92648592697E+01  0.49112284534E+03  0.00000000000E+00 0.  1.
         -3    1    3    3    0  502 -0.69972472182E+02 -0.43738488740E+03  0.77651542024E+02  0.44970151052E+03  0.00000000000E+00 0. -1.
         11    1    5    5    0    0  0.88287736452E+01  0.12139094226E+03  0.24468846895E+03  0.27328767799E+03  0.00000000000E+00 0.  1.
        -11    1    5    5    0    0  0.21538714294E+02  0.70748673239E+01  0.17317488348E+03  0.17465254144E+03  0.00000000000E+00 0. -1.
          3    1    6    6  503    0  0.13340449327E+02  0.23348610080E+03  0.33631725873E+02  0.23627276576E+03  0.00000000000E+00 0. -1.
         -3    1    6    6    0  503  0.91550350749E+02  0.56210902311E+03  0.20424297485E+03  0.60503158047E+03  0.00000000000E+00 0.  1.
<mgrwt>
<rscale>  0 0.94087351E+03</rscale>
<asrwt>0</asrwt>
<pdfrwt beam="1">  1        1 0.22724567E+00 0.94087351E+03</pdfrwt>
<pdfrwt beam="2">  1       -1 0.11584186E+00 0.94087351E+03</pdfrwt>
<totfact> 0.46357510E+00</totfact>
</mgrwt>
</event>
<event>
12    1  0.1418317E-007  0.1407709E+04  0.7818608E-02  0.8948257E-01
          2   -1    0    0  501    0  0.00000000000E+00  0.00000000000E+00  0.39492304899E+04  0.39492304899E+04  0.00000000000E+00 0. -1.
         -2   -1    0    0    0  501 -0.00000000000E+00 -0.00000000000E+00 -0.51708094048E+03  0.51708094048E+03  0.00000000000E+00 0.  1.
         23    2    1    2    0    0  0.11240040788E+04  0.77140603671E+03  0.17315404460E+04  0.22056732140E+04  0.91156832236E+02 0.  0.
    5000000    2    1    2    0    0 -0.11240040788E+04 -0.77140603671E+03  0.17006091034E+04  0.22606382164E+04  0.59996781592E+03 0.  0.
         23    2    4    4    0    0  0.12516984544E+02 -0.98612927982E+02  0.32222976672E+03  0.34940393405E+03  0.91487169071E+02 0.  0.
         23    2    4    4    0    0 -0.11365210634E+04 -0.67279310872E+03  0.13783793367E+04  0.19112342823E+04  0.92499684056E+02 0.  0.
          2    1    3    3  502    0  0.91160797840E+03  0.62517205266E+03  0.14593207411E+04  0.18307064830E+04  0.00000000000E+00 0. -1.
         -2    1    3    3    0  502  0.21239610042E+03  0.14623398404E+03  0.27221970494E+03  0.37496673095E+03  0.00000000000E+00 0.  1.
         13    1    5    5    0    0  0.31008742480E+02 -0.29143754849E+01  0.39233266711E+02  0.50092763065E+02  0.00000000000E+00 0.  1.
        -13    1    5    5    0    0 -0.18491757936E+02 -0.95698552497E+02  0.28299650001E+03  0.29931117099E+03  0.00000000000E+00 0. -1.
          4    1    6    6  503    0 -0.15113648019E+03 -0.12506163742E+03  0.22157170555E+03  0.29593355588E+03  0.00000000000E+00 0. -1.
         -4    1    6    6    0  503 -0.98538458317E+03 -0.54773147131E+03  0.11568076311E+04  0.16153007264E+04  0.00000000000E+00 0.  1.
<mgrwt>
<rscale>  0 0.14077091E+04</rscale>
<asrwt>0</asrwt>
<pdfrwt beam="1">  1        2 0.60757390E+00 0.14077091E+04</pdfrwt>
<pdfrwt beam="2">  1       -2 0.79550917E-01 0.14077091E+04</pdfrwt>
<totfact> 0.51838445E-01</totfact>
</mgrwt>
</event>
<event>
12    1  0.1418317E-007  0.4305963E+03  0.7818608E-02  0.1033672E+00
          2   -1    0    0  501    0  0.00000000000E+00  0.00000000000E+00  0.52132556714E+03  0.52132556714E+03  0.00000000000E+00 0. -1.
         -2   -1    0    0    0  501 -0.00000000000E+00 -0.00000000000E+00 -0.79631278354E+03  0.79631278354E+03  0.00000000000E+00 0.  1.
         23    2    1    2    0    0 -0.23805429077E+03  0.32649116994E+03 -0.40998744516E+03  0.58184328959E+03  0.84767794881E+02 0.  0.
    5000000    2    1    2    0    0  0.23805429077E+03 -0.32649116994E+03  0.13500022876E+03  0.73579506109E+03  0.59991914518E+03 0.  0.
         23    2    4    4    0    0  0.12309566898E+03 -0.93275685477E+02 -0.22165562489E+03  0.28521685831E+03  0.91457875515E+02 0.  0.
         23    2    4    4    0    0  0.11495862179E+03 -0.23321548447E+03  0.35665585365E+03  0.45057820278E+03  0.90622138357E+02 0.  0.
          2    1    3    3  502    0 -0.15993495977E+03  0.25924641639E+03 -0.34387112566E+03  0.45938572772E+03  0.00000000000E+00 0. -1.
         -2    1    3    3    0  502 -0.78119330997E+02  0.67244753551E+02 -0.66116319503E+02  0.12245756187E+03  0.00000000000E+00 0.  1.
         11    1    5    5    0    0  0.11914337094E+03 -0.39461578893E+02 -0.15717075831E+03  0.20113429920E+03  0.00000000000E+00 0. -1.
        -11    1    5    5    0    0  0.39522980352E+01 -0.53814106584E+02 -0.64484866584E+02  0.84082559104E+02  0.00000000000E+00 0.  1.
          1    1    6    6  503    0 -0.66244593930E+01 -0.71042131161E+02  0.74376295819E+02  0.10306648942E+03  0.00000000000E+00 0. -1.
         -1    1    6    6    0  503  0.12158308118E+03 -0.16217335330E+03  0.28227955783E+03  0.34751171336E+03  0.00000000000E+00 0.  1.
<mgrwt>
<rscale>  0 0.43059625E+03</rscale>
<asrwt>0</asrwt>
<pdfrwt beam="1">  1        2 0.80203934E-01 0.43059625E+03</pdfrwt>
<pdfrwt beam="2">  1       -2 0.12250966E+00 0.43059625E+03</pdfrwt>
<totfact> 0.30925047E+01</totfact>
</mgrwt>
</event>
<event>
12    1  0.1418317E-007  0.1341401E+04  0.7818608E-02  0.8997363E-01
          2   -1    0    0  501    0  0.00000000000E+00  0.00000000000E+00  0.23049358873E+04  0.23049358873E+04  0.00000000000E+00 0. -1.
         -2   -1    0    0    0  501 -0.00000000000E+00 -0.00000000000E+00 -0.93882536226E+03  0.93882536226E+03  0.00000000000E+00 0.  1.
         23    2    1    2    0    0  0.12728125594E+04  0.40743065869E+03  0.16527957003E+03  0.13496218882E+04  0.90057492814E+02 0.  0.
    5000000    2    1    2    0    0 -0.12728125594E+04 -0.40743065869E+03  0.12008309550E+04  0.18941393613E+04  0.59976444097E+03 0.  0.
         23    2    4    4    0    0 -0.82712436036E+03 -0.21894399880E+03  0.38847151117E+03  0.94396694618E+03  0.89957203038E+02 0.  0.
         23    2    4    4    0    0 -0.44568819901E+03 -0.18848665989E+03  0.81235944385E+03  0.95017241514E+03  0.93458872201E+02 0.  0.
          3    1    3    3  502    0  0.67703316959E+03  0.19311039596E+03  0.12624028937E+03  0.71526369153E+03  0.00000000000E+00 0. -1.
         -3    1    3    3    0  502  0.59577938977E+03  0.21432026272E+03  0.39039280655E+02  0.63435819671E+03  0.00000000000E+00 0.  1.
         11    1    5    5    0    0 -0.53934131423E+03 -0.16504730136E+03  0.21479841803E+03  0.60354620809E+03  0.00000000000E+00 0. -1.
        -11    1    5    5    0    0 -0.28778304613E+03 -0.53896697433E+02  0.17367309314E+03  0.34042073808E+03  0.00000000000E+00 0.  1.
          1    1    6    6  503    0 -0.15805730838E+03 -0.10327933746E+03  0.25606713153E+03  0.31814950908E+03  0.00000000000E+00 0. -1.
         -1    1    6    6    0  503 -0.28763089064E+03 -0.85207322427E+02  0.55629231232E+03  0.63202290606E+03  0.00000000000E+00 0.  1.
<mgrwt>
<rscale>  0 0.13414012E+04</rscale>
<asrwt>0</asrwt>
<pdfrwt beam="1">  1        2 0.35460552E+00 0.13414012E+04</pdfrwt>
<pdfrwt beam="2">  1       -2 0.14443467E+00 0.13414012E+04</pdfrwt>
<totfact> 0.14324109E+00</totfact>
</mgrwt>
</event>
<event>
12    1  0.1418317E-007  0.4821522E+03  0.7818608E-02  0.1018545E+00
         -2   -1    0    0    0  501 -0.00000000000E+00  0.00000000000E+00  0.19995547480E+03  0.19995547480E+03  0.00000000000E+00 0.  1.
          2   -1    0    0  501    0  0.00000000000E+00 -0.00000000000E+00 -0.26612470330E+04  0.26612470330E+04  0.00000000000E+00 0. -1.
         23    2    1    2    0    0  0.44747033770E+03 -0.11791272886E+03 -0.17832035790E+04  0.18444515196E+04  0.89740120361E+02 0.  0.
    5000000    2    1    2    0    0 -0.44747033770E+03  0.11791272886E+03 -0.67808797915E+03  0.10167509882E+04  0.59987177774E+03 0.  0.
         23    2    4    4    0    0 -0.34251389689E+03  0.44962844933E+02 -0.76000953783E+03  0.83983533964E+03  0.91495754698E+02 0.  0.
         23    2    4    4    0    0 -0.10495644081E+03  0.72949883928E+02  0.81921558680E+02  0.17691564853E+03  0.90832069702E+02 0.  0.
          3    1    3    3  502    0  0.28428249421E+03 -0.74991461398E+02 -0.12934799437E+04  0.13264730003E+04  0.00000000000E+00 0. -1.
         -3    1    3    3    0  502  0.16318784348E+03 -0.42921267462E+02 -0.48972363534E+03  0.51797851931E+03  0.00000000000E+00 0.  1.
         11    1    5    5    0    0 -0.31914102030E+03  0.54768335111E+02 -0.73930486678E+03  0.80710733327E+03  0.00000000000E+00 0. -1.
        -11    1    5    5    0    0 -0.23372876594E+02 -0.98054901785E+01 -0.20704671050E+02  0.32728006374E+02  0.00000000000E+00 0.  1.
          3    1    6    6  503    0 -0.21085866195E+01  0.46050933884E+02  0.44885619473E+02  0.64341693206E+02  0.00000000000E+00 0. -1.
         -3    1    6    6    0  503 -0.10284785419E+03  0.26898950044E+02  0.37035939208E+02  0.11257395533E+03  0.00000000000E+00 0.  1.
<mgrwt>
<rscale>  0 0.48215221E+03</rscale>
<asrwt>0</asrwt>
<pdfrwt beam="1">  1        2 0.40942259E+00 0.48215221E+03</pdfrwt>
<pdfrwt beam="2">  1       -2 0.30762383E-01 0.48215221E+03</pdfrwt>
<totfact> 0.30166619E+01</totfact>
</mgrwt>
</event>
<event>
12    1  0.1418317E-007  0.4499827E+03  0.7818608E-02  0.1027727E+00
         -3   -1    0    0    0  501 -0.00000000000E+00  0.00000000000E+00  0.10122107809E+04  0.10122107809E+04  0.00000000000E+00 0.  1.
          3   -1    0    0  501    0  0.00000000000E+00 -0.00000000000E+00 -0.26061830504E+03  0.26061830504E+03  0.00000000000E+00 0. -1.
         23    2    1    2    0    0 -0.21051391640E+03 -0.24383346453E+03  0.16344828192E+03  0.37304929058E+03  0.93164182602E+02 0.  0.
    5000000    2    1    2    0    0  0.21051391640E+03  0.24383346453E+03  0.58814419397E+03  0.89977979539E+03  0.59993267945E+03 0.  0.
         23    2    4    4    0    0  0.42192210049E+02  0.35335766757E+03  0.12638703386E+03  0.38815550766E+03  0.89717289161E+02 0.  0.
         23    2    4    4    0    0  0.16832170635E+03 -0.10952420305E+03  0.46175716011E+03  0.51162428774E+03  0.90620025413E+02 0.  0.
          1    1    3    3  502    0 -0.63967616758E+02 -0.53392537774E+02  0.87990317469E+02  0.12118133129E+03  0.00000000000E+00 0. -1.
         -1    1    3    3    0  502 -0.14654629964E+03 -0.19044092675E+03  0.75457964447E+02  0.25186795930E+03  0.00000000000E+00 0.  1.
         13    1    5    5    0    0  0.27974598911E+02  0.13449212087E+03  0.49629461489E+01  0.13746032008E+03  0.00000000000E+00 0.  1.
        -13    1    5    5    0    0  0.14217611139E+02  0.21886554670E+03  0.12142408772E+03  0.25069518758E+03  0.00000000000E+00 0. -1.
          4    1    6    6  503    0  0.14833246334E+03 -0.49487926082E+02  0.34621625760E+03  0.37989113116E+03  0.00000000000E+00 0. -1.
         -4    1    6    6    0  503  0.19989243012E+02 -0.60036276967E+02  0.11554090251E+03  0.13173315657E+03  0.00000000000E+00 0.  1.
<mgrwt>
<rscale>  0 0.44998270E+03</rscale>
<asrwt>0</asrwt>
<pdfrwt beam="1">  1        3 0.40095124E-01 0.44998270E+03</pdfrwt>
<pdfrwt beam="2">  1       -3 0.15572473E+00 0.44998270E+03</pdfrwt>
<totfact> 0.47503670E+00</totfact>
</mgrwt>
</event>
<event>
12    1  0.1418317E-007  0.7957604E+03  0.7818608E-02  0.9566174E-01
          3   -1    0    0  501    0  0.00000000000E+00  0.00000000000E+00  0.76681782946E+03  0.76681782946E+03  0.00000000000E+00 0. -1.
         -3   -1    0    0    0  501 -0.00000000000E+00 -0.00000000000E+00 -0.10191002661E+04  0.10191002661E+04  0.00000000000E+00 0.  1.
         23    2    1    2    0    0 -0.60394315978E+03 -0.41640046627E+03 -0.37748717742E+03  0.82997193493E+03  0.90665070995E+02 0.  0.
    5000000    2    1    2    0    0  0.60394315978E+03  0.41640046627E+03  0.12520474079E+03  0.95594616063E+03  0.60001678840E+03 0.  0.
         23    2    4    4    0    0  0.56462964796E+03  0.48091344996E+03  0.24651226582E+03  0.78692857908E+03  0.91672818581E+02 0.  0.
         23    2    4    4    0    0  0.39313511818E+02 -0.64512983687E+02 -0.12130752503E+03  0.16901758155E+03  0.90243836186E+02 0.  0.
          4    1    3    3  502    0 -0.22996858550E+03 -0.14456966233E+03 -0.92945311620E+02  0.28709714129E+03  0.00000000000E+00 0. -1.
         -4    1    3    3    0  502 -0.37397457427E+03 -0.27183080394E+03 -0.28454186580E+03  0.54287479364E+03  0.00000000000E+00 0.  1.
         13    1    5    5    0    0  0.14340560715E+03  0.14287793117E+03  0.28216625931E+02  0.20439043362E+03  0.00000000000E+00 0. -1.
        -13    1    5    5    0    0  0.42122404081E+03  0.33803551879E+03  0.21829563989E+03  0.58253814546E+03  0.00000000000E+00 0.  1.
          4    1    6    6  503    0 -0.27961640010E+02 -0.18666768786E+02 -0.20252398104E+02  0.39248709506E+02  0.00000000000E+00 0. -1.
         -4    1    6    6    0  503  0.67275151828E+02 -0.45846214901E+02 -0.10105512693E+03  0.12976887205E+03  0.00000000000E+00 0.  1.
<mgrwt>
<rscale>  0 0.79576042E+03</rscale>
<asrwt>0</asrwt>
<pdfrwt beam="1">  1        3 0.11797197E+00 0.79576042E+03</pdfrwt>
<pdfrwt beam="2">  1       -3 0.15678466E+00 0.79576042E+03</pdfrwt>
<totfact> 0.43790348E-01</totfact>
</mgrwt>
</event>
<event>
12    1  0.1418317E-007  0.8014625E+03  0.7818608E-02  0.9557903E-01
         -1   -1    0    0    0  501 -0.00000000000E+00  0.00000000000E+00  0.48610347327E+03  0.48610347327E+03  0.00000000000E+00 0.  1.
          1   -1    0    0  501    0  0.00000000000E+00 -0.00000000000E+00 -0.14061654114E+04  0.14061654114E+04  0.00000000000E+00 0. -1.
         23    2    1    2    0    0  0.45650628808E+03 -0.52457843962E+03 -0.58922496859E+03  0.91595550654E+03  0.90597439179E+02 0.  0.
    5000000    2    1    2    0    0 -0.45650628808E+03  0.52457843962E+03 -0.33083696954E+03  0.97631337814E+03  0.60012847087E+03 0.  0.
         23    2    4    4    0    0 -0.38576799963E+03  0.21342786194E+02 -0.19954323850E+03  0.44363279452E+03  0.87864032932E+02 0.  0.
         23    2    4    4    0    0 -0.70738288455E+02  0.50323565342E+03 -0.13129373103E+03  0.53268058361E+03  0.90887469005E+02 0.  0.
          3    1    3    3  502    0  0.11624453464E+03 -0.17828474444E+03 -0.14185236206E+03  0.25577399116E+03  0.00000000000E+00 0. -1.
         -3    1    3    3    0  502  0.34026175345E+03 -0.34629369518E+03 -0.44737260653E+03  0.66018151538E+03  0.00000000000E+00 0.  1.
         11    1    5    5    0    0 -0.74889548613E+02  0.37974516887E+02 -0.55113033387E+02  0.10043881159E+03  0.00000000000E+00 0.  1.
        -11    1    5    5    0    0 -0.31087845101E+03 -0.16631730693E+02 -0.14443020512E+03  0.34319398293E+03  0.00000000000E+00 0. -1.
          3    1    6    6  503    0 -0.34428514093E+02  0.13609045735E+03  0.20326005748E+01  0.14039254478E+03  0.00000000000E+00 0. -1.
         -3    1    6    6    0  503 -0.36309774362E+02  0.36714519607E+03 -0.13332633161E+03  0.39228803883E+03  0.00000000000E+00 0.  1.
<mgrwt>
<rscale>  0 0.80146252E+03</rscale>
<asrwt>0</asrwt>
<pdfrwt beam="1">  1        1 0.21633314E+00 0.80146252E+03</pdfrwt>
<pdfrwt beam="2">  1       -1 0.74785150E-01 0.80146252E+03</pdfrwt>
<totfact> 0.14068882E+01</totfact>
</mgrwt>
</event>
<event>
12    1  0.1418317E-007  0.5605531E+03  0.7818608E-02  0.9990804E-01
         -2   -1    0    0    0  501 -0.00000000000E+00  0.00000000000E+00  0.94180917893E+03  0.94180917893E+03  0.00000000000E+00 0. -1.
          2   -1    0    0  501    0  0.00000000000E+00 -0.00000000000E+00 -0.91832216180E+03  0.91832216180E+03  0.00000000000E+00 0.  1.
         23    2    1    2    0    0  0.53194142306E+03 -0.13365066146E+03 -0.61309579288E+03  0.82758136909E+03  0.90444979584E+02 0.  0.
    5000000    2    1    2    0    0 -0.53194142306E+03  0.13365066146E+03  0.63658281001E+03  0.10325499716E+04  0.60008132205E+03 0.  0.
         23    2    4    4    0    0 -0.25896357372E+03  0.22613754201E+02  0.66804754379E+03  0.72238247222E+03  0.89305100719E+02 0.  0.
         23    2    4    4    0    0 -0.27297784934E+03  0.11103690726E+03 -0.31464733785E+02  0.31016749942E+03  0.91475391358E+02 0.  0.
          1    1    3    3  502    0  0.24027684463E+03 -0.10685185095E+03 -0.29389461438E+03  0.39436572427E+03  0.00000000000E+00 0. -1.
         -1    1    3    3    0  502  0.29166457843E+03 -0.26798810503E+02 -0.31920117850E+03  0.43321564482E+03  0.00000000000E+00 0.  1.
         13    1    5    5    0    0 -0.28574823646E+02 -0.12465009085E+02  0.16575377464E+03  0.16866004508E+03  0.00000000000E+00 0.  1.
        -13    1    5    5    0    0 -0.23038875008E+03  0.35078763286E+02  0.50229376915E+03  0.55372242714E+03  0.00000000000E+00 0. -1.
          2    1    6    6  503    0 -0.84096509522E+01  0.19224343570E+02 -0.21355055550E+02  0.29938871261E+02  0.00000000000E+00 0.  1.
         -2    1    6    6    0  503 -0.26456819838E+03  0.91812563687E+02 -0.10109678235E+02  0.28022862816E+03  0.00000000000E+00 0. -1.
<mgrwt>
<rscale>  0 0.56055314E+03</rscale>
<asrwt>0</asrwt>
<pdfrwt beam="1">  1        2 0.14128033E+00 0.56055314E+03</pdfrwt>
<pdfrwt beam="2">  1       -2 0.14489372E+00 0.56055314E+03</pdfrwt>
<totfact> 0.97661379E+00</totfact>
</mgrwt>
</event>
<event>
12    1  0.1418317E-007  0.8025993E+03  0.7818608E-02  0.9556262E-01
         -2   -1    0    0    0  501 -0.00000000000E+00  0.00000000000E+00  0.42228992613E+03  0.42228992613E+03  0.00000000000E+00 0.  1.
          2   -1    0    0  501    0  0.00000000000E+00 -0.00000000000E+00 -0.26285324049E+04  0.26285324049E+04  0.00000000000E+00 0. -1.
         23    2    1    2    0    0  0.72852112188E+03  0.30977262582E+03 -0.18171126848E+04  0.19840305433E+04  0.88184935881E+02 0.  0.
    5000000    2    1    2    0    0 -0.72852112188E+03 -0.30977262582E+03 -0.38912979398E+03  0.10667917877E+04  0.59993384388E+03 0.  0.
         23    2    4    4    0    0 -0.23047063288E+03 -0.16107318298E+03 -0.44776188634E+03  0.53565602616E+03  0.85880082748E+02 0.  0.
         23    2    4    4    0    0 -0.49805048900E+03 -0.14869944284E+03  0.58632092352E+02  0.53113576155E+03  0.92204452428E+02 0.  0.
          3    1    3    3  502    0  0.54680604341E+03  0.22578752727E+03 -0.12579295875E+04  0.13900948542E+04  0.00000000000E+00 0. -1.
         -3    1    3    3    0  502  0.18171507847E+03  0.83985098549E+02 -0.55918309732E+03  0.59393568915E+03  0.00000000000E+00 0.  1.
         13    1    5    5    0    0 -0.19201541747E+03 -0.10124107442E+03 -0.28684635319E+03  0.35972281833E+03  0.00000000000E+00 0.  1.
        -13    1    5    5    0    0 -0.38455215412E+02 -0.59832108565E+02 -0.16091553315E+03  0.17593320783E+03  0.00000000000E+00 0. -1.
          3    1    6    6  503    0 -0.85445849154E+01 -0.15868011697E+02 -0.77194356538E+01  0.19605953519E+02  0.00000000000E+00 0. -1.
         -3    1    6    6    0  503 -0.48950590409E+03 -0.13283143114E+03  0.66351528005E+02  0.51152980803E+03  0.00000000000E+00 0.  1.
<mgrwt>
<rscale>  0 0.80259934E+03</rscale>
<asrwt>0</asrwt>
<pdfrwt beam="1">  1        2 0.40438959E+00 0.80259934E+03</pdfrwt>
<pdfrwt beam="2">  1       -2 0.64967682E-01 0.80259934E+03</pdfrwt>
<totfact> 0.66791956E+00</totfact>
</mgrwt>
</event>
<event>
12    1  0.1418317E-007  0.3954572E+03  0.7818608E-02  0.1045364E+00
          1   -1    0    0  501    0  0.00000000000E+00  0.00000000000E+00  0.17511309218E+04  0.17511309218E+04  0.00000000000E+00 0. -1.
         -1   -1    0    0    0  501 -0.00000000000E+00 -0.00000000000E+00 -0.96911306635E+02  0.96911306635E+02  0.00000000000E+00 0.  1.
         23    2    1    2    0    0  0.84990578530E+02 -0.15375420134E+03  0.38469907627E+03  0.43286324114E+03  0.92268376895E+02 0.  0.
    5000000    2    1    2    0    0 -0.84990578530E+02  0.15375420134E+03  0.12695205389E+04  0.14151789873E+04  0.60015449224E+03 0.  0.
         23    2    4    4    0    0 -0.16557246395E+03  0.34813870378E+03  0.78901810630E+03  0.88271207810E+03  0.89533473408E+02 0.  0.
         23    2    4    4    0    0  0.80581885418E+02 -0.19438450244E+03  0.48050243262E+03  0.53246690923E+03  0.91431103142E+02 0.  0.
          1    1    3    3  502    0  0.85566642359E+02 -0.85394968933E+02  0.30367764089E+03  0.32685480045E+03  0.00000000000E+00 0. -1.
         -1    1    3    3    0  502 -0.57606382916E+00 -0.68359232405E+02  0.81021435384E+02  0.10600844068E+03  0.00000000000E+00 0.  1.
         13    1    5    5    0    0 -0.14160443992E+03  0.23510037506E+03  0.48186916443E+03  0.55454656738E+03  0.00000000000E+00 0. -1.
        -13    1    5    5    0    0 -0.23968024026E+02  0.11303832873E+03  0.30714894187E+03  0.32816551072E+03  0.00000000000E+00 0.  1.
          3    1    6    6  503    0  0.65604536011E+02 -0.13072721654E+03  0.22223528541E+03  0.26604902250E+03  0.00000000000E+00 0. -1.
         -3    1    6    6    0  503  0.14977349407E+02 -0.63657285907E+02  0.25826714721E+03  0.26641788673E+03  0.00000000000E+00 0.  1.
<mgrwt>
<rscale>  0 0.39545716E+03</rscale>
<asrwt>0</asrwt>
<pdfrwt beam="1">  1        1 0.26940473E+00 0.39545716E+03</pdfrwt>
<pdfrwt beam="2">  1       -1 0.14909433E-01 0.39545716E+03</pdfrwt>
<totfact> 0.15592652E+02</totfact>
</mgrwt>
</event>
<event>
12    1  0.1418317E-007  0.8668333E+03  0.7818608E-02  0.9468018E-01
          2   -1    0    0  501    0  0.00000000000E+00  0.00000000000E+00  0.13367316771E+04  0.13367316771E+04  0.00000000000E+00 0. -1.
         -2   -1    0    0    0  501 -0.00000000000E+00 -0.00000000000E+00 -0.96323801415E+03  0.96323801415E+03  0.00000000000E+00 0.  1.
         23    2    1    2    0    0 -0.82117913444E+03 -0.19731751935E+03 -0.46391724341E+03  0.96784609413E+03  0.90760558060E+02 0.  0.
    5000000    2    1    2    0    0  0.82117913444E+03  0.19731751935E+03  0.83741090635E+03  0.13321235971E+04  0.60002239763E+03 0.  0.
         23    2    4    4    0    0  0.12669540003E+03  0.10535398808E+03  0.52742320709E+03  0.56075985945E+03  0.95525878166E+02 0.  0.
         23    2    4    4    0    0  0.69448373441E+03  0.91963531267E+02  0.30998769926E+03  0.77136373768E+03  0.90247956557E+02 0.  0.
          2    1    3    3  502    0 -0.79200945879E+03 -0.18047245034E+03 -0.42639120399E+03  0.91741961336E+03  0.00000000000E+00 0. -1.
         -2    1    3    3    0  502 -0.29169675651E+02 -0.16845069012E+02 -0.37526039420E+02  0.50426480763E+02  0.00000000000E+00 0.  1.
         11    1    5    5    0    0  0.79353500265E+02  0.11321499585E+03  0.43759440337E+03  0.45891554250E+03  0.00000000000E+00 0.  1.
        -11    1    5    5    0    0  0.47341899766E+02 -0.78610077708E+01  0.89828803723E+02  0.10184431695E+03  0.00000000000E+00 0. -1.
          3    1    6    6  503    0  0.36919920246E+02  0.12979702286E+02  0.40575682584E+02  0.56373213494E+02  0.00000000000E+00 0. -1.
         -3    1    6    6    0  503  0.65756381417E+03  0.78983828981E+02  0.26941201667E+03  0.71499052418E+03  0.00000000000E+00 0.  1.
<mgrwt>
<rscale>  0 0.86683325E+03</rscale>
<asrwt>0</asrwt>
<pdfrwt beam="1">  1        2 0.20565103E+00 0.86683325E+03</pdfrwt>
<pdfrwt beam="2">  1       -2 0.14819046E+00 0.86683325E+03</pdfrwt>
<totfact> 0.49051779E+00</totfact>
</mgrwt>
</event>
<event>
12    1  0.1418317E-007  0.1019845E+04  0.7818608E-02  0.9287043E-01
         -2   -1    0    0    0  501 -0.00000000000E+00  0.00000000000E+00  0.99082737333E+03  0.99082737333E+03  0.00000000000E+00 0.  1.
          2   -1    0    0  501    0  0.00000000000E+00 -0.00000000000E+00 -0.11671332655E+04  0.11671332655E+04  0.00000000000E+00 0. -1.
         23    2    1    2    0    0 -0.81717535957E+03  0.55313218050E+03 -0.89805911319E+01  0.99104338791E+03  0.91408797687E+02 0.  0.
    5000000    2    1    2    0    0  0.81717535957E+03 -0.55313218050E+03 -0.16732530103E+03  0.11669172509E+04  0.59997277996E+03 0.  0.
         23    2    4    4    0    0  0.77435092237E+03 -0.59688828520E+03 -0.26756418852E+03  0.10178771023E+04  0.92672673472E+02 0.  0.
         23    2    4    4    0    0  0.42824437202E+02  0.43756104692E+02  0.10023888749E+03  0.14904014861E+03  0.91742041694E+02 0.  0.
          1    1    3    3  502    0 -0.71488468068E+03  0.47675911623E+03 -0.38043701821E+02  0.86012015720E+03  0.00000000000E+00 0. -1.
         -1    1    3    3    0  502 -0.10229067890E+03  0.76373064272E+02  0.29063110689E+02  0.13092323071E+03  0.00000000000E+00 0.  1.
         11    1    5    5    0    0  0.66765092767E+03 -0.52125406703E+03 -0.19852602120E+03  0.86998628995E+03  0.00000000000E+00 0.  1.
        -11    1    5    5    0    0  0.10669999470E+03 -0.75634218169E+02 -0.69038167321E+02  0.14789081234E+03  0.00000000000E+00 0. -1.
          1    1    6    6  503    0 -0.50893434952E+01  0.21518565888E+02 -0.11879734040E+02  0.25101358050E+02  0.00000000000E+00 0. -1.
         -1    1    6    6    0  503  0.47913780697E+02  0.22237538804E+02  0.11211862153E+03  0.12393879056E+03  0.00000000000E+00 0.  1.
<mgrwt>
<rscale>  0 0.10198450E+04</rscale>
<asrwt>0</asrwt>
<pdfrwt beam="1">  1        2 0.17955896E+00 0.10198450E+04</pdfrwt>
<pdfrwt beam="2">  1       -2 0.15243498E+00 0.10198450E+04</pdfrwt>
<totfact> 0.56291774E+00</totfact>
</mgrwt>
</event>
<event>
12    1  0.1418317E-007  0.6180043E+03  0.7818608E-02  0.9868741E-01
          2   -1    0    0  501    0  0.00000000000E+00  0.00000000000E+00  0.38383754065E+04  0.38383754065E+04  0.00000000000E+00 0. -1.
         -2   -1    0    0    0  501 -0.00000000000E+00 -0.00000000000E+00 -0.17178413723E+03  0.17178413723E+03  0.00000000000E+00 0.  1.
         23    2    1    2    0    0  0.51473737069E+03  0.28304990426E+03  0.65856050809E+03  0.88712927818E+03  0.90689604156E+02 0.  0.
    5000000    2    1    2    0    0 -0.51473737069E+03 -0.28304990426E+03  0.30080307612E+04  0.31230302656E+04  0.59999764187E+03 0.  0.
         23    2    4    4    0    0 -0.64471483409E+02  0.11768061501E+02  0.53560445736E+02  0.11821965680E+03  0.82535486082E+02 0.  0.
         23    2    4    4    0    0 -0.45026588729E+03 -0.29481796576E+03  0.29544703155E+04  0.30048106088E+04  0.10166094338E+03 0.  0.
          1    1    3    3  502    0  0.18286447072E+03  0.12154496385E+03  0.30671410353E+03  0.37720834322E+03  0.00000000000E+00 0. -1.
         -1    1    3    3    0  502  0.33187289997E+03  0.16150494040E+03  0.35184640456E+03  0.50992093496E+03  0.00000000000E+00 0.  1.
         11    1    5    5    0    0  0.11178357769E+02  0.20884284744E+02 -0.22138591974E+01  0.23790968963E+02  0.00000000000E+00 0. -1.
        -11    1    5    5    0    0 -0.75649841177E+02 -0.91162232430E+01  0.55774304934E+02  0.94428687840E+02  0.00000000000E+00 0.  1.
          1    1    6    6  503    0 -0.33170887472E+03 -0.16110604447E+03  0.19470557233E+04  0.19816689746E+04  0.00000000000E+00 0. -1.
         -1    1    6    6    0  503 -0.11855701256E+03 -0.13371192129E+03  0.10074145921E+04  0.10231416342E+04  0.00000000000E+00 0.  1.
<mgrwt>
<rscale>  0 0.61800428E+03</rscale>
<asrwt>0</asrwt>
<pdfrwt beam="1">  1        2 0.59051923E+00 0.61800428E+03</pdfrwt>
<pdfrwt beam="2">  1       -2 0.26428332E-01 0.61800428E+03</pdfrwt>
<totfact> 0.67172442E+00</totfact>
</mgrwt>
</event>
<event>
12    1  0.1418317E-007  0.4529362E+03  0.7818608E-02  0.1026850E+00
          1   -1    0    0  501    0  0.00000000000E+00  0.00000000000E+00  0.92478167800E+03  0.92478167800E+03  0.00000000000E+00 0. -1.
         -1   -1    0    0    0  501 -0.00000000000E+00 -0.00000000000E+00 -0.25203452829E+03  0.25203452829E+03  0.00000000000E+00 0.  1.
         23    2    1    2    0    0 -0.10590075418E+03 -0.24128202359E+03  0.75765465224E+02  0.29020829582E+03  0.95123417734E+02 0.  0.
    5000000    2    1    2    0    0  0.10590075418E+03  0.24128202359E+03  0.59698168449E+03  0.88660791047E+03  0.60021202141E+03 0.  0.
         23    2    4    4    0    0  0.33001521482E+03  0.64736542829E+02  0.25400964983E+03  0.43119860117E+03  0.91161776265E+02 0.  0.
         23    2    4    4    0    0 -0.22411446064E+03  0.17654548076E+03  0.34297203466E+03  0.45540930930E+03  0.91499858972E+02 0.  0.
          1    1    3    3  502    0 -0.66381538958E+02 -0.59440320821E+02  0.50483865290E+02  0.10241230936E+03  0.00000000000E+00 0. -1.
         -1    1    3    3    0  502 -0.39519215227E+02 -0.18184170277E+03  0.25281599934E+02  0.18779598647E+03  0.00000000000E+00 0.  1.
         13    1    5    5    0    0  0.60908042269E+02 -0.18275728712E+02  0.71119654706E+02  0.95403339346E+02  0.00000000000E+00 0. -1.
        -13    1    5    5    0    0  0.26910717255E+03  0.83012271541E+02  0.18288999513E+03  0.33579526182E+03  0.00000000000E+00 0.  1.
          1    1    6    6  503    0 -0.67189114011E+02  0.58765767128E+02  0.17774186214E+03  0.19889686268E+03  0.00000000000E+00 0. -1.
         -1    1    6    6    0  503 -0.15692534663E+03  0.11777971363E+03  0.16523017252E+03  0.25651244661E+03  0.00000000000E+00 0.  1.
<mgrwt>
<rscale>  0 0.45293623E+03</rscale>
<asrwt>0</asrwt>
<pdfrwt beam="1">  1        1 0.14227410E+00 0.45293623E+03</pdfrwt>
<pdfrwt beam="2">  1       -1 0.38774543E-01 0.45293623E+03</pdfrwt>
<totfact> 0.11726672E+02</totfact>
</mgrwt>
</event>
<event>
12    1  0.1418317E-007  0.1305775E+04  0.7818608E-02  0.9024998E-01
          2   -1    0    0  501    0  0.00000000000E+00  0.00000000000E+00  0.24267480469E+04  0.24267480469E+04  0.00000000000E+00 0. -1.
         -2   -1    0    0    0  501 -0.00000000000E+00 -0.00000000000E+00 -0.77068494264E+03  0.77068494264E+03  0.00000000000E+00 0.  1.
         23    2    1    2    0    0  0.10067780744E+04  0.76481541112E+03  0.43497871508E+03  0.13401576540E+04  0.90946967061E+02 0.  0.
    5000000    2    1    2    0    0 -0.10067780744E+04 -0.76481541112E+03  0.12210843892E+04  0.18572753355E+04  0.59989989359E+03 0.  0.
         23    2    4    4    0    0 -0.15190461421E+03  0.28696837573E+02  0.19516048200E+02  0.18026307163E+03  0.90638725448E+02 0.  0.
         23    2    4    4    0    0 -0.85487346019E+03 -0.79351224869E+03  0.12015683410E+04  0.16770122639E+04  0.90184995973E+02 0.  0.
          2    1    3    3  502    0  0.14664432134E+03  0.73688623594E+02  0.51061895051E+02  0.17187753593E+03  0.00000000000E+00 0. -1.
         -2    1    3    3    0  502  0.86013375306E+03  0.69112678753E+03  0.38391682003E+03  0.11682801181E+04  0.00000000000E+00 0.  1.
         13    1    5    5    0    0 -0.42511862760E+02 -0.29719925134E+02 -0.99050914518E+01  0.52807606099E+02  0.00000000000E+00 0. -1.
        -13    1    5    5    0    0 -0.10939275145E+03  0.58416762707E+02  0.29421139652E+02  0.12745546553E+03  0.00000000000E+00 0.  1.
          3    1    6    6  503    0 -0.81649674413E+02 -0.51782036987E+02  0.75777715510E+02  0.12284262637E+03  0.00000000000E+00 0. -1.
         -3    1    6    6    0  503 -0.77322378578E+03 -0.74173021171E+03  0.11257906255E+04  0.15541696375E+04  0.00000000000E+00 0.  1.
<mgrwt>
<rscale>  0 0.13057749E+04</rscale>
<asrwt>0</asrwt>
<pdfrwt beam="1">  1        2 0.37334585E+00 0.13057749E+04</pdfrwt>
<pdfrwt beam="2">  1       -2 0.11856692E+00 0.13057749E+04</pdfrwt>
<totfact> 0.20331238E+00</totfact>
</mgrwt>
</event>
<event>
12    1  0.1418317E-007  0.3580815E+03  0.7818608E-02  0.1059346E+00
          1   -1    0    0  501    0  0.00000000000E+00  0.00000000000E+00  0.51376219111E+03  0.51376219111E+03  0.00000000000E+00 0. -1.
         -1   -1    0    0    0  501 -0.00000000000E+00 -0.00000000000E+00 -0.28298128942E+03  0.28298128942E+03  0.00000000000E+00 0.  1.
         23    2    1    2    0    0  0.14965286920E+02 -0.10966517843E+03  0.87242459742E+02  0.16994497782E+03  0.94971772281E+02 0.  0.
    5000000    2    1    2    0    0 -0.14965286920E+02  0.10966517843E+03  0.14353844195E+03  0.62679850271E+03  0.60001888930E+03 0.  0.
         23    2    4    4    0    0  0.23910063170E+03 -0.82274229245E+02  0.12428611015E+03  0.29457375495E+03  0.85956378769E+02 0.  0.
         23    2    4    4    0    0 -0.25406591862E+03  0.19193940767E+03  0.19252331792E+02  0.33222474776E+03  0.92803036168E+02 0.  0.
          3    1    3    3  502    0 -0.23723345530E+02  0.17111218973E+01  0.31651506413E+02  0.39592207813E+02  0.00000000000E+00 0. -1.
         -3    1    3    3    0  502  0.38688632449E+02 -0.11137630033E+03  0.55590953329E+02  0.13035277000E+03  0.00000000000E+00 0.  1.
         13    1    5    5    0    0  0.10293490750E+03 -0.54159167277E+02  0.14092394073E+02  0.11716401390E+03  0.00000000000E+00 0. -1.
        -13    1    5    5    0    0  0.13616572421E+03 -0.28115061967E+02  0.11019371608E+03  0.17740974106E+03  0.00000000000E+00 0.  1.
          3    1    6    6  503    0 -0.10849680097E+03  0.95179258515E+02 -0.36285944538E+02  0.14881974615E+03  0.00000000000E+00 0. -1.
         -3    1    6    6    0  503 -0.14556911765E+03  0.96760149159E+02  0.55538276331E+02  0.18340500162E+03  0.00000000000E+00 0.  1.
<mgrwt>
<rscale>  0 0.35808154E+03</rscale>
<asrwt>0</asrwt>
<pdfrwt beam="1">  1        1 0.79040337E-01 0.35808154E+03</pdfrwt>
<pdfrwt beam="2">  1       -1 0.43535583E-01 0.35808154E+03</pdfrwt>
<totfact> 0.23082286E+02</totfact>
</mgrwt>
</event>
<event>
12    1  0.1418317E-007  0.1297291E+04  0.7818608E-02  0.9031716E-01
          2   -1    0    0  501    0  0.00000000000E+00  0.00000000000E+00  0.27177079993E+04  0.27177079993E+04  0.00000000000E+00 0. -1.
         -2   -1    0    0    0  501 -0.00000000000E+00 -0.00000000000E+00 -0.74968629187E+03  0.74968629187E+03  0.00000000000E+00 0.  1.
         23    2    1    2    0    0 -0.43084740919E+03 -0.11656504990E+04  0.16208776968E+04  0.20444150608E+04  0.89542487606E+02 0.  0.
    5000000    2    1    2    0    0  0.43084740919E+03  0.11656504990E+04  0.34714401056E+03  0.14229792303E+04  0.59999195821E+03 0.  0.
         23    2    4    4    0    0  0.53828469856E+03  0.81056789552E+03  0.13858344168E+03  0.98750780262E+03  0.95893482498E+02 0.  0.
         23    2    4    4    0    0 -0.10743728937E+03  0.35508260349E+03  0.20856056888E+03  0.43547142766E+03  0.92257395196E+02 0.  0.
          3    1    3    3  502    0 -0.16761316167E+03 -0.34648671814E+03  0.53134120709E+03  0.65610265672E+03  0.00000000000E+00 0. -1.
         -3    1    3    3    0  502 -0.26323424752E+03 -0.81916378087E+03  0.10895364897E+04  0.13883124041E+04  0.00000000000E+00 0.  1.
         11    1    5    5    0    0  0.15984706020E+03  0.16794672783E+03  0.26673093230E+02  0.23338517507E+03  0.00000000000E+00 0.  1.
        -11    1    5    5    0    0  0.37843763837E+03  0.64262116769E+03  0.11191034845E+03  0.75412262755E+03  0.00000000000E+00 0. -1.
          3    1    6    6  503    0 -0.71510471809E+02  0.19863528572E+03  0.67121971222E+02  0.22152896726E+03  0.00000000000E+00 0. -1.
         -3    1    6    6    0  503 -0.35926817564E+02  0.15644731777E+03  0.14143859766E+03  0.21394246041E+03  0.00000000000E+00 0.  1.
<mgrwt>
<rscale>  0 0.12972910E+04</rscale>
<asrwt>0</asrwt>
<pdfrwt beam="1">  1        2 0.41810892E+00 0.12972910E+04</pdfrwt>
<pdfrwt beam="2">  1       -2 0.11533635E+00 0.12972910E+04</pdfrwt>
<totfact> 0.14756554E+00</totfact>
</mgrwt>
</event>
<event>
12    1  0.1418317E-007  0.1300054E+04  0.7818608E-02  0.9029523E-01
         -1   -1    0    0    0  501 -0.00000000000E+00  0.00000000000E+00  0.16537781461E+04  0.16537781461E+04  0.00000000000E+00 0.  1.
          1   -1    0    0  501    0  0.00000000000E+00 -0.00000000000E+00 -0.10609418192E+04  0.10609418192E+04  0.00000000000E+00 0. -1.
         23    2    1    2    0    0 -0.83810763625E+03  0.91878608626E+03  0.10990341235E+03  0.12518319957E+04  0.91718608387E+02 0.  0.
    5000000    2    1    2    0    0  0.83810763625E+03 -0.91878608626E+03  0.48293291454E+03  0.14628879696E+04  0.60018724542E+03 0.  0.
         23    2    4    4    0    0  0.15556962066E+03  0.37155733026E+02 -0.14437105827E+02  0.18412637324E+03  0.90064620864E+02 0.  0.
         23    2    4    4    0    0  0.68253801559E+03 -0.95594181929E+03  0.49737002036E+03  0.12787615964E+04  0.90395678545E+02 0.  0.
          2    1    3    3  502    0 -0.49874861866E+03  0.47913002952E+03  0.61708766215E+02  0.69435130995E+03  0.00000000000E+00 0. -1.
         -2    1    3    3    0  502 -0.33935901759E+03  0.43965605674E+03  0.48194646135E+02  0.55748068573E+03  0.00000000000E+00 0.  1.
         13    1    5    5    0    0  0.12947787813E+03 -0.49351100424E+00 -0.34685224373E+02  0.13404413179E+03  0.00000000000E+00 0.  1.
        -13    1    5    5    0    0  0.26091742526E+02  0.37649244031E+02  0.20248118546E+02  0.50082241451E+02  0.00000000000E+00 0. -1.
          3    1    6    6  503    0  0.14868610298E+03 -0.15079060495E+03  0.99567334574E+02  0.23400644836E+03  0.00000000000E+00 0. -1.
         -3    1    6    6    0  503  0.53385191261E+03 -0.80515121433E+03  0.39780268579E+03  0.10447551480E+04  0.00000000000E+00 0.  1.
<mgrwt>
<rscale>  0 0.13000535E+04</rscale>
<asrwt>0</asrwt>
<pdfrwt beam="1">  1        1 0.16322182E+00 0.13000535E+04</pdfrwt>
<pdfrwt beam="2">  1       -1 0.25442741E+00 0.13000535E+04</pdfrwt>
<totfact> 0.85946427E-01</totfact>
</mgrwt>
</event>
<event>
12    1  0.1611836E-007  0.7579346E+03  0.7818608E-02  0.9622984E-01
          2   -1    0    0  501    0  0.00000000000E+00  0.00000000000E+00  0.11662356127E+04  0.11662356127E+04  0.00000000000E+00 0. -1.
         -2   -1    0    0    0  501 -0.00000000000E+00 -0.00000000000E+00 -0.70563630817E+03  0.70563630817E+03  0.00000000000E+00 0.  1.
         23    2    1    2    0    0 -0.36297207046E+02  0.73308599520E+03  0.54806346154E+03  0.92006569951E+03  0.86109058363E+02 0.  0.
    5000000    2    1    2    0    0  0.36297207046E+02 -0.73308599520E+03 -0.87464157039E+02  0.95180622134E+03  0.59962700124E+03 0.  0.
         23    2    4    4    0    0 -0.38723258214E+02 -0.91329243961E+02  0.19778694465E+03  0.23945428461E+03  0.91532275254E+02 0.  0.
         23    2    4    4    0    0  0.75020465260E+02 -0.64175675124E+03 -0.28525110169E+03  0.71235193674E+03  0.92721587485E+02 0.  0.
          3    1    3    3  502    0 -0.61976516679E+02  0.43551049738E+03  0.31081833708E+03  0.53862651310E+03  0.00000000000E+00 0. -1.
         -3    1    3    3    0  502  0.25679309633E+02  0.29757549782E+03  0.23724512446E+03  0.38143918641E+03  0.00000000000E+00 0.  1.
         11    1    5    5    0    0 -0.24496951205E+02 -0.10713346011E+03  0.14068480541E+03  0.17852140871E+03  0.00000000000E+00 0.  1.
        -11    1    5    5    0    0 -0.14226307009E+02  0.15804216152E+02  0.57102139244E+02  0.60932875900E+02  0.00000000000E+00 0. -1.
          2    1    6    6  503    0  0.51363391266E+02 -0.43736373585E+03 -0.24058125979E+03  0.50180133316E+03  0.00000000000E+00 0. -1.
         -2    1    6    6    0  503  0.23657073994E+02 -0.20439301540E+03 -0.44669841897E+02  0.21055060358E+03  0.00000000000E+00 0.  1.
<mgrwt>
<rscale>  0 0.75793462E+03</rscale>
<asrwt>0</asrwt>
<pdfrwt beam="1">  1        2 0.17942086E+00 0.75793462E+03</pdfrwt>
<pdfrwt beam="2">  1       -2 0.10855943E+00 0.75793462E+03</pdfrwt>
<totfact> 0.13706245E+01</totfact>
</mgrwt>
</event>
<event>
12    1  0.1418317E-007  0.5207251E+03  0.7818608E-02  0.1008507E+00
         -2   -1    0    0    0  501 -0.00000000000E+00  0.00000000000E+00  0.17771837298E+03  0.17771837298E+03  0.00000000000E+00 0.  1.
          2   -1    0    0  501    0  0.00000000000E+00 -0.00000000000E+00 -0.16905039196E+04  0.16905039196E+04  0.00000000000E+00 0. -1.
         23    2    1    2    0    0 -0.12351591789E+03  0.35137881563E+03 -0.63214249243E+03  0.73940510855E+03  0.91610751317E+02 0.  0.
    5000000    2    1    2    0    0  0.12351591789E+03 -0.35137881563E+03 -0.88064305417E+03  0.11288171840E+04  0.59997732628E+03 0.  0.
         23    2    4    4    0    0  0.23270782586E+03 -0.45183854809E+03 -0.74729174358E+03  0.90922270361E+03  0.99649229662E+02 0.  0.
         23    2    4    4    0    0 -0.10919190797E+03  0.10045973246E+03 -0.13335131058E+03  0.21959448042E+03  0.91783076787E+02 0.  0.
          2    1    3    3  502    0 -0.58237474386E+02  0.16858643539E+03 -0.39168617815E+03  0.43038477177E+03  0.00000000000E+00 0. -1.
         -2    1    3    3    0  502 -0.65278443505E+02  0.18279238024E+03 -0.24045631429E+03  0.30902033678E+03  0.00000000000E+00 0.  1.
         13    1    5    5    0    0  0.52563460413E+02 -0.20160719473E+03 -0.33256661512E+03  0.39243971745E+03  0.00000000000E+00 0.  1.
        -13    1    5    5    0    0  0.18014436545E+03 -0.25023135336E+03 -0.41472512847E+03  0.51678298616E+03  0.00000000000E+00 0. -1.
          1    1    6    6  503    0 -0.20658704095E+02  0.40259746681E+02  0.40219239984E+01  0.45429122051E+02  0.00000000000E+00 0. -1.
         -1    1    6    6    0  503 -0.88533203874E+02  0.60199985777E+02 -0.13737323458E+03  0.17416535837E+03  0.00000000000E+00 0.  1.
<mgrwt>
<rscale>  0 0.52072514E+03</rscale>
<asrwt>0</asrwt>
<pdfrwt beam="1">  1        2 0.26007753E+00 0.52072514E+03</pdfrwt>
<pdfrwt beam="2">  1       -2 0.27341288E-01 0.52072514E+03</pdfrwt>
<totfact> 0.12636719E+02</totfact>
</mgrwt>
</event>
<event>
12    1  0.1756840E-007  0.1154660E+04  0.7818608E-02  0.9153495E-01
          1   -1    0    0  501    0  0.00000000000E+00  0.00000000000E+00  0.17790157007E+04  0.17790157007E+04  0.00000000000E+00 0. -1.
         -1   -1    0    0    0  501 -0.00000000000E+00 -0.00000000000E+00 -0.10008304210E+04  0.10008304210E+04  0.00000000000E+00 0.  1.
         23    2    1    2    0    0  0.82699681706E+03  0.76098502393E+03 -0.23495909671E+03  0.11520611039E+04  0.94958243540E+02 0.  0.
    5000000    2    1    2    0    0 -0.82699681706E+03 -0.76098502393E+03  0.10131443764E+04  0.16277850178E+04  0.60016713898E+03 0.  0.
         23    2    4    4    0    0 -0.80915948576E+03 -0.65865584607E+03  0.63411982504E+03  0.12241932474E+04  0.89300377943E+02 0.  0.
         23    2    4    4    0    0 -0.17837331295E+02 -0.10232917787E+03  0.37902455136E+03  0.40359177042E+03  0.91854643788E+02 0.  0.
          2    1    3    3  502    0  0.27433252747E+03  0.24236893583E+03 -0.12164943539E+03  0.38574554025E+03  0.00000000000E+00 0. -1.
         -2    1    3    3    0  502  0.55266428959E+03  0.51861608810E+03 -0.11330966131E+03  0.76631556370E+03  0.00000000000E+00 0.  1.
         11    1    5    5    0    0 -0.40153370369E+03 -0.38427576369E+03  0.33473133775E+03  0.64880062133E+03  0.00000000000E+00 0.  1.
        -11    1    5    5    0    0 -0.40762578207E+03 -0.27438008238E+03  0.29938848728E+03  0.57539262607E+03  0.00000000000E+00 0. -1.
          4    1    6    6  503    0 -0.55168049860E+02 -0.67280363143E+02  0.25394787965E+03  0.26843935362E+03  0.00000000000E+00 0. -1.
         -4    1    6    6    0  503  0.37330718565E+02 -0.35048814726E+02  0.12507667171E+03  0.13515241680E+03  0.00000000000E+00 0.  1.
<mgrwt>
<rscale>  0 0.11546598E+04</rscale>
<asrwt>0</asrwt>
<pdfrwt beam="1">  1        1 0.27369472E+00 0.11546598E+04</pdfrwt>
<pdfrwt beam="2">  1       -1 0.15397391E+00 0.11546598E+04</pdfrwt>
<totfact> 0.13506755E+00</totfact>
</mgrwt>
</event>
<event>
12    1  0.1418317E-007  0.7982097E+03  0.7818608E-02  0.9562612E-01
         -1   -1    0    0    0  501 -0.00000000000E+00  0.00000000000E+00  0.63440567161E+03  0.63440567161E+03  0.00000000000E+00 0.  1.
          1   -1    0    0  501    0  0.00000000000E+00 -0.00000000000E+00 -0.10280329096E+04  0.10280329096E+04  0.00000000000E+00 0. -1.
         23    2    1    2    0    0 -0.54259972015E+03 -0.42632756994E+03 -0.23527338309E+03  0.73481233313E+03  0.91792956828E+02 0.  0.
    5000000    2    1    2    0    0  0.54259972015E+03  0.42632756994E+03 -0.15835385493E+03  0.92762624812E+03  0.59937038602E+03 0.  0.
         23    2    4    4    0    0  0.38315795935E+03 -0.55650627317E+02 -0.94293876196E+02  0.40697978914E+03  0.82669217641E+02 0.  0.
         23    2    4    4    0    0  0.15944176080E+03  0.48197819726E+03 -0.64059978731E+02  0.52064645898E+03  0.96147785504E+02 0.  0.
          2    1    3    3  502    0 -0.14667848882E+03 -0.13769129823E+03 -0.10912123406E+03  0.22886877553E+03  0.00000000000E+00 0. -1.
         -2    1    3    3    0  502 -0.39592123133E+03 -0.28863627172E+03 -0.12615214904E+03  0.50594355760E+03  0.00000000000E+00 0.  1.
         11    1    5    5    0    0  0.19702470544E+03 -0.68440694721E+02 -0.62345026162E+02  0.21769190508E+03  0.00000000000E+00 0. -1.
        -11    1    5    5    0    0  0.18613325391E+03  0.12790067404E+02 -0.31948850034E+02  0.18928788406E+03  0.00000000000E+00 0.  1.
          3    1    6    6  503    0  0.77498262206E+02  0.15846926435E+03  0.16987545616E+02  0.17722038566E+03  0.00000000000E+00 0. -1.
         -3    1    6    6    0  503  0.81943498594E+02  0.32350893291E+03 -0.81047524347E+02  0.34342607332E+03  0.00000000000E+00 0.  1.
<mgrwt>
<rscale>  0 0.79820974E+03</rscale>
<asrwt>0</asrwt>
<pdfrwt beam="1">  1        1 0.15815891E+00 0.79820974E+03</pdfrwt>
<pdfrwt beam="2">  1       -1 0.97600873E-01 0.79820974E+03</pdfrwt>
<totfact> 0.14853296E+01</totfact>
</mgrwt>
</event>
<event>
12    1  0.1418317E-007  0.1239812E+04  0.7818608E-02  0.9078705E-01
          2   -1    0    0  501    0  0.00000000000E+00  0.00000000000E+00  0.23417336309E+04  0.23417336309E+04  0.00000000000E+00 0. -1.
         -2   -1    0    0    0  501 -0.00000000000E+00 -0.00000000000E+00 -0.73293350963E+03  0.73293350963E+03  0.00000000000E+00 0.  1.
         23    2    1    2    0    0 -0.99426114060E+03 -0.68477770721E+03  0.10956795294E+04  0.16321569102E+04  0.77115656075E+02 0.  0.
    5000000    2    1    2    0    0  0.99426114060E+03  0.68477770721E+03  0.51312059184E+03  0.14425102303E+04  0.60005607966E+03 0.  0.
         23    2    4    4    0    0  0.28884076030E+03  0.42604933459E+03  0.43697315572E+03  0.68172456586E+03  0.94105390703E+02 0.  0.
         23    2    4    4    0    0  0.70542038030E+03  0.25872837262E+03  0.76147436117E+02  0.76078566444E+03  0.91859193578E+02 0.  0.
          1    1    3    3  502    0 -0.73202702079E+03 -0.50508769422E+03  0.76027543682E+03  0.11700409727E+04  0.00000000000E+00 0. -1.
         -1    1    3    3    0  502 -0.26223411981E+03 -0.17969001299E+03  0.33540409262E+03  0.46211593752E+03  0.00000000000E+00 0.  1.
         11    1    5    5    0    0  0.10967207260E+03  0.11592921044E+03  0.90762114866E+02  0.18359005103E+03  0.00000000000E+00 0.  1.
        -11    1    5    5    0    0  0.17916868770E+03  0.31012012415E+03  0.34621104085E+03  0.49813451483E+03  0.00000000000E+00 0. -1.
          1    1    6    6  503    0  0.23469715930E+03  0.51384309885E+02  0.52207990277E+02  0.24586333223E+03  0.00000000000E+00 0. -1.
         -1    1    6    6    0  503  0.47072322100E+03  0.20734406273E+03  0.23939445840E+02  0.51492233221E+03  0.00000000000E+00 0.  1.
<mgrwt>
<rscale>  0 0.12398122E+04</rscale>
<asrwt>0</asrwt>
<pdfrwt beam="1">  1        2 0.36026671E+00 0.12398122E+04</pdfrwt>
<pdfrwt beam="2">  1       -2 0.11275900E+00 0.12398122E+04</pdfrwt>
<totfact> 0.25905857E+00</totfact>
</mgrwt>
</event>
<event>
12    1  0.1418317E-007  0.9882696E+03  0.7818608E-02  0.9321505E-01
          2   -1    0    0  501    0  0.00000000000E+00  0.00000000000E+00  0.17316251645E+04  0.17316251645E+04  0.00000000000E+00 0. -1.
         -2   -1    0    0    0  501 -0.00000000000E+00 -0.00000000000E+00 -0.60070022095E+03  0.60070022095E+03  0.00000000000E+00 0.  1.
         23    2    1    2    0    0  0.92559613481E+03 -0.61610844654E+02  0.46367173321E+03  0.10417178915E+04  0.98288291579E+02 0.  0.
    5000000    2    1    2    0    0 -0.92559613481E+03  0.61610844654E+02  0.66725321037E+03  0.12906074940E+04  0.59993062589E+03 0.  0.
         23    2    4    4    0    0  0.51168638259E+02 -0.35939704414E+02  0.11921926215E+03  0.16265241438E+03  0.91283533785E+02 0.  0.
         23    2    4    4    0    0 -0.97676477307E+03  0.97550549068E+02  0.54803394822E+03  0.11279550796E+04  0.91410730893E+02 0.  0.
          2    1    3    3  502    0  0.47550605714E+03 -0.23983721514E+02  0.18368739992E+03  0.51031587293E+03  0.00000000000E+00 0. -1.
         -2    1    3    3    0  502  0.45009007767E+03 -0.37627123140E+02  0.27998433329E+03  0.53140201853E+03  0.00000000000E+00 0.  1.
         13    1    5    5    0    0  0.99058442038E+01 -0.13442252004E+02  0.11416995821E+03  0.11538457110E+03  0.00000000000E+00 0.  1.
        -13    1    5    5    0    0  0.41262794055E+02 -0.22497452409E+02  0.50493039360E+01  0.47267843281E+02  0.00000000000E+00 0. -1.
          4    1    6    6  503    0 -0.35876752093E+03 -0.39896629622E+01  0.17789666855E+03  0.40047131753E+03  0.00000000000E+00 0. -1.
         -4    1    6    6    0  503 -0.61799725215E+03  0.10154021203E+03  0.37013727966E+03  0.72748376210E+03  0.00000000000E+00 0.  1.
<mgrwt>
<rscale>  0 0.98826957E+03</rscale>
<asrwt>0</asrwt>
<pdfrwt beam="1">  1        2 0.26640387E+00 0.98826957E+03</pdfrwt>
<pdfrwt beam="2">  1       -2 0.92415419E-01 0.98826957E+03</pdfrwt>
<totfact> 0.93534873E+00</totfact>
</mgrwt>
</event>
<event>
12    1  0.1418317E-007  0.5285900E+03  0.7818608E-02  0.1006575E+00
         -1   -1    0    0    0  501 -0.00000000000E+00  0.00000000000E+00  0.91408492298E+03  0.91408492298E+03  0.00000000000E+00 0.  1.
          1   -1    0    0  501    0  0.00000000000E+00 -0.00000000000E+00 -0.10626627478E+04  0.10626627478E+04  0.00000000000E+00 0. -1.
         23    2    1    2    0    0  0.35031620336E+03  0.10094617269E+03  0.74771857199E+03  0.83818875017E+03  0.10278981419E+03 0.  0.
    5000000    2    1    2    0    0 -0.35031620336E+03 -0.10094617269E+03 -0.89629639677E+03  0.11385589206E+04  0.60004800860E+03 0.  0.
         23    2    4    4    0    0  0.11787742280E+03  0.10277917479E+03 -0.20573943122E+03  0.27419664482E+03  0.91632095333E+02 0.  0.
         23    2    4    4    0    0 -0.46819362616E+03 -0.20372534747E+03 -0.69055696555E+03  0.86436227575E+03  0.97693051424E+02 0.  0.
          2    1    3    3  502    0  0.13851895180E+03  0.21410166202E+02  0.18818455630E+03  0.23464722980E+03  0.00000000000E+00 0. -1.
         -2    1    3    3    0  502  0.21179725156E+03  0.79536006484E+02  0.55953401568E+03  0.60354152036E+03  0.00000000000E+00 0.  1.
         13    1    5    5    0    0  0.21799535635E+02 -0.10928386583E+02 -0.64646393018E+02  0.69092731292E+02  0.00000000000E+00 0. -1.
        -13    1    5    5    0    0  0.96077887162E+02  0.11370756137E+03 -0.14109303820E+03  0.20510391352E+03  0.00000000000E+00 0.  1.
          4    1    6    6  503    0 -0.36296482366E+03 -0.11757786009E+03 -0.47159820941E+03  0.60660768831E+03  0.00000000000E+00 0.  1.
         -4    1    6    6    0  503 -0.10522880249E+03 -0.86147487377E+02 -0.21895875614E+03  0.25775458744E+03  0.00000000000E+00 0. -1.
<mgrwt>
<rscale>  0 0.52859000E+03</rscale>
<asrwt>0</asrwt>
<pdfrwt beam="1">  1        1 0.16348658E+00 0.52859000E+03</pdfrwt>
<pdfrwt beam="2">  1       -1 0.14062845E+00 0.52859000E+03</pdfrwt>
<totfact> 0.60498355E+00</totfact>
</mgrwt>
</event>
<event>
12    1  0.1418317E-007  0.8791190E+03  0.7818608E-02  0.9452067E-01
         -2   -1    0    0    0  501 -0.00000000000E+00  0.00000000000E+00  0.58143041000E+03  0.58143041000E+03  0.00000000000E+00 0.  1.
          2   -1    0    0  501    0  0.00000000000E+00 -0.00000000000E+00 -0.18222994212E+04  0.18222994212E+04  0.00000000000E+00 0. -1.
         23    2    1    2    0    0  0.85568679307E+03  0.17842254497E+03 -0.97141770299E+03  0.13098777632E+04  0.89960593306E+02 0.  0.
    5000000    2    1    2    0    0 -0.85568679307E+03 -0.17842254497E+03 -0.26945130819E+03  0.10938520680E+04  0.59989486317E+03 0.  0.
         23    2    4    4    0    0 -0.27400961446E+03 -0.27323101315E+02 -0.37778414795E+03  0.47614363558E+03  0.90355290773E+02 0.  0.
         23    2    4    4    0    0 -0.58167717860E+03 -0.15109944365E+03  0.10833283977E+03  0.61770843245E+03  0.92996351365E+02 0.  0.
          3    1    3    3  502    0  0.76598217204E+02  0.43290120499E+02 -0.98102517035E+02  0.13177793920E+03  0.00000000000E+00 0. -1.
         -3    1    3    3    0  502  0.77908857586E+03  0.13513242447E+03 -0.87331518595E+03  0.11780998240E+04  0.00000000000E+00 0.  1.
         13    1    5    5    0    0 -0.70413599279E+02 -0.19216738776E+02 -0.44426391918E+02  0.85446253934E+02  0.00000000000E+00 0.  1.
        -13    1    5    5    0    0 -0.20359601519E+03 -0.81063625384E+01 -0.33335775604E+03  0.39069738164E+03  0.00000000000E+00 0. -1.
          4    1    6    6  503    0 -0.68272236880E+02 -0.25402362194E+01 -0.13237239821E+02  0.69590054222E+02  0.00000000000E+00 0.  1.
         -4    1    6    6    0  503 -0.51340494172E+03 -0.14855920743E+03  0.12157007959E+03  0.54811837823E+03  0.00000000000E+00 0. -1.
<mgrwt>
<rscale>  0 0.87911896E+03</rscale>
<asrwt>0</asrwt>
<pdfrwt beam="1">  1        2 0.28035375E+00 0.87911896E+03</pdfrwt>
<pdfrwt beam="2">  1       -2 0.89450833E-01 0.87911896E+03</pdfrwt>
<totfact> 0.91091909E+00</totfact>
</mgrwt>
</event>
<event>
12    1  0.1418317E-007  0.8491450E+03  0.7818608E-02  0.9491485E-01
          2   -1    0    0  501    0  0.00000000000E+00  0.00000000000E+00  0.24908961787E+04  0.24908961787E+04  0.00000000000E+00 0. -1.
         -2   -1    0    0    0  501 -0.00000000000E+00 -0.00000000000E+00 -0.33647947125E+03  0.33647947125E+03  0.00000000000E+00 0.  1.
         23    2    1    2    0    0  0.76418442608E+03  0.17570969971E+03  0.62407212347E+03  0.10062067225E+04  0.90189896249E+02 0.  0.
    5000000    2    1    2    0    0 -0.76418442608E+03 -0.17570969971E+03  0.15303445840E+04  0.18211689275E+04  0.59987497124E+03 0.  0.
         23    2    4    4    0    0 -0.70119780670E+03  0.20788967952E+02  0.85850258194E+03  0.11125392696E+04  0.92770674169E+02 0.  0.
         23    2    4    4    0    0 -0.62986619384E+02 -0.19649866766E+03  0.67184200205E+03  0.70862965786E+03  0.90582976727E+02 0.  0.
          3    1    3    3  502    0  0.34771108781E+03  0.34057944796E+02  0.27308330565E+03  0.44343819864E+03  0.00000000000E+00 0. -1.
         -3    1    3    3    0  502  0.41647333827E+03  0.14165175492E+03  0.35098881782E+03  0.56276852381E+03  0.00000000000E+00 0.  1.
         11    1    5    5    0    0 -0.69558373334E+03  0.16904767506E+02  0.82918420996E+03  0.10824365826E+04  0.00000000000E+00 0. -1.
        -11    1    5    5    0    0 -0.56140733529E+01  0.38842004455E+01  0.29318371979E+02  0.30102687060E+02  0.00000000000E+00 0.  1.
          1    1    6    6  503    0 -0.53220813927E+02 -0.17099002545E+03  0.64827053494E+03  0.67255091280E+03  0.00000000000E+00 0. -1.
         -1    1    6    6    0  503 -0.97658054564E+01 -0.25508642209E+02  0.23571467108E+02  0.36078745061E+02  0.00000000000E+00 0.  1.
<mgrwt>
<rscale>  0 0.84914495E+03</rscale>
<asrwt>0</asrwt>
<pdfrwt beam="1">  1        2 0.38321479E+00 0.84914495E+03</pdfrwt>
<pdfrwt beam="2">  1       -2 0.51766074E-01 0.84914495E+03</pdfrwt>
<totfact> 0.12814516E+01</totfact>
</mgrwt>
</event>
<event>
12    1  0.1418317E-007  0.2266794E+04  0.7818608E-02  0.8491130E-01
         -2   -1    0    0    0  501 -0.00000000000E+00  0.00000000000E+00  0.19330098649E+04  0.19330098649E+04  0.00000000000E+00 0.  1.
          2   -1    0    0  501    0  0.00000000000E+00 -0.00000000000E+00 -0.27219535734E+04  0.27219535734E+04  0.00000000000E+00 0. -1.
         23    2    1    2    0    0 -0.12811056756E+04  0.18517039455E+04 -0.47734045638E+03  0.23038951997E+04  0.10019943160E+03 0.  0.
    5000000    2    1    2    0    0  0.12811056756E+04 -0.18517039455E+04 -0.31160325208E+03  0.23510682386E+04  0.60032159884E+03 0.  0.
         23    2    4    4    0    0  0.66042471078E+03 -0.12468305295E+04  0.33566637032E+02  0.14142876134E+04  0.91299321788E+02 0.  0.
         23    2    4    4    0    0  0.62068096481E+03 -0.60487341595E+03 -0.34516988912E+03  0.93678062524E+03  0.85434056855E+02 0.  0.
          3    1    3    3  502    0 -0.76338807183E+03  0.10278398251E+04 -0.29655521977E+03  0.13142149948E+04  0.00000000000E+00 0. -1.
         -3    1    3    3    0  502 -0.51771760376E+03  0.82386412041E+03 -0.18078523661E+03  0.98968020487E+03  0.00000000000E+00 0.  1.
         13    1    5    5    0    0  0.52030225077E+03 -0.91448876468E+03  0.49011957532E+02  0.10532835824E+04  0.00000000000E+00 0. -1.
        -13    1    5    5    0    0  0.14012246001E+03 -0.33234176486E+03 -0.15445320500E+02  0.36100403100E+03  0.00000000000E+00 0.  1.
          3    1    6    6  503    0  0.19116554875E+03 -0.16337032806E+03 -0.62835070748E+02  0.25919563507E+03  0.00000000000E+00 0. -1.
         -3    1    6    6    0  503  0.42951541605E+03 -0.44150308789E+03 -0.28233481837E+03  0.67758499017E+03  0.00000000000E+00 0.  1.
<mgrwt>
<rscale>  0 0.22667941E+04</rscale>
<asrwt>0</asrwt>
<pdfrwt beam="1">  1        2 0.41876209E+00 0.22667941E+04</pdfrwt>
<pdfrwt beam="2">  1       -2 0.29738613E+00 0.22667941E+04</pdfrwt>
<totfact> 0.73362233E-02</totfact>
</mgrwt>
</event>
<event>
12    1  0.1418317E-007  0.8046114E+03  0.7818608E-02  0.9553366E-01
         -2   -1    0    0    0  501 -0.00000000000E+00  0.00000000000E+00  0.22249042840E+03  0.22249042840E+03  0.00000000000E+00 0.  1.
          2   -1    0    0  501    0  0.00000000000E+00 -0.00000000000E+00 -0.35625905664E+04  0.35625905664E+04  0.00000000000E+00 0. -1.
         23    2    1    2    0    0 -0.77390929561E+03  0.42032896934E+02 -0.17654556769E+04  0.19303366651E+04  0.93078092202E+02 0.  0.
    5000000    2    1    2    0    0  0.77390929561E+03 -0.42032896934E+02 -0.15746444611E+04  0.18547443297E+04  0.59989081295E+03 0.  0.
         23    2    4    4    0    0  0.51565133731E+03 -0.15155245029E+03 -0.14207045939E+04  0.15216648112E+04  0.90541746008E+02 0.  0.
         23    2    4    4    0    0  0.25825795830E+03  0.10951955335E+03 -0.15393986728E+03  0.33307951854E+03  0.92481226978E+02 0.  0.
          3    1    3    3  502    0 -0.45589395583E+03  0.46404691038E+02 -0.94059677691E+03  0.10462862854E+04  0.00000000000E+00 0. -1.
         -3    1    3    3    0  502 -0.31801533978E+03 -0.43717941041E+01 -0.82485889994E+03  0.88405037964E+03  0.00000000000E+00 0.  1.
         11    1    5    5    0    0  0.46473485981E+03 -0.13982597090E+03 -0.11908117252E+04  0.12859091558E+04  0.00000000000E+00 0. -1.
        -11    1    5    5    0    0  0.50916477501E+02 -0.11726479388E+02 -0.22989286862E+03  0.23575565537E+03  0.00000000000E+00 0.  1.
          1    1    6    6  503    0  0.18723636236E+03  0.12169102966E+03 -0.11536748077E+03  0.25134800121E+03  0.00000000000E+00 0. -1.
         -1    1    6    6    0  503  0.71021595936E+02 -0.12171476312E+02 -0.38572386505E+02  0.81731517333E+02  0.00000000000E+00 0.  1.
<mgrwt>
<rscale>  0 0.80461141E+03</rscale>
<asrwt>0</asrwt>
<pdfrwt beam="1">  1        2 0.54809087E+00 0.80461141E+03</pdfrwt>
<pdfrwt beam="2">  1       -2 0.34229296E-01 0.80461141E+03</pdfrwt>
<totfact> 0.62996844E+00</totfact>
</mgrwt>
</event>
<event>
12    1  0.1418317E-007  0.4434852E+03  0.7818608E-02  0.1029683E+00
          1   -1    0    0  501    0  0.00000000000E+00  0.00000000000E+00  0.11574389385E+04  0.11574389385E+04  0.00000000000E+00 0. -1.
         -1   -1    0    0    0  501 -0.00000000000E+00 -0.00000000000E+00 -0.23379138595E+03  0.23379138595E+03  0.00000000000E+00 0.  1.
         23    2    1    2    0    0  0.29847681470E+03  0.15847394238E+03  0.27302675554E+03  0.44385556017E+03  0.90894167734E+02 0.  0.
    5000000    2    1    2    0    0 -0.29847681470E+03 -0.15847394238E+03  0.65062079698E+03  0.94737476426E+03  0.60000760260E+03 0.  0.
         23    2    4    4    0    0 -0.59693021318E+02 -0.26445773762E+03  0.53729766575E+02  0.28900923412E+03  0.84488447780E+02 0.  0.
         23    2    4    4    0    0 -0.23878379338E+03  0.10598379524E+03  0.59689103041E+03  0.65836553015E+03  0.94424595685E+02 0.  0.
          3    1    3    3  502    0  0.18402119514E+03  0.13762577977E+03  0.14936416737E+03  0.27406989986E+03  0.00000000000E+00 0. -1.
         -3    1    3    3    0  502  0.11445561956E+03  0.20848162611E+02  0.12366258817E+03  0.16978566031E+03  0.00000000000E+00 0.  1.
         11    1    5    5    0    0 -0.35027464340E+02 -0.62230573757E+02 -0.16906491004E+02  0.73385264232E+02  0.00000000000E+00 0.  1.
        -11    1    5    5    0    0 -0.24665556977E+02 -0.20222716386E+03  0.70636257578E+02  0.21562396989E+03  0.00000000000E+00 0. -1.
          1    1    6    6  503    0 -0.23204325387E+03  0.11107168905E+03  0.59683767848E+03  0.64992015374E+03  0.00000000000E+00 0. -1.
         -1    1    6    6    0  503 -0.67405395094E+01 -0.50878938108E+01  0.53351925500E-01  0.84453764117E+01  0.00000000000E+00 0.  1.
<mgrwt>
<rscale>  0 0.44348524E+03</rscale>
<asrwt>0</asrwt>
<pdfrwt beam="1">  1        1 0.17806753E+00 0.44348524E+03</pdfrwt>
<pdfrwt beam="2">  1       -1 0.35967906E-01 0.44348524E+03</pdfrwt>
<totfact> 0.89698442E+01</totfact>
</mgrwt>
</event>
<event>
12    1  0.1418317E-007  0.7552997E+03  0.7818608E-02  0.9627072E-01
         -2   -1    0    0    0  501 -0.00000000000E+00  0.00000000000E+00  0.23466238398E+03  0.23466238398E+03  0.00000000000E+00 0.  1.
          2   -1    0    0  501    0  0.00000000000E+00 -0.00000000000E+00 -0.30333874415E+04  0.30333874415E+04  0.00000000000E+00 0. -1.
         23    2    1    2    0    0  0.17188107257E+03 -0.69143889750E+03 -0.15694710463E+04  0.17257107910E+04  0.84897094950E+02 0.  0.
    5000000    2    1    2    0    0 -0.17188107257E+03  0.69143889750E+03 -0.12292540112E+04  0.15423390345E+04  0.60009451026E+03 0.  0.
         23    2    4    4    0    0 -0.26462861153E+03  0.47176652689E+03 -0.11478251667E+04  0.12721297588E+04  0.90661745147E+02 0.  0.
         23    2    4    4    0    0  0.92747538962E+02  0.21967237061E+03 -0.81428844459E+02  0.27020927565E+03  0.97592722827E+02 0.  0.
          3    1    3    3  502    0  0.98848927931E+02 -0.53675880844E+03 -0.11620784380E+04  0.12838642549E+04  0.00000000000E+00 0. -1.
         -3    1    3    3    0  502  0.73032144638E+02 -0.15468008906E+03 -0.40739260836E+03  0.44184653608E+03  0.00000000000E+00 0.  1.
         13    1    5    5    0    0 -0.83326910471E+02  0.74951275360E+02 -0.24526900411E+03  0.26966266346E+03  0.00000000000E+00 0. -1.
        -13    1    5    5    0    0 -0.18130170106E+03  0.39681525153E+03 -0.90255616262E+03  0.10024670954E+04  0.00000000000E+00 0.  1.
          4    1    6    6  503    0  0.29695377732E+02  0.14344944134E+03 -0.74420935815E+01  0.14667972742E+03  0.00000000000E+00 0. -1.
         -4    1    6    6    0  503  0.63052161230E+02  0.76222929268E+02 -0.73986750878E+02  0.12352954824E+03  0.00000000000E+00 0.  1.
<mgrwt>
<rscale>  0 0.75529967E+03</rscale>
<asrwt>0</asrwt>
<pdfrwt beam="1">  1        2 0.46667496E+00 0.75529967E+03</pdfrwt>
<pdfrwt beam="2">  1       -2 0.36101907E-01 0.75529967E+03</pdfrwt>
<totfact> 0.12714783E+01</totfact>
</mgrwt>
</event>
<event>
12    1  0.1418317E-007  0.7120215E+03  0.7818608E-02  0.9696892E-01
         -2   -1    0    0    0  501 -0.00000000000E+00  0.00000000000E+00  0.13811081978E+04  0.13811081978E+04  0.00000000000E+00 0.  1.
          2   -1    0    0  501    0  0.00000000000E+00 -0.00000000000E+00 -0.62797810282E+03  0.62797810282E+03  0.00000000000E+00 0. -1.
         23    2    1    2    0    0 -0.62643553723E+03  0.20478284347E+03 -0.20945422043E+03  0.69719991696E+03  0.88651894926E+02 0.  0.
    5000000    2    1    2    0    0  0.62643553723E+03 -0.20478284347E+03  0.96258431543E+03  0.13118863837E+04  0.60009984509E+03 0.  0.
         23    2    4    4    0    0  0.63038469366E+03 -0.12512716925E+03  0.46125717084E+03  0.79622438575E+03  0.90406992732E+02 0.  0.
         23    2    4    4    0    0 -0.39491564275E+01 -0.79655674222E+02  0.50132714459E+03  0.51566199792E+03  0.90651905245E+02 0.  0.
          2    1    3    3  502    0 -0.23442056060E+03  0.42728736504E+02 -0.10467480856E+03  0.26026056118E+03  0.00000000000E+00 0. -1.
         -2    1    3    3    0  502 -0.39201497663E+03  0.16205410697E+03 -0.10477941187E+03  0.43693935579E+03  0.00000000000E+00 0.  1.
         11    1    5    5    0    0  0.41556283364E+03 -0.44776978335E+02  0.32491586265E+03  0.52940321523E+03  0.00000000000E+00 0. -1.
        -11    1    5    5    0    0  0.21482186001E+03 -0.80350190917E+02  0.13634130819E+03  0.26682117052E+03  0.00000000000E+00 0.  1.
          4    1    6    6  503    0 -0.11107388718E+02  0.15362541763E+02  0.16536922263E+03  0.16645228015E+03  0.00000000000E+00 0. -1.
         -4    1    6    6    0  503  0.71582322908E+01 -0.95018215985E+02  0.33595792196E+03  0.34920971777E+03  0.00000000000E+00 0.  1.
<mgrwt>
<rscale>  0 0.71202151E+03</rscale>
<asrwt>0</asrwt>
<pdfrwt beam="1">  1        2 0.96612016E-01 0.71202151E+03</pdfrwt>
<pdfrwt beam="2">  1       -2 0.21247818E+00 0.71202151E+03</pdfrwt>
<totfact> 0.53210908E+00</totfact>
</mgrwt>
</event>
<event>
12    1  0.1418317E-007  0.3819858E+03  0.7818608E-02  0.1050202E+00
         -1   -1    0    0    0  501 -0.00000000000E+00  0.00000000000E+00  0.40371379291E+03  0.40371379291E+03  0.00000000000E+00 0.  1.
          1   -1    0    0  501    0  0.00000000000E+00 -0.00000000000E+00 -0.63195073600E+03  0.63195073600E+03  0.00000000000E+00 0. -1.
         23    2    1    2    0    0  0.27047400901E+03 -0.16256664873E+03 -0.32432916767E+02  0.33001125020E+03  0.90947382239E+02 0.  0.
    5000000    2    1    2    0    0 -0.27047400901E+03  0.16256664873E+03 -0.19580402633E+03  0.70565327871E+03  0.60001935652E+03 0.  0.
         23    2    4    4    0    0 -0.31969005152E+03  0.16602310410E+03  0.10536902070E+03  0.38682766870E+03  0.93635541395E+02 0.  0.
         23    2    4    4    0    0  0.49216042506E+02 -0.34564553774E+01 -0.30117304703E+03  0.31882561001E+03  0.92251826093E+02 0.  0.
          4    1    3    3  502    0  0.21125485808E+03 -0.15278965105E+03  0.21785072620E+01  0.26072598341E+03  0.00000000000E+00 0. -1.
         -4    1    3    3    0  502  0.59219150933E+02 -0.97769976813E+01 -0.34611424029E+02  0.69285266791E+02  0.00000000000E+00 0.  1.
         11    1    5    5    0    0 -0.57038047613E+02  0.69391440981E+02  0.66793704028E+01  0.90072886853E+02  0.00000000000E+00 0. -1.
        -11    1    5    5    0    0 -0.26265200390E+03  0.96631663123E+02  0.98689650301E+02  0.29675478185E+03  0.00000000000E+00 0.  1.
          2    1    6    6  503    0 -0.11597591295E+02  0.40179478414E+01 -0.20117535358E+03  0.20154942550E+03  0.00000000000E+00 0. -1.
         -2    1    6    6    0  503  0.60813633800E+02 -0.74744032188E+01 -0.99997693448E+02  0.11727618452E+03  0.00000000000E+00 0.  1.
<mgrwt>
<rscale>  0 0.38198575E+03</rscale>
<asrwt>0</asrwt>
<pdfrwt beam="1">  1        1 0.97223189E-01 0.38198575E+03</pdfrwt>
<pdfrwt beam="2">  1       -1 0.62109815E-01 0.38198575E+03</pdfrwt>
<totfact> 0.88334343E+01</totfact>
</mgrwt>
</event>
<event>
12    1  0.1418317E-007  0.4435709E+03  0.7818608E-02  0.1029657E+00
          1   -1    0    0  501    0  0.00000000000E+00  0.00000000000E+00  0.11103116533E+04  0.11103116533E+04  0.00000000000E+00 0. -1.
         -1   -1    0    0    0  501 -0.00000000000E+00 -0.00000000000E+00 -0.37447270064E+03  0.37447270064E+03  0.00000000000E+00 0.  1.
         23    2    1    2    0    0  0.27669075623E+03 -0.27492185055E+03 -0.70822041362E+02  0.40650312636E+03  0.89940156221E+02 0.  0.
    5000000    2    1    2    0    0 -0.27669075623E+03  0.27492185055E+03  0.80666099406E+03  0.10782812276E+04  0.59987386007E+03 0.  0.
         23    2    4    4    0    0 -0.15923308791E+02 -0.19137255085E+02 -0.66972158709E+02  0.11578338466E+03  0.91108374079E+02 0.  0.
         23    2    4    4    0    0 -0.26076744744E+03  0.29405910564E+03  0.87363315276E+03  0.96249784295E+03  0.93256596631E+02 0.  0.
          4    1    3    3  502    0  0.13757988048E+03 -0.16928044059E+03 -0.32758926826E+00  0.21813802602E+03  0.00000000000E+00 0. -1.
         -4    1    3    3    0  502  0.13911087575E+03 -0.10564140996E+03 -0.70494452094E+02  0.18836510034E+03  0.00000000000E+00 0.  1.
         11    1    5    5    0    0 -0.30385327936E+02 -0.50677614260E+02 -0.35463963574E+02  0.68914305143E+02  0.00000000000E+00 0.  1.
        -11    1    5    5    0    0  0.14462019145E+02  0.31540359175E+02 -0.31508195134E+02  0.46869079522E+02  0.00000000000E+00 0. -1.
          3    1    6    6  503    0  0.45139732995E+01  0.14331980510E+02  0.64368558720E+02  0.66099114759E+02  0.00000000000E+00 0. -1.
         -3    1    6    6    0  503 -0.26528142074E+03  0.27972712513E+03  0.80926459404E+03  0.89639872819E+03  0.00000000000E+00 0.  1.
<mgrwt>
<rscale>  0 0.44357090E+03</rscale>
<asrwt>0</asrwt>
<pdfrwt beam="1">  1        1 0.17081718E+00 0.44357090E+03</pdfrwt>
<pdfrwt beam="2">  1       -1 0.57611185E-01 0.44357090E+03</pdfrwt>
<totfact> 0.40700800E+01</totfact>
</mgrwt>
</event>
<event>
12    1  0.1418317E-007  0.1362809E+04  0.7818608E-02  0.8981188E-01
          2   -1    0    0  501    0  0.00000000000E+00  0.00000000000E+00  0.14977157075E+04  0.14977157075E+04  0.00000000000E+00 0. -1.
         -2   -1    0    0    0  501 -0.00000000000E+00 -0.00000000000E+00 -0.13021756224E+04  0.13021756224E+04  0.00000000000E+00 0.  1.
         23    2    1    2    0    0  0.10965391699E+04 -0.69485477905E+03 -0.19869376804E+03  0.13164864298E+04  0.91847653002E+02 0.  0.
    5000000    2    1    2    0    0 -0.10965391699E+04  0.69485477905E+03  0.39423385316E+03  0.14834049001E+04  0.59987369641E+03 0.  0.
         23    2    4    4    0    0 -0.97812160795E+02  0.34290554233E+03  0.13400060747E+03  0.38916413775E+03  0.79631234757E+02 0.  0.
         23    2    4    4    0    0 -0.99872700906E+03  0.35194923672E+03  0.26023324569E+03  0.10942407623E+04  0.91200876929E+02 0.  0.
          3    1    3    3  502    0  0.82019467541E+03 -0.47170574112E+03 -0.13933436422E+03  0.95636796100E+03  0.00000000000E+00 0. -1.
         -3    1    3    3    0  502  0.27634449445E+03 -0.22314903794E+03 -0.59359403819E+02  0.36011846879E+03  0.00000000000E+00 0.  1.
         13    1    5    5    0    0 -0.92733198681E+02  0.34520015835E+03  0.13704861444E+03  0.38281185743E+03  0.00000000000E+00 0. -1.
        -13    1    5    5    0    0 -0.50789621131E+01 -0.22946160197E+01 -0.30480069765E+01  0.63522803270E+01  0.00000000000E+00 0.  1.
          1    1    6    6  503    0 -0.51444165854E+03  0.14408497858E+03  0.16098295768E+03  0.55796614033E+03  0.00000000000E+00 0. -1.
         -1    1    6    6    0  503 -0.48428535052E+03  0.20786425814E+03  0.99250288013E+02  0.53627462201E+03  0.00000000000E+00 0.  1.
<mgrwt>
<rscale>  0 0.13628086E+04</rscale>
<asrwt>0</asrwt>
<pdfrwt beam="1">  1        2 0.23041780E+00 0.13628086E+04</pdfrwt>
<pdfrwt beam="2">  1       -2 0.20033471E+00 0.13628086E+04</pdfrwt>
<totfact> 0.16074888E+00</totfact>
</mgrwt>
</event>
<event>
12    1  0.1418317E-007  0.4523427E+03  0.7818608E-02  0.1027026E+00
          2   -1    0    0  501    0  0.00000000000E+00  0.00000000000E+00  0.14099595582E+04  0.14099595582E+04  0.00000000000E+00 0. -1.
         -2   -1    0    0    0  501 -0.00000000000E+00 -0.00000000000E+00 -0.24903123335E+03  0.24903123335E+03  0.00000000000E+00 0.  1.
         23    2    1    2    0    0  0.17335163883E+03 -0.21367119202E+03 -0.36455374043E+02  0.29172176099E+03  0.89813264911E+02 0.  0.
    5000000    2    1    2    0    0 -0.17335163883E+03  0.21367119202E+03  0.11973836989E+04  0.13672690306E+04  0.59999225875E+03 0.  0.
         23    2    4    4    0    0 -0.10264463260E+03  0.39314013223E+03  0.97141953249E+03  0.10568425763E+04  0.90361710701E+02 0.  0.
         23    2    4    4    0    0 -0.70707006235E+02 -0.17946894020E+03  0.22596416645E+03  0.31042645432E+03  0.89978874152E+02 0.  0.
          3    1    3    3  502    0  0.10376724914E+03 -0.64099598411E+02  0.33760673257E+01  0.12201556598E+03  0.00000000000E+00 0. -1.
         -3    1    3    3    0  502  0.69584389692E+02 -0.14957159361E+03 -0.39831441368E+02  0.16970619501E+03  0.00000000000E+00 0.  1.
         11    1    5    5    0    0 -0.32847752927E+02  0.12038794690E+03  0.41336671637E+03  0.43179193466E+03  0.00000000000E+00 0.  1.
        -11    1    5    5    0    0 -0.69796879672E+02  0.27275218532E+03  0.55805281612E+03  0.62505064162E+03  0.00000000000E+00 0. -1.
          2    1    6    6  503    0 -0.72856297410E+02 -0.67150076948E+02  0.88076986271E+02  0.13256971154E+03  0.00000000000E+00 0. -1.
         -2    1    6    6    0  503  0.21492911756E+01 -0.11231886325E+03  0.13788718018E+03  0.17785674278E+03  0.00000000000E+00 0.  1.
<mgrwt>
<rscale>  0 0.45234266E+03</rscale>
<asrwt>0</asrwt>
<pdfrwt beam="1">  1        2 0.21691685E+00 0.45234266E+03</pdfrwt>
<pdfrwt beam="2">  1       -2 0.38312498E-01 0.45234266E+03</pdfrwt>
<totfact> 0.96701931E+01</totfact>
</mgrwt>
</event>
<event>
12    1  0.2233817E-007  0.1166978E+04  0.7818608E-02  0.9142262E-01
         -1   -1    0    0    0  501 -0.00000000000E+00  0.00000000000E+00  0.12424557138E+04  0.12424557138E+04  0.00000000000E+00 0.  1.
          1   -1    0    0  501    0  0.00000000000E+00 -0.00000000000E+00 -0.17248919971E+04  0.17248919971E+04  0.00000000000E+00 0. -1.
         23    2    1    2    0    0  0.18515145227E+03  0.11269722638E+04 -0.10535407652E+04  0.15566450051E+04  0.94063724114E+02 0.  0.
    5000000    2    1    2    0    0 -0.18515145227E+03 -0.11269722638E+04  0.57110448187E+03  0.14107027058E+04  0.59964510439E+03 0.  0.
         23    2    4    4    0    0  0.80551633751E+02 -0.14369141958E+03 -0.72746493721E+02  0.20221544394E+03  0.91995889342E+02 0.  0.
         23    2    4    4    0    0 -0.26570308602E+03 -0.98328084423E+03  0.64385097559E+03  0.12084872619E+04  0.91967574373E+02 0.  0.
          4    1    3    3  502    0  0.24795376193E+02  0.39989324555E+03 -0.39536092177E+03  0.56288513657E+03  0.00000000000E+00 0. -1.
         -4    1    3    3    0  502  0.16035607607E+03  0.72707901827E+03 -0.65817984347E+03  0.99375986853E+03  0.00000000000E+00 0.  1.
         13    1    5    5    0    0  0.77613898724E+02 -0.14351332845E+03 -0.38232253786E+02  0.16757594680E+03  0.00000000000E+00 0. -1.
        -13    1    5    5    0    0  0.29377350268E+01 -0.17809113888E+00 -0.34514239935E+02  0.34639497136E+02  0.00000000000E+00 0.  1.
          1    1    6    6  503    0 -0.20932823827E+03 -0.60512742845E+03  0.39744748131E+03  0.75363254733E+03  0.00000000000E+00 0. -1.
         -1    1    6    6    0  503 -0.56374847745E+02 -0.37815341578E+03  0.24640349428E+03  0.45485471452E+03  0.00000000000E+00 0.  1.
<mgrwt>
<rscale>  0 0.11669779E+04</rscale>
<asrwt>0</asrwt>
<pdfrwt beam="1">  1        1 0.26536800E+00 0.11669779E+04</pdfrwt>
<pdfrwt beam="2">  1       -1 0.19114703E+00 0.11669779E+04</pdfrwt>
<totfact> 0.78283130E-01</totfact>
</mgrwt>
</event>
<event>
12    1  0.1418317E-007  0.5467060E+03  0.7818608E-02  0.1002259E+00
         -2   -1    0    0    0  501 -0.00000000000E+00  0.00000000000E+00  0.30870273495E+03  0.30870273495E+03  0.00000000000E+00 0.  1.
          2   -1    0    0  501    0  0.00000000000E+00 -0.00000000000E+00 -0.14183872639E+04  0.14183872639E+04  0.00000000000E+00 0. -1.
         23    2    1    2    0    0  0.14455627625E+03  0.49780072953E+03 -0.50067288931E+03  0.72727947329E+03  0.97775287526E+02 0.  0.
    5000000    2    1    2    0    0 -0.14455627625E+03 -0.49780072953E+03 -0.60901163959E+03  0.99981052552E+03  0.60001985505E+03 0.  0.
         23    2    4    4    0    0  0.26375565273E+02 -0.68381892645E+02  0.97645661682E+02  0.15053327300E+03  0.88055876293E+02 0.  0.
         23    2    4    4    0    0 -0.17093184152E+03 -0.42941883688E+03 -0.70665730127E+03  0.84927725252E+03  0.91044375378E+02 0.  0.
          2    1    3    3  502    0  0.15460461977E+03  0.41020148623E+03 -0.39980538805E+03  0.59330615712E+03  0.00000000000E+00 0. -1.
         -2    1    3    3    0  502 -0.10048343528E+02  0.87599243292E+02 -0.10086750127E+03  0.13397331617E+03  0.00000000000E+00 0.  1.
         13    1    5    5    0    0  0.15196939768E+02 -0.80869719210E+02  0.41932381116E+02  0.92353576268E+02  0.00000000000E+00 0.  1.
        -13    1    5    5    0    0  0.11178625505E+02  0.12487826565E+02  0.55713280566E+02  0.58179696733E+02  0.00000000000E+00 0. -1.
          4    1    6    6  503    0 -0.13621419664E+03 -0.24643561751E+03 -0.37559373181E+03  0.46942035780E+03  0.00000000000E+00 0. -1.
         -4    1    6    6    0  503 -0.34717644877E+02 -0.18298321938E+03 -0.33106356946E+03  0.37985689472E+03  0.00000000000E+00 0.  1.
<mgrwt>
<rscale>  0 0.54670597E+03</rscale>
<asrwt>0</asrwt>
<pdfrwt beam="1">  1        2 0.21821342E+00 0.54670597E+03</pdfrwt>
<pdfrwt beam="2">  1       -2 0.47492730E-01 0.54670597E+03</pdfrwt>
<totfact> 0.61944877E+01</totfact>
</mgrwt>
</event>
<event>
12    1  0.1418317E-007  0.8081661E+03  0.7818608E-02  0.9548272E-01
          2   -1    0    0  501    0  0.00000000000E+00  0.00000000000E+00  0.14253692531E+04  0.14253692531E+04  0.00000000000E+00 0. -1.
         -2   -1    0    0    0  501 -0.00000000000E+00 -0.00000000000E+00 -0.49792259080E+03  0.49792259080E+03  0.00000000000E+00 0.  1.
         23    2    1    2    0    0 -0.71835099165E+03  0.12877050013E+03  0.33508858281E+03  0.80816137638E+03  0.90721899434E+02 0.  0.
    5000000    2    1    2    0    0  0.71835099165E+03 -0.12877050013E+03  0.59235807953E+03  0.11151304676E+04  0.60001489683E+03 0.  0.
         23    2    4    4    0    0  0.28579862495E+03  0.18526356209E+03  0.63860525675E+02  0.35811376746E+03  0.90354093696E+02 0.  0.
         23    2    4    4    0    0  0.43255236670E+03 -0.31403406222E+03  0.52849755386E+03  0.75701670011E+03  0.89697701388E+02 0.  0.
          4    1    3    3  502    0 -0.28346056557E+03  0.22366318185E+02  0.16810521114E+03  0.33031728146E+03  0.00000000000E+00 0. -1.
         -4    1    3    3    0  502 -0.43489042608E+03  0.10640418194E+03  0.16698337167E+03  0.47784409492E+03  0.00000000000E+00 0.  1.
         13    1    5    5    0    0  0.10108978900E+03  0.10563553141E+03  0.56771789245E+02  0.15684720907E+03  0.00000000000E+00 0.  1.
        -13    1    5    5    0    0  0.18470883594E+03  0.79628030680E+02  0.70887364299E+01  0.20126655840E+03  0.00000000000E+00 0. -1.
          4    1    6    6  503    0  0.15707851694E+03 -0.14464940838E+03  0.26183366125E+03  0.33786680511E+03  0.00000000000E+00 0. -1.
         -4    1    6    6    0  503  0.27547384976E+03 -0.16938465384E+03  0.26666389261E+03  0.41914989500E+03  0.00000000000E+00 0.  1.
<mgrwt>
<rscale>  0 0.80816606E+03</rscale>
<asrwt>0</asrwt>
<pdfrwt beam="1">  1        2 0.21928758E+00 0.80816606E+03</pdfrwt>
<pdfrwt beam="2">  1       -2 0.76603476E-01 0.80816606E+03</pdfrwt>
<totfact> 0.21657754E+01</totfact>
</mgrwt>
</event>
<event>
12    1  0.1418317E-007  0.8565200E+03  0.7818608E-02  0.9481628E-01
         -2   -1    0    0    0  501 -0.00000000000E+00  0.00000000000E+00  0.14059069750E+04  0.14059069750E+04  0.00000000000E+00 0.  1.
          2   -1    0    0  501    0  0.00000000000E+00 -0.00000000000E+00 -0.62700201732E+03  0.62700201732E+03  0.00000000000E+00 0. -1.
         23    2    1    2    0    0  0.83774528522E+03 -0.33831001405E+02  0.41233974233E+03  0.93869987141E+03  0.90397377851E+02 0.  0.
    5000000    2    1    2    0    0 -0.83774528522E+03  0.33831001405E+02  0.36656521536E+03  0.10942091209E+04  0.59996820218E+03 0.  0.
         23    2    4    4    0    0 -0.25356083989E+03 -0.64051519790E+02 -0.13946410234E+03  0.30963062987E+03  0.89583449362E+02 0.  0.
         23    2    4    4    0    0 -0.58418444533E+03  0.97882521195E+02  0.50602931770E+03  0.78457849105E+03  0.92980020038E+02 0.  0.
          4    1    3    3  502    0  0.42226275557E+03 -0.61971900949E+02  0.21460478064E+03  0.47770447258E+03  0.00000000000E+00 0. -1.
         -4    1    3    3    0  502  0.41548252965E+03  0.28140899544E+02  0.19773496169E+03  0.46099539883E+03  0.00000000000E+00 0.  1.
         11    1    5    5    0    0 -0.18418793399E+03 -0.77241103498E+02 -0.72984388889E+02  0.21264548930E+03  0.00000000000E+00 0. -1.
        -11    1    5    5    0    0 -0.69372905896E+02  0.13189583708E+02 -0.66479713451E+02  0.96985140570E+02  0.00000000000E+00 0.  1.
          2    1    6    6  503    0 -0.25862676104E+03 -0.30047524210E+01  0.22563449358E+03  0.34323134291E+03  0.00000000000E+00 0. -1.
         -2    1    6    6    0  503 -0.32555768429E+03  0.10088727362E+03  0.28039482412E+03  0.44134714814E+03  0.00000000000E+00 0.  1.
<mgrwt>
<rscale>  0 0.85652001E+03</rscale>
<asrwt>0</asrwt>
<pdfrwt beam="1">  1        2 0.96461849E-01 0.85652001E+03</pdfrwt>
<pdfrwt beam="2">  1       -2 0.21629338E+00 0.85652001E+03</pdfrwt>
<totfact> 0.49544728E+00</totfact>
</mgrwt>
</event>
<event>
12    1  0.1418317E-007  0.9933774E+03  0.7818608E-02  0.9315838E-01
         -1   -1    0    0    0  501 -0.00000000000E+00  0.00000000000E+00  0.73011765534E+03  0.73011765534E+03  0.00000000000E+00 0.  1.
          1   -1    0    0  501    0  0.00000000000E+00 -0.00000000000E+00 -0.19139862969E+04  0.19139862969E+04  0.00000000000E+00 0. -1.
         23    2    1    2    0    0  0.48006603824E+03 -0.79284257131E+03 -0.12258756752E+04  0.15391925153E+04  0.85321064946E+02 0.  0.
    5000000    2    1    2    0    0 -0.48006603824E+03  0.79284257131E+03  0.42007033657E+02  0.11049114369E+04  0.60000162387E+03 0.  0.
         23    2    4    4    0    0 -0.40183529165E+03  0.19512652933E+03 -0.12516139522E+03  0.47291041543E+03  0.91830943035E+02 0.  0.
         23    2    4    4    0    0 -0.78230746590E+02  0.59771604198E+03  0.16716842887E+03  0.63200102151E+03  0.89974946679E+02 0.  0.
          3    1    3    3  502    0  0.27600498176E+03 -0.49373017259E+03 -0.80724193818E+03  0.98569152377E+03  0.00000000000E+00 0. -1.
         -3    1    3    3    0  502  0.20406105649E+03 -0.29911239873E+03 -0.41863373707E+03  0.55350099156E+03  0.00000000000E+00 0.  1.
         13    1    5    5    0    0 -0.14946714675E+03  0.28528026185E+02 -0.60024679807E+02  0.16357639934E+03  0.00000000000E+00 0.  1.
        -13    1    5    5    0    0 -0.25236814491E+03  0.16659850315E+03 -0.65136715409E+02  0.30933401609E+03  0.00000000000E+00 0. -1.
          2    1    6    6  503    0 -0.83978512204E+02  0.54483615597E+03  0.12797551136E+03  0.56592981797E+03  0.00000000000E+00 0. -1.
         -2    1    6    6    0  503  0.57477656139E+01  0.52879886015E+02  0.39192917515E+02  0.66071203544E+02  0.00000000000E+00 0.  1.
<mgrwt>
<rscale>  0 0.99337739E+03</rscale>
<asrwt>0</asrwt>
<pdfrwt beam="1">  1        1 0.29445943E+00 0.99337739E+03</pdfrwt>
<pdfrwt beam="2">  1       -1 0.11232579E+00 0.99337739E+03</pdfrwt>
<totfact> 0.25022604E+00</totfact>
</mgrwt>
</event>
<event>
12    1  0.2504943E-007  0.1059687E+04  0.7818608E-02  0.9245400E-01
         -2   -1    0    0    0  501 -0.00000000000E+00  0.00000000000E+00  0.71319134660E+03  0.71319134660E+03  0.00000000000E+00 0.  1.
          2   -1    0    0  501    0  0.00000000000E+00 -0.00000000000E+00 -0.20935835900E+04  0.20935835900E+04  0.00000000000E+00 0. -1.
         23    2    1    2    0    0  0.15109187953E+02 -0.10520041511E+04 -0.11721765592E+04  0.15778526572E+04  0.93167056020E+02 0.  0.
    5000000    2    1    2    0    0 -0.15109187953E+02  0.10520041511E+04 -0.20821568424E+03  0.12289222794E+04  0.59996264567E+03 0.  0.
         23    2    4    4    0    0 -0.62467386106E+01  0.66831977139E+03  0.15575850270E+03  0.69227875615E+03  0.91097895069E+02 0.  0.
         23    2    4    4    0    0 -0.88624493424E+01  0.38368437973E+03 -0.36397418694E+03  0.53664352328E+03  0.90646655019E+02 0.  0.
          4    1    3    3  502    0 -0.39265275062E+02 -0.50645946075E+03 -0.56550921982E+03  0.76016026265E+03  0.00000000000E+00 0. -1.
         -4    1    3    3    0  502  0.54374463015E+02 -0.54554469037E+03 -0.60666733936E+03  0.81769239453E+03  0.00000000000E+00 0.  1.
         13    1    5    5    0    0  0.17178380299E+02  0.45444820004E+03  0.67610820691E+02  0.45977112387E+03  0.00000000000E+00 0.  1.
        -13    1    5    5    0    0 -0.23425118910E+02  0.21387157135E+03  0.88147682008E+02  0.23250763228E+03  0.00000000000E+00 0. -1.
          4    1    6    6  503    0  0.36173976120E+02  0.23809890819E+03 -0.24240393157E+03  0.34170061848E+03  0.00000000000E+00 0.  1.
         -4    1    6    6    0  503 -0.45036425463E+02  0.14558547155E+03 -0.12157025537E+03  0.19494290481E+03  0.00000000000E+00 0. -1.
<mgrwt>
<rscale>  0 0.10596869E+04</rscale>
<asrwt>0</asrwt>
<pdfrwt beam="1">  1        2 0.32208978E+00 0.10596869E+04</pdfrwt>
<pdfrwt beam="2">  1       -2 0.10972175E+00 0.10596869E+04</pdfrwt>
<totfact> 0.38917857E+00</totfact>
</mgrwt>
</event>
<event>
12    1  0.1418317E-007  0.5668479E+03  0.7818608E-02  0.9976678E-01
          1   -1    0    0  501    0  0.00000000000E+00  0.00000000000E+00  0.11752940853E+04  0.11752940853E+04  0.00000000000E+00 0. -1.
         -1   -1    0    0    0  501 -0.00000000000E+00 -0.00000000000E+00 -0.37549019894E+03  0.37549019894E+03  0.00000000000E+00 0.  1.
         23    2    1    2    0    0  0.16243064767E+03  0.38132627057E+03  0.69391951937E+03  0.81388731216E+03  0.95366753141E+02 0.  0.
    5000000    2    1    2    0    0 -0.16243064767E+03 -0.38132627057E+03  0.10588436699E+03  0.73689697207E+03  0.60001017354E+03 0.  0.
         23    2    4    4    0    0  0.62181194882E+02 -0.46007660262E+03  0.48294860064E+02  0.47571252690E+03  0.91831549432E+02 0.  0.
         23    2    4    4    0    0 -0.22461184255E+03  0.78750332047E+02  0.57589506926E+02  0.26118444517E+03  0.90822180557E+02 0.  0.
          4    1    3    3  502    0  0.24203223780E+02  0.36945157194E+02  0.30301384845E+02  0.53562249812E+02  0.00000000000E+00 0. -1.
         -4    1    3    3    0  502  0.13822742389E+03  0.34438111338E+03  0.66361813453E+03  0.76032506235E+03  0.00000000000E+00 0.  1.
         13    1    5    5    0    0 -0.19632261044E+02 -0.18019010333E+03  0.28022784927E+02  0.18340985657E+03  0.00000000000E+00 0.  1.
        -13    1    5    5    0    0  0.81813455926E+02 -0.27988649929E+03  0.20272075137E+02  0.29230267034E+03  0.00000000000E+00 0. -1.
          2    1    6    6  503    0 -0.20864930170E+03  0.88761634911E+02  0.31381283996E+02  0.22890597178E+03  0.00000000000E+00 0. -1.
         -2    1    6    6    0  503 -0.15962540853E+02 -0.10011302864E+02  0.26208222930E+02  0.32278473395E+02  0.00000000000E+00 0.  1.
<mgrwt>
<rscale>  0 0.56684794E+03</rscale>
<asrwt>0</asrwt>
<pdfrwt beam="1">  1        1 0.18081447E+00 0.56684794E+03</pdfrwt>
<pdfrwt beam="2">  1       -1 0.57767723E-01 0.56684794E+03</pdfrwt>
<totfact> 0.35582995E+01</totfact>
</mgrwt>
</event>
<event>
12    1  0.1418317E-007  0.2487156E+03  0.7818608E-02  0.1114119E+00
         -2   -1    0    0    0  501 -0.00000000000E+00  0.00000000000E+00  0.12540469012E+03  0.12540469012E+03  0.00000000000E+00 0.  1.
          2   -1    0    0  501    0  0.00000000000E+00 -0.00000000000E+00 -0.16781639110E+04  0.16781639110E+04  0.00000000000E+00 0. -1.
         23    2    1    2    0    0  0.23391932700E+03 -0.49882750571E+02 -0.35641274417E+03  0.44397723192E+03  0.11348655388E+03 0.  0.
    5000000    2    1    2    0    0 -0.23391932700E+03  0.49882750571E+02 -0.11963464767E+04  0.13595913692E+04  0.60003104798E+03 0.  0.
         23    2    4    4    0    0 -0.13197047437E+03  0.13499919812E+02 -0.12072324904E+04  0.12175346286E+04  0.85917587944E+02 0.  0.
         23    2    4    4    0    0 -0.10194885263E+03  0.36382830759E+02  0.10886013695E+02  0.14205674064E+03  0.91347322579E+02 0.  0.
          2    1    3    3  502    0  0.15264029091E+03 -0.44415277446E+02 -0.13675087566E+03  0.20969639309E+03  0.00000000000E+00 0. -1.
         -2    1    3    3    0  502  0.81279036092E+02 -0.54674731243E+01 -0.21966186850E+03  0.23428083883E+03  0.00000000000E+00 0.  1.
         11    1    5    5    0    0 -0.41621947746E+02  0.12459086228E+02 -0.76139296100E+03  0.76263153385E+03  0.00000000000E+00 0.  1.
        -11    1    5    5    0    0 -0.90348526626E+02  0.10408335841E+01 -0.44583952943E+03  0.45490309474E+03  0.00000000000E+00 0. -1.
          1    1    6    6  503    0 -0.10255212529E+03  0.17176776384E+02 -0.19801727442E+02  0.10584936683E+03  0.00000000000E+00 0. -1.
         -1    1    6    6    0  503  0.60327266232E+00  0.19206054374E+02  0.30687741137E+02  0.36207373816E+02  0.00000000000E+00 0.  1.
<mgrwt>
<rscale>  0 0.24871556E+03</rscale>
<asrwt>0</asrwt>
<pdfrwt beam="1">  1        2 0.25817906E+00 0.24871556E+03</pdfrwt>
<pdfrwt beam="2">  1       -2 0.19293029E-01 0.24871556E+03</pdfrwt>
<totfact> 0.24815580E+02</totfact>
</mgrwt>
</event>
<event>
12    1  0.1418317E-007  0.8906689E+03  0.7818608E-02  0.9437321E-01
          1   -1    0    0  501    0  0.00000000000E+00  0.00000000000E+00  0.10658130569E+04  0.10658130569E+04  0.00000000000E+00 0. -1.
         -1   -1    0    0    0  501 -0.00000000000E+00 -0.00000000000E+00 -0.86979188788E+03  0.86979188788E+03  0.00000000000E+00 0.  1.
         23    2    1    2    0    0 -0.62441833628E+03  0.49014212202E+03 -0.26117052810E+03  0.84094175774E+03  0.93997003706E+02 0.  0.
    5000000    2    1    2    0    0  0.62441833628E+03 -0.49014212202E+03  0.45719169710E+03  0.10946631870E+04  0.59927096264E+03 0.  0.
         23    2    4    4    0    0  0.70922086253E+03 -0.45901052238E+03  0.44505558316E+03  0.95924701394E+03  0.91626798161E+02 0.  0.
         23    2    4    4    0    0 -0.84802526256E+02 -0.31131599638E+02  0.12136113940E+02  0.13541617308E+03  0.10014793914E+03 0.  0.
          4    1    3    3  502    0 -0.22445174600E+03  0.12323940504E+03 -0.69409608634E+02  0.26530026575E+03  0.00000000000E+00 0. -1.
         -4    1    3    3    0  502 -0.39996659028E+03  0.36690271698E+03 -0.19176091946E+03  0.57564149199E+03  0.00000000000E+00 0.  1.
         13    1    5    5    0    0  0.48146765351E+03 -0.36074188092E+03  0.32127465135E+03  0.68202874399E+03  0.00000000000E+00 0.  1.
        -13    1    5    5    0    0  0.22775320903E+03 -0.98268641464E+02  0.12378093180E+03  0.27721826995E+03  0.00000000000E+00 0. -1.
          4    1    6    6  503    0  0.15085174893E+02  0.16352698920E+02  0.10980924089E+02  0.24810359879E+02  0.00000000000E+00 0. -1.
         -4    1    6    6    0  503 -0.99887701149E+02 -0.47484298558E+02  0.11551898512E+01  0.11060581320E+03  0.00000000000E+00 0.  1.
<mgrwt>
<rscale>  0 0.89066894E+03</rscale>
<asrwt>0</asrwt>
<pdfrwt beam="1">  1        1 0.16397124E+00 0.89066894E+03</pdfrwt>
<pdfrwt beam="2">  1       -1 0.13381414E+00 0.89066894E+03</pdfrwt>
<totfact> 0.64408740E+00</totfact>
</mgrwt>
</event>
<event>
12    1  0.1418317E-007  0.1614786E+04  0.7818608E-02  0.8811515E-01
          1   -1    0    0  501    0  0.00000000000E+00  0.00000000000E+00  0.15985425693E+04  0.15985425693E+04  0.00000000000E+00 0. -1.
         -1   -1    0    0    0  501 -0.00000000000E+00 -0.00000000000E+00 -0.17431825506E+04  0.17431825506E+04  0.00000000000E+00 0.  1.
         23    2    1    2    0    0  0.96651992101E+03  0.12839067435E+04 -0.22093720869E+03  0.16246868270E+04  0.90646300496E+02 0.  0.
    5000000    2    1    2    0    0 -0.96651992101E+03 -0.12839067435E+04  0.76297227343E+02  0.17170382929E+04  0.59985160552E+03 0.  0.
         23    2    4    4    0    0 -0.29988731168E+03 -0.27479185921E+03 -0.21564133197E+03  0.46953821907E+03  0.92314622482E+02 0.  0.
         23    2    4    4    0    0 -0.66663260934E+03 -0.10091148843E+04  0.29193855932E+03  0.12475000738E+04  0.91194441901E+02 0.  0.
          4    1    3    3  502    0  0.75041519018E+03  0.96062293360E+03 -0.13493915539E+03  0.12264289437E+04  0.00000000000E+00 0. -1.
         -4    1    3    3    0  502  0.21610473083E+03  0.32328380991E+03 -0.85998053300E+02  0.39825788330E+03  0.00000000000E+00 0.  1.
         13    1    5    5    0    0 -0.18329944051E+02 -0.51603220031E+01 -0.35074512401E+02  0.39910364471E+02  0.00000000000E+00 0. -1.
        -13    1    5    5    0    0 -0.28155736763E+03 -0.26963153721E+03 -0.18056681957E+03  0.42962785460E+03  0.00000000000E+00 0.  1.
          4    1    6    6  503    0 -0.25922899122E+03 -0.47446298489E+03  0.12707337819E+03  0.55539394790E+03  0.00000000000E+00 0. -1.
         -4    1    6    6    0  503 -0.40740361811E+03 -0.53465189942E+03  0.16486518113E+03  0.69210612593E+03  0.00000000000E+00 0.  1.
<mgrwt>
<rscale>  0 0.16147864E+04</rscale>
<asrwt>0</asrwt>
<pdfrwt beam="1">  1        1 0.24592963E+00 0.16147864E+04</pdfrwt>
<pdfrwt beam="2">  1       -1 0.26818193E+00 0.16147864E+04</pdfrwt>
<totfact> 0.27706802E-01</totfact>
</mgrwt>
</event>
<event>
12    1  0.1418317E-007  0.5290058E+03  0.7818608E-02  0.1006474E+00
          1   -1    0    0  501    0  0.00000000000E+00  0.00000000000E+00  0.69961802572E+03  0.69961802572E+03  0.00000000000E+00 0. -1.
         -1   -1    0    0    0  501 -0.00000000000E+00 -0.00000000000E+00 -0.41907938531E+03  0.41907938531E+03  0.00000000000E+00 0.  1.
         23    2    1    2    0    0 -0.22892046955E+02 -0.36584851009E+03  0.12602835713E+03  0.39859097517E+03  0.92857097377E+02 0.  0.
    5000000    2    1    2    0    0  0.22892046955E+02  0.36584851009E+03  0.15451028329E+03  0.72010643586E+03  0.60025883849E+03 0.  0.
         23    2    4    4    0    0  0.10460664091E+03  0.50088096601E+03  0.10069664373E+03  0.52921622252E+03  0.90031687103E+02 0.  0.
         23    2    4    4    0    0 -0.81714593959E+02 -0.13503245592E+03  0.53813639557E+02  0.19089021335E+03  0.92909239224E+02 0.  0.
          2    1    3    3  502    0 -0.53810365796E+02 -0.16458304459E+03  0.74784235906E+02  0.18861552421E+03  0.00000000000E+00 0. -1.
         -2    1    3    3    0  502  0.30918318841E+02 -0.20126546550E+03  0.51244121221E+02  0.20997545096E+03  0.00000000000E+00 0.  1.
         13    1    5    5    0    0  0.18045540031E+02  0.21185382503E+03  0.49549006211E+01  0.21267871482E+03  0.00000000000E+00 0.  1.
        -13    1    5    5    0    0  0.86561100883E+02  0.28902714098E+03  0.95741743109E+02  0.31653750770E+03  0.00000000000E+00 0. -1.
          2    1    6    6  503    0 -0.51850686069E+02 -0.35141440066E+02 -0.16942686193E+02  0.64888127351E+02  0.00000000000E+00 0.  1.
         -2    1    6    6    0  503 -0.29863907890E+02 -0.99891015849E+02  0.70756325750E+02  0.12600208600E+03  0.00000000000E+00 0. -1.
<mgrwt>
<rscale>  0 0.52900579E+03</rscale>
<asrwt>0</asrwt>
<pdfrwt beam="1">  1        1 0.10763354E+00 0.52900579E+03</pdfrwt>
<pdfrwt beam="2">  1       -1 0.64473752E-01 0.52900579E+03</pdfrwt>
<totfact> 0.69364975E+01</totfact>
</mgrwt>
</event>
<event>
12    1  0.1418317E-007  0.5909407E+03  0.7818608E-02  0.9924381E-01
         -2   -1    0    0    0  501 -0.00000000000E+00  0.00000000000E+00  0.67754314515E+03  0.67754314515E+03  0.00000000000E+00 0. -1.
          2   -1    0    0  501    0  0.00000000000E+00 -0.00000000000E+00 -0.61974650911E+03  0.61974650911E+03  0.00000000000E+00 0.  1.
         23    2    1    2    0    0 -0.32801507768E+03  0.31997589311E+03  0.23304972394E+03  0.52227513403E+03  0.92090599101E+02 0.  0.
    5000000    2    1    2    0    0  0.32801507768E+03 -0.31997589311E+03 -0.17525308790E+03  0.77501452022E+03  0.59996283083E+03 0.  0.
         23    2    4    4    0    0  0.41022672565E+03 -0.41534690569E+03 -0.95899207069E+02  0.59833668816E+03  0.89504837729E+02 0.  0.
         23    2    4    4    0    0 -0.82211647969E+02  0.95371012584E+02 -0.79353880828E+02  0.17667783206E+03  0.95203113586E+02 0.  0.
          3    1    3    3  502    0 -0.25494712244E+03  0.29273741905E+03  0.17953339337E+03  0.42769787361E+03  0.00000000000E+00 0. -1.
         -3    1    3    3    0  502 -0.73067955238E+02  0.27238474058E+02  0.53516330563E+02  0.94577260420E+02  0.00000000000E+00 0.  1.
         11    1    5    5    0    0  0.12518886508E+03 -0.17732797520E+03 -0.60302322595E+02  0.22528611329E+03  0.00000000000E+00 0. -1.
        -11    1    5    5    0    0  0.28503786057E+03 -0.23801893049E+03 -0.35596884474E+02  0.37305057487E+03  0.00000000000E+00 0.  1.
          4    1    6    6  503    0 -0.16579800148E+02  0.91511016366E+01 -0.64601965515E+02  0.67320475210E+02  0.00000000000E+00 0. -1.
         -4    1    6    6    0  503 -0.65631847821E+02  0.86219910948E+02 -0.14751915313E+02  0.10935735685E+03  0.00000000000E+00 0.  1.
<mgrwt>
<rscale>  0 0.59094072E+03</rscale>
<asrwt>0</asrwt>
<pdfrwt beam="1">  1        2 0.95345617E-01 0.59094072E+03</pdfrwt>
<pdfrwt beam="2">  1       -2 0.10423741E+00 0.59094072E+03</pdfrwt>
<totfact> 0.36628335E+01</totfact>
</mgrwt>
</event>
<event>
12    1  0.1418317E-007  0.1228025E+04  0.7818608E-02  0.9088674E-01
          1   -1    0    0  501    0  0.00000000000E+00  0.00000000000E+00  0.86399271146E+03  0.86399271146E+03  0.00000000000E+00 0. -1.
         -1   -1    0    0    0  501 -0.00000000000E+00 -0.00000000000E+00 -0.18461950762E+04  0.18461950762E+04  0.00000000000E+00 0.  1.
         23    2    1    2    0    0  0.65828721878E+03  0.97647901499E+03 -0.28259284749E+03  0.12149078275E+04  0.96379369000E+02 0.  0.
    5000000    2    1    2    0    0 -0.65828721878E+03 -0.97647901499E+03 -0.69960951724E+03  0.14952799601E+04  0.59962934673E+03 0.  0.
         23    2    4    4    0    0 -0.73539542714E+03 -0.93565231640E+03 -0.64598308675E+03  0.13572065841E+04  0.91999304585E+02 0.  0.
         23    2    4    4    0    0  0.77108208362E+02 -0.40826698587E+02 -0.53626430489E+02  0.13807337606E+03  0.92606522537E+02 0.  0.
          3    1    3    3  502    0  0.29910013493E+03  0.48297443191E+03 -0.92187756930E+02  0.57552043849E+03  0.00000000000E+00 0. -1.
         -3    1    3    3    0  502  0.35918708384E+03  0.49350458308E+03 -0.19040509056E+03  0.63938738901E+03  0.00000000000E+00 0.  1.
         11    1    5    5    0    0 -0.45673907630E+03 -0.59426923928E+03 -0.45599291743E+03  0.87732323195E+03  0.00000000000E+00 0.  1.
        -11    1    5    5    0    0 -0.27865635084E+03 -0.34138307712E+03 -0.18999016932E+03  0.47988335212E+03  0.00000000000E+00 0. -1.
          4    1    6    6  503    0  0.49757270540E+02 -0.29094759268E+02  0.18102747027E+02  0.60415233496E+02  0.00000000000E+00 0. -1.
         -4    1    6    6    0  503  0.27350937822E+02 -0.11731939319E+02 -0.71729177517E+02  0.77658142568E+02  0.00000000000E+00 0.  1.
<mgrwt>
<rscale>  0 0.12280254E+04</rscale>
<asrwt>0</asrwt>
<pdfrwt beam="1">  1        1 0.13292196E+00 0.12280254E+04</pdfrwt>
<pdfrwt beam="2">  1       -1 0.28403001E+00 0.12280254E+04</pdfrwt>
<totfact> 0.80214164E-01</totfact>
</mgrwt>
</event>
<event>
12    1  0.1418317E-007  0.5418558E+03  0.7818608E-02  0.1003397E+00
         -1   -1    0    0    0  501 -0.00000000000E+00  0.00000000000E+00  0.19270580273E+03  0.19270580273E+03  0.00000000000E+00 0.  1.
          1   -1    0    0  501    0  0.00000000000E+00 -0.00000000000E+00 -0.23644541042E+04  0.23644541042E+04  0.00000000000E+00 0. -1.
         23    2    1    2    0    0 -0.35826336831E+03 -0.39275498349E+03 -0.73689543822E+03  0.91360870391E+03  0.95167530537E+02 0.  0.
    5000000    2    1    2    0    0  0.35826336831E+03  0.39275498349E+03 -0.14348528633E+04  0.16435512031E+04  0.59987390312E+03 0.  0.
         23    2    4    4    0    0  0.16938716712E+03  0.20525364151E+03 -0.13036398460E+04  0.13332664102E+04  0.85448244991E+02 0.  0.
         23    2    4    4    0    0  0.18887620119E+03  0.18750134198E+03 -0.13121301725E+03  0.31028479289E+03  0.90712866676E+02 0.  0.
          3    1    3    3  502    0 -0.25413170915E+03 -0.23350451791E+03 -0.53059017893E+03  0.63295594116E+03  0.00000000000E+00 0. -1.
         -3    1    3    3    0  502 -0.10413165916E+03 -0.15925046559E+03 -0.20630525929E+03  0.28065276275E+03  0.00000000000E+00 0.  1.
         11    1    5    5    0    0  0.60373420003E+02  0.13649211530E+03 -0.76475869798E+03  0.77918605834E+03  0.00000000000E+00 0. -1.
        -11    1    5    5    0    0  0.10901374712E+03  0.68761526213E+02 -0.53888114807E+03  0.55408035184E+03  0.00000000000E+00 0.  1.
          3    1    6    6  503    0  0.56186537847E+02  0.87677799973E+02 -0.93629252495E+02  0.14003842532E+03  0.00000000000E+00 0. -1.
         -3    1    6    6    0  503  0.13268966334E+03  0.99823542010E+02 -0.37583764758E+02  0.17024636757E+03  0.00000000000E+00 0.  1.
<mgrwt>
<rscale>  0 0.54185576E+03</rscale>
<asrwt>0</asrwt>
<pdfrwt beam="1">  1        1 0.36376216E+00 0.54185576E+03</pdfrwt>
<pdfrwt beam="2">  1       -1 0.29647048E-01 0.54185576E+03</pdfrwt>
<totfact> 0.18997700E+01</totfact>
</mgrwt>
</event>
<event>
12    1  0.1418317E-007  0.1476324E+04  0.7818608E-02  0.8900352E-01
          1   -1    0    0  501    0  0.00000000000E+00  0.00000000000E+00  0.24521431798E+04  0.24521431798E+04  0.00000000000E+00 0. -1.
         -1   -1    0    0    0  501 -0.00000000000E+00 -0.00000000000E+00 -0.90164149460E+03  0.90164149460E+03  0.00000000000E+00 0.  1.
         23    2    1    2    0    0  0.19958933721E+02 -0.14245697518E+04  0.73765198871E+03  0.16070743526E+04  0.93595840555E+02 0.  0.
    5000000    2    1    2    0    0 -0.19958933721E+02  0.14245697518E+04  0.81284969645E+03  0.17467103218E+04  0.60039568807E+03 0.  0.
         23    2    4    4    0    0 -0.25615222153E+03  0.45053547183E+03  0.38604900361E+03  0.65350052227E+03  0.97123259075E+02 0.  0.
         23    2    4    4    0    0  0.23619328781E+03  0.97403428002E+03  0.42680069284E+03  0.10932097995E+04  0.91753945187E+02 0.  0.
          4    1    3    3  502    0 -0.72764259139E+01 -0.99656612779E+03  0.55724381325E+03  0.11418045633E+04  0.00000000000E+00 0. -1.
         -4    1    3    3    0  502  0.27235359635E+02 -0.42800362406E+03  0.18040817547E+03  0.46526978926E+03  0.00000000000E+00 0.  1.
         13    1    5    5    0    0 -0.10557940962E+03  0.26184992941E+03  0.17017075221E+03  0.32965206230E+03  0.00000000000E+00 0. -1.
        -13    1    5    5    0    0 -0.15057281190E+03  0.18868554242E+03  0.21587825140E+03  0.32384845998E+03  0.00000000000E+00 0.  1.
          3    1    6    6  503    0  0.10522225112E+03  0.53708467951E+03  0.27468466720E+03  0.61235883393E+03  0.00000000000E+00 0. -1.
         -3    1    6    6    0  503  0.13097103669E+03  0.43694960051E+03  0.15211602565E+03  0.48085096557E+03  0.00000000000E+00 0.  1.
<mgrwt>
<rscale>  0 0.14763238E+04</rscale>
<asrwt>0</asrwt>
<pdfrwt beam="1">  1        1 0.37725280E+00 0.14763238E+04</pdfrwt>
<pdfrwt beam="2">  1       -1 0.13871408E+00 0.14763238E+04</pdfrwt>
<totfact> 0.59881004E-01</totfact>
</mgrwt>
</event>
<event>
12    1  0.1418317E-007  0.7315615E+03  0.7818608E-02  0.9664730E-01
          1   -1    0    0  501    0  0.00000000000E+00  0.00000000000E+00  0.59232619008E+03  0.59232619008E+03  0.00000000000E+00 0. -1.
         -1   -1    0    0    0  501 -0.00000000000E+00 -0.00000000000E+00 -0.11214508963E+04  0.11214508963E+04  0.00000000000E+00 0.  1.
         23    2    1    2    0    0 -0.53495378192E+03  0.41743386137E+03 -0.42239355886E+02  0.68586099014E+03  0.90523793580E+02 0.  0.
    5000000    2    1    2    0    0  0.53495378192E+03 -0.41743386137E+03 -0.48688535029E+03  0.10279160962E+04  0.59927254157E+03 0.  0.
         23    2    4    4    0    0  0.54458054333E+03 -0.27286012829E+03 -0.56995191965E+03  0.83908489653E+03  0.90540902878E+02 0.  0.
         23    2    4    4    0    0 -0.96267614034E+01 -0.14457373308E+03  0.83066569355E+02  0.18883119967E+03  0.88107480903E+02 0.  0.
          1    1    3    3  502    0 -0.28431857230E+03  0.18478452219E+03  0.13592928548E+02  0.33936284108E+03  0.00000000000E+00 0. -1.
         -1    1    3    3    0  502 -0.25063520962E+03  0.23264933918E+03 -0.55832284434E+02  0.34649814907E+03  0.00000000000E+00 0.  1.
         13    1    5    5    0    0  0.37314201515E+03 -0.22404151635E+03 -0.43650162404E+03  0.61641157704E+03  0.00000000000E+00 0.  1.
        -13    1    5    5    0    0  0.17143852818E+03 -0.48818611941E+02 -0.13345029561E+03  0.22267331949E+03  0.00000000000E+00 0. -1.
          3    1    6    6  503    0  0.37930308810E+02 -0.78283213792E+02  0.53112953349E+02  0.10192132113E+03  0.00000000000E+00 0. -1.
         -3    1    6    6    0  503 -0.47557070214E+02 -0.66290519287E+02  0.29953616006E+02  0.86909878533E+02  0.00000000000E+00 0.  1.
<mgrwt>
<rscale>  0 0.73156153E+03</rscale>
<asrwt>0</asrwt>
<pdfrwt beam="1">  1        1 0.91127107E-01 0.73156153E+03</pdfrwt>
<pdfrwt beam="2">  1       -1 0.17253091E+00 0.73156153E+03</pdfrwt>
<totfact> 0.85084703E+00</totfact>
</mgrwt>
</event>
<event>
12    1  0.1418317E-007  0.1000209E+04  0.7818608E-02  0.9308316E-01
         -2   -1    0    0    0  501 -0.00000000000E+00  0.00000000000E+00  0.98988469816E+03  0.98988469816E+03  0.00000000000E+00 0.  1.
          2   -1    0    0  501    0  0.00000000000E+00 -0.00000000000E+00 -0.13035470958E+04  0.13035470958E+04  0.00000000000E+00 0. -1.
         23    2    1    2    0    0  0.71892659680E+03  0.58820298223E+03 -0.64999809631E+03  0.11375998084E+04  0.93795516226E+02 0.  0.
    5000000    2    1    2    0    0 -0.71892659680E+03 -0.58820298223E+03  0.33633569869E+03  0.11558319856E+04  0.59998973060E+03 0.  0.
         23    2    4    4    0    0 -0.78536828381E+03 -0.52895588370E+03  0.20668278571E+03  0.97354595955E+03  0.92066787372E+02 0.  0.
         23    2    4    4    0    0  0.66441687007E+02 -0.59247098530E+02  0.12965291298E+03  0.18228602605E+03  0.92160734544E+02 0.  0.
          4    1    3    3  502    0  0.13318837876E+03  0.15709538209E+03 -0.13025366457E+03  0.24368857266E+03  0.00000000000E+00 0. -1.
         -4    1    3    3    0  502  0.58573821804E+03  0.43110760014E+03 -0.51974443175E+03  0.89391123570E+03  0.00000000000E+00 0.  1.
         13    1    5    5    0    0 -0.16986178093E+03 -0.11952773940E+03  0.70452255511E+01  0.20782093328E+03  0.00000000000E+00 0.  1.
        -13    1    5    5    0    0 -0.61550650288E+03 -0.40942814431E+03  0.19963756016E+03  0.76572502627E+03  0.00000000000E+00 0. -1.
          3    1    6    6  503    0  0.70784737007E+02 -0.10815269457E+02  0.10673589460E+03  0.12853015305E+03  0.00000000000E+00 0. -1.
         -3    1    6    6    0  503 -0.43430499999E+01 -0.48431829073E+02  0.22917018382E+02  0.53755873002E+02  0.00000000000E+00 0.  1.
<mgrwt>
<rscale>  0 0.10002089E+04</rscale>
<asrwt>0</asrwt>
<pdfrwt beam="1">  1        2 0.20054571E+00 0.10002089E+04</pdfrwt>
<pdfrwt beam="2">  1       -2 0.15228995E+00 0.10002089E+04</pdfrwt>
<totfact> 0.46951358E+00</totfact>
</mgrwt>
</event>
<event>
12    1  0.1418317E-007  0.6235716E+03  0.7818608E-02  0.9857674E-01
          1   -1    0    0  501    0  0.00000000000E+00  0.00000000000E+00  0.25300534430E+04  0.25300534430E+04  0.00000000000E+00 0. -1.
         -1   -1    0    0    0  501 -0.00000000000E+00 -0.00000000000E+00 -0.33792045371E+03  0.33792045371E+03  0.00000000000E+00 0.  1.
         23    2    1    2    0    0  0.49240913255E+03 -0.72482548985E+02  0.20023311376E+04  0.20656537320E+04  0.99372443060E+02 0.  0.
    5000000    2    1    2    0    0 -0.49240913255E+03  0.72482548985E+02  0.18980185169E+03  0.80232016465E+03  0.59997702455E+03 0.  0.
         23    2    4    4    0    0 -0.59373937308E+03 -0.37806176433E+02  0.11971100256E+03  0.61373075020E+03  0.91536656493E+02 0.  0.
         23    2    4    4    0    0  0.10133024054E+03  0.11028872542E+03  0.70090849128E+02  0.18858941446E+03  0.90674249443E+02 0.  0.
          1    1    3    3  502    0  0.30446702615E+02 -0.17826333767E+02  0.25629028829E+03  0.25870734769E+03  0.00000000000E+00 0. -1.
         -1    1    3    3    0  502  0.46196242993E+03 -0.54656215218E+02  0.17460408493E+04  0.18069463844E+04  0.00000000000E+00 0.  1.
         11    1    5    5    0    0 -0.11896972486E+03 -0.18153670254E+02  0.61053718889E+02  0.13494779645E+03  0.00000000000E+00 0. -1.
        -11    1    5    5    0    0 -0.47476964822E+03 -0.19652506179E+02  0.58657283671E+02  0.47878295374E+03  0.00000000000E+00 0.  1.
          2    1    6    6  503    0  0.23065299348E+02  0.38886014743E+02 -0.20078379538E+02  0.49469905008E+02  0.00000000000E+00 0. -1.
         -2    1    6    6    0  503  0.78264941187E+02  0.71402710675E+02  0.90169228667E+02  0.13911950945E+03  0.00000000000E+00 0.  1.
<mgrwt>
<rscale>  0 0.62357159E+03</rscale>
<asrwt>0</asrwt>
<pdfrwt beam="1">  1        1 0.38923898E+00 0.62357159E+03</pdfrwt>
<pdfrwt beam="2">  1       -1 0.51987764E-01 0.62357159E+03</pdfrwt>
<totfact> 0.52239126E+00</totfact>
</mgrwt>
</event>
<event>
12    1  0.1418317E-007  0.9009927E+03  0.7818608E-02  0.9424341E-01
         -1   -1    0    0    0  501 -0.00000000000E+00  0.00000000000E+00  0.58511788602E+03  0.58511788602E+03  0.00000000000E+00 0.  1.
          1   -1    0    0  501    0  0.00000000000E+00 -0.00000000000E+00 -0.27028964168E+04  0.27028964168E+04  0.00000000000E+00 0. -1.
         23    2    1    2    0    0  0.74177672307E+03 -0.33469568042E+03 -0.21247286201E+04  0.22771822274E+04  0.93985543093E+02 0.  0.
    5000000    2    1    2    0    0 -0.74177672307E+03  0.33469568042E+03  0.69500893271E+01  0.10108320754E+04  0.59956590593E+03 0.  0.
         23    2    4    4    0    0 -0.72661287617E+03  0.45270180850E+03  0.59833139202E+01  0.86094676379E+03  0.91040270201E+02 0.  0.
         23    2    4    4    0    0 -0.15163846903E+02 -0.11800612808E+03  0.96677540695E+00  0.14988531162E+03  0.91155271197E+02 0.  0.
          1    1    3    3  502    0  0.66731649888E+03 -0.30642079318E+03 -0.19832413771E+04  0.21148171014E+04  0.00000000000E+00 0. -1.
         -1    1    3    3    0  502  0.74460224189E+02 -0.28274887237E+02 -0.14148724297E+03  0.16236512606E+03  0.00000000000E+00 0.  1.
         11    1    5    5    0    0 -0.38304355765E+03  0.27723846981E+03  0.34566361659E+02  0.47410797247E+03  0.00000000000E+00 0. -1.
        -11    1    5    5    0    0 -0.34356931852E+03  0.17546333869E+03 -0.28583047739E+02  0.38683879132E+03  0.00000000000E+00 0.  1.
          1    1    6    6  503    0 -0.90413831164E+01 -0.12184347751E+03  0.25068536856E+02  0.12472373937E+03  0.00000000000E+00 0. -1.
         -1    1    6    6    0  503 -0.61224637870E+01  0.38373494294E+01 -0.24101761449E+02  0.25161572256E+02  0.00000000000E+00 0.  1.
<mgrwt>
<rscale>  0 0.90099271E+03</rscale>
<asrwt>0</asrwt>
<pdfrwt beam="1">  1        1 0.41583022E+00 0.90099271E+03</pdfrwt>
<pdfrwt beam="2">  1       -1 0.90018136E-01 0.90099271E+03</pdfrwt>
<totfact> 0.12258867E+00</totfact>
</mgrwt>
</event>
<event>
12    1  0.1418317E-007  0.1097483E+04  0.7818608E-02  0.9207649E-01
          1   -1    0    0  501    0  0.00000000000E+00  0.00000000000E+00  0.18748192886E+04  0.18748192886E+04  0.00000000000E+00 0. -1.
         -1   -1    0    0    0  501 -0.00000000000E+00 -0.00000000000E+00 -0.68928634786E+03  0.68928634786E+03  0.00000000000E+00 0.  1.
         23    2    1    2    0    0 -0.93055883769E+03  0.48762600085E+03  0.66781069970E+03  0.12481348493E+04  0.90280697121E+02 0.  0.
    5000000    2    1    2    0    0  0.93055883769E+03 -0.48762600085E+03  0.51772224101E+03  0.13159707871E+04  0.60001993854E+03 0.  0.
         23    2    4    4    0    0  0.79249856029E+03 -0.20918283945E+03  0.17100100953E+03  0.84203186110E+03  0.89246184622E+02 0.  0.
         23    2    4    4    0    0  0.13806027741E+03 -0.27844316140E+03  0.34672123148E+03  0.47393892604E+03  0.88381326787E+02 0.  0.
          2    1    3    3  502    0 -0.65736937921E+03  0.32659586346E+03  0.51086543032E+03  0.89430579035E+03  0.00000000000E+00 0. -1.
         -2    1    3    3    0  502 -0.27318945848E+03  0.16103013739E+03  0.15694526938E+03  0.35382905895E+03  0.00000000000E+00 0.  1.
         13    1    5    5    0    0  0.30515375671E+03 -0.11736370734E+03  0.93842685338E+02  0.34014629886E+03  0.00000000000E+00 0. -1.
        -13    1    5    5    0    0  0.48734480358E+03 -0.91819132110E+02  0.77158324191E+02  0.50188556224E+03  0.00000000000E+00 0.  1.
          4    1    6    6  503    0  0.94290573623E+02 -0.10091642051E+03  0.17660714927E+03  0.22419839736E+03  0.00000000000E+00 0. -1.
         -4    1    6    6    0  503  0.43769703783E+02 -0.17752674089E+03  0.17011408221E+03  0.24974052868E+03  0.00000000000E+00 0.  1.
<mgrwt>
<rscale>  0 0.10974826E+04</rscale>
<asrwt>0</asrwt>
<pdfrwt beam="1">  1        1 0.28843374E+00 0.10974826E+04</pdfrwt>
<pdfrwt beam="2">  1       -1 0.10604405E+00 0.10974826E+04</pdfrwt>
<totfact> 0.30054582E+00</totfact>
</mgrwt>
</event>
<event>
12    1  0.1418317E-007  0.8245271E+03  0.7818608E-02  0.9525178E-01
         -2   -1    0    0    0  501 -0.00000000000E+00  0.00000000000E+00  0.43816824077E+03  0.43816824077E+03  0.00000000000E+00 0.  1.
          2   -1    0    0  501    0  0.00000000000E+00 -0.00000000000E+00 -0.30200362440E+04  0.30200362440E+04  0.00000000000E+00 0. -1.
         23    2    1    2    0    0 -0.18136420062E+03 -0.71944926056E+03 -0.23639480780E+04  0.24794021196E+04  0.93188749586E+02 0.  0.
    5000000    2    1    2    0    0  0.18136420062E+03  0.71944926056E+03 -0.21791992516E+03  0.97880236518E+03  0.60005396800E+03 0.  0.
         23    2    4    4    0    0  0.15265056360E+03  0.78678435425E+03 -0.27187360881E+03  0.85121288951E+03  0.91193801625E+02 0.  0.
         23    2    4    4    0    0  0.28713637018E+02 -0.67335093681E+02  0.53953683645E+02  0.12758947567E+03  0.89496293390E+02 0.  0.
          1    1    3    3  502    0 -0.63862626620E+02 -0.25478227943E+03 -0.69437084926E+03  0.74239027559E+03  0.00000000000E+00 0. -1.
         -1    1    3    3    0  502 -0.11750157400E+03 -0.46466698113E+03 -0.16695772288E+04  0.17370118440E+04  0.00000000000E+00 0.  1.
         11    1    5    5    0    0  0.80996260708E+02  0.47493412360E+03 -0.11734106816E+03  0.49587472438E+03  0.00000000000E+00 0.  1.
        -11    1    5    5    0    0  0.71654302893E+02  0.31185023065E+03 -0.15453254065E+03  0.35533816513E+03  0.00000000000E+00 0. -1.
          3    1    6    6  503    0  0.54592907375E+02 -0.39938899616E+02  0.79318898086E+01  0.68105918349E+02  0.00000000000E+00 0. -1.
         -3    1    6    6    0  503 -0.25879270357E+02 -0.27396194065E+02  0.46021793836E+02  0.59483557319E+02  0.00000000000E+00 0.  1.
<mgrwt>
<rscale>  0 0.82452711E+03</rscale>
<asrwt>0</asrwt>
<pdfrwt beam="1">  1        2 0.46462094E+00 0.82452711E+03</pdfrwt>
<pdfrwt beam="2">  1       -2 0.67410502E-01 0.82452711E+03</pdfrwt>
<totfact> 0.35921628E+00</totfact>
</mgrwt>
</event>
<event>
12    1  0.1418317E-007  0.4278079E+03  0.7818608E-02  0.1034555E+00
         -4   -1    0    0    0  501 -0.00000000000E+00  0.00000000000E+00  0.61126459957E+03  0.61126459957E+03  0.00000000000E+00 0.  1.
          4   -1    0    0  501    0  0.00000000000E+00 -0.00000000000E+00 -0.70175076054E+03  0.70175076054E+03  0.00000000000E+00 0. -1.
         23    2    1    2    0    0 -0.37514436519E+03  0.10930536067E+03  0.29812077994E+03  0.49754050047E+03  0.77392464552E+02 0.  0.
    5000000    2    1    2    0    0  0.37514436519E+03 -0.10930536067E+03 -0.38860694092E+03  0.81547485964E+03  0.60108479899E+03 0.  0.
         23    2    4    4    0    0  0.24137116170E+03  0.24958600170E+02 -0.51000089551E+03  0.57115633970E+03  0.85062809338E+02 0.  0.
         23    2    4    4    0    0  0.13377320348E+03 -0.13426396084E+03  0.12139395459E+03  0.24431851995E+03  0.95041916156E+02 0.  0.
          3    1    3    3  502    0 -0.27030860860E+03  0.10406201802E+03  0.24757922200E+03  0.38103952373E+03  0.00000000000E+00 0. -1.
         -3    1    3    3    0  502 -0.10483575659E+03  0.52433426482E+01  0.50541557938E+02  0.11650097674E+03  0.00000000000E+00 0.  1.
         11    1    5    5    0    0  0.56686585032E+02  0.30174344294E+02 -0.20229804839E+03  0.21224599021E+03  0.00000000000E+00 0. -1.
        -11    1    5    5    0    0  0.18468457667E+03 -0.52157441239E+01 -0.30770284712E+03  0.35891034949E+03  0.00000000000E+00 0.  1.
          1    1    6    6  503    0  0.12785591465E+03 -0.14888703810E+03  0.11240011368E+03  0.22615983415E+03  0.00000000000E+00 0. -1.
         -1    1    6    6    0  503  0.59172888284E+01  0.14623077259E+02  0.89938409101E+01  0.18158685798E+02  0.00000000000E+00 0.  1.
<mgrwt>
<rscale>  0 0.42780788E+03</rscale>
<asrwt>0</asrwt>
<pdfrwt beam="1">  1        4 0.10796166E+00 0.42780788E+03</pdfrwt>
<pdfrwt beam="2">  1       -4 0.94040707E-01 0.42780788E+03</pdfrwt>
<totfact> 0.12757034E+00</totfact>
</mgrwt>
</event>
<event>
12    1  0.1418317E-007  0.4990521E+03  0.7818608E-02  0.1014027E+00
         -2   -1    0    0    0  501 -0.00000000000E+00  0.00000000000E+00  0.32244009019E+03  0.32244009019E+03  0.00000000000E+00 0.  1.
          2   -1    0    0  501    0  0.00000000000E+00 -0.00000000000E+00 -0.13638962358E+04  0.13638962358E+04  0.00000000000E+00 0. -1.
         23    2    1    2    0    0 -0.21537861434E+02 -0.35872963587E+03  0.63328174274E+02  0.37877706627E+03  0.10154199697E+03 0.  0.
    5000000    2    1    2    0    0  0.21537861434E+02  0.35872963587E+03 -0.11047843199E+04  0.13075592598E+04  0.60000999415E+03 0.  0.
         23    2    4    4    0    0 -0.23231452631E+03  0.22370187568E+03 -0.84101022782E+03  0.90563582262E+03  0.94156633264E+02 0.  0.
         23    2    4    4    0    0  0.25385238774E+03  0.13502776020E+03 -0.26377409211E+03  0.40192343714E+03  0.96395782424E+02 0.  0.
          4    1    3    3  502    0 -0.50577632672E+02 -0.18531978937E+03  0.65444780163E+02  0.20293974600E+03  0.00000000000E+00 0.  1.
         -4    1    3    3    0  502  0.29039771238E+02 -0.17340984651E+03 -0.21166058889E+01  0.17583732027E+03  0.00000000000E+00 0. -1.
         13    1    5    5    0    0 -0.16805860151E+03  0.10541358878E+03 -0.55865916141E+03  0.59283705761E+03  0.00000000000E+00 0.  1.
        -13    1    5    5    0    0 -0.64255924799E+02  0.11828828690E+03 -0.28235106641E+03  0.31279876501E+03  0.00000000000E+00 0. -1.
          4    1    6    6  503    0  0.16938925248E+03  0.12822492587E+03 -0.15002074891E+03  0.26007801824E+03  0.00000000000E+00 0. -1.
         -4    1    6    6    0  503  0.84463135266E+02  0.68028343252E+01 -0.11375334320E+03  0.14184541890E+03  0.00000000000E+00 0.  1.
<mgrwt>
<rscale>  0 0.49905210E+03</rscale>
<asrwt>0</asrwt>
<pdfrwt beam="1">  1        2 0.20983019E+00 0.49905210E+03</pdfrwt>
<pdfrwt beam="2">  1       -2 0.49606167E-01 0.49905210E+03</pdfrwt>
<totfact> 0.61278533E+01</totfact>
</mgrwt>
</event>
<event>
12    1  0.1418317E-007  0.2440603E+04  0.7818608E-02  0.8424457E-01
         -2   -1    0    0    0  501 -0.00000000000E+00  0.00000000000E+00  0.42856190690E+04  0.42856190690E+04  0.00000000000E+00 0.  1.
          2   -1    0    0  501    0  0.00000000000E+00 -0.00000000000E+00 -0.14475306825E+04  0.14475306825E+04  0.00000000000E+00 0. -1.
         23    2    1    2    0    0 -0.55892348884E+03  0.23515474378E+04  0.18852116898E+04  0.30666568373E+04  0.90499855380E+02 0.  0.
    5000000    2    1    2    0    0  0.55892348884E+03 -0.23515474378E+04  0.95287669665E+03  0.26664929142E+04  0.60003303552E+03 0.  0.
         23    2    4    4    0    0  0.27458984443E+03 -0.39524135471E+03  0.52932092420E+02  0.49227724261E+03  0.88993067401E+02 0.  0.
         23    2    4    4    0    0  0.28433364441E+03 -0.19563060831E+04  0.89994460423E+03  0.21742156716E+04  0.96614614428E+02 0.  0.
          2    1    3    3  502    0 -0.38641744231E+03  0.17223209655E+04  0.13336740761E+04  0.22123278440E+04  0.00000000000E+00 0.  1.
         -2    1    3    3    0  502 -0.17250604654E+03  0.62922647226E+03  0.55153761368E+03  0.85432899330E+03  0.00000000000E+00 0. -1.
         13    1    5    5    0    0  0.22624016113E+02 -0.68349532174E+02 -0.16205350433E+02  0.73797818641E+02  0.00000000000E+00 0.  1.
        -13    1    5    5    0    0  0.25196582832E+03 -0.32689182253E+03  0.69137442853E+02  0.41847942397E+03  0.00000000000E+00 0. -1.
          4    1    6    6  503    0  0.57946682467E+02 -0.20541018926E+03  0.10935000482E+03  0.23980948150E+03  0.00000000000E+00 0. -1.
         -4    1    6    6    0  503  0.22638696195E+03 -0.17508958938E+04  0.79059459941E+03  0.19344061901E+04  0.00000000000E+00 0.  1.
<mgrwt>
<rscale>  0 0.24406025E+04</rscale>
<asrwt>0</asrwt>
<pdfrwt beam="1">  1        2 0.22269703E+00 0.24406025E+04</pdfrwt>
<pdfrwt beam="2">  1       -2 0.65932601E+00 0.24406025E+04</pdfrwt>
<totfact> 0.35565263E-03</totfact>
</mgrwt>
</event>
<event>
12    1  0.1418317E-007  0.8855382E+03  0.7818608E-02  0.9443842E-01
         -1   -1    0    0    0  501 -0.00000000000E+00  0.00000000000E+00  0.52781938409E+03  0.52781938409E+03  0.00000000000E+00 0.  1.
          1   -1    0    0  501    0  0.00000000000E+00 -0.00000000000E+00 -0.17372617627E+04  0.17372617627E+04  0.00000000000E+00 0. -1.
         23    2    1    2    0    0 -0.62864634683E+03 -0.57683245918E+03 -0.41225338226E+03  0.95224478303E+03  0.94262188970E+02 0.  0.
    5000000    2    1    2    0    0  0.62864634683E+03  0.57683245918E+03 -0.79718899636E+03  0.13128363638E+04  0.60008091687E+03 0.  0.
         23    2    4    4    0    0 -0.39221430288E+02  0.36030918049E+02 -0.29425337012E+03  0.31280731371E+03  0.91797723467E+02 0.  0.
         23    2    4    4    0    0  0.66786777712E+03  0.54080154113E+03 -0.50293562624E+03  0.10000290501E+04  0.92737167513E+02 0.  0.
          1    1    3    3  502    0 -0.40644773391E+03 -0.35015946636E+03 -0.30545049857E+03  0.61734222224E+03  0.00000000000E+00 0. -1.
         -1    1    3    3    0  502 -0.22219861292E+03 -0.22667299282E+03 -0.10680288369E+03  0.33490256079E+03  0.00000000000E+00 0.  1.
         11    1    5    5    0    0 -0.31567774455E+02  0.26138325692E+02 -0.29715453358E+03  0.29996758705E+03  0.00000000000E+00 0. -1.
        -11    1    5    5    0    0 -0.76536558327E+01  0.98925923567E+01  0.29011634632E+01  0.12839726655E+02  0.00000000000E+00 0.  1.
          1    1    6    6  503    0  0.46427217932E+03  0.42521989653E+03 -0.38392813838E+03  0.73740181200E+03  0.00000000000E+00 0. -1.
         -1    1    6    6    0  503  0.20359559779E+03  0.11558164460E+03 -0.11900748787E+03  0.26262723807E+03  0.00000000000E+00 0.  1.
<mgrwt>
<rscale>  0 0.88553825E+03</rscale>
<asrwt>0</asrwt>
<pdfrwt beam="1">  1        1 0.26727104E+00 0.88553825E+03</pdfrwt>
<pdfrwt beam="2">  1       -1 0.81202983E-01 0.88553825E+03</pdfrwt>
<totfact> 0.69474940E+00</totfact>
</mgrwt>
</event>
<event>
12    1  0.1418317E-007  0.7644282E+03  0.7818608E-02  0.9612983E-01
         -2   -1    0    0    0  501 -0.00000000000E+00  0.00000000000E+00  0.13521820918E+04  0.13521820918E+04  0.00000000000E+00 0.  1.
          2   -1    0    0  501    0  0.00000000000E+00 -0.00000000000E+00 -0.53574207891E+03  0.53574207891E+03  0.00000000000E+00 0. -1.
         23    2    1    2    0    0 -0.51095848589E+02 -0.73705464146E+03  0.43839402636E+03  0.86383136949E+03  0.90304940722E+02 0.  0.
    5000000    2    1    2    0    0  0.51095848589E+02  0.73705464146E+03  0.37804598652E+03  0.10240928012E+04  0.59998913935E+03 0.  0.
         23    2    4    4    0    0 -0.50045921547E+02  0.88783186496E+02  0.33414818031E+03  0.36010772547E+03  0.87381457266E+02 0.  0.
         23    2    4    4    0    0  0.10114177014E+03  0.64827145497E+03  0.43897806206E+02  0.66398507574E+03  0.91997969684E+02 0.  0.
          4    1    3    3  502    0  0.24374253212E+02 -0.27833424190E+03  0.16865215787E+03  0.32635502875E+03  0.00000000000E+00 0. -1.
         -4    1    3    3    0  502 -0.75470101801E+02 -0.45872039956E+03  0.26974186849E+03  0.53747634074E+03  0.00000000000E+00 0.  1.
         11    1    5    5    0    0  0.20496173742E+02  0.30993991895E+02  0.15110788880E+03  0.15560949434E+03  0.00000000000E+00 0.  1.
        -11    1    5    5    0    0 -0.70542095289E+02  0.57789194601E+02  0.18304029151E+03  0.20449823113E+03  0.00000000000E+00 0. -1.
          2    1    6    6  503    0  0.41645515375E+02  0.30525235913E+03  0.66267362041E+02  0.31512650630E+03  0.00000000000E+00 0. -1.
         -2    1    6    6    0  503  0.59496254761E+02  0.34301909584E+03 -0.22369555835E+02  0.34885856944E+03  0.00000000000E+00 0.  1.
<mgrwt>
<rscale>  0 0.76442819E+03</rscale>
<asrwt>0</asrwt>
<pdfrwt beam="1">  1        2 0.82421859E-01 0.76442819E+03</pdfrwt>
<pdfrwt beam="2">  1       -2 0.20802801E+00 0.76442819E+03</pdfrwt>
<totfact> 0.68251651E+00</totfact>
</mgrwt>
</event>
<event>
12    1  0.1418317E-007  0.3703711E+03  0.7818608E-02  0.1054551E+00
         -1   -1    0    0    0  501 -0.00000000000E+00  0.00000000000E+00  0.14873350098E+03  0.14873350098E+03  0.00000000000E+00 0.  1.
          1   -1    0    0  501    0  0.00000000000E+00 -0.00000000000E+00 -0.21197641425E+04  0.21197641425E+04  0.00000000000E+00 0. -1.
         23    2    1    2    0    0  0.16981547268E+03 -0.27346918148E+03 -0.24845433448E+03  0.41622640652E+03  0.88837926490E+02 0.  0.
    5000000    2    1    2    0    0 -0.16981547268E+03  0.27346918148E+03 -0.17225763070E+04  0.18522712369E+04  0.60001409458E+03 0.  0.
         23    2    4    4    0    0 -0.88808772045E+02 -0.87677520151E+01 -0.14016938107E+04  0.14074569860E+04  0.90695959023E+02 0.  0.
         23    2    4    4    0    0 -0.81006700633E+02  0.28223693350E+03 -0.32088249625E+03  0.44481425088E+03  0.93136293730E+02 0.  0.
          3    1    3    3  502    0  0.13040034479E+03 -0.20207543073E+03 -0.13284531388E+03  0.27474826123E+03  0.00000000000E+00 0. -1.
         -3    1    3    3    0  502  0.39415127887E+02 -0.71393750753E+02 -0.11560902060E+03  0.14147814530E+03  0.00000000000E+00 0.  1.
         13    1    5    5    0    0 -0.81119693506E+02 -0.40795532030E+02 -0.86479244292E+03  0.86954623192E+03  0.00000000000E+00 0.  1.
        -13    1    5    5    0    0 -0.76890785383E+01  0.32027780015E+02 -0.53690136782E+03  0.53791075411E+03  0.00000000000E+00 0. -1.
          4    1    6    6  503    0 -0.75215840417E+02  0.22106388046E+03 -0.19303627839E+03  0.30296809513E+03  0.00000000000E+00 0. -1.
         -4    1    6    6    0  503 -0.57908602161E+01  0.61173053040E+02 -0.12784621786E+03  0.14184615575E+03  0.00000000000E+00 0.  1.
<mgrwt>
<rscale>  0 0.37037110E+03</rscale>
<asrwt>0</asrwt>
<pdfrwt beam="1">  1        1 0.32611755E+00 0.37037110E+03</pdfrwt>
<pdfrwt beam="2">  1       -1 0.22882078E-01 0.37037110E+03</pdfrwt>
<totfact> 0.44577420E+01</totfact>
</mgrwt>
</event>
<event>
12    1  0.1418317E-007  0.1351141E+04  0.7818608E-02  0.8989965E-01
         -2   -1    0    0    0  501 -0.00000000000E+00  0.00000000000E+00  0.24899522289E+04  0.24899522289E+04  0.00000000000E+00 0.  1.
          2   -1    0    0  501    0  0.00000000000E+00 -0.00000000000E+00 -0.75599927905E+03  0.75599927905E+03  0.00000000000E+00 0. -1.
         23    2    1    2    0    0  0.12842815124E+04  0.22049896978E+03  0.90562492718E+03  0.15893992614E+04  0.89636513565E+02 0.  0.
    5000000    2    1    2    0    0 -0.12842815124E+04 -0.22049896978E+03  0.82832802263E+03  0.16565522465E+04  0.60003269385E+03 0.  0.
         23    2    4    4    0    0 -0.78383050357E+01 -0.11370785213E+03  0.42723225212E+02  0.15148740306E+03  0.90178959028E+02 0.  0.
         23    2    4    4    0    0 -0.12764432074E+04 -0.10679111765E+03  0.78560479741E+03  0.15050648435E+04  0.85636913370E+02 0.  0.
          1    1    3    3  502    0  0.65076438994E+03  0.15619495775E+03  0.45272485429E+03  0.80799192430E+03  0.00000000000E+00 0. -1.
         -1    1    3    3    0  502  0.63351712246E+03  0.64304012033E+02  0.45290007288E+03  0.78140733707E+03  0.00000000000E+00 0.  1.
         11    1    5    5    0    0 -0.43004405777E+01 -0.88889706156E+02 -0.13421551033E+02  0.90000064899E+02  0.00000000000E+00 0. -1.
        -11    1    5    5    0    0 -0.35378644580E+01 -0.24818145974E+02  0.56144776245E+02  0.61487338160E+02  0.00000000000E+00 0.  1.
          3    1    6    6  503    0 -0.34281813241E+03 -0.30737045877E+01  0.17763846091E+03  0.38612063187E+03  0.00000000000E+00 0. -1.
         -3    1    6    6    0  503 -0.93362507495E+03 -0.10371741307E+03  0.60796633651E+03  0.11189442116E+04  0.00000000000E+00 0.  1.
<mgrwt>
<rscale>  0 0.13511410E+04</rscale>
<asrwt>0</asrwt>
<pdfrwt beam="1">  1        2 0.11630758E+00 0.13511410E+04</pdfrwt>
<pdfrwt beam="2">  1       -2 0.38306957E+00 0.13511410E+04</pdfrwt>
<totfact> 0.34455850E-01</totfact>
</mgrwt>
</event>
<event>
12    1  0.1418317E-007  0.1289605E+04  0.7818608E-02  0.9037849E-01
          1   -1    0    0  501    0  0.00000000000E+00  0.00000000000E+00  0.22374440444E+04  0.22374440444E+04  0.00000000000E+00 0. -1.
         -1   -1    0    0    0  501 -0.00000000000E+00 -0.00000000000E+00 -0.99909863954E+03  0.99909863954E+03  0.00000000000E+00 0.  1.
         23    2    1    2    0    0 -0.12064263415E+04 -0.35809024512E+03  0.13374382500E+04  0.18388991199E+04  0.95476486293E+02 0.  0.
    5000000    2    1    2    0    0  0.12064263415E+04  0.35809024512E+03 -0.99092845134E+02  0.13976435640E+04  0.59991249272E+03 0.  0.
         23    2    4    4    0    0  0.10880401940E+04  0.19516253668E+03  0.82539513933E+02  0.11121547664E+04  0.90308213984E+02 0.  0.
         23    2    4    4    0    0  0.11838614752E+03  0.16292770844E+03 -0.18163235907E+03  0.28548879765E+03  0.89178593965E+02 0.  0.
          1    1    3    3  502    0 -0.59507849508E+03 -0.14899614131E+03  0.70927931449E+03  0.93776084979E+03  0.00000000000E+00 0. -1.
         -1    1    3    3    0  502 -0.61134784646E+03 -0.20909410381E+03  0.62815893551E+03  0.90113827013E+03  0.00000000000E+00 0.  1.
         11    1    5    5    0    0  0.18626440526E+03  0.62101610809E+02  0.34481785290E+02  0.19934902119E+03  0.00000000000E+00 0.  1.
        -11    1    5    5    0    0  0.90177578876E+03  0.13306092588E+03  0.48057728643E+02  0.91280574520E+03  0.00000000000E+00 0. -1.
          4    1    6    6  503    0 -0.18017875687E+01  0.39297059563E+02 -0.69346519642E+02  0.79727317246E+02  0.00000000000E+00 0.  1.
         -4    1    6    6    0  503  0.12018793509E+03  0.12363064888E+03 -0.11228583942E+03  0.20576148041E+03  0.00000000000E+00 0. -1.
<mgrwt>
<rscale>  0 0.12896048E+04</rscale>
<asrwt>0</asrwt>
<pdfrwt beam="1">  1        1 0.34422216E+00 0.12896048E+04</pdfrwt>
<pdfrwt beam="2">  1       -1 0.15370748E+00 0.12896048E+04</pdfrwt>
<totfact> 0.65241161E-01</totfact>
</mgrwt>
</event>
<event>
12    1  0.1418317E-007  0.1735977E+04  0.7818608E-02  0.8741107E-01
         -2   -1    0    0    0  501 -0.00000000000E+00  0.00000000000E+00  0.16287043272E+04  0.16287043272E+04  0.00000000000E+00 0. -1.
          2   -1    0    0  501    0  0.00000000000E+00 -0.00000000000E+00 -0.18785784663E+04  0.18785784663E+04  0.00000000000E+00 0.  1.
         23    2    1    2    0    0  0.91213806447E+02 -0.16869779231E+04  0.29167825589E+02  0.16928599553E+04  0.10348717210E+03 0.  0.
    5000000    2    1    2    0    0 -0.91213806447E+02  0.16869779231E+04 -0.27904196464E+03  0.18144228381E+04  0.60004278681E+03 0.  0.
         23    2    4    4    0    0  0.19265414025E+03  0.30690917409E+03  0.17289273508E+02  0.37172183766E+03  0.81051506590E+02 0.  0.
         23    2    4    4    0    0 -0.28386794670E+03  0.13800687490E+04 -0.29633123814E+03  0.14427010005E+04  0.91669029147E+02 0.  0.
          3    1    3    3  502    0  0.11143539715E+03 -0.15128537064E+04  0.36812256559E+02  0.15173988687E+04  0.00000000000E+00 0. -1.
         -3    1    3    3    0  502 -0.20221590701E+02 -0.17412421673E+03 -0.76444309707E+01  0.17546108659E+03  0.00000000000E+00 0.  1.
         13    1    5    5    0    0  0.50985032127E+02  0.32217701860E+02  0.16956349377E+02  0.62649593760E+02  0.00000000000E+00 0.  1.
        -13    1    5    5    0    0  0.14166910812E+03  0.27469147223E+03  0.33292413090E+00  0.30907224390E+03  0.00000000000E+00 0. -1.
          4    1    6    6  503    0 -0.16298916551E+03  0.93660337238E+03 -0.16728882309E+03  0.96528591390E+03  0.00000000000E+00 0. -1.
         -4    1    6    6    0  503 -0.12087878119E+03  0.44346537663E+03 -0.12904241505E+03  0.47741508658E+03  0.00000000000E+00 0.  1.
<mgrwt>
<rscale>  0 0.17359771E+04</rscale>
<asrwt>0</asrwt>
<pdfrwt beam="1">  1        2 0.28901207E+00 0.17359771E+04</pdfrwt>
<pdfrwt beam="2">  1       -2 0.25056990E+00 0.17359771E+04</pdfrwt>
<totfact> 0.45587749E-01</totfact>
</mgrwt>
</event>
<event>
12    1  0.1418317E-007  0.5745436E+03  0.7818608E-02  0.9959674E-01
          2   -1    0    0  501    0  0.00000000000E+00  0.00000000000E+00  0.91479191938E+03  0.91479191938E+03  0.00000000000E+00 0. -1.
         -2   -1    0    0    0  501 -0.00000000000E+00 -0.00000000000E+00 -0.41983192507E+03  0.41983192507E+03  0.00000000000E+00 0.  1.
         23    2    1    2    0    0 -0.12794032986E+03  0.40738985558E+03  0.39936882162E+03  0.59200367240E+03  0.92939066158E+02 0.  0.
    5000000    2    1    2    0    0  0.12794032986E+03 -0.40738985558E+03  0.95591172692E+02  0.74262017205E+03  0.60000985426E+03 0.  0.
         23    2    4    4    0    0  0.33362911443E+03 -0.34273645911E+03 -0.12686908087E+01  0.48768555079E+03  0.95178361411E+02 0.  0.
         23    2    4    4    0    0 -0.20568878457E+03 -0.64653396467E+02  0.96859863501E+02  0.25493462125E+03  0.95508586968E+02 0.  0.
          4    1    3    3  502    0 -0.64394904779E+02  0.33045695286E+03  0.29533364056E+03  0.44785093581E+03  0.00000000000E+00 0.  1.
         -4    1    3    3    0  502 -0.63545425079E+02  0.76932902717E+02  0.10403518105E+03  0.14415273659E+03  0.00000000000E+00 0. -1.
         11    1    5    5    0    0  0.65875716678E+02 -0.87733764637E+02  0.37406542144E+02  0.11591407551E+03  0.00000000000E+00 0. -1.
        -11    1    5    5    0    0  0.26775339775E+03 -0.25500269447E+03 -0.38675232952E+02  0.37177147529E+03  0.00000000000E+00 0.  1.
          2    1    6    6  503    0 -0.11664081682E+03 -0.81820338606E+02  0.40345614617E+02  0.14807908893E+03  0.00000000000E+00 0. -1.
         -2    1    6    6    0  503 -0.89047967745E+02  0.17166942139E+02  0.56514248883E+02  0.10685553233E+03  0.00000000000E+00 0.  1.
<mgrwt>
<rscale>  0 0.57454358E+03</rscale>
<asrwt>0</asrwt>
<pdfrwt beam="1">  1        2 0.14073722E+00 0.57454358E+03</pdfrwt>
<pdfrwt beam="2">  1       -2 0.64589527E-01 0.57454358E+03</pdfrwt>
<totfact> 0.65336246E+01</totfact>
</mgrwt>
</event>
<event>
12    1  0.1418317E-007  0.8302465E+03  0.7818608E-02  0.9517240E-01
         -1   -1    0    0    0  501 -0.00000000000E+00  0.00000000000E+00  0.58216493774E+03  0.58216493774E+03  0.00000000000E+00 0.  1.
          1   -1    0    0  501    0  0.00000000000E+00 -0.00000000000E+00 -0.14726901356E+04  0.14726901356E+04  0.00000000000E+00 0. -1.
         23    2    1    2    0    0  0.38285881249E+03 -0.70228857277E+03 -0.16961147653E+03  0.82236648048E+03  0.87911691449E+02 0.  0.
    5000000    2    1    2    0    0 -0.38285881249E+03  0.70228857277E+03 -0.72091372136E+03  0.12324885929E+04  0.59960105755E+03 0.  0.
         23    2    4    4    0    0 -0.23637913867E+03  0.66656623534E+03 -0.29535754899E+03  0.77193245280E+03  0.91967312964E+02 0.  0.
         23    2    4    4    0    0 -0.14647967383E+03  0.35722337429E+02 -0.42555617237E+03  0.46055614009E+03  0.91002868625E+02 0.  0.
          2    1    3    3  502    0  0.12751968103E+03 -0.22863616153E+03 -0.13748743853E+02  0.26215413665E+03  0.00000000000E+00 0. -1.
         -2    1    3    3    0  502  0.25533913147E+03 -0.47365241124E+03 -0.15586273267E+03  0.56021234382E+03  0.00000000000E+00 0.  1.
         11    1    5    5    0    0 -0.27393663097E+02  0.13354512413E+03 -0.24267881559E+02  0.13846892443E+03  0.00000000000E+00 0. -1.
        -11    1    5    5    0    0 -0.20898547557E+03  0.53302111121E+03 -0.27108966743E+03  0.63346352838E+03  0.00000000000E+00 0.  1.
          1    1    6    6  503    0 -0.19980116511E+02 -0.10811012287E+01 -0.18675906803E+03  0.18782790880E+03  0.00000000000E+00 0. -1.
         -1    1    6    6    0  503 -0.12649955732E+03  0.36803438658E+02 -0.23879710434E+03  0.27272823129E+03  0.00000000000E+00 0.  1.
<mgrwt>
<rscale>  0 0.83024648E+03</rscale>
<asrwt>0</asrwt>
<pdfrwt beam="1">  1        1 0.22656771E+00 0.83024648E+03</pdfrwt>
<pdfrwt beam="2">  1       -1 0.89563836E-01 0.83024648E+03</pdfrwt>
<totfact> 0.85680778E+00</totfact>
</mgrwt>
</event>
<event>
12    1  0.1418317E-007  0.3698379E+03  0.7818608E-02  0.1054755E+00
          2   -1    0    0  501    0  0.00000000000E+00  0.00000000000E+00  0.14816869403E+04  0.14816869403E+04  0.00000000000E+00 0. -1.
         -2   -1    0    0    0  501 -0.00000000000E+00 -0.00000000000E+00 -0.11038536611E+03  0.11038536611E+03  0.00000000000E+00 0.  1.
         23    2    1    2    0    0  0.94324901600E+02  0.85494933941E+02  0.11574274079E+03  0.19468423093E+03  0.91098830595E+02 0.  0.
    5000000    2    1    2    0    0 -0.94324901600E+02 -0.85494933941E+02  0.12555588334E+04  0.13973880755E+04  0.60004906347E+03 0.  0.
         23    2    4    4    0    0 -0.32847941723E+03 -0.23683302548E+02  0.57376328726E+03  0.66810173185E+03  0.93252281073E+02 0.  0.
         23    2    4    4    0    0  0.23415451563E+03 -0.61811631393E+02  0.68179554614E+03  0.72928634363E+03  0.91457035276E+02 0.  0.
          4    1    3    3  502    0  0.92031322405E+02  0.29541659156E+02  0.51713857064E+02  0.10962115189E+03  0.00000000000E+00 0. -1.
         -4    1    3    3    0  502  0.22935791958E+01  0.55953274785E+02  0.64028883722E+02  0.85063079037E+02  0.00000000000E+00 0.  1.
         13    1    5    5    0    0 -0.20017589617E+03 -0.22140421495E+02  0.43351815182E+03  0.47801524623E+03  0.00000000000E+00 0. -1.
        -13    1    5    5    0    0 -0.12830352107E+03 -0.15428810531E+01  0.14024513544E+03  0.19008648562E+03  0.00000000000E+00 0.  1.
          1    1    6    6  503    0  0.16785368745E+02 -0.34325328916E+02  0.13271478706E+03  0.13810572585E+03  0.00000000000E+00 0. -1.
         -1    1    6    6    0  503  0.21736914689E+03 -0.27486302477E+02  0.54908075909E+03  0.59118061778E+03  0.00000000000E+00 0.  1.
<mgrwt>
<rscale>  0 0.36983792E+03</rscale>
<asrwt>0</asrwt>
<pdfrwt beam="1">  1        2 0.22795182E+00 0.36983792E+03</pdfrwt>
<pdfrwt beam="2">  1       -2 0.16982365E-01 0.36983792E+03</pdfrwt>
<totfact> 0.38500745E+02</totfact>
</mgrwt>
</event>
<event>
12    1  0.1418317E-007  0.1080347E+04  0.7818608E-02  0.9224562E-01
         -2   -1    0    0    0  501 -0.00000000000E+00  0.00000000000E+00  0.53980958516E+03  0.53980958516E+03  0.00000000000E+00 0.  1.
          2   -1    0    0  501    0  0.00000000000E+00 -0.00000000000E+00 -0.23995552817E+04  0.23995552817E+04  0.00000000000E+00 0. -1.
         23    2    1    2    0    0 -0.10247244466E+04  0.11767418313E+03 -0.56721688114E+03  0.11802258856E+04  0.85385864973E+02 0.  0.
    5000000    2    1    2    0    0  0.10247244466E+04 -0.11767418313E+03 -0.12925288154E+04  0.17591389813E+04  0.60002650957E+03 0.  0.
         23    2    4    4    0    0  0.12861120443E+03  0.13539909337E+03 -0.46871694343E+03  0.51246598868E+03  0.89733272042E+02 0.  0.
         23    2    4    4    0    0  0.89611324213E+03 -0.25307327650E+03 -0.82381187201E+03  0.12466729927E+04  0.91991978777E+02 0.  0.
          4    1    3    3  502    0 -0.34963222489E+03  0.35627628482E+02 -0.23974307910E+03  0.42542774306E+03  0.00000000000E+00 0. -1.
         -4    1    3    3    0  502 -0.67509222167E+03  0.82046554643E+02 -0.32747380204E+03  0.75479814249E+03  0.00000000000E+00 0.  1.
         13    1    5    5    0    0  0.56673438653E+02  0.25423059039E+02 -0.24735464057E+03  0.25503436786E+03  0.00000000000E+00 0.  1.
        -13    1    5    5    0    0  0.71937765778E+02  0.10997603433E+03 -0.22136230286E+03  0.25743162082E+03  0.00000000000E+00 0. -1.
          2    1    6    6  503    0  0.97402945643E+02 -0.58404190144E+02 -0.96551969807E+02  0.14906597908E+03  0.00000000000E+00 0. -1.
         -2    1    6    6    0  503  0.79871029648E+03 -0.19466908635E+03 -0.72725990220E+03  0.10976070136E+04  0.00000000000E+00 0.  1.
<mgrwt>
<rscale>  0 0.10803469E+04</rscale>
<asrwt>0</asrwt>
<pdfrwt beam="1">  1        2 0.36916236E+00 0.10803469E+04</pdfrwt>
<pdfrwt beam="2">  1       -2 0.83047627E-01 0.10803469E+04</pdfrwt>
<totfact> 0.50433325E+00</totfact>
</mgrwt>
</event>
<event>
12    1  0.1418317E-007  0.1355065E+04  0.7818608E-02  0.8987003E-01
         -2   -1    0    0    0  501 -0.00000000000E+00  0.00000000000E+00  0.18885081418E+04  0.18885081418E+04  0.00000000000E+00 0.  1.
          2   -1    0    0  501    0  0.00000000000E+00 -0.00000000000E+00 -0.12821531340E+04  0.12821531340E+04  0.00000000000E+00 0. -1.
         23    2    1    2    0    0 -0.13128578802E+04 -0.30458357802E+03  0.95510997658E+03  0.16547134917E+04  0.97338084310E+02 0.  0.
    5000000    2    1    2    0    0  0.13128578802E+04  0.30458357802E+03 -0.34875496875E+03  0.15159477841E+04  0.60008389924E+03 0.  0.
         23    2    4    4    0    0  0.67204038811E+03  0.21236975479E+03 -0.46871830453E+03  0.85106913693E+03  0.88784181185E+02 0.  0.
         23    2    4    4    0    0  0.64081749211E+03  0.92213823230E+02  0.11996333578E+03  0.66487864713E+03  0.92314495614E+02 0.  0.
          4    1    3    3  502    0 -0.61492428284E+03 -0.17297618781E+03  0.40507577102E+03  0.75639871460E+03  0.00000000000E+00 0. -1.
         -4    1    3    3    0  502 -0.69793359738E+03 -0.13160739021E+03  0.55003420556E+03  0.89831477712E+03  0.00000000000E+00 0.  1.
         13    1    5    5    0    0  0.31343822842E+03  0.68541745125E+02 -0.25270982977E+03  0.40841615042E+03  0.00000000000E+00 0. -1.
        -13    1    5    5    0    0  0.35860215969E+03  0.14382800966E+03 -0.21600847477E+03  0.44265298651E+03  0.00000000000E+00 0.  1.
          4    1    6    6  503    0  0.39331351427E+03  0.10154683436E+03  0.79434489311E+02  0.41390472112E+03  0.00000000000E+00 0.  1.
         -4    1    6    6    0  503  0.24750397784E+03 -0.93330111306E+01  0.40528846467E+02  0.25097392601E+03  0.00000000000E+00 0. -1.
<mgrwt>
<rscale>  0 0.13550648E+04</rscale>
<asrwt>0</asrwt>
<pdfrwt beam="1">  1        2 0.19725433E+00 0.13550648E+04</pdfrwt>
<pdfrwt beam="2">  1       -2 0.29053971E+00 0.13550648E+04</pdfrwt>
<totfact> 0.58889109E-01</totfact>
</mgrwt>
</event>
<event>
12    1  0.1418317E-007  0.6155373E+03  0.7818608E-02  0.9873685E-01
         -1   -1    0    0    0  501 -0.00000000000E+00  0.00000000000E+00  0.71063938400E+03  0.71063938400E+03  0.00000000000E+00 0.  1.
          1   -1    0    0  501    0  0.00000000000E+00 -0.00000000000E+00 -0.67950659234E+03  0.67950659234E+03  0.00000000000E+00 0. -1.
         23    2    1    2    0    0  0.44310196514E+03 -0.31284526451E+03 -0.13041499097E+03  0.56536323016E+03  0.91738765604E+02 0.  0.
    5000000    2    1    2    0    0 -0.44310196514E+03  0.31284526451E+03  0.16154778264E+03  0.82478274617E+03  0.59996448335E+03 0.  0.
         23    2    4    4    0    0  0.14252039768E+01  0.21294435982E+03 -0.13997049342E+03  0.27091186661E+03  0.91946554346E+02 0.  0.
         23    2    4    4    0    0 -0.44452716912E+03  0.99900904686E+02  0.30151827606E+03  0.55387087957E+03  0.90967497465E+02 0.  0.
          4    1    3    3  502    0  0.23736895500E+03 -0.11649266833E+03 -0.43379594423E+02  0.26794841254E+03  0.00000000000E+00 0. -1.
         -4    1    3    3    0  502  0.20573301014E+03 -0.19635259618E+03 -0.87035396551E+02  0.29741481762E+03  0.00000000000E+00 0.  1.
         11    1    5    5    0    0 -0.16317732457E+02  0.26112296038E+02  0.81236117692E+01  0.31845148219E+02  0.00000000000E+00 0. -1.
        -11    1    5    5    0    0  0.17742936434E+02  0.18683206378E+03 -0.14809410519E+03  0.23906671839E+03  0.00000000000E+00 0.  1.
          3    1    6    6  503    0  0.19633760752E+01  0.76277241760E+01  0.99363999274E+01  0.12679474170E+02  0.00000000000E+00 0. -1.
         -3    1    6    6    0  503 -0.44649054519E+03  0.92273180510E+02  0.29158187613E+03  0.54119140539E+03  0.00000000000E+00 0.  1.
<mgrwt>
<rscale>  0 0.61553731E+03</rscale>
<asrwt>0</asrwt>
<pdfrwt beam="1">  1        1 0.10453948E+00 0.61553731E+03</pdfrwt>
<pdfrwt beam="2">  1       -1 0.10932914E+00 0.61553731E+03</pdfrwt>
<totfact> 0.23014606E+01</totfact>
</mgrwt>
</event>
<event>
12    1  0.1418317E-007  0.6826005E+03  0.7818608E-02  0.9747459E-01
          1   -1    0    0  501    0  0.00000000000E+00  0.00000000000E+00  0.19434208901E+04  0.19434208901E+04  0.00000000000E+00 0.  1.
         -1   -1    0    0    0  501 -0.00000000000E+00 -0.00000000000E+00 -0.33381489373E+03  0.33381489373E+03  0.00000000000E+00 0. -1.
         23    2    1    2    0    0 -0.53652465795E+03 -0.34544679557E+03  0.10683519404E+04  0.12476155916E+04  0.89311805291E+02 0.  0.
    5000000    2    1    2    0    0  0.53652465795E+03  0.34544679557E+03  0.54125405595E+03  0.10296201923E+04  0.59997465787E+03 0.  0.
         23    2    4    4    0    0  0.55638947578E+03  0.37195464795E+03  0.61047886864E+03  0.91025130348E+03  0.89182271462E+02 0.  0.
         23    2    4    4    0    0 -0.19864817834E+02 -0.26507852379E+02 -0.69224812687E+02  0.11936888879E+03  0.91430737140E+02 0.  0.
          3    1    3    3  502    0 -0.18537909272E+03 -0.17084540785E+03  0.42757310835E+03  0.49635906800E+03  0.00000000000E+00 0. -1.
         -3    1    3    3    0  502 -0.35114556523E+03 -0.17460138772E+03  0.64077883206E+03  0.75125652356E+03  0.00000000000E+00 0.  1.
         13    1    5    5    0    0  0.36775553053E+03  0.19664016416E+03  0.35812005936E+03  0.54969215140E+03  0.00000000000E+00 0. -1.
        -13    1    5    5    0    0  0.18863394525E+03  0.17531448379E+03  0.25235880928E+03  0.36055915208E+03  0.00000000000E+00 0.  1.
          4    1    6    6  503    0 -0.25353716510E+02 -0.30459346020E+02  0.91742715654E+01  0.40678617966E+02  0.00000000000E+00 0. -1.
         -4    1    6    6    0  503  0.54888986761E+01  0.39514936406E+01 -0.78399084252E+02  0.78690270823E+02  0.00000000000E+00 0.  1.
<mgrwt>
<rscale>  0 0.68260053E+03</rscale>
<asrwt>0</asrwt>
<pdfrwt beam="1">  1        1 0.29898782E+00 0.68260053E+03</pdfrwt>
<pdfrwt beam="2">  1       -1 0.51356139E-01 0.68260053E+03</pdfrwt>
<totfact> 0.13091946E+01</totfact>
</mgrwt>
</event>
<event>
12    1  0.1418317E-007  0.5998142E+03  0.7818608E-02  0.9905792E-01
         -2   -1    0    0    0  501 -0.00000000000E+00  0.00000000000E+00  0.13028640524E+03  0.13028640524E+03  0.00000000000E+00 0.  1.
          2   -1    0    0  501    0  0.00000000000E+00 -0.00000000000E+00 -0.46691034876E+04  0.46691034876E+04  0.00000000000E+00 0. -1.
         23    2    1    2    0    0  0.87099638009E+02 -0.45730748567E+03 -0.49844923802E+03  0.68824255648E+03  0.92247982462E+02 0.  0.
    5000000    2    1    2    0    0 -0.87099638009E+02  0.45730748567E+03 -0.40403678443E+04  0.41111473363E+04  0.60020298259E+03 0.  0.
         23    2    4    4    0    0 -0.29247869384E+02 -0.11488164911E+03 -0.46639577161E+03  0.49013639405E+03  0.93034605584E+02 0.  0.
         23    2    4    4    0    0 -0.57851768625E+02  0.57218913478E+03 -0.35739720727E+04  0.36210109423E+04  0.87730465415E+02 0.  0.
          3    1    3    3  502    0  0.11605403881E+02 -0.28908409322E+03 -0.32461132766E+03  0.43482963606E+03  0.00000000000E+00 0. -1.
         -3    1    3    3    0  502  0.75494234128E+02 -0.16822339245E+03 -0.17383791037E+03  0.25341292042E+03  0.00000000000E+00 0.  1.
         11    1    5    5    0    0  0.46910628214E+01  0.12010918162E+02 -0.13894023791E+02  0.18955530132E+02  0.00000000000E+00 0. -1.
        -11    1    5    5    0    0 -0.33938932205E+02 -0.12689256727E+03 -0.45250174782E+03  0.47118086392E+03  0.00000000000E+00 0.  1.
          3    1    6    6  503    0  0.18129229377E+02  0.24973625503E+03 -0.15084411064E+04  0.15290818936E+04  0.00000000000E+00 0. -1.
         -3    1    6    6    0  503 -0.75980998002E+02  0.32245287976E+03 -0.20655309663E+04  0.20919290487E+04  0.00000000000E+00 0.  1.
<mgrwt>
<rscale>  0 0.59981418E+03</rscale>
<asrwt>0</asrwt>
<pdfrwt beam="1">  1        2 0.71832361E+00 0.59981418E+03</pdfrwt>
<pdfrwt beam="2">  1       -2 0.20044062E-01 0.59981418E+03</pdfrwt>
<totfact> 0.21031764E+00</totfact>
</mgrwt>
</event>
<event>
12    1  0.1418317E-007  0.8046429E+03  0.7818608E-02  0.9553321E-01
          1   -1    0    0  501    0  0.00000000000E+00  0.00000000000E+00  0.56011600277E+03  0.56011600277E+03  0.00000000000E+00 0. -1.
         -1   -1    0    0    0  501 -0.00000000000E+00 -0.00000000000E+00 -0.13075609096E+04  0.13075609096E+04  0.00000000000E+00 0.  1.
         23    2    1    2    0    0  0.57058704397E+03 -0.46330448698E+03 -0.47736139938E+03  0.88122209074E+03  0.91966543778E+02 0.  0.
    5000000    2    1    2    0    0 -0.57058704397E+03  0.46330448698E+03 -0.27008350745E+03  0.98645482162E+03  0.59993949004E+03 0.  0.
         23    2    4    4    0    0  0.34800990558E+02  0.16788387196E+03  0.94210728539E+02  0.21516469870E+03  0.89577244819E+02 0.  0.
         23    2    4    4    0    0 -0.60538803453E+03  0.29542061502E+03 -0.36429423599E+03  0.77129012292E+03  0.91706876563E+02 0.  0.
          2    1    3    3  502    0  0.33399426801E+03 -0.23446893355E+03 -0.22147277459E+03  0.46430382483E+03  0.00000000000E+00 0. -1.
         -2    1    3    3    0  502  0.23659277597E+03 -0.22883555343E+03 -0.25588862479E+03  0.41691826591E+03  0.00000000000E+00 0.  1.
         13    1    5    5    0    0 -0.29595311199E+02  0.71892174547E+02  0.34395789671E+02  0.85014337339E+02  0.00000000000E+00 0. -1.
        -13    1    5    5    0    0  0.64396301757E+02  0.95991697411E+02  0.59814938868E+02  0.13015036137E+03  0.00000000000E+00 0.  1.
          3    1    6    6  503    0 -0.35475513056E+03  0.21807096995E+03 -0.20183117657E+03  0.46275476705E+03  0.00000000000E+00 0. -1.
         -3    1    6    6    0  503 -0.25063290397E+03  0.77349645069E+02 -0.16246305942E+03  0.30853535587E+03  0.00000000000E+00 0.  1.
<mgrwt>
<rscale>  0 0.80464295E+03</rscale>
<asrwt>0</asrwt>
<pdfrwt beam="1">  1        1 0.86171693E-01 0.80464295E+03</pdfrwt>
<pdfrwt beam="2">  1       -1 0.20116322E+00 0.80464295E+03</pdfrwt>
<totfact> 0.57390826E+00</totfact>
</mgrwt>
</event>
<event>
12    1  0.1418317E-007  0.1432625E+04  0.7818608E-02  0.8930536E-01
         -1   -1    0    0    0  501 -0.00000000000E+00  0.00000000000E+00  0.12438556606E+04  0.12438556606E+04  0.00000000000E+00 0.  1.
          1   -1    0    0  501    0  0.00000000000E+00 -0.00000000000E+00 -0.19093101438E+04  0.19093101438E+04  0.00000000000E+00 0. -1.
         23    2    1    2    0    0  0.10043076110E+04 -0.98481464697E+03 -0.79529591522E+03  0.16184568548E+04  0.91724215013E+02 0.  0.
    5000000    2    1    2    0    0 -0.10043076110E+04  0.98481464697E+03  0.12984143205E+03  0.15347089496E+04  0.59998257980E+03 0.  0.
         23    2    4    4    0    0 -0.99516908566E+03  0.90994071003E+03  0.23962379527E+03  0.13730367999E+04  0.97246520903E+02 0.  0.
         23    2    4    4    0    0 -0.91385253304E+01  0.74873936936E+02 -0.10978236322E+03  0.16167214967E+03  0.91630222230E+02 0.  0.
          3    1    3    3  502    0  0.21720413252E+03 -0.16243769401E+03 -0.15432311109E+03  0.31205650488E+03  0.00000000000E+00 0. -1.
         -3    1    3    3    0  502  0.78710347847E+03 -0.82237695295E+03 -0.64097280412E+03  0.13064003499E+04  0.00000000000E+00 0.  1.
         13    1    5    5    0    0 -0.38443552252E+03  0.28905769931E+03  0.78663798197E+02  0.48737359147E+03  0.00000000000E+00 0. -1.
        -13    1    5    5    0    0 -0.61073356313E+03  0.62088301072E+03  0.16095999707E+03  0.88566320844E+03  0.00000000000E+00 0.  1.
          1    1    6    6  503    0 -0.34810192951E+02  0.69235838607E+02 -0.40219778883E+02  0.87309687288E+02  0.00000000000E+00 0. -1.
         -1    1    6    6    0  503  0.25671667621E+02  0.56380983291E+01 -0.69562584339E+02  0.74362462380E+02  0.00000000000E+00 0.  1.
<mgrwt>
<rscale>  0 0.14326245E+04</rscale>
<asrwt>0</asrwt>
<pdfrwt beam="1">  1        1 0.29374002E+00 0.14326245E+04</pdfrwt>
<pdfrwt beam="2">  1       -1 0.19136241E+00 0.14326245E+04</pdfrwt>
<totfact> 0.56584829E-01</totfact>
</mgrwt>
</event>
<event>
12    1  0.1418317E-007  0.1688353E+04  0.7818608E-02  0.8768035E-01
         -1   -1    0    0    0  501 -0.00000000000E+00  0.00000000000E+00  0.11409327294E+04  0.11409327294E+04  0.00000000000E+00 0.  1.
          1   -1    0    0  501    0  0.00000000000E+00 -0.00000000000E+00 -0.29909147126E+04  0.29909147126E+04  0.00000000000E+00 0. -1.
         23    2    1    2    0    0 -0.16798330105E+04 -0.11126528367E+03 -0.16053655801E+04  0.23279932767E+04  0.90195032321E+02 0.  0.
    5000000    2    1    2    0    0  0.16798330105E+04  0.11126528367E+03 -0.24461640303E+03  0.18038541653E+04  0.59986144943E+03 0.  0.
         23    2    4    4    0    0  0.50816849038E+03  0.24304518274E+02 -0.34434419804E+03  0.62121690763E+03  0.92258307889E+02 0.  0.
         23    2    4    4    0    0  0.11716645201E+04  0.86960765400E+02  0.99727795012E+02  0.11826372577E+04  0.91243233753E+02 0.  0.
          3    1    3    3  502    0 -0.26259610655E+03 -0.21990579751E+02 -0.29768710473E+03  0.39756497971E+03  0.00000000000E+00 0. -1.
         -3    1    3    3    0  502 -0.14172369040E+04 -0.89274703923E+02 -0.13076784754E+04  0.19304282970E+04  0.00000000000E+00 0.  1.
         11    1    5    5    0    0  0.18387002762E+03 -0.35533469066E+02 -0.12386538311E+03  0.22452939142E+03  0.00000000000E+00 0. -1.
        -11    1    5    5    0    0  0.32429846276E+03  0.59837987340E+02 -0.22047881494E+03  0.39668751621E+03  0.00000000000E+00 0.  1.
          1    1    6    6  503    0  0.61551056020E+03  0.18936108723E+02  0.89288824132E+02  0.62224136800E+03  0.00000000000E+00 0. -1.
         -1    1    6    6    0  503  0.55615395992E+03  0.68024656676E+02  0.10438970880E+02  0.56039588967E+03  0.00000000000E+00 0.  1.
<mgrwt>
<rscale>  0 0.16883532E+04</rscale>
<asrwt>0</asrwt>
<pdfrwt beam="1">  1        1 0.46014072E+00 0.16883532E+04</pdfrwt>
<pdfrwt beam="2">  1       -1 0.17552811E+00 0.16883532E+04</pdfrwt>
<totfact> 0.12628840E-01</totfact>
</mgrwt>
</event>
<event>
12    1  0.1418317E-007  0.4190078E+03  0.7818608E-02  0.1037390E+00
          2   -1    0    0  501    0  0.00000000000E+00  0.00000000000E+00  0.82753927425E+03  0.82753927425E+03  0.00000000000E+00 0. -1.
         -2   -1    0    0    0  501 -0.00000000000E+00 -0.00000000000E+00 -0.30389172455E+03  0.30389172455E+03  0.00000000000E+00 0.  1.
         23    2    1    2    0    0 -0.22938389955E+03  0.20990598756E+03  0.12870042535E+03  0.34865241867E+03  0.91198753130E+02 0.  0.
    5000000    2    1    2    0    0  0.22938389955E+03 -0.20990598756E+03  0.39494712435E+03  0.78277858013E+03  0.60006797740E+03 0.  0.
         23    2    4    4    0    0  0.32821812594E+03 -0.92496196133E+02  0.39346226110E+01  0.35294592034E+03  0.90954147456E+02 0.  0.
         23    2    4    4    0    0 -0.98834226386E+02 -0.11740979143E+03  0.39101250174E+03  0.42983265979E+03  0.91170584516E+02 0.  0.
          4    1    3    3  502    0 -0.11734416716E+03  0.12531193047E+03  0.23621246127E+02  0.17329367200E+03  0.00000000000E+00 0. -1.
         -4    1    3    3    0  502 -0.11203973239E+03  0.84594057088E+02  0.10507917923E+03  0.17535874667E+03  0.00000000000E+00 0.  1.
         13    1    5    5    0    0  0.21488393656E+03 -0.26233782436E+02 -0.26745375499E+02  0.21812526824E+03  0.00000000000E+00 0. -1.
        -13    1    5    5    0    0  0.11333418937E+03 -0.66262413697E+02  0.30679998110E+02  0.13482065211E+03  0.00000000000E+00 0.  1.
          4    1    6    6  503    0  0.17585073706E+02 -0.16743668324E+02  0.62652138608E+02  0.67192824902E+02  0.00000000000E+00 0.  1.
         -4    1    6    6    0  503 -0.11641930009E+03 -0.10066612310E+03  0.32836036313E+03  0.36263983489E+03  0.00000000000E+00 0. -1.
<mgrwt>
<rscale>  0 0.41900780E+03</rscale>
<asrwt>0</asrwt>
<pdfrwt beam="1">  1        2 0.12731373E+00 0.41900780E+03</pdfrwt>
<pdfrwt beam="2">  1       -2 0.46752573E-01 0.41900780E+03</pdfrwt>
<totfact> 0.14808170E+02</totfact>
</mgrwt>
</event>
<event>
12    1  0.1418317E-007  0.1444266E+04  0.7818608E-02  0.8922386E-01
          2   -1    0    0  501    0  0.00000000000E+00  0.00000000000E+00  0.30765791540E+04  0.30765791540E+04  0.00000000000E+00 0. -1.
         -2   -1    0    0    0  501 -0.00000000000E+00 -0.00000000000E+00 -0.69570889425E+03  0.69570889425E+03  0.00000000000E+00 0.  1.
         23    2    1    2    0    0  0.10751533126E+04  0.89647935391E+03  0.11557541551E+04  0.18175181631E+04  0.89301335799E+02 0.  0.
    5000000    2    1    2    0    0 -0.10751533126E+04 -0.89647935391E+03  0.12251161046E+04  0.19547698851E+04  0.60048809835E+03 0.  0.
         23    2    4    4    0    0 -0.62136402503E+03 -0.81105713231E+03  0.99996570151E+03  0.14326322840E+04  0.92719650132E+02 0.  0.
         23    2    4    4    0    0 -0.45378928761E+03 -0.85422221595E+02  0.22515040306E+03  0.52213760107E+03  0.93345042463E+02 0.  0.
          1    1    3    3  502    0  0.72748423907E+03  0.65951210252E+03  0.80312193507E+03  0.12685402532E+04  0.00000000000E+00 0. -1.
         -1    1    3    3    0  502  0.34766907356E+03  0.23696725139E+03  0.35263222007E+03  0.54897790991E+03  0.00000000000E+00 0.  1.
         11    1    5    5    0    0 -0.45008027973E+03 -0.58905376328E+03  0.66587378249E+03  0.99646599964E+03  0.00000000000E+00 0.  1.
        -11    1    5    5    0    0 -0.17128374530E+03 -0.22200336903E+03  0.33409191902E+03  0.43616628437E+03  0.00000000000E+00 0. -1.
          1    1    6    6  503    0 -0.28306368658E+03 -0.30056802818E+02  0.18093782423E+03  0.33729357879E+03  0.00000000000E+00 0. -1.
         -1    1    6    6    0  503 -0.17072560103E+03 -0.55365418777E+02  0.44212578838E+02  0.18484402228E+03  0.00000000000E+00 0.  1.
<mgrwt>
<rscale>  0 0.14442655E+04</rscale>
<asrwt>0</asrwt>
<pdfrwt beam="1">  1        2 0.47331986E+00 0.14442655E+04</pdfrwt>
<pdfrwt beam="2">  1       -2 0.10703214E+00 0.14442655E+04</pdfrwt>
<totfact> 0.10514117E+00</totfact>
</mgrwt>
</event>
<event>
12    1  0.1418317E-007  0.2097420E+04  0.7818608E-02  0.8562381E-01
         -1   -1    0    0    0  501 -0.00000000000E+00  0.00000000000E+00  0.28421696132E+04  0.28421696132E+04  0.00000000000E+00 0.  1.
          1   -1    0    0  501    0  0.00000000000E+00 -0.00000000000E+00 -0.15642652387E+04  0.15642652387E+04  0.00000000000E+00 0. -1.
         23    2    1    2    0    0  0.12498014100E+04 -0.16432857861E+04  0.66145922044E+03  0.21698587502E+04  0.91471067223E+02 0.  0.
    5000000    2    1    2    0    0 -0.12498014100E+04  0.16432857861E+04  0.61644515404E+03  0.22365761017E+04  0.59989690081E+03 0.  0.
         23    2    4    4    0    0 -0.20794196764E+03  0.60089442836E+02  0.15817170109E+03  0.28489488727E+03  0.96416838362E+02 0.  0.
         23    2    4    4    0    0 -0.10418594424E+04  0.15831963432E+04  0.45827345295E+03  0.19516812144E+04  0.84043121110E+02 0.  0.
          3    1    3    3  502    0  0.99111043087E+03 -0.12396892013E+04  0.50412816942E+03  0.16653151093E+04  0.00000000000E+00 0. -1.
         -3    1    3    3    0  502  0.25869097914E+03 -0.40359658478E+03  0.15733105102E+03  0.50454364087E+03  0.00000000000E+00 0.  1.
         11    1    5    5    0    0 -0.70418047508E+02 -0.19268787488E+02  0.23501004105E+02  0.76696054527E+02  0.00000000000E+00 0.  1.
        -11    1    5    5    0    0 -0.13752392014E+03  0.79358230324E+02  0.13467069698E+03  0.20819883274E+03  0.00000000000E+00 0. -1.
          1    1    6    6  503    0 -0.38204475520E+03  0.64149343335E+03  0.20487474878E+03  0.77423877628E+03  0.00000000000E+00 0. -1.
         -1    1    6    6    0  503 -0.65981468717E+03  0.94170290989E+03  0.25339870418E+03  0.11774424382E+04  0.00000000000E+00 0.  1.
<mgrwt>
<rscale>  0 0.20974202E+04</rscale>
<asrwt>0</asrwt>
<pdfrwt beam="1">  1        1 0.24065619E+00 0.20974202E+04</pdfrwt>
<pdfrwt beam="2">  1       -1 0.43725686E+00 0.20974202E+04</pdfrwt>
<totfact> 0.20648819E-02</totfact>
</mgrwt>
</event>
<event>
12    1  0.1418317E-007  0.3083642E+03  0.7818608E-02  0.1081133E+00
          3   -1    0    0  501    0  0.00000000000E+00  0.00000000000E+00  0.15953320618E+04  0.15953320618E+04  0.00000000000E+00 0. -1.
         -3   -1    0    0    0  501 -0.00000000000E+00 -0.00000000000E+00 -0.14476357058E+03  0.14476357058E+03  0.00000000000E+00 0.  1.
         23    2    1    2    0    0  0.26014370103E+03  0.15695432996E+02  0.64833599077E+03  0.70498550160E+03  0.93508869853E+02 0.  0.
    5000000    2    1    2    0    0 -0.26014370103E+03 -0.15695432996E+02  0.80223250047E+03  0.10351101308E+04  0.59996242070E+03 0.  0.
         23    2    4    4    0    0 -0.17473413699E+03 -0.12174454913E+03  0.83640363424E+03  0.86818047872E+03  0.93875185115E+02 0.  0.
         23    2    4    4    0    0 -0.85409564046E+02  0.10604911614E+03 -0.34171133777E+02  0.16692965207E+03  0.90314083581E+02 0.  0.
          2    1    3    3  502    0  0.15263501662E+03  0.31818974576E+02  0.27478943715E+03  0.31594165634E+03  0.00000000000E+00 0. -1.
         -2    1    3    3    0  502  0.10750868441E+03 -0.16123541580E+02  0.37354655362E+03  0.38904384527E+03  0.00000000000E+00 0.  1.
         13    1    5    5    0    0 -0.47141840787E+02 -0.25291575575E+02  0.39666419293E+03  0.40025554200E+03  0.00000000000E+00 0. -1.
        -13    1    5    5    0    0 -0.12759229620E+03 -0.96452973559E+02  0.43973944131E+03  0.46792493672E+03  0.00000000000E+00 0.  1.
          2    1    6    6  503    0 -0.62484977024E+02  0.57273657000E+02 -0.63185599642E+02  0.10572163517E+03  0.00000000000E+00 0. -1.
         -2    1    6    6    0  503 -0.22924587022E+02  0.48775459137E+02  0.29014465865E+02  0.61208016906E+02  0.00000000000E+00 0.  1.
<mgrwt>
<rscale>  0 0.30836419E+03</rscale>
<asrwt>0</asrwt>
<pdfrwt beam="1">  1        3 0.24543569E+00 0.30836419E+03</pdfrwt>
<pdfrwt beam="2">  1       -3 0.22271320E-01 0.30836419E+03</pdfrwt>
<totfact> 0.39978909E+00</totfact>
</mgrwt>
</event>
<event>
12    1  0.1418317E-007  0.7787096E+03  0.7818608E-02  0.9591356E-01
          2   -1    0    0  501    0  0.00000000000E+00  0.00000000000E+00  0.13145397867E+04  0.13145397867E+04  0.00000000000E+00 0.  1.
         -2   -1    0    0    0  501 -0.00000000000E+00 -0.00000000000E+00 -0.53288934129E+03  0.53288934129E+03  0.00000000000E+00 0. -1.
         23    2    1    2    0    0 -0.34745149886E+03 -0.59003616525E+03  0.60822594918E+03  0.92063125636E+03  0.93583570007E+02 0.  0.
    5000000    2    1    2    0    0  0.34745149886E+03  0.59003616525E+03  0.17342449625E+03  0.92679787164E+03  0.60001084876E+03 0.  0.
         23    2    4    4    0    0  0.24853553567E+03 -0.17663883324E+02 -0.40119487529E+02  0.26887924826E+03  0.92760722307E+02 0.  0.
         23    2    4    4    0    0  0.98915963193E+02  0.60770004857E+03  0.21354398377E+03  0.65791862338E+03  0.90400028652E+02 0.  0.
          1    1    3    3  502    0 -0.82134297462E+02 -0.72939757985E+02  0.10138386227E+03  0.14948223521E+03  0.00000000000E+00 0.  1.
         -1    1    3    3    0  502 -0.26531720140E+03 -0.51709640726E+03  0.50684208692E+03  0.77114902116E+03  0.00000000000E+00 0. -1.
         11    1    5    5    0    0  0.91356203290E+02 -0.92497823185E+01  0.29948763536E+02  0.96583864024E+02  0.00000000000E+00 0. -1.
        -11    1    5    5    0    0  0.15717933238E+03 -0.84141010053E+01 -0.70068251065E+02  0.17229538424E+03  0.00000000000E+00 0.  1.
          4    1    6    6  503    0 -0.37103880366E+01  0.46548395093E+02  0.40442696217E+02  0.61774847166E+02  0.00000000000E+00 0. -1.
         -4    1    6    6    0  503  0.10262635123E+03  0.56115165348E+03  0.17310128756E+03  0.59614377622E+03  0.00000000000E+00 0.  1.
<mgrwt>
<rscale>  0 0.77870958E+03</rscale>
<asrwt>0</asrwt>
<pdfrwt beam="1">  1        2 0.20223689E+00 0.77870958E+03</pdfrwt>
<pdfrwt beam="2">  1       -2 0.81982976E-01 0.77870958E+03</pdfrwt>
<totfact> 0.21575282E+01</totfact>
</mgrwt>
</event>
<event>
12    1  0.1418317E-007  0.4588518E+03  0.7818608E-02  0.1025115E+00
         -2   -1    0    0    0  501 -0.00000000000E+00  0.00000000000E+00  0.69306147180E+03  0.69306147180E+03  0.00000000000E+00 0. -1.
          2   -1    0    0  501    0  0.00000000000E+00 -0.00000000000E+00 -0.53497598884E+03  0.53497598884E+03  0.00000000000E+00 0.  1.
         23    2    1    2    0    0 -0.24365170607E+03  0.35755866978E+03  0.20411354379E+03  0.48715055649E+03  0.91863865193E+02 0.  0.
    5000000    2    1    2    0    0  0.24365170607E+03 -0.35755866978E+03 -0.46028060826E+02  0.74088690414E+03  0.59965028654E+03 0.  0.
         23    2    4    4    0    0  0.77699286560E+02 -0.26360918701E+03  0.24600773674E+03  0.38003934378E+03  0.91559345074E+02 0.  0.
         23    2    4    4    0    0  0.16595241950E+03 -0.93949482767E+02 -0.29203579757E+03  0.36084756037E+03  0.92516722321E+02 0.  0.
          4    1    3    3  502    0 -0.34611060083E+02  0.24657974581E+02  0.48223616374E+02  0.64276421545E+02  0.00000000000E+00 0.  1.
         -4    1    3    3    0  502 -0.20904064598E+03  0.33290069520E+03  0.15588992742E+03  0.42287413495E+03  0.00000000000E+00 0. -1.
         11    1    5    5    0    0  0.75942298792E+02 -0.18424292520E+03  0.12475128176E+03  0.23510757226E+03  0.00000000000E+00 0. -1.
        -11    1    5    5    0    0  0.17569877681E+01 -0.79366261815E+02  0.12125645499E+03  0.14493177152E+03  0.00000000000E+00 0.  1.
          2    1    6    6  503    0  0.17057771141E+03 -0.79342093705E+02 -0.23098125593E+03  0.29789975504E+03  0.00000000000E+00 0.  1.
         -2    1    6    6    0  503 -0.46252919032E+01 -0.14607389062E+02 -0.61054541643E+02  0.62947805328E+02  0.00000000000E+00 0. -1.
<mgrwt>
<rscale>  0 0.45885176E+03</rscale>
<asrwt>0</asrwt>
<pdfrwt beam="1">  1        2 0.82303998E-01 0.45885176E+03</pdfrwt>
<pdfrwt beam="2">  1       -2 0.10662484E+00 0.45885176E+03</pdfrwt>
<totfact> 0.41880698E+01</totfact>
</mgrwt>
</event>
<event>
12    1  0.1418317E-007  0.5558785E+03  0.7818608E-02  0.1000142E+00
          2   -1    0    0  501    0  0.00000000000E+00  0.00000000000E+00  0.22932952155E+04  0.22932952155E+04  0.00000000000E+00 0.  1.
         -2   -1    0    0    0  501 -0.00000000000E+00 -0.00000000000E+00 -0.29707177607E+03  0.29707177607E+03  0.00000000000E+00 0. -1.
         23    2    1    2    0    0 -0.43417524671E+02  0.42585472107E+03  0.17636948864E+04  0.18174494731E+04  0.96258038668E+02 0.  0.
    5000000    2    1    2    0    0  0.43417524671E+02 -0.42585472107E+03  0.23252855305E+03  0.77291751849E+03  0.60007885940E+03 0.  0.
         23    2    4    4    0    0 -0.22867064547E+03 -0.25311130022E+03  0.25845181923E+03  0.43757453967E+03  0.91206033300E+02 0.  0.
         23    2    4    4    0    0  0.27208817014E+03 -0.17274342086E+03 -0.25923266179E+02  0.33534297882E+03  0.88941755849E+02 0.  0.
          3    1    3    3  502    0 -0.17745890755E+02  0.70234339496E+02  0.17825383535E+03  0.19241156125E+03  0.00000000000E+00 0. -1.
         -3    1    3    3    0  502 -0.25671633916E+02  0.35562038158E+03  0.15854410510E+04  0.16250379118E+04  0.00000000000E+00 0.  1.
         13    1    5    5    0    0 -0.21510559775E+03 -0.19070055702E+03  0.19377799842E+03  0.34668001573E+03  0.00000000000E+00 0. -1.
        -13    1    5    5    0    0 -0.13565047722E+02 -0.62410743194E+02  0.64673820807E+02  0.90894523947E+02  0.00000000000E+00 0.  1.
          3    1    6    6  503    0  0.15673031888E+03 -0.53717518873E+02 -0.35012125806E+02  0.16933934465E+03  0.00000000000E+00 0. -1.
         -3    1    6    6    0  503  0.11535785126E+03 -0.11902590198E+03  0.90888596265E+01  0.16600363417E+03  0.00000000000E+00 0.  1.
<mgrwt>
<rscale>  0 0.55587846E+03</rscale>
<asrwt>0</asrwt>
<pdfrwt beam="1">  1        2 0.35281464E+00 0.55587846E+03</pdfrwt>
<pdfrwt beam="2">  1       -2 0.45703352E-01 0.55587846E+03</pdfrwt>
<totfact> 0.22323338E+01</totfact>
</mgrwt>
</event>
<event>
12    1  0.1418317E-007  0.1242190E+04  0.7818608E-02  0.9076709E-01
          2   -1    0    0  501    0  0.00000000000E+00  0.00000000000E+00  0.13488047720E+04  0.13488047720E+04  0.00000000000E+00 0. -1.
         -2   -1    0    0    0  501 -0.00000000000E+00 -0.00000000000E+00 -0.13466882895E+04  0.13466882895E+04  0.00000000000E+00 0.  1.
         23    2    1    2    0    0  0.59995269926E+03  0.10256379664E+04  0.47532117066E+03  0.12829700235E+04  0.90583587903E+02 0.  0.
    5000000    2    1    2    0    0 -0.59995269926E+03 -0.10256379664E+04 -0.47320468815E+03  0.14125230380E+04  0.59951828720E+03 0.  0.
         23    2    4    4    0    0 -0.52223002201E+02  0.32577508386E+02 -0.13578742845E+03  0.17084867984E+03  0.83441654266E+02 0.  0.
         23    2    4    4    0    0 -0.54772969706E+03 -0.10582154748E+04 -0.33741725970E+03  0.12416743582E+04  0.89872090244E+02 0.  0.
          2    1    3    3  502    0  0.22596876758E+03  0.47303218573E+03  0.19816686804E+03  0.56043861417E+03  0.00000000000E+00 0. -1.
         -2    1    3    3    0  502  0.37398393167E+03  0.55260578065E+03  0.27715430262E+03  0.72253140929E+03  0.00000000000E+00 0.  1.
         11    1    5    5    0    0 -0.60651490685E+01 -0.24940843488E+02 -0.16209790120E+02  0.30357684412E+02  0.00000000000E+00 0.  1.
        -11    1    5    5    0    0 -0.46157853133E+02  0.57518351874E+02 -0.11957763833E+03  0.14049099543E+03  0.00000000000E+00 0. -1.
          2    1    6    6  503    0 -0.49181069680E+03 -0.89923425939E+03 -0.26791495845E+03  0.10593764391E+04  0.00000000000E+00 0. -1.
         -2    1    6    6    0  503 -0.55919000257E+02 -0.15898121537E+03 -0.69502301257E+02  0.18229791911E+03  0.00000000000E+00 0.  1.
<mgrwt>
<rscale>  0 0.12421897E+04</rscale>
<asrwt>0</asrwt>
<pdfrwt beam="1">  1        2 0.20750843E+00 0.12421897E+04</pdfrwt>
<pdfrwt beam="2">  1       -2 0.20718281E+00 0.12421897E+04</pdfrwt>
<totfact> 0.17865849E+00</totfact>
</mgrwt>
</event>
<event>
12    1  0.1418317E-007  0.7251295E+03  0.7818608E-02  0.9675197E-01
         -2   -1    0    0    0  501 -0.00000000000E+00  0.00000000000E+00  0.44392180189E+03  0.44392180189E+03  0.00000000000E+00 0.  1.
          2   -1    0    0  501    0  0.00000000000E+00 -0.00000000000E+00 -0.21329781286E+04  0.21329781286E+04  0.00000000000E+00 0. -1.
         23    2    1    2    0    0 -0.57074151024E+03 -0.21823391359E+03 -0.16010657179E+04  0.17159009852E+04  0.86791966217E+02 0.  0.
    5000000    2    1    2    0    0  0.57074151024E+03  0.21823391359E+03 -0.87990608767E+02  0.86099894526E+03  0.60017074567E+03 0.  0.
         23    2    4    4    0    0  0.22677727205E+03 -0.18476973116E+03  0.38391072372E+02  0.30879275716E+03  0.91166374088E+02 0.  0.
         23    2    4    4    0    0  0.34396423818E+03  0.40300364475E+03 -0.12638168114E+03  0.55220618810E+03  0.90752465620E+02 0.  0.
          4    1    3    3  502    0 -0.33025551014E+02 -0.56454752139E+01 -0.15375233629E+03  0.15736053928E+03  0.00000000000E+00 0.  1.
         -4    1    3    3    0  502 -0.53771595922E+03 -0.21258843837E+03 -0.14473133816E+04  0.15585404459E+04  0.00000000000E+00 0. -1.
         13    1    5    5    0    0  0.18872674045E+03 -0.10701169692E+03  0.81968610322E+01  0.21710936039E+03  0.00000000000E+00 0. -1.
        -13    1    5    5    0    0  0.38050531599E+02 -0.77758034246E+02  0.30194211339E+02  0.91683396770E+02  0.00000000000E+00 0.  1.
          2    1    6    6  503    0  0.31372859283E+03  0.32671811828E+03 -0.12596445310E+03  0.47014614985E+03  0.00000000000E+00 0. -1.
         -2    1    6    6    0  503  0.30235645352E+02  0.76285526466E+02 -0.41722804040E+00  0.82060038248E+02  0.00000000000E+00 0.  1.
<mgrwt>
<rscale>  0 0.72512952E+03</rscale>
<asrwt>0</asrwt>
<pdfrwt beam="1">  1        2 0.32815049E+00 0.72512952E+03</pdfrwt>
<pdfrwt beam="2">  1       -2 0.68295661E-01 0.72512952E+03</pdfrwt>
<totfact> 0.11515387E+01</totfact>
</mgrwt>
</event>
<event>
12    1  0.1418317E-007  0.9806776E+03  0.7818608E-02  0.9329995E-01
         -2   -1    0    0    0  501 -0.00000000000E+00  0.00000000000E+00  0.17881966556E+04  0.17881966556E+04  0.00000000000E+00 0.  1.
          2   -1    0    0  501    0  0.00000000000E+00 -0.00000000000E+00 -0.70899097193E+03  0.70899097193E+03  0.00000000000E+00 0. -1.
         23    2    1    2    0    0 -0.91263093979E+03  0.50685490230E+02  0.10618403226E+04  0.14037641479E+04  0.87089959672E+02 0.  0.
    5000000    2    1    2    0    0  0.91263093979E+03 -0.50685490230E+02  0.17365361107E+02  0.10934234797E+04  0.59984089465E+03 0.  0.
         23    2    4    4    0    0  0.62916512517E+03 -0.26552836458E+03 -0.12355347700E+03  0.69993594031E+03  0.91053784802E+02 0.  0.
         23    2    4    4    0    0  0.28346581462E+03  0.21484287435E+03  0.14091883811E+03  0.39348753934E+03  0.91999978088E+02 0.  0.
          1    1    3    3  502    0 -0.43229528406E+03 -0.45725483941E+01  0.45125226455E+03  0.62492297692E+03  0.00000000000E+00 0. -1.
         -1    1    3    3    0  502 -0.48033565573E+03  0.55258038624E+02  0.61058805804E+03  0.77884117099E+03  0.00000000000E+00 0.  1.
         13    1    5    5    0    0  0.30205044128E+03 -0.11970422342E+03 -0.10444471596E+03  0.34128033766E+03  0.00000000000E+00 0. -1.
        -13    1    5    5    0    0  0.32711468389E+03 -0.14582414116E+03 -0.19108761047E+02  0.35865560265E+03  0.00000000000E+00 0.  1.
          3    1    6    6  503    0  0.23607347527E+03  0.14172962867E+03  0.78548702053E+02  0.28633524401E+03  0.00000000000E+00 0. -1.
         -3    1    6    6    0  503  0.47392339344E+02  0.73113245681E+02  0.62370136056E+02  0.10715229533E+03  0.00000000000E+00 0.  1.
<mgrwt>
<rscale>  0 0.98067756E+03</rscale>
<asrwt>0</asrwt>
<pdfrwt beam="1">  1        2 0.10907554E+00 0.98067756E+03</pdfrwt>
<pdfrwt beam="2">  1       -2 0.27510718E+00 0.98067756E+03</pdfrwt>
<totfact> 0.18254228E+00</totfact>
</mgrwt>
</event>
<event>
12    1  0.1418317E-007  0.4353306E+03  0.7818608E-02  0.1032189E+00
          2   -1    0    0  501    0  0.00000000000E+00  0.00000000000E+00  0.40056110561E+03  0.40056110561E+03  0.00000000000E+00 0. -1.
         -2   -1    0    0    0  501 -0.00000000000E+00 -0.00000000000E+00 -0.66121101199E+03  0.66121101199E+03  0.00000000000E+00 0.  1.
         23    2    1    2    0    0  0.19383762040E+03 -0.13083019358E+03  0.15513079240E+03  0.29526048142E+03  0.91780316530E+02 0.  0.
    5000000    2    1    2    0    0 -0.19383762040E+03  0.13083019358E+03 -0.41578069878E+03  0.76651163617E+03  0.59998077992E+03 0.  0.
         23    2    4    4    0    0 -0.14976203608E+03 -0.21719204559E+03 -0.22365902178E+03  0.35622449461E+03  0.85272975921E+02 0.  0.
         23    2    4    4    0    0 -0.44075584319E+02  0.34802223917E+03 -0.19212167700E+03  0.41028714156E+03  0.91447600665E+02 0.  0.
          3    1    3    3  502    0  0.59951454237E+02 -0.10088556167E+02  0.56381972812E+01  0.61055262667E+02  0.00000000000E+00 0. -1.
         -3    1    3    3    0  502  0.13388616616E+03 -0.12074163742E+03  0.14949259512E+03  0.23420521876E+03  0.00000000000E+00 0.  1.
         11    1    5    5    0    0 -0.24799806942E+02 -0.10954081446E+03 -0.91975221342E+02  0.14516770232E+03  0.00000000000E+00 0. -1.
        -11    1    5    5    0    0 -0.12496222914E+03 -0.10765123113E+03 -0.13168380043E+03  0.21105679229E+03  0.00000000000E+00 0.  1.
          3    1    6    6  503    0 -0.31624615466E+02  0.12432318741E+03 -0.24800706567E+02  0.13065774481E+03  0.00000000000E+00 0. -1.
         -3    1    6    6    0  503 -0.12450968853E+02  0.22369905176E+03 -0.16732097044E+03  0.27962939676E+03  0.00000000000E+00 0.  1.
<mgrwt>
<rscale>  0 0.43533065E+03</rscale>
<asrwt>0</asrwt>
<pdfrwt beam="1">  1        2 0.61624786E-01 0.43533065E+03</pdfrwt>
<pdfrwt beam="2">  1       -2 0.10172477E+00 0.43533065E+03</pdfrwt>
<totfact> 0.65136818E+01</totfact>
</mgrwt>
</event>
<event>
12    1  0.1418317E-007  0.1283869E+04  0.7818608E-02  0.9042456E-01
          1   -1    0    0  501    0  0.00000000000E+00  0.00000000000E+00  0.27734085202E+04  0.27734085202E+04  0.00000000000E+00 0. -1.
         -1   -1    0    0    0  501 -0.00000000000E+00 -0.00000000000E+00 -0.66018527700E+03  0.66018527700E+03  0.00000000000E+00 0.  1.
         23    2    1    2    0    0 -0.99738903557E+03 -0.79617447713E+03  0.81622788810E+03  0.15176362283E+04  0.91176038253E+02 0.  0.
    5000000    2    1    2    0    0  0.99738903557E+03  0.79617447713E+03  0.12969953551E+04  0.19159575689E+04  0.60001480666E+03 0.  0.
         23    2    4    4    0    0  0.54951727223E+03  0.38364103650E+03  0.10569910938E+04  0.12549505565E+04  0.92309531027E+02 0.  0.
         23    2    4    4    0    0  0.44787176334E+03  0.41253344062E+03  0.24000426135E+03  0.66100701240E+03  0.92494696842E+02 0.  0.
          3    1    3    3  502    0 -0.70282101510E+03 -0.55504626672E+03  0.62112934141E+03  0.10898786154E+04  0.00000000000E+00 0. -1.
         -3    1    3    3    0  502 -0.29456802047E+03 -0.24112821040E+03  0.19509854668E+03  0.42775761297E+03  0.00000000000E+00 0.  1.
         13    1    5    5    0    0  0.25294220603E+03  0.12123642265E+03  0.43334434356E+03  0.51620281853E+03  0.00000000000E+00 0. -1.
        -13    1    5    5    0    0  0.29657506620E+03  0.26240461386E+03  0.62364675020E+03  0.73874773793E+03  0.00000000000E+00 0.  1.
          3    1    6    6  503    0  0.15129663657E+03  0.86556529593E+02  0.52171832686E+02  0.18194670972E+03  0.00000000000E+00 0. -1.
         -3    1    6    6    0  503  0.29657512677E+03  0.32597691103E+03  0.18783242866E+03  0.47906030268E+03  0.00000000000E+00 0.  1.
<mgrwt>
<rscale>  0 0.12838690E+04</rscale>
<asrwt>0</asrwt>
<pdfrwt beam="1">  1        1 0.42667823E+00 0.12838690E+04</pdfrwt>
<pdfrwt beam="2">  1       -1 0.10156697E+00 0.12838690E+04</pdfrwt>
<totfact> 0.78623693E-01</totfact>
</mgrwt>
</event>
<event>
12    1  0.1418317E-007  0.5110498E+03  0.7818608E-02  0.1010934E+00
          2   -1    0    0  501    0  0.00000000000E+00  0.00000000000E+00  0.10360143811E+04  0.10360143811E+04  0.00000000000E+00 0. -1.
         -2   -1    0    0    0  501 -0.00000000000E+00 -0.00000000000E+00 -0.39212613440E+03  0.39212613440E+03  0.00000000000E+00 0.  1.
         23    2    1    2    0    0 -0.41484052916E+03 -0.20408120267E+03  0.67326340723E+02  0.47621580330E+03  0.92232604002E+02 0.  0.
    5000000    2    1    2    0    0  0.41484052916E+03  0.20408120267E+03  0.57656190602E+03  0.95192471225E+03  0.59999602032E+03 0.  0.
         23    2    4    4    0    0  0.18950222610E+03 -0.41005272308E+02  0.56616134565E+03  0.60607659257E+03  0.95904330989E+02 0.  0.
         23    2    4    4    0    0  0.22533830305E+03  0.24508647498E+03  0.10400560369E+02  0.34584811968E+03  0.93048477608E+02 0.  0.
          1    1    3    3  502    0 -0.36216094834E+03 -0.14211262456E+03  0.43538050423E+02  0.39147428063E+03  0.00000000000E+00 0. -1.
         -1    1    3    3    0  502 -0.52679580818E+02 -0.61968578116E+02  0.23788290300E+02  0.84741522669E+02  0.00000000000E+00 0.  1.
         11    1    5    5    0    0  0.13352524731E+03  0.16818079773E+02  0.38497581036E+03  0.40782130160E+03  0.00000000000E+00 0.  1.
        -11    1    5    5    0    0  0.55976978789E+02 -0.57823352080E+02  0.18118553529E+03  0.19825529097E+03  0.00000000000E+00 0. -1.
          3    1    6    6  503    0  0.18690202300E+03  0.17160705800E+03  0.41843720162E+02  0.25716190518E+03  0.00000000000E+00 0. -1.
         -3    1    6    6    0  503  0.38436280051E+02  0.73479416980E+02 -0.31443159793E+02  0.88686214496E+02  0.00000000000E+00 0.  1.
<mgrwt>
<rscale>  0 0.51104977E+03</rscale>
<asrwt>0</asrwt>
<pdfrwt beam="1">  1        2 0.15938683E+00 0.51104977E+03</pdfrwt>
<pdfrwt beam="2">  1       -2 0.60327098E-01 0.51104977E+03</pdfrwt>
<totfact> 0.63621717E+01</totfact>
</mgrwt>
</event>
<event>
12    1  0.1418317E-007  0.6396621E+03  0.7818608E-02  0.9826373E-01
          2   -1    0    0  501    0  0.00000000000E+00  0.00000000000E+00  0.17640171086E+04  0.17640171086E+04  0.00000000000E+00 0. -1.
         -2   -1    0    0    0  501 -0.00000000000E+00 -0.00000000000E+00 -0.34612227431E+03  0.34612227431E+03  0.00000000000E+00 0.  1.
         23    2    1    2    0    0 -0.61433048287E+03 -0.73592898252E+02  0.28558739835E+03  0.68778594304E+03  0.93120805925E+02 0.  0.
    5000000    2    1    2    0    0  0.61433048287E+03  0.73592898252E+02  0.11323074359E+04  0.14223534398E+04  0.59845745172E+03 0.  0.
         23    2    4    4    0    0  0.49386900809E+03  0.13327745874E+03  0.11453242609E+04  0.12575919605E+04  0.90002212841E+02 0.  0.
         23    2    4    4    0    0  0.12046147478E+03 -0.59684560493E+02 -0.13016825019E+02  0.16476147931E+03  0.94359385673E+02 0.  0.
          3    1    3    3  502    0 -0.19713232641E+03 -0.15145658365E+02  0.45423033111E+02  0.20286398651E+03  0.00000000000E+00 0. -1.
         -3    1    3    3    0  502 -0.41719815646E+03 -0.58447239888E+02  0.24016436524E+03  0.48492195653E+03  0.00000000000E+00 0.  1.
         13    1    5    5    0    0  0.22304814439E+03  0.43078805435E+02  0.60985373540E+03  0.65079016340E+03  0.00000000000E+00 0.  1.
        -13    1    5    5    0    0  0.27082086370E+03  0.90198653310E+02  0.53547052554E+03  0.60680179712E+03  0.00000000000E+00 0. -1.
          2    1    6    6  503    0  0.12593391679E+03 -0.63512781820E+02  0.94143562395E+01  0.14135718926E+03  0.00000000000E+00 0. -1.
         -2    1    6    6    0  503 -0.54724420114E+01  0.38282213272E+01 -0.22431181259E+02  0.23404290050E+02  0.00000000000E+00 0.  1.
<mgrwt>
<rscale>  0 0.63966209E+03</rscale>
<asrwt>0</asrwt>
<pdfrwt beam="1">  1        2 0.27138724E+00 0.63966209E+03</pdfrwt>
<pdfrwt beam="2">  1       -2 0.53249582E-01 0.63966209E+03</pdfrwt>
<totfact> 0.31332990E+01</totfact>
</mgrwt>
</event>
<event>
12    1  0.1418317E-007  0.7705043E+03  0.7818608E-02  0.9603720E-01
         -1   -1    0    0    0  501 -0.00000000000E+00  0.00000000000E+00  0.21756103210E+04  0.21756103210E+04  0.00000000000E+00 0.  1.
          1   -1    0    0  501    0  0.00000000000E+00 -0.00000000000E+00 -0.33774319662E+03  0.33774319662E+03  0.00000000000E+00 0. -1.
         23    2    1    2    0    0 -0.72444174759E+03  0.12399421798E+03  0.10216320520E+04  0.12618366833E+04  0.91155656771E+02 0.  0.
    5000000    2    1    2    0    0  0.72444174759E+03 -0.12399421798E+03  0.81623507233E+03  0.12515168343E+04  0.59988689067E+03 0.  0.
         23    2    4    4    0    0  0.45174318721E+03  0.87537860172E+02  0.14404098816E+03  0.49076588435E+03  0.91479849264E+02 0.  0.
         23    2    4    4    0    0  0.27269856038E+03 -0.21153207815E+03  0.67219408417E+03  0.76075094999E+03  0.88242825167E+02 0.  0.
          1    1    3    3  502    0 -0.56235998897E+03  0.92020333544E+02  0.72315762224E+03  0.92069182986E+03  0.00000000000E+00 0. -1.
         -1    1    3    3    0  502 -0.16208175862E+03  0.31973884434E+02  0.29847442979E+03  0.34114485340E+03  0.00000000000E+00 0.  1.
         11    1    5    5    0    0  0.38242750058E+03  0.82798304562E+02  0.15414865104E+03  0.42055696292E+03  0.00000000000E+00 0. -1.
        -11    1    5    5    0    0  0.69315686627E+02  0.47395556104E+01 -0.10107662887E+02  0.70208921434E+02  0.00000000000E+00 0.  1.
          3    1    6    6  503    0  0.14817572687E+03 -0.11946520882E+03  0.27508595122E+03  0.33451496635E+03  0.00000000000E+00 0. -1.
         -3    1    6    6    0  503  0.12452283351E+03 -0.92066869332E+02  0.39710813295E+03  0.42623598364E+03  0.00000000000E+00 0.  1.
<mgrwt>
<rscale>  0 0.77050427E+03</rscale>
<asrwt>0</asrwt>
<pdfrwt beam="1">  1        1 0.51960493E-01 0.77050427E+03</pdfrwt>
<pdfrwt beam="2">  1       -1 0.33470927E+00 0.77050427E+03</pdfrwt>
<totfact> 0.15506587E+00</totfact>
</mgrwt>
</event>
<event>
12    1  0.1418317E-007  0.3678478E+03  0.7818608E-02  0.1055519E+00
          2   -1    0    0  501    0  0.00000000000E+00  0.00000000000E+00  0.79842278816E+03  0.79842278816E+03  0.00000000000E+00 0. -1.
         -2   -1    0    0    0  501 -0.00000000000E+00 -0.00000000000E+00 -0.27369539902E+03  0.27369539902E+03  0.00000000000E+00 0.  1.
         23    2    1    2    0    0  0.26087543693E+03 -0.22663957386E+02  0.18943170942E+03  0.33662037299E+03  0.94123612432E+02 0.  0.
    5000000    2    1    2    0    0 -0.26087543693E+03  0.22663957386E+02  0.33529567971E+03  0.73549781420E+03  0.59997016034E+03 0.  0.
         23    2    4    4    0    0  0.80864770214E+02  0.31331317377E+02 -0.11042330142E+03  0.16713574402E+03  0.90665809005E+02 0.  0.
         23    2    4    4    0    0 -0.34174020714E+03 -0.86673599909E+01  0.44571898113E+03  0.56836207018E+03  0.86651834176E+02 0.  0.
          2    1    3    3  502    0  0.13791371089E+03 -0.35996320855E+02  0.14972435620E+03  0.20672036573E+03  0.00000000000E+00 0. -1.
         -2    1    3    3    0  502  0.12296172604E+03  0.13332363469E+02  0.39707353220E+02  0.12990000726E+03  0.00000000000E+00 0.  1.
         13    1    5    5    0    0 -0.99493717761E+01  0.30598488472E+02 -0.15324295622E+02  0.35638343562E+02  0.00000000000E+00 0. -1.
        -13    1    5    5    0    0  0.90814141990E+02  0.73282890468E+00 -0.95099005798E+02  0.13149740046E+03  0.00000000000E+00 0.  1.
          4    1    6    6  503    0 -0.54678957261E+02  0.19488228830E+02  0.39731414835E+02  0.70343192669E+02  0.00000000000E+00 0. -1.
         -4    1    6    6    0  503 -0.28706124988E+03 -0.28155588820E+02  0.40598756630E+03  0.49801887751E+03  0.00000000000E+00 0.  1.
<mgrwt>
<rscale>  0 0.36784784E+03</rscale>
<asrwt>0</asrwt>
<pdfrwt beam="1">  1        2 0.12283427E+00 0.36784784E+03</pdfrwt>
<pdfrwt beam="2">  1       -2 0.42106985E-01 0.36784784E+03</pdfrwt>
<totfact> 0.19165831E+02</totfact>
</mgrwt>
</event>
<event>
12    1  0.1418317E-007  0.9366833E+03  0.7818608E-02  0.9380853E-01
         -1   -1    0    0    0  501 -0.00000000000E+00  0.00000000000E+00  0.11168994194E+04  0.11168994194E+04  0.00000000000E+00 0.  1.
          1   -1    0    0  501    0  0.00000000000E+00 -0.00000000000E+00 -0.10246206214E+04  0.10246206214E+04  0.00000000000E+00 0. -1.
         23    2    1    2    0    0  0.48378727214E+03 -0.70704041423E+03 -0.44056030883E+03  0.96768226018E+03  0.91429201647E+02 0.  0.
    5000000    2    1    2    0    0 -0.48378727214E+03  0.70704041423E+03  0.53283910690E+03  0.11738377806E+04  0.60001779081E+03 0.  0.
         23    2    4    4    0    0 -0.45613608835E+03  0.77970422831E+03  0.39211913085E+03  0.98905333992E+03  0.92034133317E+02 0.  0.
         23    2    4    4    0    0 -0.27651183782E+02 -0.72663814073E+02  0.14071997605E+03  0.18478444068E+03  0.91096432518E+02 0.  0.
          1    1    3    3  502    0  0.25351844131E+03 -0.35341328715E+03 -0.17339258267E+03  0.46822808475E+03  0.00000000000E+00 0. -1.
         -1    1    3    3    0  502  0.23026883082E+03 -0.35362712708E+03 -0.26716772616E+03  0.49945417544E+03  0.00000000000E+00 0.  1.
         11    1    5    5    0    0 -0.12561471864E+03  0.29768735836E+03  0.12482371810E+03  0.34637809033E+03  0.00000000000E+00 0.  1.
        -11    1    5    5    0    0 -0.33052136972E+03  0.48201686995E+03  0.26729541275E+03  0.64267524959E+03  0.00000000000E+00 0. -1.
          4    1    6    6  503    0  0.65559511073E+01  0.14135875096E+02  0.58133886975E+02  0.60185980713E+02  0.00000000000E+00 0. -1.
         -4    1    6    6    0  503 -0.34207134889E+02 -0.86799689169E+02  0.82586089077E+02  0.12459845997E+03  0.00000000000E+00 0.  1.
<mgrwt>
<rscale>  0 0.93668327E+03</rscale>
<asrwt>0</asrwt>
<pdfrwt beam="1">  1        1 0.15763394E+00 0.93668327E+03</pdfrwt>
<pdfrwt beam="2">  1       -1 0.17183068E+00 0.93668327E+03</pdfrwt>
<totfact> 0.34923872E+00</totfact>
</mgrwt>
</event>
<event>
12    1  0.1418317E-007  0.6761211E+03  0.7818608E-02  0.9758963E-01
          3   -1    0    0  501    0  0.00000000000E+00  0.00000000000E+00  0.12312619830E+04  0.12312619830E+04  0.00000000000E+00 0.  1.
         -3   -1    0    0    0  501 -0.00000000000E+00 -0.00000000000E+00 -0.38491042311E+03  0.38491042311E+03  0.00000000000E+00 0. -1.
         23    2    1    2    0    0 -0.10833741904E+03 -0.54082238406E+03  0.28981174574E+03  0.62930105442E+03  0.88335279856E+02 0.  0.
    5000000    2    1    2    0    0  0.10833741904E+03  0.54082238406E+03  0.55653981414E+03  0.98687135169E+03  0.59996054253E+03 0.  0.
         23    2    4    4    0    0 -0.55404858145E+02 -0.97245508551E+02  0.84374466322E+02  0.17012366208E+03  0.96418994978E+02 0.  0.
         23    2    4    4    0    0  0.16374227718E+03  0.63806789261E+03  0.47216534782E+03  0.81674768961E+03  0.10096783587E+03 0.  0.
          4    1    3    3  502    0 -0.68572092262E+02 -0.28601897240E+03  0.20226055840E+03  0.35695702527E+03  0.00000000000E+00 0.  1.
         -4    1    3    3    0  502 -0.39765326776E+02 -0.25480341166E+03  0.87551187332E+02  0.27234402915E+03  0.00000000000E+00 0. -1.
         13    1    5    5    0    0 -0.37414886752E+02  0.15989678702E+01  0.52951708899E+02  0.64856101673E+02  0.00000000000E+00 0. -1.
        -13    1    5    5    0    0 -0.17989971393E+02 -0.98844476421E+02  0.31422757423E+02  0.10526756041E+03  0.00000000000E+00 0.  1.
          3    1    6    6  503    0  0.95704820904E+02  0.23835710122E+03  0.22797643656E+03  0.34343380158E+03  0.00000000000E+00 0. -1.
         -3    1    6    6    0  503  0.68037456278E+02  0.39971079139E+03  0.24418891126E+03  0.47331388802E+03  0.00000000000E+00 0.  1.
<mgrwt>
<rscale>  0 0.67612109E+03</rscale>
<asrwt>0</asrwt>
<pdfrwt beam="1">  1        3 0.18942492E+00 0.67612109E+03</pdfrwt>
<pdfrwt beam="2">  1       -3 0.59216989E-01 0.67612109E+03</pdfrwt>
<totfact> 0.12599306E+00</totfact>
</mgrwt>
</event>
<event>
12    1  0.1418317E-007  0.5848975E+03  0.7818608E-02  0.9937244E-01
         -2   -1    0    0    0  501 -0.00000000000E+00  0.00000000000E+00  0.35008346079E+03  0.35008346079E+03  0.00000000000E+00 0.  1.
          2   -1    0    0  501    0  0.00000000000E+00 -0.00000000000E+00 -0.15556753368E+04  0.15556753368E+04  0.00000000000E+00 0. -1.
         23    2    1    2    0    0  0.47260073177E+02  0.45042782471E+03 -0.10372614719E+04  0.11354095824E+04  0.90137777671E+02 0.  0.
    5000000    2    1    2    0    0 -0.47260073177E+02 -0.45042782471E+03 -0.16833040405E+03  0.77034921511E+03  0.59998670695E+03 0.  0.
         23    2    4    4    0    0  0.23310476198E+03 -0.26795858352E+03  0.32796198418E+02  0.36911041370E+03  0.95011969394E+02 0.  0.
         23    2    4    4    0    0 -0.28036483516E+03 -0.18246924119E+03 -0.20112660246E+03  0.40123880141E+03  0.92958059187E+02 0.  0.
          1    1    3    3  502    0 -0.11307996724E+02  0.20408492205E+03 -0.38856117590E+03  0.43904249637E+03  0.00000000000E+00 0. -1.
         -1    1    3    3    0  502  0.58568069901E+02  0.24634290266E+03 -0.64870029603E+03  0.69636708608E+03  0.00000000000E+00 0.  1.
         13    1    5    5    0    0  0.23056067729E+03 -0.21858858387E+03  0.21730605085E+02  0.31845158832E+03  0.00000000000E+00 0. -1.
        -13    1    5    5    0    0  0.25440846986E+01 -0.49369999654E+02  0.11065593333E+02  0.50658825377E+02  0.00000000000E+00 0.  1.
          3    1    6    6  503    0 -0.28638261097E+03 -0.17569510955E+03 -0.18717049428E+03  0.38459922688E+03  0.00000000000E+00 0. -1.
         -3    1    6    6    0  503  0.60177758093E+01 -0.67741316395E+01 -0.13956108184E+02  0.16639574538E+02  0.00000000000E+00 0.  1.
<mgrwt>
<rscale>  0 0.58489755E+03</rscale>
<asrwt>0</asrwt>
<pdfrwt beam="1">  1        2 0.23933467E+00 0.58489755E+03</pdfrwt>
<pdfrwt beam="2">  1       -2 0.53858993E-01 0.58489755E+03</pdfrwt>
<totfact> 0.40070892E+01</totfact>
</mgrwt>
</event>
<event>
12    1  0.1418317E-007  0.4830333E+03  0.7818608E-02  0.1018305E+00
          1   -1    0    0  501    0  0.00000000000E+00  0.00000000000E+00  0.37881487320E+03  0.37881487320E+03  0.00000000000E+00 0. -1.
         -1   -1    0    0    0  501 -0.00000000000E+00 -0.00000000000E+00 -0.66470656957E+03  0.66470656957E+03  0.00000000000E+00 0.  1.
         23    2    1    2    0    0 -0.15623671890E+03  0.27028042701E+03 -0.62901028922E+02  0.33145120404E+03  0.91880028655E+02 0.  0.
    5000000    2    1    2    0    0  0.15623671890E+03 -0.27028042701E+03 -0.22299066745E+03  0.71207023872E+03  0.59988145958E+03 0.  0.
         23    2    4    4    0    0  0.11296630886E+03  0.16066132585E+03  0.18979420356E+01  0.21647349738E+03  0.91014967589E+02 0.  0.
         23    2    4    4    0    0  0.43270410037E+02 -0.43094175286E+03 -0.22488860949E+03  0.49559674134E+03  0.86360411107E+02 0.  0.
          4    1    3    3  502    0 -0.10231361091E+03  0.12853825686E+03 -0.72332952043E+02  0.17950547180E+03  0.00000000000E+00 0.  1.
         -4    1    3    3    0  502 -0.53923107990E+02  0.14174217015E+03  0.94319231204E+01  0.15194573225E+03  0.00000000000E+00 0. -1.
         11    1    5    5    0    0  0.11780743523E+03  0.98355797540E+02 -0.53497231287E+01  0.15356130451E+03  0.00000000000E+00 0. -1.
        -11    1    5    5    0    0 -0.48411263679E+01  0.62305528305E+02  0.72476651643E+01  0.62912192874E+02  0.00000000000E+00 0.  1.
          4    1    6    6  503    0  0.29534947257E+01 -0.17852439973E+03 -0.48469588001E+02  0.18501077101E+03  0.00000000000E+00 0. -1.
         -4    1    6    6    0  503  0.40316915311E+02 -0.25241735313E+03 -0.17641902149E+03  0.31058597033E+03  0.00000000000E+00 0.  1.
<mgrwt>
<rscale>  0 0.48303331E+03</rscale>
<asrwt>0</asrwt>
<pdfrwt beam="1">  1        1 0.58279212E-01 0.48303331E+03</pdfrwt>
<pdfrwt beam="2">  1       -1 0.10226255E+00 0.48303331E+03</pdfrwt>
<totfact> 0.61054007E+01</totfact>
</mgrwt>
</event>
<event>
12    1  0.1418317E-007  0.6790836E+03  0.7818608E-02  0.9753686E-01
          2   -1    0    0  501    0  0.00000000000E+00  0.00000000000E+00  0.82778654861E+03  0.82778654861E+03  0.00000000000E+00 0. -1.
         -2   -1    0    0    0  501 -0.00000000000E+00 -0.00000000000E+00 -0.68742752301E+03  0.68742752301E+03  0.00000000000E+00 0.  1.
         23    2    1    2    0    0 -0.59519751481E+03 -0.10906861564E+03 -0.12450282458E+03  0.62282379346E+03  0.79072623682E+02 0.  0.
    5000000    2    1    2    0    0  0.59519751481E+03  0.10906861564E+03  0.26486185018E+03  0.89239027817E+03  0.60004380201E+03 0.  0.
         23    2    4    4    0    0  0.33764496923E+03 -0.15190116170E+03  0.33412735948E+03  0.50727973613E+03  0.92809213833E+02 0.  0.
         23    2    4    4    0    0  0.25755254558E+03  0.26096977734E+03 -0.69265509297E+02  0.38511054203E+03  0.95256917777E+02 0.  0.
          3    1    3    3  502    0 -0.20964585010E+03 -0.62422770307E+02 -0.14692941974E+02  0.21923473096E+03  0.00000000000E+00 0. -1.
         -3    1    3    3    0  502 -0.38555166471E+03 -0.46645845338E+02 -0.10980988261E+03  0.40358906249E+03  0.00000000000E+00 0.  1.
         11    1    5    5    0    0  0.19978673729E+03 -0.68722502338E+02  0.13303257541E+03  0.24967016010E+03  0.00000000000E+00 0.  1.
        -11    1    5    5    0    0  0.13785823194E+03 -0.83178659360E+02  0.20109478407E+03  0.25760957604E+03  0.00000000000E+00 0. -1.
          1    1    6    6  503    0  0.64693671534E+02  0.13132245465E+03 -0.23662065752E+02  0.14829279007E+03  0.00000000000E+00 0. -1.
         -1    1    6    6    0  503  0.19285887405E+03  0.12964732269E+03 -0.45603443545E+02  0.23681775196E+03  0.00000000000E+00 0.  1.
<mgrwt>
<rscale>  0 0.67908356E+03</rscale>
<asrwt>0</asrwt>
<pdfrwt beam="1">  1        2 0.12735178E+00 0.67908356E+03</pdfrwt>
<pdfrwt beam="2">  1       -2 0.10575808E+00 0.67908356E+03</pdfrwt>
<totfact> 0.24289590E+01</totfact>
</mgrwt>
</event>
<event>
12    1  0.1418317E-007  0.7187401E+03  0.7818608E-02  0.9685710E-01
          1   -1    0    0  501    0  0.00000000000E+00  0.00000000000E+00  0.22540363419E+04  0.22540363419E+04  0.00000000000E+00 0. -1.
         -1   -1    0    0    0  501 -0.00000000000E+00 -0.00000000000E+00 -0.32319461205E+03  0.32319461205E+03  0.00000000000E+00 0.  1.
         23    2    1    2    0    0 -0.67597630275E+03 -0.83880984318E+02  0.13050325634E+04  0.14748443336E+04  0.89865652677E+02 0.  0.
    5000000    2    1    2    0    0  0.67597630275E+03  0.83880984318E+02  0.62580916641E+03  0.11023866203E+04  0.59969922995E+03 0.  0.
         23    2    4    4    0    0  0.27587031437E+03 -0.10309225507E+03 -0.29153803381E+02  0.30706406544E+03  0.81889881097E+02 0.  0.
         23    2    4    4    0    0  0.40010598837E+03  0.18697323939E+03  0.65496296979E+03  0.79532255484E+03  0.92291279422E+02 0.  0.
          2    1    3    3  502    0 -0.16918957203E+03 -0.60682303185E+02  0.34333484500E+03  0.38753873226E+03  0.00000000000E+00 0.  1.
         -2    1    3    3    0  502 -0.50678673071E+03 -0.23198681133E+02  0.96169771839E+03  0.10873056014E+04  0.00000000000E+00 0. -1.
         11    1    5    5    0    0  0.19127807219E+03 -0.44471840528E+02 -0.48647775119E+02  0.20231572238E+03  0.00000000000E+00 0.  1.
        -11    1    5    5    0    0  0.84592242184E+02 -0.58620414542E+02  0.19493971739E+02  0.10474834306E+03  0.00000000000E+00 0. -1.
          3    1    6    6  503    0  0.17655532839E+03  0.32834782512E+02  0.26688007458E+03  0.32167511737E+03  0.00000000000E+00 0. -1.
         -3    1    6    6    0  503  0.22355065998E+03  0.15413845688E+03  0.38808289521E+03  0.47364743747E+03  0.00000000000E+00 0.  1.
<mgrwt>
<rscale>  0 0.71874013E+03</rscale>
<asrwt>0</asrwt>
<pdfrwt beam="1">  1        1 0.34677481E+00 0.71874013E+03</pdfrwt>
<pdfrwt beam="2">  1       -1 0.49722249E-01 0.71874013E+03</pdfrwt>
<totfact> 0.85754018E+00</totfact>
</mgrwt>
</event>
<event>
12    1  0.1418317E-007  0.1917765E+04  0.7818608E-02  0.8646064E-01
         -2   -1    0    0    0  501 -0.00000000000E+00  0.00000000000E+00  0.22046697186E+04  0.22046697186E+04  0.00000000000E+00 0.  1.
          2   -1    0    0  501    0  0.00000000000E+00 -0.00000000000E+00 -0.17762641292E+04  0.17762641292E+04  0.00000000000E+00 0. -1.
         23    2    1    2    0    0 -0.18191613214E+04 -0.58401399633E+03 -0.81400619749E+02  0.19144463681E+04  0.89769562079E+02 0.  0.
    5000000    2    1    2    0    0  0.18191613214E+04  0.58401399633E+03  0.50980620923E+03  0.20664874797E+04  0.60003989173E+03 0.  0.
         23    2    4    4    0    0  0.15415001089E+04  0.54327511038E+03  0.62013588742E+03  0.17504717621E+04  0.90622513650E+02 0.  0.
         23    2    4    4    0    0  0.27766121252E+03  0.40738885941E+02 -0.11032967819E+03  0.31601571756E+03  0.94540415120E+02 0.  0.
          4    1    3    3  502    0 -0.10087049939E+03 -0.47839004146E+02  0.10273720283E+02  0.11211145032E+03  0.00000000000E+00 0. -1.
         -4    1    3    3    0  502 -0.17182908220E+04 -0.53617499218E+03 -0.91674340032E+02  0.18023349178E+04  0.00000000000E+00 0.  1.
         11    1    5    5    0    0  0.71578066754E+03  0.27144260486E+03  0.33475254294E+03  0.83551320562E+03  0.00000000000E+00 0. -1.
        -11    1    5    5    0    0  0.82571944133E+03  0.27183250552E+03  0.28538334448E+03  0.91495855652E+03  0.00000000000E+00 0.  1.
          4    1    6    6  503    0  0.43899406113E+02  0.33428222262E+02 -0.50051278602E+02  0.74496539452E+02  0.00000000000E+00 0. -1.
         -4    1    6    6    0  503  0.23376180641E+03  0.73106636793E+01 -0.60278399589E+02  0.24151917811E+03  0.00000000000E+00 0.  1.
<mgrwt>
<rscale>  0 0.19177652E+04</rscale>
<asrwt>0</asrwt>
<pdfrwt beam="1">  1        2 0.27327140E+00 0.19177652E+04</pdfrwt>
<pdfrwt beam="2">  1       -2 0.33917996E+00 0.19177652E+04</pdfrwt>
<totfact> 0.14546584E-01</totfact>
</mgrwt>
</event>
<event>
12    1  0.1418317E-007  0.9993743E+03  0.7818608E-02  0.9309231E-01
         -1   -1    0    0    0  501 -0.00000000000E+00  0.00000000000E+00  0.17971810918E+04  0.17971810918E+04  0.00000000000E+00 0.  1.
          1   -1    0    0  501    0  0.00000000000E+00 -0.00000000000E+00 -0.96928435671E+03  0.96928435671E+03  0.00000000000E+00 0. -1.
         23    2    1    2    0    0 -0.56399054797E+03  0.79976121320E+03  0.12080486015E+04  0.15572825578E+04  0.89689491969E+02 0.  0.
    5000000    2    1    2    0    0  0.56399054797E+03 -0.79976121320E+03 -0.38015186642E+03  0.12091828907E+04  0.59992039908E+03 0.  0.
         23    2    4    4    0    0  0.54662091667E+03 -0.58162721109E+03 -0.49777447588E+03  0.94516970373E+03  0.92096149696E+02 0.  0.
         23    2    4    4    0    0  0.17369631297E+02 -0.21813400211E+03  0.11762260946E+03  0.26401318695E+03  0.89351763604E+02 0.  0.
          1    1    3    3  502    0 -0.15388747004E+03  0.18807609321E+03  0.24682551501E+03  0.34637668099E+03  0.00000000000E+00 0. -1.
         -1    1    3    3    0  502 -0.41010307792E+03  0.61168511999E+03  0.96122308651E+03  0.12109058768E+04  0.00000000000E+00 0.  1.
         11    1    5    5    0    0  0.23856363250E+02 -0.33476803413E+02 -0.47380743660E+01  0.41379605882E+02  0.00000000000E+00 0. -1.
        -11    1    5    5    0    0  0.52276455342E+03 -0.54815040768E+03 -0.49303640152E+03  0.90379009785E+03  0.00000000000E+00 0.  1.
          1    1    6    6  503    0  0.23150208439E+02 -0.10855503470E+03  0.11890255836E+02  0.11163111525E+03  0.00000000000E+00 0. -1.
         -1    1    6    6    0  503 -0.57805771419E+01 -0.10957896741E+03  0.10573235363E+03  0.15238207170E+03  0.00000000000E+00 0.  1.
<mgrwt>
<rscale>  0 0.99937430E+03</rscale>
<asrwt>0</asrwt>
<pdfrwt beam="1">  1        1 0.14912067E+00 0.99937430E+03</pdfrwt>
<pdfrwt beam="2">  1       -1 0.27648940E+00 0.99937430E+03</pdfrwt>
<totfact> 0.75870801E-01</totfact>
</mgrwt>
</event>
<event>
12    1  0.1418317E-007  0.5442761E+03  0.7818608E-02  0.1002828E+00
          2   -1    0    0  501    0  0.00000000000E+00  0.00000000000E+00  0.34624850729E+03  0.34624850729E+03  0.00000000000E+00 0. -1.
         -2   -1    0    0    0  501 -0.00000000000E+00 -0.00000000000E+00 -0.17389424591E+04  0.17389424591E+04  0.00000000000E+00 0.  1.
         23    2    1    2    0    0  0.32570035792E+03  0.21365522334E+03 -0.13045689224E+04  0.13644798298E+04  0.90420434000E+02 0.  0.
    5000000    2    1    2    0    0 -0.32570035792E+03 -0.21365522334E+03 -0.88125029347E+02  0.72071113659E+03  0.59994103376E+03 0.  0.
         23    2    4    4    0    0 -0.47298612049E+03 -0.22802508456E+03 -0.73660912098E+01  0.53283597306E+03  0.90269626765E+02 0.  0.
         23    2    4    4    0    0  0.14728576257E+03  0.14369861217E+02 -0.80758938137E+02  0.18787516353E+03  0.82918527569E+02 0.  0.
          2    1    3    3  502    0  0.71028752247E+02  0.78527811822E+02 -0.46107396270E+03  0.47307599807E+03  0.00000000000E+00 0. -1.
         -2    1    3    3    0  502  0.25467160567E+03  0.13512741152E+03 -0.84349495973E+03  0.89140383170E+03  0.00000000000E+00 0.  1.
         11    1    5    5    0    0 -0.42747183097E+03 -0.19030179026E+03  0.18559821986E+02  0.46828560158E+03  0.00000000000E+00 0.  1.
        -11    1    5    5    0    0 -0.45514289522E+02 -0.37723294298E+02 -0.25925913196E+02  0.64550371482E+02  0.00000000000E+00 0. -1.
          1    1    6    6  503    0  0.12308384274E+03 -0.20610156618E+02 -0.73173602540E+02  0.14466785063E+03  0.00000000000E+00 0. -1.
         -1    1    6    6    0  503  0.24201919838E+02  0.34980017835E+02 -0.75853355968E+01  0.43207312896E+02  0.00000000000E+00 0.  1.
<mgrwt>
<rscale>  0 0.54427606E+03</rscale>
<asrwt>0</asrwt>
<pdfrwt beam="1">  1        2 0.53269002E-01 0.54427606E+03</pdfrwt>
<pdfrwt beam="2">  1       -2 0.26752960E+00 0.54427606E+03</pdfrwt>
<totfact> 0.49944070E+00</totfact>
</mgrwt>
</event>
<event>
12    1  0.1418317E-007  0.5411581E+03  0.7818608E-02  0.1003561E+00
          2   -1    0    0  501    0  0.00000000000E+00  0.00000000000E+00  0.20263639883E+04  0.20263639883E+04  0.00000000000E+00 0. -1.
         -2   -1    0    0    0  501 -0.00000000000E+00 -0.00000000000E+00 -0.50077336936E+03  0.50077336936E+03  0.00000000000E+00 0.  1.
         23    2    1    2    0    0 -0.13090634713E+03  0.44693364933E+03  0.16856235927E+04  0.17509184230E+04  0.86615639897E+02 0.  0.
    5000000    2    1    2    0    0  0.13090634713E+03 -0.44693364933E+03 -0.16003297370E+03  0.77621893473E+03  0.60001593591E+03 0.  0.
         23    2    4    4    0    0  0.93822748023E+02  0.42158306423E+02 -0.23415246478E+03  0.27135285106E+03  0.90691577159E+02 0.  0.
         23    2    4    4    0    0  0.37083599105E+02 -0.48909195575E+03  0.74119491081E+02  0.50486608367E+03  0.93861221902E+02 0.  0.
          4    1    3    3  502    0 -0.47961879401E+02  0.17807841959E+03  0.82920478429E+03  0.84946620868E+03  0.00000000000E+00 0. -1.
         -4    1    3    3    0  502 -0.82944467728E+02  0.26885522973E+03  0.85641880837E+03  0.90145221427E+03  0.00000000000E+00 0.  1.
         11    1    5    5    0    0  0.10162524187E+03  0.47792223085E+02 -0.15385848038E+03  0.19048416826E+03  0.00000000000E+00 0. -1.
        -11    1    5    5    0    0 -0.78024938428E+01 -0.56339166613E+01 -0.80293984402E+02  0.80868682803E+02  0.00000000000E+00 0.  1.
          3    1    6    6  503    0  0.43754615694E+02 -0.17309527904E+03 -0.65744613454E+01  0.17866075552E+03  0.00000000000E+00 0. -1.
         -3    1    6    6    0  503 -0.66710165891E+01 -0.31599667671E+03  0.80693952426E+02  0.32620532815E+03  0.00000000000E+00 0.  1.
<mgrwt>
<rscale>  0 0.54115809E+03</rscale>
<asrwt>0</asrwt>
<pdfrwt beam="1">  1        2 0.31174830E+00 0.54115809E+03</pdfrwt>
<pdfrwt beam="2">  1       -2 0.77042058E-01 0.54115809E+03</pdfrwt>
<totfact> 0.10451083E+01</totfact>
</mgrwt>
</event>
<event>
12    1  0.1418317E-007  0.5621111E+03  0.7818608E-02  0.9987289E-01
          2   -1    0    0  501    0  0.00000000000E+00  0.00000000000E+00  0.19942319965E+04  0.19942319965E+04  0.00000000000E+00 0. -1.
         -2   -1    0    0    0  501 -0.00000000000E+00 -0.00000000000E+00 -0.26157517966E+03  0.26157517966E+03  0.00000000000E+00 0.  1.
         23    2    1    2    0    0 -0.43744997518E+03 -0.32319393507E+03  0.34665126582E+03  0.65056815202E+03  0.85176404489E+02 0.  0.
    5000000    2    1    2    0    0  0.43744997518E+03  0.32319393507E+03  0.13860055510E+04  0.16052390241E+04  0.59997011313E+03 0.  0.
         23    2    4    4    0    0  0.23757513200E+03  0.83175637901E+02  0.12019110163E+04  0.12313336671E+04  0.90732455899E+02 0.  0.
         23    2    4    4    0    0  0.19987484319E+03  0.24001829716E+03  0.18409453466E+03  0.37390535697E+03  0.91409421636E+02 0.  0.
          1    1    3    3  502    0 -0.31455038061E+03 -0.25683541130E+03  0.29384120680E+03  0.50124746907E+03  0.00000000000E+00 0. -1.
         -1    1    3    3    0  502 -0.12289959457E+03 -0.66358523770E+02  0.52810059015E+02  0.14932068295E+03  0.00000000000E+00 0.  1.
         13    1    5    5    0    0  0.18177233768E+03  0.39143431710E+02  0.69418229348E+03  0.71865321788E+03  0.00000000000E+00 0. -1.
        -13    1    5    5    0    0  0.55802794317E+02  0.44032206192E+02  0.50772872285E+03  0.51268044925E+03  0.00000000000E+00 0.  1.
          1    1    6    6  503    0  0.18331079760E+03  0.17176701500E+03  0.16689680105E+03  0.30159790808E+03  0.00000000000E+00 0. -1.
         -1    1    6    6    0  503  0.16564045588E+02  0.68251282164E+02  0.17197733618E+02  0.72307448890E+02  0.00000000000E+00 0.  1.
<mgrwt>
<rscale>  0 0.56211106E+03</rscale>
<asrwt>0</asrwt>
<pdfrwt beam="1">  1        2 0.30680491E+00 0.56211106E+03</pdfrwt>
<pdfrwt beam="2">  1       -2 0.40242337E-01 0.56211106E+03</pdfrwt>
<totfact> 0.41664450E+01</totfact>
</mgrwt>
</event>
<event>
12    1  0.1418317E-007  0.1173395E+04  0.7818608E-02  0.9136468E-01
          1   -1    0    0  501    0  0.00000000000E+00  0.00000000000E+00  0.22222144224E+04  0.22222144224E+04  0.00000000000E+00 0. -1.
         -1   -1    0    0    0  501 -0.00000000000E+00 -0.00000000000E+00 -0.68131335210E+03  0.68131335210E+03  0.00000000000E+00 0.  1.
         23    2    1    2    0    0 -0.29572905173E+03  0.11095471503E+04  0.57512482570E+03  0.12875958066E+04  0.92649044154E+02 0.  0.
    5000000    2    1    2    0    0  0.29572905173E+03 -0.11095471503E+04  0.96577624457E+03  0.16159319678E+04  0.59996818191E+03 0.  0.
         23    2    4    4    0    0  0.29581885441E+02  0.48016530535E+01  0.23332402038E+03  0.25292936677E+03  0.92924820527E+02 0.  0.
         23    2    4    4    0    0  0.26614716629E+03 -0.11143488033E+04  0.73245222419E+03  0.13630026011E+04  0.93178646274E+02 0.  0.
          1    1    3    3  502    0 -0.58766558998E+02  0.37786053245E+03  0.17305252201E+03  0.41973713895E+03  0.00000000000E+00 0. -1.
         -1    1    3    3    0  502 -0.23696249274E+03  0.73168661785E+03  0.40207230369E+03  0.86785866770E+03  0.00000000000E+00 0.  1.
         11    1    5    5    0    0  0.12867134678E+02  0.19944414305E+02  0.59896693459E+01  0.24478949236E+02  0.00000000000E+00 0. -1.
        -11    1    5    5    0    0  0.16714750762E+02 -0.15142761252E+02  0.22733435103E+03  0.22845041753E+03  0.00000000000E+00 0.  1.
          1    1    6    6  503    0  0.10995249389E+03 -0.64598240365E+03  0.43709382412E+03  0.78767622018E+03  0.00000000000E+00 0. -1.
         -1    1    6    6    0  503  0.15619467240E+03 -0.46836639969E+03  0.29535840007E+03  0.57532638088E+03  0.00000000000E+00 0.  1.
<mgrwt>
<rscale>  0 0.11733953E+04</rscale>
<asrwt>0</asrwt>
<pdfrwt beam="1">  1        1 0.34187914E+00 0.11733953E+04</pdfrwt>
<pdfrwt beam="2">  1       -1 0.10481744E+00 0.11733953E+04</pdfrwt>
<totfact> 0.17814628E+00</totfact>
</mgrwt>
</event>
<event>
12    1  0.1418317E-007  0.1131648E+04  0.7818608E-02  0.9174883E-01
          1   -1    0    0  501    0  0.00000000000E+00  0.00000000000E+00  0.15906985313E+04  0.15906985313E+04  0.00000000000E+00 0. -1.
         -1   -1    0    0    0  501 -0.00000000000E+00 -0.00000000000E+00 -0.13019039270E+04  0.13019039270E+04  0.00000000000E+00 0.  1.
         23    2    1    2    0    0 -0.16908139948E+03 -0.11074711524E+04  0.93921003155E+03  0.14650096365E+04  0.95167633677E+02 0.  0.
    5000000    2    1    2    0    0  0.16908139948E+03  0.11074711524E+04 -0.65041542724E+03  0.14275928219E+04  0.59991679762E+03 0.  0.
         23    2    4    4    0    0  0.13028646518E+03  0.93619023601E+03 -0.25096350406E+03  0.98215553858E+03  0.90664770342E+02 0.  0.
         23    2    4    4    0    0  0.38794934303E+02  0.17128091642E+03 -0.39945192318E+03  0.44543728333E+03  0.89500475946E+02 0.  0.
          2    1    3    3  502    0 -0.49632421105E+02 -0.60942662924E+03  0.48482437142E+03  0.78033253474E+03  0.00000000000E+00 0. -1.
         -2    1    3    3    0  502 -0.11944897838E+03 -0.49804452319E+03  0.45438566013E+03  0.68467710174E+03  0.00000000000E+00 0.  1.
         13    1    5    5    0    0  0.55824894602E+02  0.17691387777E+03 -0.30343918252E+02  0.18797790397E+03  0.00000000000E+00 0. -1.
        -13    1    5    5    0    0  0.74461570575E+02  0.75927635824E+03 -0.22061958581E+03  0.79417763461E+03  0.00000000000E+00 0.  1.
          1    1    6    6  503    0  0.17465937691E+02 -0.11536551657E+01 -0.13257451429E+02  0.21957912425E+02  0.00000000000E+00 0. -1.
         -1    1    6    6    0  503  0.21328996611E+02  0.17243457158E+03 -0.38619447175E+03  0.42347937091E+03  0.00000000000E+00 0.  1.
<mgrwt>
<rscale>  0 0.11316484E+04</rscale>
<asrwt>0</asrwt>
<pdfrwt beam="1">  1        1 0.24472285E+00 0.11316484E+04</pdfrwt>
<pdfrwt beam="2">  1       -1 0.20029291E+00 0.11316484E+04</pdfrwt>
<totfact> 0.83894111E-01</totfact>
</mgrwt>
</event>
<event>
12    1  0.1418317E-007  0.1059388E+04  0.7818608E-02  0.9245705E-01
          2   -1    0    0  501    0  0.00000000000E+00  0.00000000000E+00  0.95368578299E+03  0.95368578299E+03  0.00000000000E+00 0. -1.
         -2   -1    0    0    0  501 -0.00000000000E+00 -0.00000000000E+00 -0.13893293216E+04  0.13893293216E+04  0.00000000000E+00 0.  1.
         23    2    1    2    0    0 -0.40028999082E+03 -0.90493649557E+03 -0.62040868248E+03  0.11714484793E+04  0.90788042690E+02 0.  0.
    5000000    2    1    2    0    0  0.40028999082E+03  0.90493649557E+03  0.18476514387E+03  0.11715666252E+04  0.59940642408E+03 0.  0.
         23    2    4    4    0    0  0.76563499101E+02 -0.60406888597E+02  0.49828399340E+02  0.14058614889E+03  0.88151201321E+02 0.  0.
         23    2    4    4    0    0  0.32372649171E+03  0.96534338417E+03  0.13493674453E+03  0.10309804764E+04  0.89588653312E+02 0.  0.
          3    1    3    3  502    0 -0.14527073774E+02 -0.89240220433E+02 -0.42286610594E+02  0.99814879907E+02  0.00000000000E+00 0. -1.
         -3    1    3    3    0  502 -0.38576291704E+03 -0.81569627514E+03 -0.57812207189E+03  0.10716335994E+04  0.00000000000E+00 0.  1.
         13    1    5    5    0    0  0.12643829819E+02 -0.34585519303E+02  0.60501245763E+02  0.70826727418E+02  0.00000000000E+00 0. -1.
        -13    1    5    5    0    0  0.63919669281E+02 -0.25821369294E+02 -0.10672846423E+02  0.69759421471E+02  0.00000000000E+00 0.  1.
          2    1    6    6  503    0  0.10851867837E+03  0.23409416532E+03  0.61051186778E+02  0.26514831547E+03  0.00000000000E+00 0.  1.
         -2    1    6    6    0  503  0.21520781334E+03  0.73124921885E+03  0.73885557754E+02  0.76583216088E+03  0.00000000000E+00 0. -1.
<mgrwt>
<rscale>  0 0.10593883E+04</rscale>
<asrwt>0</asrwt>
<pdfrwt beam="1">  1        2 0.14672089E+00 0.10593883E+04</pdfrwt>
<pdfrwt beam="2">  1       -2 0.21374297E+00 0.10593883E+04</pdfrwt>
<totfact> 0.28863844E+00</totfact>
</mgrwt>
</event>
<event>
12    1  0.1418317E-007  0.4082780E+03  0.7818608E-02  0.1040950E+00
          2   -1    0    0  501    0  0.00000000000E+00  0.00000000000E+00  0.93907115134E+03  0.93907115134E+03  0.00000000000E+00 0. -1.
         -2   -1    0    0    0  501 -0.00000000000E+00 -0.00000000000E+00 -0.22654412859E+03  0.22654412859E+03  0.00000000000E+00 0.  1.
         23    2    1    2    0    0  0.22197163626E+03  0.12471867167E+03  0.20998756889E+03  0.34257608903E+03  0.91855556855E+02 0.  0.
    5000000    2    1    2    0    0 -0.22197163626E+03 -0.12471867167E+03  0.50253945386E+03  0.82303919090E+03  0.60001787699E+03 0.  0.
         23    2    4    4    0    0  0.11763051396E+03 -0.17291824780E+03  0.28763943070E+02  0.22986861580E+03  0.90964596792E+02 0.  0.
         23    2    4    4    0    0 -0.33960215021E+03  0.48199576137E+02  0.47377551079E+03  0.59317057510E+03  0.98667507170E+02 0.  0.
          1    1    3    3  502    0  0.14429779892E+03  0.10732448430E+03  0.96884880571E+02  0.20427207295E+03  0.00000000000E+00 0. -1.
         -1    1    3    3    0  502  0.77673837340E+02  0.17394187365E+02  0.11310268831E+03  0.13830401609E+03  0.00000000000E+00 0.  1.
         11    1    5    5    0    0  0.20338109327E+02 -0.65800209503E+02 -0.28108665508E+02  0.74386849229E+02  0.00000000000E+00 0. -1.
        -11    1    5    5    0    0  0.97292404632E+02 -0.10711803830E+03  0.56872608578E+02  0.15548176657E+03  0.00000000000E+00 0.  1.
          3    1    6    6  503    0 -0.15258072953E+03  0.31336728879E+02  0.13634587998E+03  0.20700982728E+03  0.00000000000E+00 0. -1.
         -3    1    6    6    0  503 -0.18702142068E+03  0.16862847258E+02  0.33742963081E+03  0.38616074782E+03  0.00000000000E+00 0.  1.
<mgrwt>
<rscale>  0 0.40827805E+03</rscale>
<asrwt>0</asrwt>
<pdfrwt beam="1">  1        2 0.14447248E+00 0.40827805E+03</pdfrwt>
<pdfrwt beam="2">  1       -2 0.34852943E-01 0.40827805E+03</pdfrwt>
<totfact> 0.22057304E+02</totfact>
</mgrwt>
</event>
<event>
12    1  0.1418317E-007  0.7943234E+03  0.7818608E-02  0.9568270E-01
          1   -1    0    0  501    0  0.00000000000E+00  0.00000000000E+00  0.25295184250E+04  0.25295184250E+04  0.00000000000E+00 0. -1.
         -1   -1    0    0    0  501 -0.00000000000E+00 -0.00000000000E+00 -0.26969475760E+03  0.26969475760E+03  0.00000000000E+00 0.  1.
         23    2    1    2    0    0 -0.65020772215E+03 -0.21563026511E+03  0.13234294805E+04  0.14930152027E+04  0.91445681201E+02 0.  0.
    5000000    2    1    2    0    0  0.65020772215E+03  0.21563026511E+03  0.93639418689E+03  0.13061979798E+04  0.60004382848E+03 0.  0.
         23    2    4    4    0    0  0.17905021562E+03 -0.18923318959E+03  0.36512098479E+03  0.45726476874E+03  0.88935681455E+02 0.  0.
         23    2    4    4    0    0  0.47115750653E+03  0.40486345469E+03  0.57127320210E+03  0.84893321110E+03  0.91818911789E+02 0.  0.
          2    1    3    3  502    0 -0.26604046646E+03 -0.54576030902E+02  0.45595335357E+03  0.53070663608E+03  0.00000000000E+00 0. -1.
         -2    1    3    3    0  502 -0.38416725569E+03 -0.16105423420E+03  0.86747612690E+03  0.96230856665E+03  0.00000000000E+00 0.  1.
         11    1    5    5    0    0 -0.85422976127E+01 -0.91404040528E+01  0.59935145815E+01  0.13872276374E+02  0.00000000000E+00 0. -1.
        -11    1    5    5    0    0  0.18759251323E+03 -0.18009278553E+03  0.35912747021E+03  0.44339249236E+03  0.00000000000E+00 0.  1.
          3    1    6    6  503    0 -0.38382606576E+01  0.84020834182E+01  0.90703357367E+01  0.12945973931E+02  0.00000000000E+00 0. -1.
         -3    1    6    6    0  503  0.47499576719E+03  0.39646137127E+03  0.56220286636E+03  0.83598723717E+03  0.00000000000E+00 0.  1.
<mgrwt>
<rscale>  0 0.79432341E+03</rscale>
<asrwt>0</asrwt>
<pdfrwt beam="1">  1        1 0.38915666E+00 0.79432341E+03</pdfrwt>
<pdfrwt beam="2">  1       -1 0.41491503E-01 0.79432341E+03</pdfrwt>
<totfact> 0.77140973E+00</totfact>
</mgrwt>
</event>
<event>
12    1  0.1418317E-007  0.9477528E+03  0.7818608E-02  0.9367781E-01
         -1   -1    0    0    0  501 -0.00000000000E+00  0.00000000000E+00  0.10159682105E+04  0.10159682105E+04  0.00000000000E+00 0.  1.
          1   -1    0    0  501    0  0.00000000000E+00 -0.00000000000E+00 -0.97846768247E+03  0.97846768247E+03  0.00000000000E+00 0. -1.
         23    2    1    2    0    0  0.89260189468E+01  0.85776040780E+03 -0.27052947458E+03  0.90319099224E+03  0.82068147503E+02 0.  0.
    5000000    2    1    2    0    0 -0.89260189468E+01 -0.85776040780E+03  0.30803000258E+03  0.10912449007E+04  0.60008362736E+03 0.  0.
         23    2    4    4    0    0  0.18790664428E+03 -0.78313195408E+03  0.28922976617E+03  0.86034225754E+03  0.89052669903E+02 0.  0.
         23    2    4    4    0    0 -0.19683266322E+03 -0.74628453724E+02  0.18800236414E+02  0.23090264317E+03  0.93005797212E+02 0.  0.
          3    1    3    3  502    0  0.22983849789E+02  0.30076986484E+03 -0.59882798142E+02  0.30753328025E+03  0.00000000000E+00 0. -1.
         -3    1    3    3    0  502 -0.14057830842E+02  0.55699054296E+03 -0.21064667644E+03  0.59565771199E+03  0.00000000000E+00 0.  1.
         13    1    5    5    0    0  0.11172255734E+03 -0.28517899287E+03  0.11951006481E+03  0.32877293591E+03  0.00000000000E+00 0.  1.
        -13    1    5    5    0    0  0.76184086937E+02 -0.49795296121E+03  0.16971970135E+03  0.53156932164E+03  0.00000000000E+00 0. -1.
          3    1    6    6  503    0 -0.15333669254E+03 -0.93120287823E+02 -0.16480792828E+01  0.17940525479E+03  0.00000000000E+00 0. -1.
         -3    1    6    6    0  503 -0.43495970689E+02  0.18491834099E+02  0.20448315697E+02  0.51497388374E+02  0.00000000000E+00 0.  1.
<mgrwt>
<rscale>  0 0.94775281E+03</rscale>
<asrwt>0</asrwt>
<pdfrwt beam="1">  1        1 0.15053349E+00 0.94775281E+03</pdfrwt>
<pdfrwt beam="2">  1       -1 0.15630280E+00 0.94775281E+03</pdfrwt>
<totfact> 0.49495366E+00</totfact>
</mgrwt>
</event>
<event>
12    1  0.1418317E-007  0.1043235E+04  0.7818608E-02  0.9262356E-01
          1   -1    0    0  501    0  0.00000000000E+00  0.00000000000E+00  0.21618512882E+04  0.21618512882E+04  0.00000000000E+00 0. -1.
         -1   -1    0    0    0  501 -0.00000000000E+00 -0.00000000000E+00 -0.58766078986E+03  0.58766078986E+03  0.00000000000E+00 0.  1.
         23    2    1    2    0    0 -0.91804193476E+03  0.45610258154E+03  0.98185213970E+03  0.14221505780E+04  0.87453321566E+02 0.  0.
    5000000    2    1    2    0    0  0.91804193476E+03 -0.45610258154E+03  0.59233835867E+03  0.13273615001E+04  0.60016102992E+03 0.  0.
         23    2    4    4    0    0  0.74895676051E+03 -0.43586882330E+03  0.69122413440E+03  0.11123662087E+04  0.93004935404E+02 0.  0.
         23    2    4    4    0    0  0.16908517425E+03 -0.20233758240E+02 -0.98885775723E+02  0.21499529138E+03  0.86286601232E+02 0.  0.
          3    1    3    3  502    0 -0.29841244206E+03  0.17245172997E+03  0.37925286577E+03  0.51246689741E+03  0.00000000000E+00 0. -1.
         -3    1    3    3    0  502 -0.61962949270E+03  0.28365085157E+03  0.60259927393E+03  0.90968368061E+03  0.00000000000E+00 0.  1.
         13    1    5    5    0    0  0.19557097039E+03 -0.15193179756E+03  0.16432277675E+03  0.29720910236E+03  0.00000000000E+00 0.  1.
        -13    1    5    5    0    0  0.55338579012E+03 -0.28393702574E+03  0.52690135765E+03  0.81515710632E+03  0.00000000000E+00 0. -1.
          1    1    6    6  503    0  0.27488348210E+02  0.29796570734E+02 -0.17154372443E+02  0.44019511682E+02  0.00000000000E+00 0. -1.
         -1    1    6    6    0  503  0.14159682604E+03 -0.50030328974E+02 -0.81731403280E+02  0.17097577970E+03  0.00000000000E+00 0.  1.
<mgrwt>
<rscale>  0 0.10432353E+04</rscale>
<asrwt>0</asrwt>
<pdfrwt beam="1">  1        1 0.33259250E+00 0.10432353E+04</pdfrwt>
<pdfrwt beam="2">  1       -1 0.90409353E-01 0.10432353E+04</pdfrwt>
<totfact> 0.27866559E+00</totfact>
</mgrwt>
</event>
<event>
12    1  0.1418317E-007  0.1065710E+04  0.7818608E-02  0.9239273E-01
         -2   -1    0    0    0  501 -0.00000000000E+00  0.00000000000E+00  0.13171452590E+04  0.13171452590E+04  0.00000000000E+00 0.  1.
          2   -1    0    0  501    0  0.00000000000E+00 -0.00000000000E+00 -0.13193265586E+04  0.13193265586E+04  0.00000000000E+00 0. -1.
         23    2    1    2    0    0  0.10431590956E+04  0.86975144104E+02  0.67868925365E+03  0.12510729940E+04  0.93909311960E+02 0.  0.
    5000000    2    1    2    0    0 -0.10431590956E+04 -0.86975144104E+02 -0.68087055326E+03  0.13853988235E+04  0.59999967941E+03 0.  0.
         23    2    4    4    0    0 -0.14981203804E+03  0.34073672446E+02  0.86278907530E+02  0.19811004225E+03  0.90547650771E+02 0.  0.
         23    2    4    4    0    0 -0.89334705760E+03 -0.12104881655E+03 -0.76714946079E+03  0.11872887812E+04  0.91730984603E+02 0.  0.
          3    1    3    3  502    0  0.15574657586E+03  0.39700004975E+02  0.12942876189E+03  0.20636106874E+03  0.00000000000E+00 0. -1.
         -3    1    3    3    0  502  0.88741251979E+03  0.47275139128E+02  0.54926049176E+03  0.10447119253E+04  0.00000000000E+00 0.  1.
         11    1    5    5    0    0 -0.13764070387E+03 -0.41175024717E+01  0.60178483786E+02  0.15027763340E+03  0.00000000000E+00 0. -1.
        -11    1    5    5    0    0 -0.12171334169E+02  0.38191174917E+02  0.26100423744E+02  0.47832408853E+02  0.00000000000E+00 0.  1.
          2    1    6    6  503    0 -0.36315422019E+03 -0.84049111488E+02 -0.35465322084E+03  0.51451350598E+03  0.00000000000E+00 0. -1.
         -2    1    6    6    0  503 -0.53019283741E+03 -0.36999705061E+02 -0.41249623994E+03  0.67277527525E+03  0.00000000000E+00 0.  1.
<mgrwt>
<rscale>  0 0.10657098E+04</rscale>
<asrwt>0</asrwt>
<pdfrwt beam="1">  1        2 0.20297332E+00 0.10657098E+04</pdfrwt>
<pdfrwt beam="2">  1       -2 0.20263773E+00 0.10657098E+04</pdfrwt>
<totfact> 0.20277389E+00</totfact>
</mgrwt>
</event>
<event>
12    1  0.1418317E-007  0.1516785E+04  0.7818608E-02  0.8873367E-01
         -1   -1    0    0    0  501 -0.00000000000E+00  0.00000000000E+00  0.12341491073E+04  0.12341491073E+04  0.00000000000E+00 0.  1.
          1   -1    0    0  501    0  0.00000000000E+00 -0.00000000000E+00 -0.21095221777E+04  0.21095221777E+04  0.00000000000E+00 0. -1.
         23    2    1    2    0    0  0.14381884303E+04  0.26681801815E+03 -0.97394266563E+03  0.17597284762E+04  0.92207255716E+02 0.  0.
    5000000    2    1    2    0    0 -0.14381884303E+04 -0.26681801815E+03  0.98569595236E+02  0.15839428088E+04  0.59965076551E+03 0.  0.
         23    2    4    4    0    0 -0.12240328330E+04 -0.16237496338E+02 -0.26799650104E+00  0.12271696124E+04  0.86169327716E+02 0.  0.
         23    2    4    4    0    0 -0.21415559730E+03 -0.25058052182E+03  0.98837591737E+02  0.35677319647E+03  0.94154269222E+02 0.  0.
          2    1    3    3  502    0  0.32937941568E+03  0.23252303794E+02 -0.23131658648E+03  0.40316105006E+03  0.00000000000E+00 0. -1.
         -2    1    3    3    0  502  0.11088090146E+04  0.24356571436E+03 -0.74262607915E+03  0.13565674261E+04  0.00000000000E+00 0.  1.
         13    1    5    5    0    0 -0.30396320558E+03  0.21889321675E+02  0.26681220521E+02  0.30591610006E+03  0.00000000000E+00 0.  1.
        -13    1    5    5    0    0 -0.92006962745E+03 -0.38126818013E+02 -0.26949217022E+02  0.92125351229E+03  0.00000000000E+00 0. -1.
          3    1    6    6  503    0  0.14324462549E+01 -0.43695808299E+02  0.17607834621E+02  0.47131851282E+02  0.00000000000E+00 0. -1.
         -3    1    6    6    0  503 -0.21558804356E+03 -0.20688471352E+03  0.81229757116E+02  0.30964134519E+03  0.00000000000E+00 0.  1.
<mgrwt>
<rscale>  0 0.15167850E+04</rscale>
<asrwt>0</asrwt>
<pdfrwt beam="1">  1        1 0.32454187E+00 0.15167850E+04</pdfrwt>
<pdfrwt beam="2">  1       -1 0.18986910E+00 0.15167850E+04</pdfrwt>
<totfact> 0.41976973E-01</totfact>
</mgrwt>
</event>
<event>
12    1  0.1418317E-007  0.7861331E+03  0.7818608E-02  0.9580309E-01
         -1   -1    0    0    0  501 -0.00000000000E+00  0.00000000000E+00  0.85049890220E+03  0.85049890220E+03  0.00000000000E+00 0.  1.
          1   -1    0    0  501    0  0.00000000000E+00 -0.00000000000E+00 -0.86045722751E+03  0.86045722751E+03  0.00000000000E+00 0. -1.
         23    2    1    2    0    0  0.11665523965E+03 -0.67201108647E+03  0.29980175809E+03  0.75102628300E+03  0.94615211950E+02 0.  0.
    5000000    2    1    2    0    0 -0.11665523965E+03  0.67201108647E+03 -0.30976008340E+03  0.95992984671E+03  0.60025549232E+03 0.  0.
         23    2    4    4    0    0  0.14503594665E+03  0.97125299546E+01 -0.14173686453E+03  0.22254760399E+03  0.91150086208E+02 0.  0.
         23    2    4    4    0    0 -0.26169118631E+03  0.66229855651E+03 -0.16802321887E+03  0.73738224272E+03  0.91537505130E+02 0.  0.
          2    1    3    3  502    0 -0.15659193728E+02 -0.11548845236E+03  0.49109023711E+02  0.12646932113E+03  0.00000000000E+00 0. -1.
         -2    1    3    3    0  502  0.13231443338E+03 -0.55652263411E+03  0.25069273438E+03  0.62455696187E+03  0.00000000000E+00 0.  1.
         11    1    5    5    0    0  0.12657507769E+03  0.42839305098E+02 -0.10885337630E+03  0.17235287605E+03  0.00000000000E+00 0.  1.
        -11    1    5    5    0    0  0.18460868967E+02 -0.33126775143E+02 -0.32883488231E+02  0.50194727936E+02  0.00000000000E+00 0. -1.
          2    1    6    6  503    0 -0.20985971997E+03  0.52712471396E+03 -0.95085954739E+02  0.57527637265E+03  0.00000000000E+00 0. -1.
         -2    1    6    6    0  503 -0.51831466339E+02  0.13517384255E+03 -0.72937264134E+02  0.16210587007E+03  0.00000000000E+00 0.  1.
<mgrwt>
<rscale>  0 0.78613314E+03</rscale>
<asrwt>0</asrwt>
<pdfrwt beam="1">  1        1 0.13237803E+00 0.78613314E+03</pdfrwt>
<pdfrwt beam="2">  1       -1 0.13084599E+00 0.78613314E+03</pdfrwt>
<totfact> 0.10051429E+01</totfact>
</mgrwt>
</event>
<event>
12    1  0.1418317E-007  0.1256807E+04  0.7818608E-02  0.9064536E-01
         -1   -1    0    0    0  501 -0.00000000000E+00  0.00000000000E+00  0.99531455515E+03  0.99531455515E+03  0.00000000000E+00 0.  1.
          1   -1    0    0  501    0  0.00000000000E+00 -0.00000000000E+00 -0.23303218179E+04  0.23303218179E+04  0.00000000000E+00 0. -1.
         23    2    1    2    0    0 -0.95078494602E+03  0.75801709286E+03  0.24508166019E+03  0.12435529848E+04  0.88187749507E+02 0.  0.
    5000000    2    1    2    0    0  0.95078494602E+03 -0.75801709286E+03 -0.15800889230E+04  0.20820833883E+04  0.59984023260E+03 0.  0.
         23    2    4    4    0    0  0.38339483890E+03 -0.61689113616E+02 -0.23994670149E+03  0.46588495846E+03  0.93151627606E+02 0.  0.
         23    2    4    4    0    0  0.56739010712E+03 -0.69632797924E+03 -0.13401422215E+04  0.16161984298E+04  0.96498717433E+02 0.  0.
          2    1    3    3  502    0 -0.33476115285E+03  0.26513026996E+03  0.12918617024E+03  0.44614813246E+03  0.00000000000E+00 0. -1.
         -2    1    3    3    0  502 -0.61602379316E+03  0.49288682289E+03  0.11589548995E+03  0.79740485233E+03  0.00000000000E+00 0.  1.
         11    1    5    5    0    0  0.14301756879E+03 -0.66868155294E+02 -0.78863909892E+02  0.17647915304E+03  0.00000000000E+00 0. -1.
        -11    1    5    5    0    0  0.24037727011E+03  0.51790416772E+01 -0.16108279160E+03  0.28940580541E+03  0.00000000000E+00 0.  1.
          2    1    6    6  503    0  0.16472810448E+03 -0.23509709435E+03 -0.50134267141E+03  0.57771140404E+03  0.00000000000E+00 0.  1.
         -2    1    6    6    0  503  0.40266200264E+03 -0.46123088489E+03 -0.83879955007E+03  0.10384870258E+04  0.00000000000E+00 0. -1.
<mgrwt>
<rscale>  0 0.12568075E+04</rscale>
<asrwt>0</asrwt>
<pdfrwt beam="1">  1        1 0.35851105E+00 0.12568075E+04</pdfrwt>
<pdfrwt beam="2">  1       -1 0.15312532E+00 0.12568075E+04</pdfrwt>
<totfact> 0.57214015E-01</totfact>
</mgrwt>
</event>
<event>
12    1  0.1418317E-007  0.6366025E+03  0.7818608E-02  0.9832249E-01
         -1   -1    0    0    0  501 -0.00000000000E+00  0.00000000000E+00  0.13934188511E+04  0.13934188511E+04  0.00000000000E+00 0.  1.
          1   -1    0    0  501    0  0.00000000000E+00 -0.00000000000E+00 -0.32071521345E+03  0.32071521345E+03  0.00000000000E+00 0. -1.
         23    2    1    2    0    0  0.36612392674E+03 -0.35784538142E+03  0.60084623987E+03  0.79470674596E+03  0.91883411846E+02 0.  0.
    5000000    2    1    2    0    0 -0.36612392674E+03  0.35784538142E+03  0.47185739781E+03  0.91942731862E+03  0.60049741350E+03 0.  0.
         23    2    4    4    0    0 -0.37817828467E+02  0.41658254869E+03  0.17167828041E+03  0.46085136726E+03  0.89102989423E+02 0.  0.
         23    2    4    4    0    0 -0.32830609828E+03 -0.58737167270E+02  0.30017911740E+03  0.45857595136E+03  0.94601541511E+02 0.  0.
          3    1    3    3  502    0  0.17911292611E+03 -0.11308118236E+03  0.23197581004E+03  0.31413622928E+03  0.00000000000E+00 0. -1.
         -3    1    3    3    0  502  0.18701100063E+03 -0.24476419905E+03  0.36887042983E+03  0.48057051668E+03  0.00000000000E+00 0.  1.
         11    1    5    5    0    0 -0.34456324567E+01  0.18613276340E+03  0.31145248711E+02  0.18875196558E+03  0.00000000000E+00 0.  1.
        -11    1    5    5    0    0 -0.34372196010E+02  0.23044978529E+03  0.14053303170E+03  0.27209940168E+03  0.00000000000E+00 0. -1.
          1    1    6    6  503    0 -0.20387116068E+03 -0.26024833585E+02  0.24163581753E+03  0.31722012930E+03  0.00000000000E+00 0. -1.
         -1    1    6    6    0  503 -0.12443493760E+03 -0.32712333686E+02  0.58543299874E+02  0.14135582206E+03  0.00000000000E+00 0.  1.
<mgrwt>
<rscale>  0 0.63660247E+03</rscale>
<asrwt>0</asrwt>
<pdfrwt beam="1">  1        1 0.49340803E-01 0.63660247E+03</pdfrwt>
<pdfrwt beam="2">  1       -1 0.21437213E+00 0.63660247E+03</pdfrwt>
<totfact> 0.10105710E+01</totfact>
</mgrwt>
</event>
<event>
12    1  0.1418317E-007  0.3731200E+03  0.7818608E-02  0.1053506E+00
          2   -1    0    0  501    0  0.00000000000E+00  0.00000000000E+00  0.72676288271E+03  0.72676288271E+03  0.00000000000E+00 0. -1.
         -2   -1    0    0    0  501 -0.00000000000E+00 -0.00000000000E+00 -0.81910490270E+03  0.81910490270E+03  0.00000000000E+00 0.  1.
         23    2    1    2    0    0  0.34794283653E+03  0.39342239142E+02 -0.58960503489E+03  0.69162830863E+03  0.90019947057E+02 0.  0.
    5000000    2    1    2    0    0 -0.34794283653E+03 -0.39342239142E+02  0.49726301489E+03  0.85423947678E+03  0.59986877601E+03 0.  0.
         23    2    4    4    0    0 -0.15518036338E+03 -0.51663575144E+02  0.59128934922E+03  0.62047011878E+03  0.92790105196E+02 0.  0.
         23    2    4    4    0    0 -0.19276247315E+03  0.12321336002E+02 -0.94026334324E+02  0.23376935800E+03  0.92184460822E+02 0.  0.
          2    1    3    3  502    0  0.23028383147E+03 -0.95877303507E+01 -0.42487516297E+03  0.48336473984E+03  0.00000000000E+00 0. -1.
         -2    1    3    3    0  502  0.11765900506E+03  0.48929969493E+02 -0.16472987191E+03  0.20826356879E+03  0.00000000000E+00 0.  1.
         11    1    5    5    0    0 -0.11550199169E+03 -0.74453722176E+02  0.37480497828E+03  0.39920275371E+03  0.00000000000E+00 0. -1.
        -11    1    5    5    0    0 -0.39678371699E+02  0.22790147032E+02  0.21648437094E+03  0.22126736507E+03  0.00000000000E+00 0.  1.
          3    1    6    6  503    0 -0.88981954905E+02 -0.28792814526E+02 -0.76389902493E+02  0.12075691148E+03  0.00000000000E+00 0. -1.
         -3    1    6    6    0  503 -0.10378051824E+03  0.41114150528E+02 -0.17636431831E+02  0.11301244652E+03  0.00000000000E+00 0.  1.
<mgrwt>
<rscale>  0 0.37312005E+03</rscale>
<asrwt>0</asrwt>
<pdfrwt beam="1">  1        2 0.11180967E+00 0.37312005E+03</pdfrwt>
<pdfrwt beam="2">  1       -2 0.12601614E+00 0.37312005E+03</pdfrwt>
<totfact> 0.19572817E+01</totfact>
</mgrwt>
</event>
<event>
12    1  0.1418317E-007  0.6722816E+03  0.7818608E-02  0.9765845E-01
         -2   -1    0    0    0  501 -0.00000000000E+00  0.00000000000E+00  0.77503833010E+03  0.77503833010E+03  0.00000000000E+00 0.  1.
          2   -1    0    0  501    0  0.00000000000E+00 -0.00000000000E+00 -0.70194176533E+03  0.70194176533E+03  0.00000000000E+00 0. -1.
         23    2    1    2    0    0 -0.17587054846E+03  0.52518117867E+03 -0.23086792386E+03  0.60578016553E+03  0.83209917900E+02 0.  0.
    5000000    2    1    2    0    0  0.17587054846E+03 -0.52518117867E+03  0.30396448863E+03  0.87119992990E+03  0.59987430956E+03 0.  0.
         23    2    4    4    0    0 -0.20045378414E+03 -0.11601244998E+03  0.12319973838E+03  0.27978019769E+03  0.97253150873E+02 0.  0.
         23    2    4    4    0    0  0.37632433261E+03 -0.40916872868E+03  0.18076475025E+03  0.59141973221E+03  0.89790605679E+02 0.  0.
          3    1    3    3  502    0 -0.12916877741E+03  0.30594231704E+03 -0.17214685341E+03  0.37405856968E+03  0.00000000000E+00 0. -1.
         -3    1    3    3    0  502 -0.46701771050E+02  0.21923886162E+03 -0.58721070454E+02  0.23172159584E+03  0.00000000000E+00 0.  1.
         11    1    5    5    0    0 -0.63057396617E+02 -0.46885228269E+02 -0.61434372226E+01  0.78817521649E+02  0.00000000000E+00 0. -1.
        -11    1    5    5    0    0 -0.13739638753E+03 -0.69127221714E+02  0.12934317560E+03  0.20096267604E+03  0.00000000000E+00 0.  1.
          2    1    6    6  503    0  0.61430794635E+02 -0.64475813407E+02 -0.44085961532E+01  0.89164503947E+02  0.00000000000E+00 0. -1.
         -2    1    6    6    0  503  0.31489353797E+03 -0.34469291528E+03  0.18517334640E+03  0.50225522826E+03  0.00000000000E+00 0.  1.
<mgrwt>
<rscale>  0 0.67228163E+03</rscale>
<asrwt>0</asrwt>
<pdfrwt beam="1">  1        2 0.10799104E+00 0.67228163E+03</pdfrwt>
<pdfrwt beam="2">  1       -2 0.11923667E+00 0.67228163E+03</pdfrwt>
<totfact> 0.22497801E+01</totfact>
</mgrwt>
</event>
<event>
12    1  0.1418317E-007  0.1065466E+04  0.7818608E-02  0.9239520E-01
          1   -1    0    0  501    0  0.00000000000E+00  0.00000000000E+00  0.20426420387E+04  0.20426420387E+04  0.00000000000E+00 0. -1.
         -1   -1    0    0    0  501 -0.00000000000E+00 -0.00000000000E+00 -0.57252603681E+03  0.57252603681E+03  0.00000000000E+00 0.  1.
         23    2    1    2    0    0  0.95168122798E+03 -0.28743862685E+03  0.75696389266E+03  0.12524432784E+04  0.85450026048E+02 0.  0.
    5000000    2    1    2    0    0 -0.95168122798E+03  0.28743862685E+03  0.71315210928E+03  0.13627247971E+04  0.60009567392E+03 0.  0.
         23    2    4    4    0    0 -0.92652714975E+03  0.92647913187E+02  0.51021863887E+03  0.10651162216E+04  0.84340447185E+02 0.  0.
         23    2    4    4    0    0 -0.25154078232E+02  0.19479071366E+03  0.20293347041E+03  0.29760857553E+03  0.93876094066E+02 0.  0.
          2    1    3    3  502    0  0.73548030498E+03 -0.19063738643E+03  0.60208250392E+03  0.96942108170E+03  0.00000000000E+00 0. -1.
         -2    1    3    3    0  502  0.21620092301E+03 -0.96801240421E+02  0.15488138874E+03  0.28302219672E+03  0.00000000000E+00 0.  1.
         11    1    5    5    0    0 -0.54557730563E+03  0.34967229768E+02  0.25722442585E+03  0.60418681617E+03  0.00000000000E+00 0.  1.
        -11    1    5    5    0    0 -0.38094984412E+03  0.57680683419E+02  0.25299421302E+03  0.46092940544E+03  0.00000000000E+00 0. -1.
          2    1    6    6  503    0 -0.39439857089E+02  0.15692814250E+03  0.10835923740E+03  0.19474000248E+03  0.00000000000E+00 0. -1.
         -2    1    6    6    0  503  0.14285778857E+02  0.37862571161E+02  0.94574233008E+02  0.10286857305E+03  0.00000000000E+00 0.  1.
<mgrwt>
<rscale>  0 0.10654664E+04</rscale>
<asrwt>0</asrwt>
<pdfrwt beam="1">  1        1 0.31425262E+00 0.10654664E+04</pdfrwt>
<pdfrwt beam="2">  1       -1 0.88080930E-01 0.10654664E+04</pdfrwt>
<totfact> 0.35426959E+00</totfact>
</mgrwt>
</event>
<event>
12    1  0.1418317E-007  0.6346852E+03  0.7818608E-02  0.9835948E-01
          1   -1    0    0  501    0  0.00000000000E+00  0.00000000000E+00  0.21151253291E+04  0.21151253291E+04  0.00000000000E+00 0. -1.
         -1   -1    0    0    0  501 -0.00000000000E+00 -0.00000000000E+00 -0.24042011073E+03  0.24042011073E+03  0.00000000000E+00 0.  1.
         23    2    1    2    0    0  0.53323107468E+03  0.13558059441E+03  0.10930295309E+04  0.12269498718E+04  0.89302609557E+02 0.  0.
    5000000    2    1    2    0    0 -0.53323107468E+03 -0.13558059441E+03  0.78167568753E+03  0.11285955680E+04  0.59999466587E+03 0.  0.
         23    2    4    4    0    0 -0.45595071820E+03 -0.26950864882E+03  0.30230780785E+03  0.61711372999E+03  0.94410676499E+02 0.  0.
         23    2    4    4    0    0 -0.77280356480E+02  0.13392805440E+03  0.47936787968E+03  0.51148183803E+03  0.88944529368E+02 0.  0.
          2    1    3    3  502    0  0.21069801556E+03  0.10242846660E+02  0.43728436750E+03  0.48550611503E+03  0.00000000000E+00 0. -1.
         -2    1    3    3    0  502  0.32253305912E+03  0.12533774775E+03  0.65574516336E+03  0.74144375681E+03  0.00000000000E+00 0.  1.
         13    1    5    5    0    0 -0.40475907567E+03 -0.26237645325E+03  0.24890104095E+03  0.54279189451E+03  0.00000000000E+00 0. -1.
        -13    1    5    5    0    0 -0.51191642530E+02 -0.71321955671E+01  0.53406766894E+02  0.74321835476E+02  0.00000000000E+00 0.  1.
          2    1    6    6  503    0 -0.88173810902E+02  0.14031474342E+03  0.44274222090E+03  0.47274043863E+03  0.00000000000E+00 0. -1.
         -2    1    6    6    0  503  0.10893454422E+02 -0.63866890137E+01  0.36625658785E+02  0.38741399397E+02  0.00000000000E+00 0.  1.
<mgrwt>
<rscale>  0 0.63468521E+03</rscale>
<asrwt>0</asrwt>
<pdfrwt beam="1">  1        1 0.32540388E+00 0.63468521E+03</pdfrwt>
<pdfrwt beam="2">  1       -1 0.36987711E-01 0.63468521E+03</pdfrwt>
<totfact> 0.18568852E+01</totfact>
</mgrwt>
</event>
<event>
12    1  0.1418317E-007  0.3899791E+03  0.7818608E-02  0.1047306E+00
          1   -1    0    0  501    0  0.00000000000E+00  0.00000000000E+00  0.67011534380E+03  0.67011534380E+03  0.00000000000E+00 0.  1.
         -1   -1    0    0    0  501 -0.00000000000E+00 -0.00000000000E+00 -0.44463512139E+03  0.44463512139E+03  0.00000000000E+00 0. -1.
         23    2    1    2    0    0 -0.35116105355E+03  0.76119297697E+01  0.20988019733E+03  0.41931255706E+03  0.91658585372E+02 0.  0.
    5000000    2    1    2    0    0  0.35116105355E+03 -0.76119297697E+01  0.15600025078E+02  0.69543790812E+03  0.60001541335E+03 0.  0.
         23    2    4    4    0    0  0.18440429234E+03 -0.10091234675E+03 -0.26061111900E+03  0.34681645689E+03  0.90417114853E+02 0.  0.
         23    2    4    4    0    0  0.16675676121E+03  0.93300416985E+02  0.27621114408E+03  0.34862145123E+03  0.93442682558E+02 0.  0.
          1    1    3    3  502    0 -0.17933655112E+03  0.60610477004E+01  0.54201431339E+02  0.18744633906E+03  0.00000000000E+00 0. -1.
         -1    1    3    3    0  502 -0.17182450243E+03  0.15508820693E+01  0.15567876600E+03  0.23186621801E+03  0.00000000000E+00 0.  1.
         13    1    5    5    0    0  0.34580019808E+01 -0.36639750870E+02 -0.41000679402E+02  0.55095234213E+02  0.00000000000E+00 0.  1.
        -13    1    5    5    0    0  0.18094629036E+03 -0.64272595884E+02 -0.21961043960E+03  0.29172122267E+03  0.00000000000E+00 0. -1.
          4    1    6    6  503    0  0.62829479774E+02  0.42000314606E+01  0.37070932538E+02  0.73071457028E+02  0.00000000000E+00 0. -1.
         -4    1    6    6    0  503  0.10392728144E+03  0.89100385524E+02  0.23914021154E+03  0.27554999420E+03  0.00000000000E+00 0.  1.
<mgrwt>
<rscale>  0 0.38997908E+03</rscale>
<asrwt>0</asrwt>
<pdfrwt beam="1">  1        1 0.10309467E+00 0.38997908E+03</pdfrwt>
<pdfrwt beam="2">  1       -1 0.68405403E-01 0.38997908E+03</pdfrwt>
<totfact> 0.66923596E+01</totfact>
</mgrwt>
</event>
<event>
12    1  0.1418317E-007  0.7757026E+03  0.7818608E-02  0.9595868E-01
          2   -1    0    0  501    0  0.00000000000E+00  0.00000000000E+00  0.30320289021E+04  0.30320289021E+04  0.00000000000E+00 0. -1.
         -2   -1    0    0    0  501 -0.00000000000E+00 -0.00000000000E+00 -0.20289292376E+03  0.20289292376E+03  0.00000000000E+00 0.  1.
         23    2    1    2    0    0 -0.60652399507E+03  0.25638853370E+03  0.14194428776E+04  0.15673529670E+04  0.90392496962E+02 0.  0.
    5000000    2    1    2    0    0  0.60652399507E+03 -0.25638853370E+03  0.14096931007E+04  0.16675688589E+04  0.59995401827E+03 0.  0.
         23    2    4    4    0    0  0.22007050914E+03 -0.40075318440E+03  0.81917273087E+03  0.94240436614E+03  0.89709991214E+02 0.  0.
         23    2    4    4    0    0  0.38645348593E+03  0.14436465069E+03  0.59052036987E+03  0.72516449274E+03  0.83437312659E+02 0.  0.
          1    1    3    3  502    0 -0.50748983529E+03  0.17628408613E+03  0.11395892194E+04  0.12598752323E+04  0.00000000000E+00 0. -1.
         -1    1    3    3    0  502 -0.99034159779E+02  0.80104447569E+02  0.27985365822E+03  0.30747773471E+03  0.00000000000E+00 0.  1.
         11    1    5    5    0    0  0.21724098124E+03 -0.32995511739E+03  0.69171240555E+03  0.79657396105E+03  0.00000000000E+00 0.  1.
        -11    1    5    5    0    0  0.28295278991E+01 -0.70798067004E+02  0.12746032532E+03  0.14583040509E+03  0.00000000000E+00 0. -1.
          4    1    6    6  503    0  0.25394271686E+03  0.13611795548E+03  0.40366271853E+03  0.49594212523E+03  0.00000000000E+00 0. -1.
         -4    1    6    6    0  503  0.13251076907E+03  0.82466952148E+01  0.18685765134E+03  0.22922236751E+03  0.00000000000E+00 0.  1.
<mgrwt>
<rscale>  0 0.77570263E+03</rscale>
<asrwt>0</asrwt>
<pdfrwt beam="1">  1        2 0.46646595E+00 0.77570263E+03</pdfrwt>
<pdfrwt beam="2">  1       -2 0.31214298E-01 0.77570263E+03</pdfrwt>
<totfact> 0.16717377E+01</totfact>
</mgrwt>
</event>
<event>
12    1  0.1418317E-007  0.7364352E+03  0.7818608E-02  0.9656875E-01
          1   -1    0    0  501    0  0.00000000000E+00  0.00000000000E+00  0.23585528476E+04  0.23585528476E+04  0.00000000000E+00 0. -1.
         -1   -1    0    0    0  501 -0.00000000000E+00 -0.00000000000E+00 -0.35342744843E+03  0.35342744843E+03  0.00000000000E+00 0.  1.
         23    2    1    2    0    0 -0.44901184267E+03 -0.43890602642E+03  0.16605642420E+04  0.17775240082E+04  0.88700974311E+02 0.  0.
    5000000    2    1    2    0    0  0.44901184267E+03  0.43890602642E+03  0.34456115713E+03  0.93445628784E+03  0.60019665777E+03 0.  0.
         23    2    4    4    0    0  0.38793499718E+03  0.45214351956E+01  0.26756444919E+03  0.48011144112E+03  0.91663820633E+02 0.  0.
         23    2    4    4    0    0  0.61076845487E+02  0.43438459122E+03  0.76996707948E+02  0.45434484672E+03  0.89891003761E+02 0.  0.
          4    1    3    3  502    0 -0.84929809711E+02 -0.72863116405E+02  0.39932935596E+03  0.41471199747E+03  0.00000000000E+00 0.  1.
         -4    1    3    3    0  502 -0.36408203296E+03 -0.36604291001E+03  0.12612348861E+04  0.13628120107E+04  0.00000000000E+00 0. -1.
         13    1    5    5    0    0  0.34880019874E+03 -0.22275311544E+02  0.22026521479E+03  0.41312774415E+03  0.00000000000E+00 0. -1.
        -13    1    5    5    0    0  0.39134798447E+02  0.26796746739E+02  0.47299234394E+02  0.66983696968E+02  0.00000000000E+00 0.  1.
          4    1    6    6  503    0  0.29858350773E+02  0.40074529089E+03  0.67683675103E+02  0.40751612135E+03  0.00000000000E+00 0. -1.
         -4    1    6    6    0  503  0.31218494714E+02  0.33639300333E+02  0.93130328445E+01  0.46828725371E+02  0.00000000000E+00 0.  1.
<mgrwt>
<rscale>  0 0.73643523E+03</rscale>
<asrwt>0</asrwt>
<pdfrwt beam="1">  1        1 0.36285427E+00 0.73643523E+03</pdfrwt>
<pdfrwt beam="2">  1       -1 0.54373455E-01 0.73643523E+03</pdfrwt>
<totfact> 0.61286653E+00</totfact>
</mgrwt>
</event>
<event>
12    1  0.1418317E-007  0.7838731E+03  0.7818608E-02  0.9583658E-01
          2   -1    0    0  501    0  0.00000000000E+00  0.00000000000E+00  0.11579357381E+04  0.11579357381E+04  0.00000000000E+00 0. -1.
         -2   -1    0    0    0  501 -0.00000000000E+00 -0.00000000000E+00 -0.64720527727E+03  0.64720527727E+03  0.00000000000E+00 0.  1.
         23    2    1    2    0    0 -0.44475150477E+03  0.60362725329E+03  0.10425126327E+03  0.76236735699E+03  0.90365365063E+02 0.  0.
    5000000    2    1    2    0    0  0.44475150477E+03 -0.60362725329E+03  0.40647919758E+03  0.10427736584E+04  0.59998483539E+03 0.  0.
         23    2    4    4    0    0  0.13107769537E+03 -0.42289976525E+03 -0.45521755897E+02  0.45630863696E+03  0.10059705877E+03 0.  0.
         23    2    4    4    0    0  0.31367380940E+03 -0.18072748804E+03  0.45200095347E+03  0.58646502145E+03  0.92642732080E+02 0.  0.
          1    1    3    3  502    0 -0.36314050385E+03  0.49634237120E+03  0.49892234460E+02  0.61702188781E+03  0.00000000000E+00 0. -1.
         -1    1    3    3    0  502 -0.81611000916E+02  0.10728488209E+03  0.54359028815E+02  0.14534546917E+03  0.00000000000E+00 0.  1.
         13    1    5    5    0    0  0.17549460699E+02 -0.22405576468E+03 -0.13990666738E+02  0.22517705926E+03  0.00000000000E+00 0. -1.
        -13    1    5    5    0    0  0.11352823467E+03 -0.19884400056E+03 -0.31531089159E+02  0.23113157770E+03  0.00000000000E+00 0.  1.
          3    1    6    6  503    0  0.74887897881E+02 -0.24129332056E+02  0.15860144894E+03  0.17704474441E+03  0.00000000000E+00 0. -1.
         -3    1    6    6    0  503  0.23878591152E+03 -0.15659815598E+03  0.29339950453E+03  0.40942027704E+03  0.00000000000E+00 0.  1.
<mgrwt>
<rscale>  0 0.78387306E+03</rscale>
<asrwt>0</asrwt>
<pdfrwt beam="1">  1        2 0.17814396E+00 0.78387306E+03</pdfrwt>
<pdfrwt beam="2">  1       -2 0.99570043E-01 0.78387306E+03</pdfrwt>
<totfact> 0.17003961E+01</totfact>
</mgrwt>
</event>
<event>
12    1  0.1418317E-007  0.1107633E+04  0.7818608E-02  0.9197784E-01
          2   -1    0    0  501    0  0.00000000000E+00  0.00000000000E+00  0.11536714729E+04  0.11536714729E+04  0.00000000000E+00 0.  1.
         -2   -1    0    0    0  501 -0.00000000000E+00 -0.00000000000E+00 -0.12076950044E+04  0.12076950044E+04  0.00000000000E+00 0. -1.
         23    2    1    2    0    0  0.10863913421E+04  0.17503373713E+03  0.34685458577E+02  0.11049003087E+04  0.93373731039E+02 0.  0.
    5000000    2    1    2    0    0 -0.10863913421E+04 -0.17503373713E+03 -0.88708990156E+02  0.12564661686E+04  0.59996249096E+03 0.  0.
         23    2    4    4    0    0 -0.48417814817E+03 -0.17801298139E+02  0.23757599391E+03  0.54741569367E+03  0.92066407653E+02 0.  0.
         23    2    4    4    0    0 -0.60221319397E+03 -0.15723243899E+03 -0.32628498407E+03  0.70905047495E+03  0.94381747908E+02 0.  0.
          1    1    3    3  502    0  0.33393167831E+03  0.33952988405E+02 -0.27681810452E+02  0.33679289456E+03  0.00000000000E+00 0. -1.
         -1    1    3    3    0  502  0.75245966383E+03  0.14108074873E+03  0.62367269029E+02  0.76810741410E+03  0.00000000000E+00 0.  1.
         13    1    5    5    0    0 -0.16591183529E+03 -0.90079876215E+01  0.34269325997E+02  0.16965337496E+03  0.00000000000E+00 0. -1.
        -13    1    5    5    0    0 -0.31826631288E+03 -0.87933105173E+01  0.20330666792E+03  0.37776231871E+03  0.00000000000E+00 0.  1.
          3    1    6    6  503    0 -0.27606073554E+03 -0.12074032296E+03 -0.15889756814E+03  0.34064085553E+03  0.00000000000E+00 0. -1.
         -3    1    6    6    0  503 -0.32615245843E+03 -0.36492116038E+02 -0.16738741593E+03  0.36840961942E+03  0.00000000000E+00 0.  1.
<mgrwt>
<rscale>  0 0.11076331E+04</rscale>
<asrwt>0</asrwt>
<pdfrwt beam="1">  1        2 0.17748792E+00 0.11076331E+04</pdfrwt>
<pdfrwt beam="2">  1       -2 0.18579923E+00 0.11076331E+04</pdfrwt>
<totfact> 0.32761950E+00</totfact>
</mgrwt>
</event>
<event>
12    1  0.1418317E-007  0.7359839E+03  0.7818608E-02  0.9657600E-01
          2   -1    0    0  501    0  0.00000000000E+00  0.00000000000E+00  0.15392538886E+04  0.15392538886E+04  0.00000000000E+00 0. -1.
         -2   -1    0    0    0  501 -0.00000000000E+00 -0.00000000000E+00 -0.47708947002E+03  0.47708947002E+03  0.00000000000E+00 0.  1.
         23    2    1    2    0    0 -0.63933295108E+03  0.16566078302E+03  0.88261116332E+03  0.11061872735E+04  0.91965760494E+02 0.  0.
    5000000    2    1    2    0    0  0.63933295108E+03 -0.16566078302E+03  0.17955325529E+03  0.91015608514E+03  0.59996217419E+03 0.  0.
         23    2    4    4    0    0 -0.40107429081E+02 -0.85827808971E+02  0.17620255574E+03  0.21999776507E+03  0.91524080584E+02 0.  0.
         23    2    4    4    0    0  0.67944038016E+03 -0.79832974047E+02  0.33506995542E+01  0.69015832007E+03  0.91075494152E+02 0.  0.
          1    1    3    3  502    0 -0.27528863045E+03  0.74003210403E+02  0.30662923393E+03  0.41866668402E+03  0.00000000000E+00 0. -1.
         -1    1    3    3    0  502 -0.36404432063E+03  0.91657572616E+02  0.57598192939E+03  0.68752058950E+03  0.00000000000E+00 0.  1.
         13    1    5    5    0    0 -0.55570811840E+02 -0.28873266301E+02  0.48133394538E+02  0.78984835919E+02  0.00000000000E+00 0. -1.
        -13    1    5    5    0    0  0.15463382759E+02 -0.56954542670E+02  0.12806916120E+03  0.14101292915E+03  0.00000000000E+00 0.  1.
          3    1    6    6  503    0  0.48818792954E+03 -0.16761161051E+02  0.11476150392E+02  0.48861036941E+03  0.00000000000E+00 0. -1.
         -3    1    6    6    0  503  0.19125245062E+03 -0.63071812996E+02 -0.81254508373E+01  0.20154795066E+03  0.00000000000E+00 0.  1.
<mgrwt>
<rscale>  0 0.73598388E+03</rscale>
<asrwt>0</asrwt>
<pdfrwt beam="1">  1        2 0.23680829E+00 0.73598388E+03</pdfrwt>
<pdfrwt beam="2">  1       -2 0.73398381E-01 0.73598388E+03</pdfrwt>
<totfact> 0.20738677E+01</totfact>
</mgrwt>
</event>
<event>
12    1  0.1418317E-007  0.5803281E+03  0.7818608E-02  0.9947081E-01
          2   -1    0    0  501    0  0.00000000000E+00  0.00000000000E+00  0.19597511243E+04  0.19597511243E+04  0.00000000000E+00 0. -1.
         -2   -1    0    0    0  501 -0.00000000000E+00 -0.00000000000E+00 -0.23037015165E+03  0.23037015165E+03  0.00000000000E+00 0.  1.
         23    2    1    2    0    0 -0.32039357846E+03 -0.41026905930E+03  0.50263814339E+03  0.72863459343E+03  0.85384550183E+02 0.  0.
    5000000    2    1    2    0    0  0.32039357846E+03  0.41026905930E+03  0.12267428293E+04  0.14614866825E+04  0.60006050356E+03 0.  0.
         23    2    4    4    0    0  0.54542938742E+02  0.34659397952E+03  0.24266095954E+03  0.43618548559E+03  0.90945685704E+02 0.  0.
         23    2    4    4    0    0  0.26585063972E+03  0.63675079778E+02  0.98408186972E+03  0.10253011969E+04  0.89968548413E+02 0.  0.
          4    1    3    3  502    0 -0.17258980459E+03 -0.26543218838E+03  0.34675173284E+03  0.46955111703E+03  0.00000000000E+00 0. -1.
         -4    1    3    3    0  502 -0.14780377387E+03 -0.14483687093E+03  0.15588641055E+03  0.25908347640E+03  0.00000000000E+00 0.  1.
         11    1    5    5    0    0  0.55133334789E+02  0.21176758162E+03  0.10230018021E+03  0.24155852314E+03  0.00000000000E+00 0.  1.
        -11    1    5    5    0    0 -0.59039604719E+00  0.13482639790E+03  0.14036077934E+03  0.19462696246E+03  0.00000000000E+00 0. -1.
          2    1    6    6  503    0  0.17651512791E+03  0.77992759619E+02  0.58176184227E+03  0.61293335858E+03  0.00000000000E+00 0. -1.
         -2    1    6    6    0  503  0.89335511805E+02 -0.14317679842E+02  0.40232002745E+03  0.41236783836E+03  0.00000000000E+00 0.  1.
<mgrwt>
<rscale>  0 0.58032809E+03</rscale>
<asrwt>0</asrwt>
<pdfrwt beam="1">  1        2 0.30150016E+00 0.58032809E+03</pdfrwt>
<pdfrwt beam="2">  1       -2 0.35441563E-01 0.58032809E+03</pdfrwt>
<totfact> 0.55355488E+01</totfact>
</mgrwt>
</event>
<event>
12    1  0.1418317E-007  0.9761885E+03  0.7818608E-02  0.9335053E-01
         -1   -1    0    0    0  501 -0.00000000000E+00  0.00000000000E+00  0.12742468963E+04  0.12742468963E+04  0.00000000000E+00 0.  1.
          1   -1    0    0  501    0  0.00000000000E+00 -0.00000000000E+00 -0.88562715081E+03  0.88562715081E+03  0.00000000000E+00 0. -1.
         23    2    1    2    0    0  0.70703235275E+03  0.55074805240E+03  0.57028664587E+03  0.10661414486E+04  0.90623203372E+02 0.  0.
    5000000    2    1    2    0    0 -0.70703235275E+03 -0.55074805240E+03 -0.18166690037E+03  0.10937325985E+04  0.60002497382E+03 0.  0.
         23    2    4    4    0    0 -0.78355600477E+03 -0.55214283876E+03 -0.13668169900E+03  0.97241218822E+03  0.89899109899E+02 0.  0.
         23    2    4    4    0    0  0.76523652015E+02  0.13947863581E+01 -0.44985201372E+02  0.12132041025E+03  0.82687114197E+02 0.  0.
          3    1    3    3  502    0  0.15290056904E+03  0.16873381418E+03  0.13987683312E+03  0.26723624848E+03  0.00000000000E+00 0. -1.
         -3    1    3    3    0  502  0.55413178372E+03  0.38201423822E+03  0.43040981276E+03  0.79890520016E+03  0.00000000000E+00 0.  1.
         11    1    5    5    0    0 -0.26597788640E+03 -0.18932450167E+03 -0.37188236472E+01  0.32649936085E+03  0.00000000000E+00 0. -1.
        -11    1    5    5    0    0 -0.51757811837E+03 -0.36281833710E+03 -0.13296287535E+03  0.64591282738E+03  0.00000000000E+00 0.  1.
          2    1    6    6  503    0 -0.67411127040E+01 -0.65773152525E+01  0.15472297599E+02  0.18113411314E+02  0.00000000000E+00 0. -1.
         -2    1    6    6    0  503  0.83264764719E+02  0.79721016106E+01 -0.60457498971E+02  0.10320699894E+03  0.00000000000E+00 0.  1.
<mgrwt>
<rscale>  0 0.97618850E+03</rscale>
<asrwt>0</asrwt>
<pdfrwt beam="1">  1        1 0.13625033E+00 0.97618850E+03</pdfrwt>
<pdfrwt beam="2">  1       -1 0.19603798E+00 0.97618850E+03</pdfrwt>
<totfact> 0.30185717E+00</totfact>
</mgrwt>
</event>
<event>
12    1  0.1418317E-007  0.5715187E+03  0.7818608E-02  0.9966323E-01
          1   -1    0    0  501    0  0.00000000000E+00  0.00000000000E+00  0.66871035987E+03  0.66871035987E+03  0.00000000000E+00 0. -1.
         -1   -1    0    0    0  501 -0.00000000000E+00 -0.00000000000E+00 -0.85835828674E+03  0.85835828674E+03  0.00000000000E+00 0.  1.
         23    2    1    2    0    0  0.37882411868E+03 -0.40879802330E+03  0.22640789274E+03  0.60849322513E+03  0.91541981604E+02 0.  0.
    5000000    2    1    2    0    0 -0.37882411868E+03  0.40879802330E+03 -0.41605581960E+03  0.91857542148E+03  0.60004568424E+03 0.  0.
         23    2    4    4    0    0 -0.21365861268E+03  0.30206133766E+03 -0.54598091899E+03  0.66612111913E+03  0.93440499564E+02 0.  0.
         23    2    4    4    0    0 -0.16516550599E+03  0.10673668563E+03  0.12992509939E+03  0.25245430235E+03  0.90444894247E+02 0.  0.
          1    1    3    3  502    0  0.13915697666E+03 -0.18989104600E+03  0.56440882676E+02  0.24209264082E+03  0.00000000000E+00 0. -1.
         -1    1    3    3    0  502  0.23966714202E+03 -0.21890697730E+03  0.16996701006E+03  0.36640058431E+03  0.00000000000E+00 0.  1.
         11    1    5    5    0    0 -0.20648972193E+02  0.33370306969E+02 -0.12312577332E+03  0.12922814514E+03  0.00000000000E+00 0. -1.
        -11    1    5    5    0    0 -0.19300964049E+03  0.26869103069E+03 -0.42285514567E+03  0.53689297399E+03  0.00000000000E+00 0.  1.
          1    1    6    6  503    0 -0.14545415725E+03  0.51497429771E+02  0.11349284580E+03  0.19154509438E+03  0.00000000000E+00 0. -1.
         -1    1    6    6    0  503 -0.19711348744E+02  0.55239255864E+02  0.16432253589E+02  0.60909207971E+02  0.00000000000E+00 0.  1.
<mgrwt>
<rscale>  0 0.57151874E+03</rscale>
<asrwt>0</asrwt>
<pdfrwt beam="1">  1        1 0.10287852E+00 0.57151874E+03</pdfrwt>
<pdfrwt beam="2">  1       -1 0.13205512E+00 0.57151874E+03</pdfrwt>
<totfact> 0.14994588E+01</totfact>
</mgrwt>
</event>
<event>
12    1  0.1418317E-007  0.5402969E+03  0.7818608E-02  0.1003765E+00
          2   -1    0    0  501    0  0.00000000000E+00  0.00000000000E+00  0.18112557250E+04  0.18112557250E+04  0.00000000000E+00 0. -1.
         -2   -1    0    0    0  501 -0.00000000000E+00 -0.00000000000E+00 -0.22958110232E+03  0.22958110232E+03  0.00000000000E+00 0.  1.
         23    2    1    2    0    0 -0.33352390097E+03  0.37204423396E+03  0.63462090083E+03  0.81347221203E+03  0.96634607861E+02 0.  0.
    5000000    2    1    2    0    0  0.33352390097E+03 -0.37204423396E+03  0.94705372190E+03  0.12273646153E+04  0.59988169024E+03 0.  0.
         23    2    4    4    0    0  0.27679256331E+03 -0.37533619385E+03  0.27932422405E+03  0.55199561088E+03  0.95842322449E+02 0.  0.
         23    2    4    4    0    0  0.56731337662E+02  0.32919598896E+01  0.66772949785E+03  0.67536900446E+03  0.83853015550E+02 0.  0.
          4    1    3    3  502    0 -0.97485712212E+02  0.57215631359E+02  0.17614079132E+03  0.20929087635E+03  0.00000000000E+00 0. -1.
         -4    1    3    3    0  502 -0.23603818876E+03  0.31482860260E+03  0.45848010951E+03  0.60418133568E+03  0.00000000000E+00 0.  1.
         13    1    5    5    0    0  0.26747496783E+03 -0.30752058344E+03  0.24278999061E+03  0.47440356997E+03  0.00000000000E+00 0.  1.
        -13    1    5    5    0    0  0.93175954824E+01 -0.67815610402E+02  0.36534233440E+02  0.77592040911E+02  0.00000000000E+00 0. -1.
          1    1    6    6  503    0  0.74042626426E+02 -0.11932370571E+02  0.42681892752E+03  0.43335792237E+03  0.00000000000E+00 0. -1.
         -1    1    6    6    0  503 -0.17311288764E+02  0.15224330461E+02  0.24091057033E+03  0.24201108209E+03  0.00000000000E+00 0.  1.
<mgrwt>
<rscale>  0 0.54029691E+03</rscale>
<asrwt>0</asrwt>
<pdfrwt beam="1">  1        2 0.27865472E+00 0.54029691E+03</pdfrwt>
<pdfrwt beam="2">  1       -2 0.35320171E-01 0.54029691E+03</pdfrwt>
<totfact> 0.67418929E+01</totfact>
</mgrwt>
</event>
<event>
12    1  0.1418317E-007  0.1989628E+04  0.7818608E-02  0.8611486E-01
          2   -1    0    0  501    0  0.00000000000E+00  0.00000000000E+00  0.35461330765E+04  0.35461330765E+04  0.00000000000E+00 0. -1.
         -2   -1    0    0    0  501 -0.00000000000E+00 -0.00000000000E+00 -0.17474833800E+04  0.17474833800E+04  0.00000000000E+00 0.  1.
         23    2    1    2    0    0 -0.29927914940E+03 -0.19313345069E+04 -0.68840121998E+03  0.20741322032E+04  0.92234320094E+02 0.  0.
    5000000    2    1    2    0    0  0.29927914940E+03  0.19313345069E+04  0.24870509164E+04  0.32194842533E+04  0.60002967376E+03 0.  0.
         23    2    4    4    0    0  0.43766255369E+03  0.16711320147E+04  0.20161234248E+04  0.26565891360E+04  0.92094800157E+02 0.  0.
         23    2    4    4    0    0 -0.13838340429E+03  0.26020249223E+03  0.47092749163E+03  0.56289511727E+03  0.90680246588E+02 0.  0.
          1    1    3    3  502    0 -0.18722494992E+03 -0.11792361302E+04 -0.37295721062E+03  0.12508989222E+04  0.00000000000E+00 0. -1.
         -1    1    3    3    0  502 -0.11205419948E+03 -0.75209837671E+03 -0.31544400936E+03  0.82323328098E+03  0.00000000000E+00 0.  1.
         13    1    5    5    0    0  0.42799742080E+03  0.15401413685E+04  0.18555987523E+04  0.24491761792E+04  0.00000000000E+00 0.  1.
        -13    1    5    5    0    0  0.96651328854E+01  0.13099064618E+03  0.16052467250E+03  0.20741295683E+03  0.00000000000E+00 0. -1.
          4    1    6    6  503    0 -0.15078713547E+02  0.37874344870E+02  0.13862568215E+03  0.14449537485E+03  0.00000000000E+00 0. -1.
         -4    1    6    6    0  503 -0.12330469074E+03  0.22232814736E+03  0.33230180948E+03  0.41839974241E+03  0.00000000000E+00 0.  1.
<mgrwt>
<rscale>  0 0.19896276E+04</rscale>
<asrwt>0</asrwt>
<pdfrwt beam="1">  1        2 0.54555893E+00 0.19896276E+04</pdfrwt>
<pdfrwt beam="2">  1       -2 0.26884360E+00 0.19896276E+04</pdfrwt>
<totfact> 0.32995750E-02</totfact>
</mgrwt>
</event>
<event>
12    1  0.1418317E-007  0.3514056E+03  0.7818608E-02  0.1062040E+00
          2   -1    0    0  501    0  0.00000000000E+00  0.00000000000E+00  0.28814468096E+04  0.28814468096E+04  0.00000000000E+00 0.  1.
         -2   -1    0    0    0  501 -0.00000000000E+00 -0.00000000000E+00 -0.49838532268E+02  0.49838532268E+02  0.00000000000E+00 0. -1.
         23    2    1    2    0    0  0.96511568380E+02 -0.36562186534E+02  0.74359648541E+03  0.75630941084E+03  0.91743749042E+02 0.  0.
    5000000    2    1    2    0    0 -0.96511568380E+02  0.36562186534E+02  0.20880117919E+04  0.21749759310E+04  0.60006314755E+03 0.  0.
         23    2    4    4    0    0  0.97515276186E+01 -0.25839873167E+03  0.78811936512E+03  0.83522406829E+03  0.97990375795E+02 0.  0.
         23    2    4    4    0    0 -0.10626309600E+03  0.29496091820E+03  0.12998924268E+04  0.13397518627E+04  0.83192208981E+02 0.  0.
          4    1    3    3  502    0  0.59567666129E+02  0.34309005686E+01  0.17061907003E+03  0.18075105804E+03  0.00000000000E+00 0. -1.
         -4    1    3    3    0  502  0.36943902251E+02 -0.39993087103E+02  0.57297741539E+03  0.57555835280E+03  0.00000000000E+00 0.  1.
         11    1    5    5    0    0 -0.13247516890E+02 -0.23012611594E+03  0.58342321326E+03  0.62730867339E+03  0.00000000000E+00 0.  1.
        -11    1    5    5    0    0  0.22999044508E+02 -0.28272615734E+02  0.20469615186E+03  0.20791539490E+03  0.00000000000E+00 0. -1.
          4    1    6    6  503    0 -0.66288421335E+02  0.83867461299E+02  0.51555675290E+03  0.52652319163E+03  0.00000000000E+00 0. -1.
         -4    1    6    6    0  503 -0.39974674663E+02  0.21109345691E+03  0.78433567386E+03  0.81322867107E+03  0.00000000000E+00 0.  1.
<mgrwt>
<rscale>  0 0.35140559E+03</rscale>
<asrwt>0</asrwt>
<pdfrwt beam="1">  1        2 0.44329938E+00 0.35140559E+03</pdfrwt>
<pdfrwt beam="2">  1       -2 0.76674687E-02 0.35140559E+03</pdfrwt>
<totfact> 0.24242177E+02</totfact>
</mgrwt>
</event>
<event>
12    1  0.1418317E-007  0.6226600E+03  0.7818608E-02  0.9859478E-01
         -2   -1    0    0    0  501 -0.00000000000E+00  0.00000000000E+00  0.47329451071E+03  0.47329451071E+03  0.00000000000E+00 0. -1.
          2   -1    0    0  501    0  0.00000000000E+00 -0.00000000000E+00 -0.11346265830E+04  0.11346265830E+04  0.00000000000E+00 0.  1.
         23    2    1    2    0    0  0.13985299157E+03  0.52011637709E+03  0.29289449477E+02  0.54636655940E+03  0.87055387041E+02 0.  0.
    5000000    2    1    2    0    0 -0.13985299157E+03 -0.52011637709E+03 -0.69062152178E+03  0.10615545343E+04  0.59988335366E+03 0.  0.
         23    2    4    4    0    0 -0.29776530249E+03 -0.27899122221E+03 -0.62401792931E+03  0.75116128614E+03  0.91348914977E+02 0.  0.
         23    2    4    4    0    0  0.15791231092E+03 -0.24112515489E+03 -0.66603592469E+02  0.31039324816E+03  0.93969631877E+02 0.  0.
          2    1    3    3  502    0  0.16423414309E+02  0.14008475954E+03  0.40143679907E+02  0.14664577535E+03  0.00000000000E+00 0. -1.
         -2    1    3    3    0  502  0.12342957726E+03  0.38003161756E+03 -0.10854230430E+02  0.39972078405E+03  0.00000000000E+00 0.  1.
         13    1    5    5    0    0 -0.13715116851E+03 -0.18123379250E+03 -0.38460514997E+03  0.44674069878E+03  0.00000000000E+00 0. -1.
        -13    1    5    5    0    0 -0.16061413398E+03 -0.97757429704E+02 -0.23941277934E+03  0.30442058736E+03  0.00000000000E+00 0.  1.
          1    1    6    6  503    0  0.10734345663E+03 -0.14083331551E+03 -0.85260249411E+02  0.19653485841E+03  0.00000000000E+00 0. -1.
         -1    1    6    6    0  503  0.50568854294E+02 -0.10029183938E+03  0.18656656941E+02  0.11385838976E+03  0.00000000000E+00 0.  1.
<mgrwt>
<rscale>  0 0.62266001E+03</rscale>
<asrwt>0</asrwt>
<pdfrwt beam="1">  1        2 0.17455793E+00 0.62266001E+03</pdfrwt>
<pdfrwt beam="2">  1       -2 0.72814542E-01 0.62266001E+03</pdfrwt>
<totfact> 0.36483047E+01</totfact>
</mgrwt>
</event>
<event>
12    1  0.1418317E-007  0.5091283E+03  0.7818608E-02  0.1011423E+00
         -2   -1    0    0    0  501 -0.00000000000E+00  0.00000000000E+00  0.34715225984E+03  0.34715225984E+03  0.00000000000E+00 0.  1.
          2   -1    0    0  501    0  0.00000000000E+00 -0.00000000000E+00 -0.88225244545E+03  0.88225244545E+03  0.00000000000E+00 0. -1.
         23    2    1    2    0    0  0.36200956948E+03  0.15657450475E+02 -0.32883523097E+03  0.49876432322E+03  0.96628964758E+02 0.  0.
    5000000    2    1    2    0    0 -0.36200956948E+03 -0.15657450475E+02 -0.20626495463E+03  0.73064038207E+03  0.59999504352E+03 0.  0.
         23    2    4    4    0    0 -0.43269114348E+03  0.13247668713E+03 -0.26762342119E+03  0.53351668727E+03  0.90807828646E+02 0.  0.
         23    2    4    4    0    0  0.70681573999E+02 -0.14813413760E+03  0.61358466557E+02  0.19712369480E+03  0.90295525965E+02 0.  0.
          2    1    3    3  502    0  0.19753102095E+03  0.48657219497E+02 -0.21524052134E+03  0.29616635743E+03  0.00000000000E+00 0. -1.
         -2    1    3    3    0  502  0.16447854854E+03 -0.32999769022E+02 -0.11359470963E+03  0.20259796578E+03  0.00000000000E+00 0.  1.
         13    1    5    5    0    0 -0.10038314452E+03  0.71836024676E+02 -0.80275609112E+02  0.14724592885E+03  0.00000000000E+00 0. -1.
        -13    1    5    5    0    0 -0.33230799896E+03  0.60640662451E+02 -0.18734781208E+03  0.38627075842E+03  0.00000000000E+00 0.  1.
          1    1    6    6  503    0  0.65489920771E+02 -0.38287681532E+02  0.37381861435E+02  0.84571152552E+02  0.00000000000E+00 0. -1.
         -1    1    6    6    0  503  0.51916532277E+01 -0.10984645607E+03  0.23976605123E+02  0.11255254225E+03  0.00000000000E+00 0.  1.
<mgrwt>
<rscale>  0 0.50912825E+03</rscale>
<asrwt>0</asrwt>
<pdfrwt beam="1">  1        2 0.13573114E+00 0.50912825E+03</pdfrwt>
<pdfrwt beam="2">  1       -2 0.53408041E-01 0.50912825E+03</pdfrwt>
<totfact> 0.10291890E+02</totfact>
</mgrwt>
</event>
<event>
12    1  0.1418317E-007  0.7459003E+03  0.7818608E-02  0.9641804E-01
          1   -1    0    0  501    0  0.00000000000E+00  0.00000000000E+00  0.92811106613E+03  0.92811106613E+03  0.00000000000E+00 0. -1.
         -1   -1    0    0    0  501 -0.00000000000E+00 -0.00000000000E+00 -0.86730499801E+03  0.86730499801E+03  0.00000000000E+00 0.  1.
         23    2    1    2    0    0 -0.58529050516E+03  0.43003423190E+03  0.34785391799E+03  0.81037110675E+03  0.90579061350E+02 0.  0.
    5000000    2    1    2    0    0  0.58529050516E+03 -0.43003423190E+03 -0.28704784988E+03  0.98504495739E+03  0.60035213328E+03 0.  0.
         23    2    4    4    0    0  0.21362820923E+03 -0.24798965400E+03  0.15175443667E+03  0.37487487804E+03  0.10181298966E+03 0.  0.
         23    2    4    4    0    0  0.37166229593E+03 -0.18204457790E+03 -0.43880228655E+03  0.61017007935E+03  0.92124852801E+02 0.  0.
          3    1    3    3  502    0 -0.44333426135E+02  0.59036295840E+02  0.54734314155E+02  0.91905288452E+02  0.00000000000E+00 0. -1.
         -3    1    3    3    0  502 -0.54095707903E+03  0.37099793606E+03  0.29311960384E+03  0.71846581830E+03  0.00000000000E+00 0.  1.
         11    1    5    5    0    0  0.11427298417E+03 -0.63053878632E+02  0.79665589909E+02  0.15290753002E+03  0.00000000000E+00 0.  1.
        -11    1    5    5    0    0  0.99355225069E+02 -0.18493577537E+03  0.72088846761E+02  0.22196734802E+03  0.00000000000E+00 0. -1.
          3    1    6    6  503    0  0.28065062622E+03 -0.17397542125E+03 -0.31543674015E+03  0.45665365238E+03  0.00000000000E+00 0. -1.
         -3    1    6    6    0  503  0.91011669705E+02 -0.80691566431E+01 -0.12336554640E+03  0.15351642697E+03  0.00000000000E+00 0.  1.
<mgrwt>
<rscale>  0 0.74590030E+03</rscale>
<asrwt>0</asrwt>
<pdfrwt beam="1">  1        1 0.14278632E+00 0.74590030E+03</pdfrwt>
<pdfrwt beam="2">  1       -1 0.13343154E+00 0.74590030E+03</pdfrwt>
<totfact> 0.84672790E+00</totfact>
</mgrwt>
</event>
<event>
12    1  0.1418317E-007  0.9440704E+03  0.7818608E-02  0.9372108E-01
          2   -1    0    0  501    0  0.00000000000E+00  0.00000000000E+00  0.12434155456E+04  0.12434155456E+04  0.00000000000E+00 0. -1.
         -2   -1    0    0    0  501 -0.00000000000E+00 -0.00000000000E+00 -0.83735233395E+03  0.83735233395E+03  0.00000000000E+00 0.  1.
         23    2    1    2    0    0 -0.90251634371E+03  0.21713501857E+03  0.23838432027E+03  0.96277692809E+03  0.91809379495E+02 0.  0.
    5000000    2    1    2    0    0  0.90251634371E+03 -0.21713501857E+03  0.16767889137E+03  0.11179909515E+04  0.60008681869E+03 0.  0.
         23    2    4    4    0    0  0.60486326012E+03 -0.50258356489E+02  0.36463982918E+03  0.71371996930E+03  0.89713564840E+02 0.  0.
         23    2    4    4    0    0  0.29765308359E+03 -0.16687666209E+03 -0.19696093780E+03  0.40427098216E+03  0.90533073921E+02 0.  0.
          1    1    3    3  502    0 -0.69959769328E+03  0.17682302774E+03  0.14608100439E+03  0.73623567927E+03  0.00000000000E+00 0.  1.
         -1    1    3    3    0  502 -0.20291865043E+03  0.40311990834E+02  0.92303315880E+02  0.22654124882E+03  0.00000000000E+00 0. -1.
         11    1    5    5    0    0  0.18762986052E+03 -0.13283796184E+02  0.66204565233E+02  0.19941030128E+03  0.00000000000E+00 0. -1.
        -11    1    5    5    0    0  0.41723339959E+03 -0.36974560306E+02  0.29843526394E+03  0.51430966801E+03  0.00000000000E+00 0.  1.
          4    1    6    6  503    0  0.28888631469E+02  0.10425296400E+02 -0.22435770138E+02  0.38034242662E+02  0.00000000000E+00 0. -1.
         -4    1    6    6    0  503  0.26876445213E+03 -0.17730195849E+03 -0.17452516767E+03  0.36623673950E+03  0.00000000000E+00 0.  1.
<mgrwt>
<rscale>  0 0.94407042E+03</rscale>
<asrwt>0</asrwt>
<pdfrwt beam="1">  1        2 0.19129470E+00 0.94407042E+03</pdfrwt>
<pdfrwt beam="2">  1       -2 0.12882344E+00 0.94407042E+03</pdfrwt>
<totfact> 0.79149485E+00</totfact>
</mgrwt>
</event>
<event>
12    1  0.1418317E-007  0.6692848E+03  0.7818608E-02  0.9771251E-01
          1   -1    0    0  501    0  0.00000000000E+00  0.00000000000E+00  0.84442832273E+03  0.84442832273E+03  0.00000000000E+00 0. -1.
         -1   -1    0    0    0  501 -0.00000000000E+00 -0.00000000000E+00 -0.67770389870E+03  0.67770389870E+03  0.00000000000E+00 0.  1.
         23    2    1    2    0    0  0.52345275367E+03  0.26782291906E+03  0.30836783858E+03  0.67029941212E+03  0.92079730273E+02 0.  0.
    5000000    2    1    2    0    0 -0.52345275367E+03 -0.26782291906E+03 -0.14164341455E+03  0.85183280931E+03  0.59985362951E+03 0.  0.
         23    2    4    4    0    0  0.43186175765E+02 -0.14611673148E+03  0.11527169799E+03  0.21150616023E+03  0.90731176902E+02 0.  0.
         23    2    4    4    0    0 -0.56663892943E+03 -0.12170618758E+03 -0.25691511254E+03  0.64032664908E+03  0.90115315179E+02 0.  0.
          1    1    3    3  502    0  0.45775500837E+03  0.23010264761E+03  0.30093578634E+03  0.59417945406E+03  0.00000000000E+00 0. -1.
         -1    1    3    3    0  502  0.65697745298E+02  0.37720271448E+02  0.74320522396E+01  0.76119958065E+02  0.00000000000E+00 0.  1.
         11    1    5    5    0    0 -0.13961518779E+02 -0.88646569907E+02  0.31920370396E+02  0.95247301322E+02  0.00000000000E+00 0. -1.
        -11    1    5    5    0    0  0.57147694544E+02 -0.57470161574E+02  0.83351327593E+02  0.11625885891E+03  0.00000000000E+00 0.  1.
          4    1    6    6  503    0 -0.56380247916E+03 -0.12017234263E+03 -0.24223044838E+03  0.62529210579E+03  0.00000000000E+00 0.  1.
         -4    1    6    6    0  503 -0.28364502714E+01 -0.15338449423E+01 -0.14684664160E+02  0.15034543290E+02  0.00000000000E+00 0. -1.
<mgrwt>
<rscale>  0 0.66928482E+03</rscale>
<asrwt>0</asrwt>
<pdfrwt beam="1">  1        1 0.12991205E+00 0.66928482E+03</pdfrwt>
<pdfrwt beam="2">  1       -1 0.10426214E+00 0.66928482E+03</pdfrwt>
<totfact> 0.18204954E+01</totfact>
</mgrwt>
</event>
<event>
12    1  0.1418317E-007  0.9751117E+03  0.7818608E-02  0.9336271E-01
          1   -1    0    0  501    0  0.00000000000E+00  0.00000000000E+00  0.35027080625E+04  0.35027080625E+04  0.00000000000E+00 0. -1.
         -1   -1    0    0    0  501 -0.00000000000E+00 -0.00000000000E+00 -0.45352164178E+03  0.45352164178E+03  0.00000000000E+00 0.  1.
         23    2    1    2    0    0 -0.96084558380E+03  0.21037155864E+01  0.34576225092E+03  0.10250813739E+04  0.89507695272E+02 0.  0.
    5000000    2    1    2    0    0  0.96084558380E+03 -0.21037155864E+01  0.27034241698E+04  0.29311483303E+04  0.59991635335E+03 0.  0.
         23    2    4    4    0    0  0.16991778080E+03 -0.24134563991E+02  0.13233646069E+04  0.13375760332E+04  0.91439773860E+02 0.  0.
         23    2    4    4    0    0  0.79092780301E+03  0.22030848404E+02  0.13800595628E+04  0.15935722971E+04  0.94106967505E+02 0.  0.
          4    1    3    3  502    0 -0.64180196808E+03 -0.37403466501E+02  0.24797454935E+03  0.68905744511E+03  0.00000000000E+00 0. -1.
         -4    1    3    3    0  502 -0.31904361572E+03  0.39507182087E+02  0.97787701568E+02  0.33602392883E+03  0.00000000000E+00 0.  1.
         13    1    5    5    0    0  0.11060692617E+03  0.23626221042E+02  0.63307213444E+03  0.64309596317E+03  0.00000000000E+00 0. -1.
        -13    1    5    5    0    0  0.59310854623E+02 -0.47760785033E+02  0.69029247250E+03  0.69448007001E+03  0.00000000000E+00 0.  1.
          3    1    6    6  503    0  0.47779233183E+03  0.58446607960E+02  0.81587913819E+03  0.94729102522E+03  0.00000000000E+00 0. -1.
         -3    1    6    6    0  503  0.31313547118E+03 -0.36415759556E+02  0.56418042464E+03  0.64628127189E+03  0.00000000000E+00 0.  1.
<mgrwt>
<rscale>  0 0.97511173E+03</rscale>
<asrwt>0</asrwt>
<pdfrwt beam="1">  1        1 0.53887815E+00 0.97511173E+03</pdfrwt>
<pdfrwt beam="2">  1       -1 0.69772563E-01 0.97511173E+03</pdfrwt>
<totfact> 0.53959665E-01</totfact>
</mgrwt>
</event>
<event>
12    1  0.1418317E-007  0.9292850E+03  0.7818608E-02  0.9389696E-01
          1   -1    0    0  501    0  0.00000000000E+00  0.00000000000E+00  0.12109849660E+04  0.12109849660E+04  0.00000000000E+00 0. -1.
         -1   -1    0    0    0  501 -0.00000000000E+00 -0.00000000000E+00 -0.76841065555E+03  0.76841065555E+03  0.00000000000E+00 0.  1.
         23    2    1    2    0    0  0.70686930958E+03 -0.47237740261E+03  0.38261890899E+03  0.93710934202E+03  0.94720948432E+02 0.  0.
    5000000    2    1    2    0    0 -0.70686930958E+03  0.47237740261E+03  0.59955401455E+02  0.10422862795E+04  0.59996783831E+03 0.  0.
         23    2    4    4    0    0 -0.76318750891E+03  0.30536968364E+03 -0.29155385552E+02  0.82760815345E+03  0.91539072061E+02 0.  0.
         23    2    4    4    0    0  0.56318199334E+02  0.16700771897E+03  0.89110787008E+02  0.21467812607E+03  0.84158467679E+02 0.  0.
          4    1    3    3  502    0  0.39821166931E+03 -0.24809029719E+03  0.25972734261E+03  0.53626450715E+03  0.00000000000E+00 0. -1.
         -4    1    3    3    0  502  0.30865764027E+03 -0.22428710542E+03  0.12289156637E+03  0.40084483487E+03  0.00000000000E+00 0.  1.
         11    1    5    5    0    0 -0.47161629666E+02  0.38302712879E+02 -0.17811992840E+02  0.63313381015E+02  0.00000000000E+00 0. -1.
        -11    1    5    5    0    0 -0.71602587924E+03  0.26706697076E+03 -0.11343392712E+02  0.76429477244E+03  0.00000000000E+00 0.  1.
          4    1    6    6  503    0  0.39293944859E+01  0.88023979145E+02  0.54873712834E+01  0.88282344153E+02  0.00000000000E+00 0. -1.
         -4    1    6    6    0  503  0.52388804848E+02  0.78983739822E+02  0.83623415724E+02  0.12639578192E+03  0.00000000000E+00 0.  1.
<mgrwt>
<rscale>  0 0.92928503E+03</rscale>
<asrwt>0</asrwt>
<pdfrwt beam="1">  1        1 0.18630538E+00 0.92928503E+03</pdfrwt>
<pdfrwt beam="2">  1       -1 0.11821702E+00 0.92928503E+03</pdfrwt>
<totfact> 0.68150642E+00</totfact>
</mgrwt>
</event>
<event>
12    1  0.1418317E-007  0.1062818E+04  0.7818608E-02  0.9242210E-01
          2   -1    0    0  501    0  0.00000000000E+00  0.00000000000E+00  0.21859732779E+04  0.21859732779E+04  0.00000000000E+00 0. -1.
         -2   -1    0    0    0  501 -0.00000000000E+00 -0.00000000000E+00 -0.70352143887E+03  0.70352143887E+03  0.00000000000E+00 0.  1.
         23    2    1    2    0    0  0.79532661067E+02 -0.10553218800E+04  0.12677072347E+04  0.16539847317E+04  0.92488623028E+02 0.  0.
    5000000    2    1    2    0    0 -0.79532661067E+02  0.10553218800E+04  0.21474460429E+03  0.12355099850E+04  0.60028323597E+03 0.  0.
         23    2    4    4    0    0 -0.80690645724E+02  0.31579104044E+03  0.34047589092E+03  0.48020285166E+03  0.91847617893E+02 0.  0.
         23    2    4    4    0    0  0.11579846566E+01  0.73953083954E+03 -0.12573128663E+03  0.75530713333E+03  0.88166352179E+02 0.  0.
          3    1    3    3  502    0  0.51078471860E+01 -0.23236831093E+03  0.22421905837E+03  0.32294784124E+03  0.00000000000E+00 0. -1.
         -3    1    3    3    0  502  0.74424813881E+02 -0.82295356905E+03  0.10434881763E+04  0.13310368905E+04  0.00000000000E+00 0.  1.
         11    1    5    5    0    0  0.79681045656E+00  0.63325431511E+01  0.42397381136E+02  0.42875096931E+02  0.00000000000E+00 0. -1.
        -11    1    5    5    0    0 -0.81487456180E+02  0.30945849729E+03  0.29807850979E+03  0.43732775473E+03  0.00000000000E+00 0.  1.
          3    1    6    6  503    0 -0.18246487136E+02  0.41159589003E+03 -0.10995383362E+03  0.42641992978E+03  0.00000000000E+00 0. -1.
         -3    1    6    6    0  503  0.19404471793E+02  0.32793494951E+03 -0.15777453011E+02  0.32888720355E+03  0.00000000000E+00 0.  1.
<mgrwt>
<rscale>  0 0.10628176E+04</rscale>
<asrwt>0</asrwt>
<pdfrwt beam="1">  1        2 0.33630358E+00 0.10628176E+04</pdfrwt>
<pdfrwt beam="2">  1       -2 0.10823407E+00 0.10628176E+04</pdfrwt>
<totfact> 0.35735375E+00</totfact>
</mgrwt>
</event>
<event>
12    1  0.1418317E-007  0.9119986E+03  0.7818608E-02  0.9410706E-01
          2   -1    0    0  501    0  0.00000000000E+00  0.00000000000E+00  0.16978428676E+04  0.16978428676E+04  0.00000000000E+00 0.  1.
         -2   -1    0    0    0  501 -0.00000000000E+00 -0.00000000000E+00 -0.54587647305E+03  0.54587647305E+03  0.00000000000E+00 0. -1.
         23    2    1    2    0    0  0.72332087148E+02 -0.82302005739E+03  0.21682050093E+03  0.85912507094E+03  0.92145603322E+02 0.  0.
    5000000    2    1    2    0    0 -0.72332087148E+02  0.82302005739E+03  0.93514589365E+03  0.13845942697E+04  0.60000791969E+03 0.  0.
         23    2    4    4    0    0  0.12955697784E+02  0.88173366208E+03  0.81947853588E+03  0.12071382089E+04  0.89529232951E+02 0.  0.
         23    2    4    4    0    0 -0.85287784932E+02 -0.58713604699E+02  0.11566735776E+03  0.17745606088E+03  0.85967565130E+02 0.  0.
          2    1    3    3  502    0  0.22990502258E+01 -0.50908653891E+03  0.11730021018E+03  0.52243059735E+03  0.00000000000E+00 0.  1.
         -2    1    3    3    0  502  0.70033036922E+02 -0.31393351847E+03  0.99520290748E+02  0.33669447360E+03  0.00000000000E+00 0. -1.
         13    1    5    5    0    0  0.49703328062E+02  0.54219893061E+03  0.48649615490E+03  0.73015656534E+03  0.00000000000E+00 0. -1.
        -13    1    5    5    0    0 -0.36747630277E+02  0.33953473147E+03  0.33298238099E+03  0.47698164352E+03  0.00000000000E+00 0.  1.
          3    1    6    6  503    0 -0.21996221105E+02 -0.31385227315E+02 -0.48325153164E+01  0.38629256281E+02  0.00000000000E+00 0. -1.
         -3    1    6    6    0  503 -0.63291563827E+02 -0.27328377384E+02  0.12049987308E+03  0.13882680459E+03  0.00000000000E+00 0.  1.
<mgrwt>
<rscale>  0 0.91199858E+03</rscale>
<asrwt>0</asrwt>
<pdfrwt beam="1">  1        2 0.26120659E+00 0.91199858E+03</pdfrwt>
<pdfrwt beam="2">  1       -2 0.83980997E-01 0.91199858E+03</pdfrwt>
<totfact> 0.12274544E+01</totfact>
</mgrwt>
</event>
<event>
12    1  0.1418317E-007  0.1642708E+04  0.7818608E-02  0.8794732E-01
          2   -1    0    0  501    0  0.00000000000E+00  0.00000000000E+00  0.14198508395E+04  0.14198508395E+04  0.00000000000E+00 0.  1.
         -2   -1    0    0    0  501 -0.00000000000E+00 -0.00000000000E+00 -0.20371203070E+04  0.20371203070E+04  0.00000000000E+00 0. -1.
         23    2    1    2    0    0  0.15068478050E+04  0.55589131948E+03 -0.66738999816E+03  0.17416935341E+04  0.92095009217E+02 0.  0.
    5000000    2    1    2    0    0 -0.15068478050E+04 -0.55589131948E+03  0.50120530655E+02  0.17152776124E+04  0.60004979244E+03 0.  0.
         23    2    4    4    0    0 -0.12245180922E+04 -0.24383391718E+03  0.18390898153E+03  0.12657411279E+04  0.96842924600E+02 0.  0.
         23    2    4    4    0    0 -0.28232971282E+03 -0.31205740230E+03 -0.13378845087E+03  0.44953648451E+03  0.84224772157E+02 0.  0.
          3    1    3    3  502    0  0.17901389813E+03  0.58834071428E+02 -0.47780080871E+02  0.19439742749E+03  0.00000000000E+00 0. -1.
         -3    1    3    3    0  502  0.13278339069E+04  0.49705724805E+03 -0.61960991729E+03  0.15472961066E+04  0.00000000000E+00 0.  1.
         13    1    5    5    0    0 -0.27691934003E+03 -0.90461739327E+02  0.20907806080E+02  0.29206982644E+03  0.00000000000E+00 0. -1.
        -13    1    5    5    0    0 -0.94759875214E+03 -0.15337217785E+03  0.16300117545E+03  0.97367130141E+03  0.00000000000E+00 0.  1.
          3    1    6    6  503    0 -0.19811479572E+03 -0.16232346057E+03 -0.63173707736E+02  0.26379783070E+03  0.00000000000E+00 0. -1.
         -3    1    6    6    0  503 -0.84214917101E+02 -0.14973394173E+03 -0.70614743139E+02  0.18573865381E+03  0.00000000000E+00 0.  1.
<mgrwt>
<rscale>  0 0.16427085E+04</rscale>
<asrwt>0</asrwt>
<pdfrwt beam="1">  1        2 0.21843859E+00 0.16427085E+04</pdfrwt>
<pdfrwt beam="2">  1       -2 0.31340313E+00 0.16427085E+04</pdfrwt>
<totfact> 0.34415739E-01</totfact>
</mgrwt>
</event>
<event>
12    1  0.1418317E-007  0.1122074E+04  0.7818608E-02  0.9183940E-01
          1   -1    0    0  501    0  0.00000000000E+00  0.00000000000E+00  0.10007626353E+04  0.10007626353E+04  0.00000000000E+00 0. -1.
         -1   -1    0    0    0  501 -0.00000000000E+00 -0.00000000000E+00 -0.15291911102E+04  0.15291911102E+04  0.00000000000E+00 0.  1.
         23    2    1    2    0    0 -0.34333651290E+02  0.10484151911E+04 -0.76032275183E+03  0.12994963397E+04  0.10122666369E+03 0.  0.
    5000000    2    1    2    0    0  0.34333651290E+02 -0.10484151911E+04  0.23189427693E+03  0.12304574059E+04  0.59991437686E+03 0.  0.
         23    2    4    4    0    0 -0.24511845960E+03 -0.26954097185E+03  0.78106120650E+02  0.38387042233E+03  0.92306772871E+02 0.  0.
         23    2    4    4    0    0  0.27945211089E+03 -0.77887421921E+03  0.15378815628E+03  0.84658698355E+03  0.91215086838E+02 0.  0.
          4    1    3    3  502    0 -0.60148199622E+02  0.75963889452E+03 -0.51523211983E+03  0.91985498492E+03  0.00000000000E+00 0.  1.
         -4    1    3    3    0  502  0.25814548332E+02  0.28877629654E+03 -0.24509063200E+03  0.37964135476E+03  0.00000000000E+00 0. -1.
         13    1    5    5    0    0 -0.10822432305E+03 -0.13081218919E+03 -0.98088262512E+01  0.17006041872E+03  0.00000000000E+00 0.  1.
        -13    1    5    5    0    0 -0.13689413655E+03 -0.13872878266E+03  0.87914946901E+02  0.21381000362E+03  0.00000000000E+00 0. -1.
          4    1    6    6  503    0  0.21698691862E+03 -0.61431868502E+03  0.15847863554E+03  0.67051192945E+03  0.00000000000E+00 0. -1.
         -4    1    6    6    0  503  0.62465192274E+02 -0.16455553420E+03 -0.46904792610E+01  0.17607505410E+03  0.00000000000E+00 0.  1.
<mgrwt>
<rscale>  0 0.11220737E+04</rscale>
<asrwt>0</asrwt>
<pdfrwt beam="1">  1        1 0.15396348E+00 0.11220737E+04</pdfrwt>
<pdfrwt beam="2">  1       -1 0.23526017E+00 0.11220737E+04</pdfrwt>
<totfact> 0.13043409E+00</totfact>
</mgrwt>
</event>
<event>
12    1  0.1418317E-007  0.1883443E+04  0.7818608E-02  0.8663142E-01
         -2   -1    0    0    0  501 -0.00000000000E+00  0.00000000000E+00  0.14341358974E+04  0.14341358974E+04  0.00000000000E+00 0.  1.
          2   -1    0    0  501    0  0.00000000000E+00 -0.00000000000E+00 -0.31487636223E+04  0.31487636223E+04  0.00000000000E+00 0. -1.
         23    2    1    2    0    0  0.86286571125E+03 -0.16619131087E+04  0.13960263684E+03  0.18801858755E+04  0.95486194810E+02 0.  0.
    5000000    2    1    2    0    0 -0.86286571125E+03  0.16619131087E+04 -0.18542303617E+04  0.27027136442E+04  0.59999865969E+03 0.  0.
         23    2    4    4    0    0 -0.40607610587E+03  0.54686077371E+03 -0.10352440500E+04  0.12428656402E+04  0.95027611472E+02 0.  0.
         23    2    4    4    0    0 -0.45678960538E+03  0.11150523350E+04 -0.81898631169E+03  0.14598480040E+04  0.91755994783E+02 0.  0.
          1    1    3    3  502    0  0.27661873281E+03 -0.44846322766E+03  0.20976334747E+02  0.52733025376E+03  0.00000000000E+00 0. -1.
         -1    1    3    3    0  502  0.58624697843E+03 -0.12134498811E+04  0.11862630209E+03  0.13528556217E+04  0.00000000000E+00 0.  1.
         11    1    5    5    0    0 -0.19710494680E+03  0.33920002379E+03 -0.62117939276E+03  0.73469099231E+03  0.00000000000E+00 0.  1.
        -11    1    5    5    0    0 -0.20897115907E+03  0.20766074992E+03 -0.41406465726E+03  0.50817464790E+03  0.00000000000E+00 0. -1.
          4    1    6    6  503    0 -0.82344148985E+02  0.23521938409E+03 -0.12841921991E+03  0.28035729626E+03  0.00000000000E+00 0. -1.
         -4    1    6    6    0  503 -0.37444545639E+03  0.87983295095E+03 -0.69056709178E+03  0.11794907077E+04  0.00000000000E+00 0.  1.
<mgrwt>
<rscale>  0 0.18834434E+04</rscale>
<asrwt>0</asrwt>
<pdfrwt beam="1">  1        2 0.48442517E+00 0.18834434E+04</pdfrwt>
<pdfrwt beam="2">  1       -2 0.22063629E+00 0.18834434E+04</pdfrwt>
<totfact> 0.12358395E-01</totfact>
</mgrwt>
</event>
<event>
12    1  0.1418317E-007  0.7861048E+03  0.7818608E-02  0.9580350E-01
         -3   -1    0    0    0  501 -0.00000000000E+00  0.00000000000E+00  0.59802574536E+03  0.59802574536E+03  0.00000000000E+00 0. -1.
          3   -1    0    0  501    0  0.00000000000E+00 -0.00000000000E+00 -0.12223714909E+04  0.12223714909E+04  0.00000000000E+00 0.  1.
         23    2    1    2    0    0 -0.74018296034E+03  0.55446898697E+01 -0.38002486958E+03  0.83676007328E+03  0.88583070472E+02 0.  0.
    5000000    2    1    2    0    0  0.74018296034E+03 -0.55446898697E+01 -0.24432087601E+03  0.98363716302E+03  0.59995651480E+03 0.  0.
         23    2    4    4    0    0  0.24141836997E+03  0.16366107746E+03 -0.32365381680E+03  0.44361756268E+03  0.83528265627E+02 0.  0.
         23    2    4    4    0    0  0.49876459037E+03 -0.16920576733E+03  0.79332940791E+02  0.54001960034E+03  0.89054730076E+02 0.  0.
          4    1    3    3  502    0 -0.24640912244E+03  0.78774804356E+01 -0.81022323523E+02  0.25950747046E+03  0.00000000000E+00 0. -1.
         -4    1    3    3    0  502 -0.49377383791E+03 -0.23327905659E+01 -0.29900254606E+03  0.57725260282E+03  0.00000000000E+00 0.  1.
         13    1    5    5    0    0  0.46990557087E+02  0.75511204903E+02 -0.11179647754E+03  0.14285834562E+03  0.00000000000E+00 0. -1.
        -13    1    5    5    0    0  0.19442781288E+03  0.88149872555E+02 -0.21185733926E+03  0.30075921707E+03  0.00000000000E+00 0.  1.
          1    1    6    6  503    0  0.51260255823E+02 -0.35763120037E+02  0.33190827106E+02  0.70768959197E+02  0.00000000000E+00 0. -1.
         -1    1    6    6    0  503  0.44750433455E+03 -0.13344264729E+03  0.46142113684E+02  0.46925064114E+03  0.00000000000E+00 0.  1.
<mgrwt>
<rscale>  0 0.78610481E+03</rscale>
<asrwt>0</asrwt>
<pdfrwt beam="1">  1        3 0.18805715E+00 0.78610481E+03</pdfrwt>
<pdfrwt beam="2">  1       -3 0.92003962E-01 0.78610481E+03</pdfrwt>
<totfact> 0.48277977E-01</totfact>
</mgrwt>
</event>
<event>
12    1  0.1418317E-007  0.9623509E+03  0.7818608E-02  0.9350830E-01
          2   -1    0    0  501    0  0.00000000000E+00  0.00000000000E+00  0.14358644272E+04  0.14358644272E+04  0.00000000000E+00 0. -1.
         -2   -1    0    0    0  501 -0.00000000000E+00 -0.00000000000E+00 -0.83369761156E+03  0.83369761156E+03  0.00000000000E+00 0.  1.
         23    2    1    2    0    0  0.73182654255E+03  0.48441365175E+03 -0.23471811916E+03  0.91661534728E+03  0.12191974831E+03 0.  0.
    5000000    2    1    2    0    0 -0.73182654255E+03 -0.48441365175E+03  0.83688493481E+03  0.13529466915E+04  0.59988472355E+03 0.  0.
         23    2    4    4    0    0 -0.13543946978E+03 -0.41830651419E+03  0.28879460271E+03  0.53518679050E+03  0.98480395959E+02 0.  0.
         23    2    4    4    0    0 -0.59638707277E+03 -0.66107137557E+02  0.54809033210E+03  0.81775990100E+03  0.90997523756E+02 0.  0.
          4    1    3    3  502    0  0.46453933387E+03  0.25448359723E+03 -0.99176008776E+02  0.53888270959E+03  0.00000000000E+00 0. -1.
         -4    1    3    3    0  502  0.26728720868E+03  0.22993005452E+03 -0.13554211038E+03  0.37773263769E+03  0.00000000000E+00 0.  1.
         13    1    5    5    0    0 -0.10411525237E+03 -0.36673398296E+03  0.20778832358E+03  0.43417713833E+03  0.00000000000E+00 0.  1.
        -13    1    5    5    0    0 -0.31324217413E+02 -0.51572531231E+02  0.81006279127E+02  0.10100965217E+03  0.00000000000E+00 0. -1.
          3    1    6    6  503    0 -0.24327732896E+02 -0.91539992054E+01  0.53160666496E+02  0.59175085565E+02  0.00000000000E+00 0. -1.
         -3    1    6    6    0  503 -0.57205933988E+03 -0.56953138352E+02  0.49492966560E+03  0.75858481543E+03  0.00000000000E+00 0.  1.
<mgrwt>
<rscale>  0 0.96235089E+03</rscale>
<asrwt>0</asrwt>
<pdfrwt beam="1">  1        2 0.22090222E+00 0.96235089E+03</pdfrwt>
<pdfrwt beam="2">  1       -2 0.12826117E+00 0.96235089E+03</pdfrwt>
<totfact> 0.61854827E+00</totfact>
</mgrwt>
</event>
<event>
12    1  0.1418317E-007  0.1141385E+04  0.7818608E-02  0.9165768E-01
         -2   -1    0    0    0  501 -0.00000000000E+00  0.00000000000E+00  0.78659814515E+03  0.78659814515E+03  0.00000000000E+00 0.  1.
          2   -1    0    0  501    0  0.00000000000E+00 -0.00000000000E+00 -0.25501405253E+04  0.25501405253E+04  0.00000000000E+00 0. -1.
         23    2    1    2    0    0  0.61405099212E+03 -0.95517935889E+03 -0.17057603910E+04  0.20511431741E+04  0.90241789477E+02 0.  0.
    5000000    2    1    2    0    0 -0.61405099212E+03  0.95517935889E+03 -0.57781989175E+02  0.12855954964E+04  0.59999232786E+03 0.  0.
         23    2    4    4    0    0 -0.12558514764E+03  0.26539607270E+03 -0.27111161759E+03  0.40978627987E+03  0.90645359853E+02 0.  0.
         23    2    4    4    0    0 -0.48846584448E+03  0.68978328619E+03  0.21332962842E+03  0.87580921652E+03  0.84453479767E+02 0.  0.
          3    1    3    3  502    0  0.25459220277E+03 -0.43200238869E+03 -0.82600059276E+03  0.96629200182E+03  0.00000000000E+00 0. -1.
         -3    1    3    3    0  502  0.35945878935E+03 -0.52317697019E+03 -0.87975979826E+03  0.10848511723E+04  0.00000000000E+00 0.  1.
         11    1    5    5    0    0 -0.17055050641E+02  0.39821626654E+01 -0.42430587070E+02  0.45903018321E+02  0.00000000000E+00 0. -1.
        -11    1    5    5    0    0 -0.10853009700E+03  0.26141391003E+03 -0.22868103052E+03  0.36388326155E+03  0.00000000000E+00 0.  1.
          3    1    6    6  503    0 -0.24615247909E+03  0.37900866065E+03  0.15309878316E+03  0.47715599673E+03  0.00000000000E+00 0. -1.
         -3    1    6    6    0  503 -0.24231336540E+03  0.31077462554E+03  0.60230845258E+02  0.39865321979E+03  0.00000000000E+00 0.  1.
<mgrwt>
<rscale>  0 0.11413854E+04</rscale>
<asrwt>0</asrwt>
<pdfrwt beam="1">  1        2 0.39232931E+00 0.11413854E+04</pdfrwt>
<pdfrwt beam="2">  1       -2 0.12101510E+00 0.11413854E+04</pdfrwt>
<totfact> 0.16730355E+00</totfact>
</mgrwt>
</event>
<event>
12    1  0.1418317E-007  0.2423994E+04  0.7818608E-02  0.8430575E-01
          2   -1    0    0  501    0  0.00000000000E+00  0.00000000000E+00  0.42092441284E+04  0.42092441284E+04  0.00000000000E+00 0. -1.
         -2   -1    0    0    0  501 -0.00000000000E+00 -0.00000000000E+00 -0.17417377450E+04  0.17417377450E+04  0.00000000000E+00 0.  1.
         23    2    1    2    0    0 -0.14651720193E+04  0.19275877422E+04 -0.27203044211E+02  0.24230863674E+04  0.91016416024E+02 0.  0.
    5000000    2    1    2    0    0  0.14651720193E+04 -0.19275877422E+04  0.24947094276E+04  0.35278955060E+04  0.60012333969E+03 0.  0.
         23    2    4    4    0    0  0.37814525725E+03 -0.50723812715E+03  0.10386335743E+04  0.12198047848E+04  0.94231936990E+02 0.  0.
         23    2    4    4    0    0  0.10870267621E+04 -0.14203496151E+04  0.14560758533E+04  0.23080907212E+04  0.90031530581E+02 0.  0.
          4    1    3    3  502    0 -0.52866672149E+03  0.75613567970E+03  0.14291649133E+02  0.92273177021E+03  0.00000000000E+00 0.  1.
         -4    1    3    3    0  502 -0.93650529784E+03  0.11714520625E+04 -0.41494693344E+02  0.15003545972E+04  0.00000000000E+00 0. -1.
         11    1    5    5    0    0 -0.34514354924E+01 -0.29389681395E+01  0.22484648891E+02  0.22937074278E+02  0.00000000000E+00 0. -1.
        -11    1    5    5    0    0  0.38159669274E+03 -0.50429915901E+03  0.10161489255E+04  0.11968677105E+04  0.00000000000E+00 0.  1.
          1    1    6    6  503    0  0.18488914352E+03 -0.25141914373E+03  0.21181898877E+03  0.37717749831E+03  0.00000000000E+00 0. -1.
         -1    1    6    6    0  503  0.90213761856E+03 -0.11689304713E+04  0.12442568645E+04  0.19309132229E+04  0.00000000000E+00 0.  1.
<mgrwt>
<rscale>  0 0.24239940E+04</rscale>
<asrwt>0</asrwt>
<pdfrwt beam="1">  1        2 0.64757602E+00 0.24239940E+04</pdfrwt>
<pdfrwt beam="2">  1       -2 0.26795965E+00 0.24239940E+04</pdfrwt>
<totfact> 0.96632954E-03</totfact>
</mgrwt>
</event>
<event>
12    1  0.1418317E-007  0.7053347E+03  0.7818608E-02  0.9708152E-01
          2   -1    0    0  501    0  0.00000000000E+00  0.00000000000E+00  0.19528980141E+04  0.19528980141E+04  0.00000000000E+00 0. -1.
         -2   -1    0    0    0  501 -0.00000000000E+00 -0.00000000000E+00 -0.29078083179E+03  0.29078083179E+03  0.00000000000E+00 0.  1.
         23    2    1    2    0    0 -0.21465124443E+03  0.56318667043E+03  0.42720075886E+03  0.74431720524E+03  0.90847295837E+02 0.  0.
    5000000    2    1    2    0    0  0.21465124443E+03 -0.56318667043E+03  0.12349164234E+04  0.14993616406E+04  0.59984362468E+03 0.  0.
         23    2    4    4    0    0 -0.88380153276E+02  0.58952624987E+02  0.32052289616E+03  0.34902649605E+03  0.88306876845E+02 0.  0.
         23    2    4    4    0    0  0.30303139771E+03 -0.62213929541E+03  0.91439352726E+03  0.11503351446E+04  0.90940042076E+02 0.  0.
          3    1    3    3  502    0 -0.67576258003E+02  0.94736411139E+02  0.58139354679E+02  0.13008352241E+03  0.00000000000E+00 0. -1.
         -3    1    3    3    0  502 -0.14707498643E+03  0.46845025929E+03  0.36906140418E+03  0.61423368283E+03  0.00000000000E+00 0.  1.
         11    1    5    5    0    0 -0.62084202813E+01  0.36490225625E+01  0.16162539192E+03  0.16178574462E+03  0.00000000000E+00 0.  1.
        -11    1    5    5    0    0 -0.82171732994E+02  0.55303602424E+02  0.15889750424E+03  0.18724075143E+03  0.00000000000E+00 0. -1.
          3    1    6    6  503    0  0.29202421148E+03 -0.62068784842E+03  0.90616864864E+03  0.11365180003E+04  0.00000000000E+00 0. -1.
         -3    1    6    6    0  503  0.11007186231E+02 -0.14514469910E+01  0.82248786219E+01  0.13817144258E+02  0.00000000000E+00 0.  1.
<mgrwt>
<rscale>  0 0.70533474E+03</rscale>
<asrwt>0</asrwt>
<pdfrwt beam="1">  1        2 0.30044584E+00 0.70533474E+03</pdfrwt>
<pdfrwt beam="2">  1       -2 0.44735514E-01 0.70533474E+03</pdfrwt>
<totfact> 0.34871863E+01</totfact>
</mgrwt>
</event>
<event>
12    1  0.1418317E-007  0.7424118E+03  0.7818608E-02  0.9647331E-01
         -2   -1    0    0    0  501 -0.00000000000E+00  0.00000000000E+00  0.56889420556E+03  0.56889420556E+03  0.00000000000E+00 0.  1.
          2   -1    0    0  501    0  0.00000000000E+00 -0.00000000000E+00 -0.14158433152E+04  0.14158433152E+04  0.00000000000E+00 0. -1.
         23    2    1    2    0    0  0.99912735216E+02 -0.63376841666E+03 -0.89484386453E+03  0.11048567038E+04  0.91202156792E+02 0.  0.
    5000000    2    1    2    0    0 -0.99912735216E+02  0.63376841666E+03  0.47894754856E+02  0.87988081701E+03  0.60020945009E+03 0.  0.
         23    2    4    4    0    0 -0.25762397518E+03  0.10557925434E+03  0.12124962986E+03  0.31610276217E+03  0.87763272357E+02 0.  0.
         23    2    4    4    0    0  0.15771123996E+03  0.52818916232E+03 -0.73354875008E+02  0.56377805484E+03  0.92780014154E+02 0.  0.
          1    1    3    3  502    0 -0.56827817014E+01 -0.33793399174E+02 -0.23031226613E+02  0.41288318383E+02  0.00000000000E+00 0. -1.
         -1    1    3    3    0  502  0.10559551692E+03 -0.59997501749E+03 -0.87181263792E+03  0.10635683854E+04  0.00000000000E+00 0.  1.
         13    1    5    5    0    0  0.52151882100E+01  0.82964326528E+01  0.11516530243E+02  0.15121489730E+02  0.00000000000E+00 0.  1.
        -13    1    5    5    0    0 -0.26283916339E+03  0.97282821689E+02  0.10973309962E+03  0.30098127244E+03  0.00000000000E+00 0. -1.
          1    1    6    6  503    0  0.93531035498E+02  0.29882300194E+03 -0.87705204587E+02  0.32516986946E+03  0.00000000000E+00 0. -1.
         -1    1    6    6    0  503  0.64180204465E+02  0.22936616038E+03  0.14350329579E+02  0.23860818538E+03  0.00000000000E+00 0.  1.
<mgrwt>
<rscale>  0 0.74241177E+03</rscale>
<asrwt>0</asrwt>
<pdfrwt beam="1">  1        2 0.21782205E+00 0.74241177E+03</pdfrwt>
<pdfrwt beam="2">  1       -2 0.87522186E-01 0.74241177E+03</pdfrwt>
<totfact> 0.16348928E+01</totfact>
</mgrwt>
</event>
<event>
12    1  0.1418317E-007  0.5491447E+03  0.7818608E-02  0.1001692E+00
          1   -1    0    0  501    0  0.00000000000E+00  0.00000000000E+00  0.80599431440E+03  0.80599431440E+03  0.00000000000E+00 0. -1.
         -1   -1    0    0    0  501 -0.00000000000E+00 -0.00000000000E+00 -0.18197237215E+04  0.18197237215E+04  0.00000000000E+00 0.  1.
         23    2    1    2    0    0 -0.23985177478E+03  0.30970716030E+03 -0.16312334843E+04  0.16797541832E+04  0.84876597006E+02 0.  0.
    5000000    2    1    2    0    0  0.23985177478E+03 -0.30970716030E+03  0.61750407719E+03  0.94596385269E+03  0.60007410062E+03 0.  0.
         23    2    4    4    0    0 -0.15074287833E+03 -0.25418979226E+03  0.23004280452E+03  0.38517544324E+03  0.90025353701E+02 0.  0.
         23    2    4    4    0    0  0.39059465311E+03 -0.55517368039E+02  0.38746127267E+03  0.56078840944E+03  0.93332958563E+02 0.  0.
          3    1    3    3  502    0 -0.65640322551E+02  0.11638934426E+03 -0.41462267243E+03  0.43562264851E+03  0.00000000000E+00 0. -1.
         -3    1    3    3    0  502 -0.17421145223E+03  0.19331781603E+03 -0.12166108119E+04  0.12441315347E+04  0.00000000000E+00 0.  1.
         11    1    5    5    0    0 -0.53735357864E+02 -0.14179942893E+03  0.16188028293E+03  0.22181026291E+03  0.00000000000E+00 0. -1.
        -11    1    5    5    0    0 -0.97007520465E+02 -0.11239036333E+03  0.68162521592E+02  0.16336518033E+03  0.00000000000E+00 0.  1.
          1    1    6    6  503    0  0.22311857910E+03 -0.75766300627E+02  0.20543652154E+03  0.31261253499E+03  0.00000000000E+00 0. -1.
         -1    1    6    6    0  503  0.16747607402E+03  0.20248932588E+02  0.18202475113E+03  0.24817587446E+03  0.00000000000E+00 0.  1.
<mgrwt>
<rscale>  0 0.54914473E+03</rscale>
<asrwt>0</asrwt>
<pdfrwt beam="1">  1        1 0.12399913E+00 0.54914473E+03</pdfrwt>
<pdfrwt beam="2">  1       -1 0.27995749E+00 0.54914473E+03</pdfrwt>
<totfact> 0.10738114E+00</totfact>
</mgrwt>
</event>
<event>
12    1  0.1418317E-007  0.5169664E+03  0.7818608E-02  0.1009443E+00
         -2   -1    0    0    0  501 -0.00000000000E+00  0.00000000000E+00  0.15913937365E+03  0.15913937365E+03  0.00000000000E+00 0.  1.
          2   -1    0    0  501    0  0.00000000000E+00 -0.00000000000E+00 -0.18750640575E+04  0.18750640575E+04  0.00000000000E+00 0. -1.
         23    2    1    2    0    0 -0.35899064089E+03 -0.30667055363E+02 -0.79628811307E+03  0.87845613928E+03  0.88293154246E+02 0.  0.
    5000000    2    1    2    0    0  0.35899064089E+03  0.30667055363E+02 -0.91963657078E+03  0.11557472919E+04  0.60017133538E+03 0.  0.
         23    2    4    4    0    0  0.17830227867E+03  0.28892390780E+03 -0.61288861693E+03  0.70661663436E+03  0.91683608747E+02 0.  0.
         23    2    4    4    0    0  0.18068836222E+03 -0.25825685243E+03 -0.30674795385E+03  0.44913065751E+03  0.90989857971E+02 0.  0.
          1    1    3    3  502    0 -0.17130775093E+03 -0.46003797941E+02 -0.46034106712E+03  0.49333213257E+03  0.00000000000E+00 0. -1.
         -1    1    3    3    0  502 -0.18768288996E+03  0.15336742577E+02 -0.33594704596E+03  0.38512400671E+03  0.00000000000E+00 0.  1.
         13    1    5    5    0    0  0.46356512085E+02  0.27797239003E+02 -0.57737171106E+02  0.79089782123E+02  0.00000000000E+00 0.  1.
        -13    1    5    5    0    0  0.13194576658E+03  0.26112666879E+03 -0.55515144583E+03  0.62752685224E+03  0.00000000000E+00 0. -1.
          3    1    6    6  503    0  0.69716789821E+02 -0.15538027173E+03 -0.11788746614E+03  0.20712535890E+03  0.00000000000E+00 0. -1.
         -3    1    6    6    0  503  0.11097157240E+03 -0.10287658070E+03 -0.18886048771E+03  0.24200529861E+03  0.00000000000E+00 0.  1.
<mgrwt>
<rscale>  0 0.51696642E+03</rscale>
<asrwt>0</asrwt>
<pdfrwt beam="1">  1        2 0.28847138E+00 0.51696642E+03</pdfrwt>
<pdfrwt beam="2">  1       -2 0.24482982E-01 0.51696642E+03</pdfrwt>
<totfact> 0.12269034E+02</totfact>
</mgrwt>
</event>
<event>
12    1  0.1418317E-007  0.7837349E+03  0.7818608E-02  0.9583863E-01
          1   -1    0    0  501    0  0.00000000000E+00  0.00000000000E+00  0.25415462833E+04  0.25415462833E+04  0.00000000000E+00 0. -1.
         -1   -1    0    0    0  501 -0.00000000000E+00 -0.00000000000E+00 -0.26108581770E+03  0.26108581770E+03  0.00000000000E+00 0.  1.
         23    2    1    2    0    0 -0.39065828239E+03  0.56109377273E+03  0.72676037379E+03  0.10022931152E+04  0.94713950737E+02 0.  0.
    5000000    2    1    2    0    0  0.39065828239E+03 -0.56109377273E+03  0.15537000918E+04  0.18003389858E+04  0.59983028692E+03 0.  0.
         23    2    4    4    0    0  0.19192342940E+03 -0.63099052225E+03  0.10043383031E+04  0.12049890480E+04  0.91211494496E+02 0.  0.
         23    2    4    4    0    0  0.19873485298E+03  0.69896749524E+02  0.54936178871E+03  0.59534993783E+03  0.90895963582E+02 0.  0.
          3    1    3    3  502    0 -0.73673368913E+02  0.82719556838E+02  0.16874403743E+03  0.20185351258E+03  0.00000000000E+00 0. -1.
         -3    1    3    3    0  502 -0.31698491347E+03  0.47837421589E+03  0.55801633636E+03  0.80043960262E+03  0.00000000000E+00 0.  1.
         13    1    5    5    0    0  0.12787440996E+03 -0.37662151743E+03  0.68087710136E+03  0.78853614962E+03  0.00000000000E+00 0.  1.
        -13    1    5    5    0    0  0.64049019447E+02 -0.25436900482E+03  0.32346120172E+03  0.41645289833E+03  0.00000000000E+00 0. -1.
          2    1    6    6  503    0  0.14463107485E+03  0.83492529364E+02  0.34170991600E+03  0.38033513770E+03  0.00000000000E+00 0. -1.
         -2    1    6    6    0  503  0.54103778133E+02 -0.13595779840E+02  0.20765187271E+03  0.21501480014E+03  0.00000000000E+00 0.  1.
<mgrwt>
<rscale>  0 0.78373490E+03</rscale>
<asrwt>0</asrwt>
<pdfrwt beam="1">  1        1 0.39100710E+00 0.78373490E+03</pdfrwt>
<pdfrwt beam="2">  1       -1 0.40167050E-01 0.78373490E+03</pdfrwt>
<totfact> 0.80450868E+00</totfact>
</mgrwt>
</event>
<event>
12    1  0.1418317E-007  0.5731208E+03  0.7818608E-02  0.9962796E-01
         -2   -1    0    0    0  501 -0.00000000000E+00  0.00000000000E+00  0.64009984180E+03  0.64009984180E+03  0.00000000000E+00 0. -1.
          2   -1    0    0  501    0  0.00000000000E+00 -0.00000000000E+00 -0.68391309629E+03  0.68391309629E+03  0.00000000000E+00 0.  1.
         23    2    1    2    0    0 -0.13817311471E+03  0.43444034713E+03  0.23381753956E+03  0.52103674291E+03  0.94754529251E+02 0.  0.
    5000000    2    1    2    0    0  0.13817311471E+03 -0.43444034713E+03 -0.27763079405E+03  0.80297619518E+03  0.59988472840E+03 0.  0.
         23    2    4    4    0    0 -0.83598521006E+02 -0.45358249547E+03 -0.52691984294E+02  0.47401337872E+03  0.95845944545E+02 0.  0.
         23    2    4    4    0    0  0.22177163571E+03  0.19142148338E+02 -0.22493880976E+03  0.32896281646E+03  0.89833102058E+02 0.  0.
          2    1    3    3  502    0 -0.83225260102E+02  0.22038920023E+03  0.17160592956E+03  0.29145572315E+03  0.00000000000E+00 0. -1.
         -2    1    3    3    0  502 -0.54947854606E+02  0.21405114691E+03  0.62211610004E+02  0.22958101977E+03  0.00000000000E+00 0.  1.
         11    1    5    5    0    0 -0.23085731347E+02 -0.19975296283E+03  0.22796663537E+02  0.20237066245E+03  0.00000000000E+00 0.  1.
        -11    1    5    5    0    0 -0.60512789659E+02 -0.25382953264E+03 -0.75488647830E+02  0.27164271627E+03  0.00000000000E+00 0. -1.
          2    1    6    6  503    0  0.32710107697E+02 -0.14211372361E+02 -0.82602049877E+02  0.89972289589E+02  0.00000000000E+00 0. -1.
         -2    1    6    6    0  503  0.18906152802E+03  0.33353520699E+02 -0.14233675988E+03  0.23899052687E+03  0.00000000000E+00 0.  1.
<mgrwt>
<rscale>  0 0.57312079E+03</rscale>
<asrwt>0</asrwt>
<pdfrwt beam="1">  1        2 0.10521740E+00 0.57312079E+03</pdfrwt>
<pdfrwt beam="2">  1       -2 0.98476899E-01 0.57312079E+03</pdfrwt>
<totfact> 0.37213598E+01</totfact>
</mgrwt>
</event>
<event>
12    1  0.1418317E-007  0.8692004E+03  0.7818608E-02  0.9464923E-01
          1   -1    0    0  501    0  0.00000000000E+00  0.00000000000E+00  0.78134560789E+03  0.78134560789E+03  0.00000000000E+00 0. -1.
         -1   -1    0    0    0  501 -0.00000000000E+00 -0.00000000000E+00 -0.10543980591E+04  0.10543980591E+04  0.00000000000E+00 0.  1.
         23    2    1    2    0    0  0.75109674761E+03  0.28384052609E+03 -0.55078460301E+02  0.80994506958E+03  0.90915402591E+02 0.  0.
    5000000    2    1    2    0    0 -0.75109674761E+03 -0.28384052609E+03 -0.21797399095E+03  0.10257985975E+04  0.60003194355E+03 0.  0.
         23    2    4    4    0    0 -0.32793083944E+03 -0.36401094982E+03  0.65412290475E+02  0.50264961040E+03  0.91297623424E+02 0.  0.
         23    2    4    4    0    0 -0.42316590816E+03  0.80170423732E+02 -0.28338628143E+03  0.52314898705E+03  0.88771591622E+02 0.  0.
          3    1    3    3  502    0  0.44389268684E+03  0.12037620419E+03 -0.23421344776E+02  0.46052112585E+03  0.00000000000E+00 0. -1.
         -3    1    3    3    0  502  0.30720406077E+03  0.16346432190E+03 -0.31657115525E+02  0.34942394372E+03  0.00000000000E+00 0.  1.
         11    1    5    5    0    0 -0.59679651502E+02 -0.83642468184E+02 -0.21575121528E+02  0.10499147183E+03  0.00000000000E+00 0. -1.
        -11    1    5    5    0    0 -0.26825118794E+03 -0.28036848164E+03  0.86987412002E+02  0.39765813857E+03  0.00000000000E+00 0.  1.
          1    1    6    6  503    0 -0.12390711746E+03  0.65352116485E+02 -0.93406896384E+02  0.16837078482E+03  0.00000000000E+00 0. -1.
         -1    1    6    6    0  503 -0.29925879070E+03  0.14818307247E+02 -0.18997938504E+03  0.35477820224E+03  0.00000000000E+00 0.  1.
<mgrwt>
<rscale>  0 0.86920043E+03</rscale>
<asrwt>0</asrwt>
<pdfrwt beam="1">  1        1 0.12020702E+00 0.86920043E+03</pdfrwt>
<pdfrwt beam="2">  1       -1 0.16221509E+00 0.86920043E+03</pdfrwt>
<totfact> 0.65692569E+00</totfact>
</mgrwt>
</event>
<event>
12    1  0.1418317E-007  0.1254936E+04  0.7818608E-02  0.9066085E-01
         -1   -1    0    0    0  501 -0.00000000000E+00  0.00000000000E+00  0.19672405043E+04  0.19672405043E+04  0.00000000000E+00 0.  1.
          1   -1    0    0  501    0  0.00000000000E+00 -0.00000000000E+00 -0.13519242464E+04  0.13519242464E+04  0.00000000000E+00 0. -1.
         23    2    1    2    0    0 -0.11891172895E+04 -0.14908744739E+03 -0.74195731589E+03  0.14116701228E+04  0.78005652572E+02 0.  0.
    5000000    2    1    2    0    0  0.11891172895E+04  0.14908744739E+03  0.13572735738E+04  0.19074946280E+04  0.60009766425E+03 0.  0.
         23    2    4    4    0    0  0.89510167441E+03 -0.12271550310E+03  0.10847875637E+04  0.14147599497E+04  0.92279763150E+02 0.  0.
         23    2    4    4    0    0  0.29401561508E+03  0.27180295049E+03  0.27248601010E+03  0.49273467831E+03  0.90646631001E+02 0.  0.
          4    1    3    3  502    0 -0.14451482831E+03 -0.22690027742E+02 -0.62087962159E+02  0.15891597782E+03  0.00000000000E+00 0. -1.
         -4    1    3    3    0  502 -0.10446024612E+04 -0.12639741965E+03 -0.67986935373E+03  0.12527541450E+04  0.00000000000E+00 0.  1.
         13    1    5    5    0    0  0.39865024587E+03 -0.17050260434E+02  0.43615430402E+03  0.59113729947E+03  0.00000000000E+00 0. -1.
        -13    1    5    5    0    0  0.49645142854E+03 -0.10566524266E+03  0.64863325964E+03  0.82362265020E+03  0.00000000000E+00 0.  1.
          3    1    6    6  503    0  0.26953622255E+03  0.22163965264E+03  0.26094527753E+03  0.43573655889E+03  0.00000000000E+00 0. -1.
         -3    1    6    6    0  503  0.24479392525E+02  0.50163297850E+02  0.11540732567E+02  0.56998119423E+02  0.00000000000E+00 0.  1.
<mgrwt>
<rscale>  0 0.12549361E+04</rscale>
<asrwt>0</asrwt>
<pdfrwt beam="1">  1        1 0.20798834E+00 0.12549361E+04</pdfrwt>
<pdfrwt beam="2">  1       -1 0.30265239E+00 0.12549361E+04</pdfrwt>
<totfact> 0.25751089E-01</totfact>
</mgrwt>
</event>
<event>
12    1  0.1418317E-007  0.7645664E+03  0.7818608E-02  0.9612771E-01
          2   -1    0    0  501    0  0.00000000000E+00  0.00000000000E+00  0.21624717534E+04  0.21624717534E+04  0.00000000000E+00 0.  1.
         -2   -1    0    0    0  501 -0.00000000000E+00 -0.00000000000E+00 -0.42142546246E+03  0.42142546246E+03  0.00000000000E+00 0. -1.
         23    2    1    2    0    0  0.42245657285E+03 -0.61681058488E+03  0.21807229412E+03  0.78433767627E+03  0.93301722330E+02 0.  0.
    5000000    2    1    2    0    0 -0.42245657285E+03  0.61681058488E+03  0.15229739968E+04  0.17995595396E+04  0.60003323903E+03 0.  0.
         23    2    4    4    0    0 -0.22720177076E+03  0.18952535491E+03  0.11554815447E+04  0.11963615336E+04  0.92751356882E+02 0.  0.
         23    2    4    4    0    0 -0.19525480210E+03  0.42728522997E+03  0.36749245215E+03  0.60319800599E+03  0.90000147490E+02 0.  0.
          1    1    3    3  502    0  0.26899513806E+03 -0.31063481999E+03  0.12129019056E+03  0.42844332883E+03  0.00000000000E+00 0. -1.
         -1    1    3    3    0  502  0.15346143480E+03 -0.30617576488E+03  0.96782103559E+02  0.35589434744E+03  0.00000000000E+00 0.  1.
         13    1    5    5    0    0 -0.37932836507E+02  0.76795565895E+02  0.41774370781E+03  0.42643436124E+03  0.00000000000E+00 0. -1.
        -13    1    5    5    0    0 -0.18926893425E+03  0.11272978901E+03  0.73773783684E+03  0.76992717234E+03  0.00000000000E+00 0.  1.
          3    1    6    6  503    0 -0.63839063178E+02  0.13949148545E+03  0.17561165602E+03  0.23317966084E+03  0.00000000000E+00 0. -1.
         -3    1    6    6    0  503 -0.13141573892E+03  0.28779374452E+03  0.19188079613E+03  0.37001834515E+03  0.00000000000E+00 0.  1.
<mgrwt>
<rscale>  0 0.76456642E+03</rscale>
<asrwt>0</asrwt>
<pdfrwt beam="1">  1        2 0.33268796E+00 0.76456642E+03</pdfrwt>
<pdfrwt beam="2">  1       -2 0.64834688E-01 0.76456642E+03</pdfrwt>
<totfact> 0.12337324E+01</totfact>
</mgrwt>
</event>
<event>
12    1  0.1418317E-007  0.4462271E+03  0.7818608E-02  0.1028853E+00
         -2   -1    0    0    0  501 -0.00000000000E+00  0.00000000000E+00  0.30279603984E+03  0.30279603984E+03  0.00000000000E+00 0.  1.
          2   -1    0    0  501    0  0.00000000000E+00 -0.00000000000E+00 -0.11435542305E+04  0.11435542305E+04  0.00000000000E+00 0. -1.
         23    2    1    2    0    0  0.33845077589E+03  0.26385244518E+03 -0.32732250609E+03  0.54743676896E+03  0.91542080382E+02 0.  0.
    5000000    2    1    2    0    0 -0.33845077589E+03 -0.26385244518E+03 -0.51343568454E+03  0.89891350136E+03  0.60021849375E+03 0.  0.
         23    2    4    4    0    0 -0.16558404095E+03 -0.94901957878E+02 -0.59279064194E+03  0.62934634376E+03  0.90838422475E+02 0.  0.
         23    2    4    4    0    0 -0.17286673494E+03 -0.16895048730E+03  0.79354957406E+02  0.26956715760E+03  0.89118280859E+02 0.  0.
          1    1    3    3  502    0  0.11650532009E+03  0.13704195600E+03 -0.16868297077E+03  0.24659264373E+03  0.00000000000E+00 0. -1.
         -1    1    3    3    0  502  0.22194545580E+03  0.12681048918E+03 -0.15863953533E+03  0.30084412523E+03  0.00000000000E+00 0.  1.
         13    1    5    5    0    0 -0.17085482779E+03 -0.10010967377E+03 -0.58817886729E+03  0.62061880320E+03  0.00000000000E+00 0. -1.
        -13    1    5    5    0    0  0.52707868373E+01  0.52077158921E+01 -0.46117746546E+01  0.87275405563E+01  0.00000000000E+00 0.  1.
          2    1    6    6  503    0 -0.10719645023E+03 -0.56163157598E+02  0.67366576641E+02  0.13850499941E+03  0.00000000000E+00 0. -1.
         -2    1    6    6    0  503 -0.65670284708E+02 -0.11278732970E+03  0.11988380765E+02  0.13106215819E+03  0.00000000000E+00 0.  1.
<mgrwt>
<rscale>  0 0.44622714E+03</rscale>
<asrwt>0</asrwt>
<pdfrwt beam="1">  1        2 0.17593142E+00 0.44622714E+03</pdfrwt>
<pdfrwt beam="2">  1       -2 0.46584006E-01 0.44622714E+03</pdfrwt>
<totfact> 0.93728266E+01</totfact>
</mgrwt>
</event>
<event>
12    1  0.1418317E-007  0.7717822E+03  0.7818608E-02  0.9601784E-01
         -1   -1    0    0    0  501 -0.00000000000E+00  0.00000000000E+00  0.47960998724E+03  0.47960998724E+03  0.00000000000E+00 0.  1.
          1   -1    0    0  501    0  0.00000000000E+00 -0.00000000000E+00 -0.17341530219E+04  0.17341530219E+04  0.00000000000E+00 0. -1.
         23    2    1    2    0    0 -0.26708423133E+03 -0.71035634769E+03 -0.21516458913E+03  0.79360954743E+03  0.87064263848E+02 0.  0.
    5000000    2    1    2    0    0  0.26708423133E+03  0.71035634769E+03 -0.10393784456E+04  0.14201534617E+04  0.60048994536E+03 0.  0.
         23    2    4    4    0    0  0.38286484645E+02  0.15592426750E+03 -0.70180147062E+03  0.72530245486E+03  0.88091513573E+02 0.  0.
         23    2    4    4    0    0  0.22879774668E+03  0.55443208019E+03 -0.33757697494E+03  0.69485100688E+03  0.95479669693E+02 0.  0.
          4    1    3    3  502    0 -0.11168826656E+03 -0.18570511921E+03 -0.60824047952E+02  0.22507826416E+03  0.00000000000E+00 0. -1.
         -4    1    3    3    0  502 -0.15539596476E+03 -0.52465122848E+03 -0.15434054118E+03  0.56853128327E+03  0.00000000000E+00 0.  1.
         11    1    5    5    0    0  0.61421241788E+02  0.13568799765E+03 -0.62667730895E+03  0.64413372153E+03  0.00000000000E+00 0.  1.
        -11    1    5    5    0    0 -0.23134757143E+02  0.20236269847E+02 -0.75124161668E+02  0.81168733338E+02  0.00000000000E+00 0. -1.
          4    1    6    6  503    0  0.68385172329E+02  0.14702873576E+03 -0.45120477764E+02  0.16831470063E+03  0.00000000000E+00 0. -1.
         -4    1    6    6    0  503  0.16041257435E+03  0.40740334443E+03 -0.29245649718E+03  0.52653630625E+03  0.00000000000E+00 0.  1.
<mgrwt>
<rscale>  0 0.77178217E+03</rscale>
<asrwt>0</asrwt>
<pdfrwt beam="1">  1        1 0.26679277E+00 0.77178217E+03</pdfrwt>
<pdfrwt beam="2">  1       -1 0.73786153E-01 0.77178217E+03</pdfrwt>
<totfact> 0.86830257E+00</totfact>
</mgrwt>
</event>
<event>
12    1  0.1418317E-007  0.6103466E+03  0.7818608E-02  0.9884170E-01
         -2   -1    0    0    0  501 -0.00000000000E+00  0.00000000000E+00  0.21578239060E+03  0.21578239060E+03  0.00000000000E+00 0.  1.
          2   -1    0    0  501    0  0.00000000000E+00 -0.00000000000E+00 -0.19341050117E+04  0.19341050117E+04  0.00000000000E+00 0. -1.
         23    2    1    2    0    0  0.24933397747E+03  0.40738700917E+03 -0.93389023035E+03  0.10528190577E+04  0.90251861006E+02 0.  0.
    5000000    2    1    2    0    0 -0.24933397747E+03 -0.40738700917E+03 -0.78443239077E+03  0.10970683446E+04  0.60007763619E+03 0.  0.
         23    2    4    4    0    0 -0.40641134914E+03 -0.16508360515E+03 -0.34818143289E+03  0.56629210686E+03  0.83866910576E+02 0.  0.
         23    2    4    4    0    0  0.15707737167E+03 -0.24230340402E+03 -0.43625095788E+03  0.53077623773E+03  0.89578323216E+02 0.  0.
          2    1    3    3  502    0  0.11799273161E+03  0.18609384045E+03 -0.52919002599E+03  0.57323231397E+03  0.00000000000E+00 0. -1.
         -2    1    3    3    0  502  0.13134124586E+03  0.22129316872E+03 -0.40470020436E+03  0.47958674377E+03  0.00000000000E+00 0.  1.
         13    1    5    5    0    0 -0.36277708639E+03 -0.13250098704E+03 -0.27090612171E+03  0.47175613695E+03  0.00000000000E+00 0.  1.
        -13    1    5    5    0    0 -0.43634262750E+02 -0.32582618111E+02 -0.77275311179E+02  0.94535969908E+02  0.00000000000E+00 0. -1.
          1    1    6    6  503    0  0.83639979133E+02 -0.52327138871E+02 -0.14331509058E+03  0.17399135254E+03  0.00000000000E+00 0. -1.
         -1    1    6    6    0  503  0.73437392539E+02 -0.18997626515E+03 -0.29293586730E+03  0.35678488518E+03  0.00000000000E+00 0.  1.
<mgrwt>
<rscale>  0 0.61034659E+03</rscale>
<asrwt>0</asrwt>
<pdfrwt beam="1">  1        2 0.29755462E+00 0.61034659E+03</pdfrwt>
<pdfrwt beam="2">  1       -2 0.33197290E-01 0.61034659E+03</pdfrwt>
<totfact> 0.64395070E+01</totfact>
</mgrwt>
</event>
<event>
12    1  0.1418317E-007  0.5988132E+03  0.7818608E-02  0.9907871E-01
          1   -1    0    0  501    0  0.00000000000E+00  0.00000000000E+00  0.14689864687E+04  0.14689864687E+04  0.00000000000E+00 0. -1.
         -1   -1    0    0    0  501 -0.00000000000E+00 -0.00000000000E+00 -0.43277762704E+03  0.43277762704E+03  0.00000000000E+00 0.  1.
         23    2    1    2    0    0  0.71717869794E+02  0.52662175160E+03 -0.61369391187E+02  0.54267607716E+03  0.90869139078E+02 0.  0.
    5000000    2    1    2    0    0 -0.71717869794E+02 -0.52662175160E+03  0.10975782329E+04  0.13590880186E+04  0.59997361855E+03 0.  0.
         23    2    4    4    0    0 -0.13436040634E+03 -0.53110246028E+03  0.48702789442E+03  0.73879309467E+03  0.92176595029E+02 0.  0.
         23    2    4    4    0    0  0.62642536541E+02  0.44807086804E+01  0.61055033843E+03  0.62029492393E+03  0.89721306063E+02 0.  0.
          3    1    3    3  502    0  0.69670286712E+02  0.27450195160E+03 -0.64801796145E+02  0.29052459976E+03  0.00000000000E+00 0. -1.
         -3    1    3    3    0  502  0.20475830816E+01  0.25211980000E+03  0.34324049585E+01  0.25215147740E+03  0.00000000000E+00 0.  1.
         13    1    5    5    0    0 -0.43006662589E+02 -0.62093325529E+02  0.45322684602E+02  0.88086888024E+02  0.00000000000E+00 0.  1.
        -13    1    5    5    0    0 -0.91353743746E+02 -0.46900913475E+03  0.44170520982E+03  0.65070620664E+03  0.00000000000E+00 0. -1.
          2    1    6    6  503    0  0.79655801394E+02 -0.17086027053E+02  0.42725521894E+03  0.43495287230E+03  0.00000000000E+00 0. -1.
         -2    1    6    6    0  503 -0.17013264853E+02  0.21566735733E+02  0.18329511949E+03  0.18534205163E+03  0.00000000000E+00 0.  1.
<mgrwt>
<rscale>  0 0.59881320E+03</rscale>
<asrwt>0</asrwt>
<pdfrwt beam="1">  1        1 0.22599792E+00 0.59881320E+03</pdfrwt>
<pdfrwt beam="2">  1       -1 0.66581174E-01 0.59881320E+03</pdfrwt>
<totfact> 0.16650304E+01</totfact>
</mgrwt>
</event>
<event>
12    1  0.1418317E-007  0.5681022E+03  0.7818608E-02  0.9973887E-01
         -2   -1    0    0    0  501 -0.00000000000E+00  0.00000000000E+00  0.26506641314E+03  0.26506641314E+03  0.00000000000E+00 0. -1.
          2   -1    0    0  501    0  0.00000000000E+00 -0.00000000000E+00 -0.14512896909E+04  0.14512896909E+04  0.00000000000E+00 0.  1.
         23    2    1    2    0    0 -0.34571011978E+03  0.22237372245E+03 -0.14327567280E+03  0.44469369319E+03  0.90879056927E+02 0.  0.
    5000000    2    1    2    0    0  0.34571011978E+03 -0.22237372245E+03 -0.10429476049E+04  0.12716624108E+04  0.60034991554E+03 0.  0.
         23    2    4    4    0    0 -0.15552370582E+03 -0.60422818473E+02 -0.23891293769E+03  0.30609891485E+03  0.93694257100E+02 0.  0.
         23    2    4    4    0    0  0.50123382560E+03 -0.16195090398E+03 -0.80403466723E+03  0.96556349595E+03  0.91529642140E+02 0.  0.
          2    1    3    3  502    0 -0.10096206228E+03  0.21618529699E+02 -0.49780553563E+02  0.11462461498E+03  0.00000000000E+00 0. -1.
         -2    1    3    3    0  502 -0.24474805750E+03  0.20075519275E+03 -0.93495119236E+02  0.33006907821E+03  0.00000000000E+00 0.  1.
         13    1    5    5    0    0 -0.87939832194E+02  0.46362791165E+01 -0.16361095262E+03  0.18580487880E+03  0.00000000000E+00 0.  1.
        -13    1    5    5    0    0 -0.67583873623E+02 -0.65059097589E+02 -0.75301985077E+02  0.12029403605E+03  0.00000000000E+00 0. -1.
          3    1    6    6  503    0  0.34590940122E+03 -0.15500663663E+03 -0.56121646753E+03  0.67723282162E+03  0.00000000000E+00 0. -1.
         -3    1    6    6    0  503  0.15532442437E+03 -0.69442673483E+01 -0.24281819969E+03  0.28833067433E+03  0.00000000000E+00 0.  1.
<mgrwt>
<rscale>  0 0.56810222E+03</rscale>
<asrwt>0</asrwt>
<pdfrwt beam="1">  1        2 0.22327533E+00 0.56810222E+03</pdfrwt>
<pdfrwt beam="2">  1       -2 0.40779449E-01 0.56810222E+03</pdfrwt>
<totfact> 0.80041761E+01</totfact>
</mgrwt>
</event>
<event>
12    1  0.1418317E-007  0.4448971E+03  0.7818608E-02  0.1029255E+00
         -2   -1    0    0    0  501 -0.00000000000E+00  0.00000000000E+00  0.23160343097E+03  0.23160343097E+03  0.00000000000E+00 0. -1.
          2   -1    0    0  501    0  0.00000000000E+00 -0.00000000000E+00 -0.15119387304E+04  0.15119387304E+04  0.00000000000E+00 0.  1.
         23    2    1    2    0    0  0.24815766212E+03 -0.25570932306E+03 -0.84389645714E+03  0.92048197132E+03  0.90312490732E+02 0.  0.
    5000000    2    1    2    0    0 -0.24815766212E+03  0.25570932306E+03 -0.43643884232E+03  0.82306019009E+03  0.59998310831E+03 0.  0.
         23    2    4    4    0    0 -0.18271997329E+03 -0.42067822853E+02 -0.45980411314E+03  0.50414414404E+03  0.87093083288E+02 0.  0.
         23    2    4    4    0    0 -0.65437688824E+02  0.29777714591E+03  0.23365270817E+02  0.31891604605E+03  0.90599055172E+02 0.  0.
          3    1    3    3  502    0  0.87625572940E+02 -0.15328057466E+03 -0.37959388688E+03  0.41864626424E+03  0.00000000000E+00 0. -1.
         -3    1    3    3    0  502  0.16053208917E+03 -0.10242874840E+03 -0.46430257025E+03  0.50183570708E+03  0.00000000000E+00 0.  1.
         13    1    5    5    0    0 -0.88748502597E+02  0.23918104108E+02 -0.20471626608E+03  0.22440392603E+03  0.00000000000E+00 0. -1.
        -13    1    5    5    0    0 -0.93971470694E+02 -0.65985926961E+02 -0.25508784705E+03  0.27974021802E+03  0.00000000000E+00 0.  1.
          2    1    6    6  503    0 -0.50451218048E+02  0.62532819333E+02 -0.95306623632E+01  0.80910521080E+02  0.00000000000E+00 0. -1.
         -2    1    6    6    0  503 -0.14986470776E+02  0.23524432658E+03  0.32895933180E+02  0.23800552497E+03  0.00000000000E+00 0.  1.
<mgrwt>
<rscale>  0 0.44489705E+03</rscale>
<asrwt>0</asrwt>
<pdfrwt beam="1">  1        2 0.23260596E+00 0.44489705E+03</pdfrwt>
<pdfrwt beam="2">  1       -2 0.35631297E-01 0.44489705E+03</pdfrwt>
<totfact> 0.97705519E+01</totfact>
</mgrwt>
</event>
<event>
12    1  0.1418317E-007  0.1124830E+04  0.7818608E-02  0.9181323E-01
          4   -1    0    0  501    0  0.00000000000E+00  0.00000000000E+00  0.85816176740E+03  0.85816176740E+03  0.00000000000E+00 0. -1.
         -4   -1    0    0    0  501 -0.00000000000E+00 -0.00000000000E+00 -0.15205106394E+04  0.15205106394E+04  0.00000000000E+00 0.  1.
         23    2    1    2    0    0 -0.90971788628E+03 -0.54407346182E+03 -0.25260956163E+03  0.10935736856E+04  0.92137130040E+02 0.  0.
    5000000    2    1    2    0    0  0.90971788628E+03  0.54407346182E+03 -0.40973931040E+03  0.12850987212E+04  0.59999154693E+03 0.  0.
         23    2    4    4    0    0  0.66251918198E+03  0.62804993146E+03 -0.41770402794E+03  0.10079385446E+04  0.89917027818E+02 0.  0.
         23    2    4    4    0    0  0.24719870429E+03 -0.83976469645E+02  0.79647175425E+01  0.27716017661E+03  0.92709653843E+02 0.  0.
          1    1    3    3  502    0 -0.82047740432E+03 -0.50287827589E+03 -0.25397103816E+03  0.99527434388E+03  0.00000000000E+00 0. -1.
         -1    1    3    3    0  502 -0.89240481959E+02 -0.41195185922E+02  0.13614765216E+01  0.98299341716E+02  0.00000000000E+00 0.  1.
         11    1    5    5    0    0  0.34755063345E+03  0.31161408481E+03 -0.26074941884E+03  0.53468218606E+03  0.00000000000E+00 0. -1.
        -11    1    5    5    0    0  0.31496854854E+03  0.31643584665E+03 -0.15695460910E+03  0.47325635857E+03  0.00000000000E+00 0.  1.
          3    1    6    6  503    0  0.16429490816E+03 -0.98809986234E+01 -0.82287590901E+01  0.16479734056E+03  0.00000000000E+00 0. -1.
         -3    1    6    6    0  503  0.82903796137E+02 -0.74095471022E+02  0.16193476633E+02  0.11236283605E+03  0.00000000000E+00 0.  1.
<mgrwt>
<rscale>  0 0.11248301E+04</rscale>
<asrwt>0</asrwt>
<pdfrwt beam="1">  1        4 0.13202489E+00 0.11248301E+04</pdfrwt>
<pdfrwt beam="2">  1       -4 0.23392471E+00 0.11248301E+04</pdfrwt>
<totfact> 0.63249473E-02</totfact>
</mgrwt>
</event>
<event>
12    1  0.1418317E-007  0.8918814E+03  0.7818608E-02  0.9435787E-01
         -2   -1    0    0    0  501 -0.00000000000E+00  0.00000000000E+00  0.20693082945E+03  0.20693082945E+03  0.00000000000E+00 0.  1.
          2   -1    0    0  501    0  0.00000000000E+00 -0.00000000000E+00 -0.39409110685E+04  0.39409110685E+04  0.00000000000E+00 0. -1.
         23    2    1    2    0    0 -0.40479761879E+03  0.68316194591E+03 -0.18963726994E+04  0.20579803262E+04  0.92099138303E+02 0.  0.
    5000000    2    1    2    0    0  0.40479761879E+03 -0.68316194591E+03 -0.18376075396E+04  0.20898615718E+04  0.60012378969E+03 0.  0.
         23    2    4    4    0    0 -0.71183715899E+02 -0.43621548856E+03 -0.83381541602E+03  0.94816601161E+03  0.91758180622E+02 0.  0.
         23    2    4    4    0    0  0.47598133469E+03 -0.24694645735E+03 -0.10037921236E+04  0.11416955601E+04  0.91265222852E+02 0.  0.
          2    1    3    3  502    0 -0.13601705892E+03  0.15595640541E+03 -0.45430515873E+03  0.49921560268E+03  0.00000000000E+00 0. -1.
         -2    1    3    3    0  502 -0.26878055988E+03  0.52720554050E+03 -0.14420675407E+04  0.15587647235E+04  0.00000000000E+00 0.  1.
         13    1    5    5    0    0 -0.62375189484E+01 -0.27422598426E+03 -0.55797225155E+03  0.62174900932E+03  0.00000000000E+00 0. -1.
        -13    1    5    5    0    0 -0.64946196951E+02 -0.16198950430E+03 -0.27584316447E+03  0.32641700229E+03  0.00000000000E+00 0.  1.
          3    1    6    6  503    0  0.30344757080E+03 -0.15910744960E+03 -0.54539157875E+03  0.64408662687E+03  0.00000000000E+00 0. -1.
         -3    1    6    6    0  503  0.17253376389E+03 -0.87839007751E+02 -0.45840054484E+03  0.49760893327E+03  0.00000000000E+00 0.  1.
<mgrwt>
<rscale>  0 0.89188139E+03</rscale>
<asrwt>0</asrwt>
<pdfrwt beam="1">  1        2 0.60629401E+00 0.89188139E+03</pdfrwt>
<pdfrwt beam="2">  1       -2 0.31835512E-01 0.89188139E+03</pdfrwt>
<totfact> 0.37512366E+00</totfact>
</mgrwt>
</event>
<event>
12    1  0.1418317E-007  0.9121328E+03  0.7818608E-02  0.9410541E-01
         -1   -1    0    0    0  501 -0.00000000000E+00  0.00000000000E+00  0.13130907230E+04  0.13130907230E+04  0.00000000000E+00 0.  1.
          1   -1    0    0  501    0  0.00000000000E+00 -0.00000000000E+00 -0.13481202411E+04  0.13481202411E+04  0.00000000000E+00 0. -1.
         23    2    1    2    0    0  0.52106806931E+03  0.69387850368E+03  0.89845266361E+03  0.12525144227E+04  0.92713966790E+02 0.  0.
    5000000    2    1    2    0    0 -0.52106806931E+03 -0.69387850368E+03 -0.93348218171E+03  0.14086965413E+04  0.60004804084E+03 0.  0.
         23    2    4    4    0    0 -0.40800717896E+03 -0.69586299967E+03 -0.96351219020E+03  0.12600089764E+04  0.92583516591E+02 0.  0.
         23    2    4    4    0    0 -0.11306089035E+03  0.19844959931E+01  0.30030008497E+02  0.14868756494E+03  0.91757764833E+02 0.  0.
          2    1    3    3  502    0  0.23437670863E+03  0.23749091573E+03  0.35015173457E+03  0.48367407809E+03  0.00000000000E+00 0. -1.
         -2    1    3    3    0  502  0.28669136068E+03  0.45638758795E+03  0.54830092904E+03  0.76884034462E+03  0.00000000000E+00 0.  1.
         11    1    5    5    0    0 -0.25599028881E+03 -0.36367387051E+03 -0.57159811383E+03  0.72423346773E+03  0.00000000000E+00 0.  1.
        -11    1    5    5    0    0 -0.15201689015E+03 -0.33218912916E+03 -0.39191407638E+03  0.53577550866E+03  0.00000000000E+00 0. -1.
          4    1    6    6  503    0 -0.12400927751E+03 -0.11114654991E+02  0.14037973532E+02  0.12529525595E+03  0.00000000000E+00 0. -1.
         -4    1    6    6    0  503  0.10948387153E+02  0.13099150984E+02  0.15992034964E+02  0.23392308993E+02  0.00000000000E+00 0.  1.
<mgrwt>
<rscale>  0 0.91213276E+03</rscale>
<asrwt>0</asrwt>
<pdfrwt beam="1">  1        1 0.20740311E+00 0.91213276E+03</pdfrwt>
<pdfrwt beam="2">  1       -1 0.20201396E+00 0.91213276E+03</pdfrwt>
<totfact> 0.12426160E+00</totfact>
</mgrwt>
</event>
<event>
12    1  0.1418317E-007  0.6762473E+03  0.7818608E-02  0.9758737E-01
          2   -1    0    0  501    0  0.00000000000E+00  0.00000000000E+00  0.80449353169E+03  0.80449353169E+03  0.00000000000E+00 0. -1.
         -2   -1    0    0    0  501 -0.00000000000E+00 -0.00000000000E+00 -0.58723153145E+03  0.58723153145E+03  0.00000000000E+00 0.  1.
         23    2    1    2    0    0  0.54235003852E+03 -0.37461426667E+02 -0.79877736329E+01  0.55130281799E+03  0.91236340456E+02 0.  0.
    5000000    2    1    2    0    0 -0.54235003852E+03  0.37461426667E+02  0.22524977387E+03  0.84042224515E+03  0.60002097192E+03 0.  0.
         23    2    4    4    0    0 -0.46180254297E+03  0.27390176427E+03  0.14556261520E+03  0.56428428758E+03  0.94575457157E+02 0.  0.
         23    2    4    4    0    0 -0.80547495550E+02 -0.23644033761E+03  0.79687158675E+02  0.27613795758E+03  0.86661387420E+02 0.  0.
          2    1    3    3  502    0  0.19804178448E+03 -0.42468490424E+02  0.30447120374E+02  0.20481979450E+03  0.00000000000E+00 0. -1.
         -2    1    3    3    0  502  0.34430825404E+03  0.50070637578E+01 -0.38434894007E+02  0.34648302349E+03  0.00000000000E+00 0.  1.
         13    1    5    5    0    0 -0.17411031127E+03  0.62495020093E+02  0.78847308166E+02  0.20108934838E+03  0.00000000000E+00 0.  1.
        -13    1    5    5    0    0 -0.28769223170E+03  0.21140674418E+03  0.66715307031E+02  0.36319493920E+03  0.00000000000E+00 0. -1.
          3    1    6    6  503    0  0.94845570962E+01 -0.98036348366E+02  0.19541363598E+02  0.10041388009E+03  0.00000000000E+00 0. -1.
         -3    1    6    6    0  503 -0.90032052646E+02 -0.13840398924E+03  0.60145795078E+02  0.17572407748E+03  0.00000000000E+00 0.  1.
<mgrwt>
<rscale>  0 0.67624734E+03</rscale>
<asrwt>0</asrwt>
<pdfrwt beam="1">  1        2 0.12376824E+00 0.67624734E+03</pdfrwt>
<pdfrwt beam="2">  1       -2 0.90343313E-01 0.67624734E+03</pdfrwt>
<totfact> 0.36559657E+01</totfact>
</mgrwt>
</event>
<event>
12    1  0.1418317E-007  0.5661092E+03  0.7818608E-02  0.9978325E-01
          2   -1    0    0  501    0  0.00000000000E+00  0.00000000000E+00  0.27521773785E+03  0.27521773785E+03  0.00000000000E+00 0.  1.
         -2   -1    0    0    0  501 -0.00000000000E+00 -0.00000000000E+00 -0.24320495548E+04  0.24320495548E+04  0.00000000000E+00 0. -1.
         23    2    1    2    0    0  0.23119068902E+03 -0.35182161248E+03 -0.18740133626E+04  0.19215993565E+04  0.58227331188E+02 0.  0.
    5000000    2    1    2    0    0 -0.23119068902E+03  0.35182161248E+03 -0.28281845434E+03  0.78566793612E+03  0.60005020293E+03 0.  0.
         23    2    4    4    0    0 -0.33628347818E+03  0.43298154979E+03 -0.28293527890E+03  0.62409050893E+03  0.94217785684E+02 0.  0.
         23    2    4    4    0    0  0.10509278916E+03 -0.81159937316E+02  0.11682455235E+00  0.16157742719E+03  0.92064225252E+02 0.  0.
          3    1    3    3  502    0  0.12256181042E+03 -0.22100945091E+03 -0.12149328846E+04  0.12409385516E+04  0.00000000000E+00 0. -1.
         -3    1    3    3    0  502  0.10862887861E+03 -0.13081216157E+03 -0.65908047802E+03  0.68066080494E+03  0.00000000000E+00 0.  1.
         13    1    5    5    0    0 -0.21434616434E+03  0.33076558879E+03 -0.23031199853E+03  0.45650166436E+03  0.00000000000E+00 0. -1.
        -13    1    5    5    0    0 -0.12193731383E+03  0.10221596101E+03 -0.52623280365E+02  0.16758884458E+03  0.00000000000E+00 0.  1.
          3    1    6    6  503    0 -0.72223498755E+01 -0.33378404440E+02  0.17358538769E+02  0.38309255917E+02  0.00000000000E+00 0. -1.
         -3    1    6    6    0  503  0.11231513903E+03 -0.47781532875E+02 -0.17241714216E+02  0.12326817127E+03  0.00000000000E+00 0.  1.
<mgrwt>
<rscale>  0 0.56610924E+03</rscale>
<asrwt>0</asrwt>
<pdfrwt beam="1">  1        2 0.42341191E-01 0.56610924E+03</pdfrwt>
<pdfrwt beam="2">  1       -2 0.37416147E+00 0.56610924E+03</pdfrwt>
<totfact> 0.14444868E+00</totfact>
</mgrwt>
</event>
<event>
12    1  0.1418317E-007  0.1282724E+04  0.7818608E-02  0.9043378E-01
          1   -1    0    0  501    0  0.00000000000E+00  0.00000000000E+00  0.21789800221E+04  0.21789800221E+04  0.00000000000E+00 0. -1.
         -1   -1    0    0    0  501 -0.00000000000E+00 -0.00000000000E+00 -0.92717629064E+03  0.92717629064E+03  0.00000000000E+00 0.  1.
         23    2    1    2    0    0  0.12385626324E+04  0.24659394937E+03  0.58062747517E+02  0.12677147275E+04  0.94251671001E+02 0.  0.
    5000000    2    1    2    0    0 -0.12385626324E+04 -0.24659394937E+03  0.11937409839E+04  0.18384415852E+04  0.60000329603E+03 0.  0.
         23    2    4    4    0    0 -0.88888015655E+03 -0.30082419673E+03  0.11212869904E+04  0.14650369541E+04  0.91900119245E+02 0.  0.
         23    2    4    4    0    0 -0.34968247585E+03  0.54230247356E+02  0.72453993500E+02  0.37340463111E+03  0.94671451425E+02 0.  0.
          4    1    3    3  502    0  0.50340351192E+03  0.11993006638E+03 -0.18370203386E+02  0.51781828956E+03  0.00000000000E+00 0. -1.
         -4    1    3    3    0  502  0.73515912048E+03  0.12666388299E+03  0.76432950903E+02  0.74989643796E+03  0.00000000000E+00 0.  1.
         13    1    5    5    0    0 -0.22312094094E+03 -0.74083060372E+02  0.22163316825E+03  0.32309830607E+03  0.00000000000E+00 0. -1.
        -13    1    5    5    0    0 -0.66575921561E+03 -0.22674113636E+03  0.89965382215E+03  0.11419386480E+04  0.00000000000E+00 0.  1.
          4    1    6    6  503    0 -0.23962233795E+03 -0.27114536072E+01  0.25910559484E+02  0.24103438327E+03  0.00000000000E+00 0. -1.
         -4    1    6    6    0  503 -0.11006013790E+03  0.56941700964E+02  0.46543434016E+02  0.13237024784E+03  0.00000000000E+00 0.  1.
<mgrwt>
<rscale>  0 0.12827243E+04</rscale>
<asrwt>0</asrwt>
<pdfrwt beam="1">  1        1 0.33522769E+00 0.12827243E+04</pdfrwt>
<pdfrwt beam="2">  1       -1 0.14264251E+00 0.12827243E+04</pdfrwt>
<totfact> 0.87521418E-01</totfact>
</mgrwt>
</event>
<event>
12    1  0.1418317E-007  0.1009227E+04  0.7818608E-02  0.9298482E-01
          2   -1    0    0  501    0  0.00000000000E+00  0.00000000000E+00  0.17987256651E+04  0.17987256651E+04  0.00000000000E+00 0. -1.
         -2   -1    0    0    0  501 -0.00000000000E+00 -0.00000000000E+00 -0.59857785181E+03  0.59857785181E+03  0.00000000000E+00 0.  1.
         23    2    1    2    0    0 -0.93197913097E+03 -0.95949753713E+02  0.71854439680E+03  0.11849818647E+04  0.10042167904E+03 0.  0.
    5000000    2    1    2    0    0  0.93197913097E+03  0.95949753713E+02  0.48160341645E+03  0.12123216522E+04  0.59999206816E+03 0.  0.
         23    2    4    4    0    0  0.97823932281E+03  0.15606025536E+03  0.41952459637E+03  0.10795791997E+04  0.90462066019E+02 0.  0.
         23    2    4    4    0    0 -0.46260191837E+02 -0.60110501645E+02  0.62078820079E+02  0.13274245254E+03  0.89518160436E+02 0.  0.
          2    1    3    3  502    0 -0.46177850400E+03  0.12845276300E+01  0.36823775590E+03  0.59062685482E+03  0.00000000000E+00 0. -1.
         -2    1    3    3    0  502 -0.47020062697E+03 -0.97234281343E+02  0.35030664091E+03  0.59435500985E+03  0.00000000000E+00 0.  1.
         11    1    5    5    0    0  0.36103358841E+03  0.70840996322E+02  0.20143478240E+03  0.41945163044E+03  0.00000000000E+00 0. -1.
        -11    1    5    5    0    0  0.61720573440E+03  0.85219259036E+02  0.21808981398E+03  0.66012756922E+03  0.00000000000E+00 0.  1.
          4    1    6    6  503    0  0.64856260836E+00 -0.29556181201E+02 -0.18315377737E+02  0.34777026071E+02  0.00000000000E+00 0. -1.
         -4    1    6    6    0  503 -0.46908754445E+02 -0.30554320444E+02  0.80394197816E+02  0.97965426472E+02  0.00000000000E+00 0.  1.
<mgrwt>
<rscale>  0 0.10092270E+04</rscale>
<asrwt>0</asrwt>
<pdfrwt beam="1">  1        2 0.27672702E+00 0.10092270E+04</pdfrwt>
<pdfrwt beam="2">  1       -2 0.92088901E-01 0.10092270E+04</pdfrwt>
<totfact> 0.86415279E+00</totfact>
</mgrwt>
</event>
<event>
12    1  0.1418317E-007  0.1232951E+04  0.7818608E-02  0.9084494E-01
          1   -1    0    0  501    0  0.00000000000E+00  0.00000000000E+00  0.12838271634E+04  0.12838271634E+04  0.00000000000E+00 0. -1.
         -1   -1    0    0    0  501 -0.00000000000E+00 -0.00000000000E+00 -0.15238865396E+04  0.15238865396E+04  0.00000000000E+00 0.  1.
         23    2    1    2    0    0 -0.65049651417E+03  0.96863898264E+03 -0.76094360971E+03  0.13961014518E+04  0.93042424989E+02 0.  0.
    5000000    2    1    2    0    0  0.65049651417E+03 -0.96863898264E+03  0.52088423355E+03  0.14116122513E+04  0.59993463769E+03 0.  0.
         23    2    4    4    0    0  0.51017467115E+03 -0.27802854917E+03  0.13764964192E+03  0.60458684345E+03  0.94867054923E+02 0.  0.
         23    2    4    4    0    0  0.14032184301E+03 -0.69061043347E+03  0.38323459163E+03  0.80702540781E+03  0.88251153998E+02 0.  0.
          4    1    3    3  502    0 -0.50025914638E+03  0.80929130096E+03 -0.61271507208E+03  0.11316498500E+04  0.00000000000E+00 0. -1.
         -4    1    3    3    0  502 -0.15023736778E+03  0.15934768168E+03 -0.14822853764E+03  0.26445160182E+03  0.00000000000E+00 0.  1.
         13    1    5    5    0    0  0.13412583687E+03 -0.33768008145E+02  0.11623976666E+02  0.13879890246E+03  0.00000000000E+00 0. -1.
        -13    1    5    5    0    0  0.37604883428E+03 -0.24426054103E+03  0.12602566526E+03  0.46578794099E+03  0.00000000000E+00 0.  1.
          3    1    6    6  503    0  0.23405443724E+02 -0.30257868602E+03  0.13844133876E+03  0.33356810445E+03  0.00000000000E+00 0. -1.
         -3    1    6    6    0  503  0.11691639929E+03 -0.38803174746E+03  0.24479325287E+03  0.47345730336E+03  0.00000000000E+00 0.  1.
<mgrwt>
<rscale>  0 0.12329512E+04</rscale>
<asrwt>0</asrwt>
<pdfrwt beam="1">  1        1 0.19751187E+00 0.12329512E+04</pdfrwt>
<pdfrwt beam="2">  1       -1 0.23444408E+00 0.12329512E+04</pdfrwt>
<totfact> 0.80020736E-01</totfact>
</mgrwt>
</event>
<event>
12    1  0.1418317E-007  0.4584311E+03  0.7818608E-02  0.1025237E+00
         -2   -1    0    0    0  501 -0.00000000000E+00  0.00000000000E+00  0.14206029363E+03  0.14206029363E+03  0.00000000000E+00 0. -1.
          2   -1    0    0  501    0  0.00000000000E+00 -0.00000000000E+00 -0.18813570584E+04  0.18813570584E+04  0.00000000000E+00 0.  1.
         23    2    1    2    0    0  0.15632752875E+03  0.29633405405E+03 -0.59385509298E+03  0.68773117880E+03  0.89767115376E+02 0.  0.
    5000000    2    1    2    0    0 -0.15632752875E+03 -0.29633405405E+03 -0.11454416718E+04  0.13356861732E+04  0.59980727074E+03 0.  0.
         23    2    4    4    0    0 -0.11174643659E+03 -0.41450296933E+03 -0.47551238107E+03  0.64677139397E+03  0.88888884760E+02 0.  0.
         23    2    4    4    0    0 -0.44581092152E+02  0.11816891529E+03 -0.66992929070E+03  0.68891477923E+03  0.99231810376E+02 0.  0.
          4    1    3    3  502    0  0.64937736598E+02  0.45247495956E+02 -0.12052584128E+03  0.14418988848E+03  0.00000000000E+00 0. -1.
         -4    1    3    3    0  502  0.91389792147E+02  0.25108655809E+03 -0.47332925170E+03  0.54354129032E+03  0.00000000000E+00 0.  1.
         13    1    5    5    0    0 -0.65633160788E+02 -0.21491046960E+03 -0.31288541667E+03  0.38521618048E+03  0.00000000000E+00 0. -1.
        -13    1    5    5    0    0 -0.46113275805E+02 -0.19959249974E+03 -0.16262696440E+03  0.26155521350E+03  0.00000000000E+00 0.  1.
          3    1    6    6  503    0 -0.58007929170E+02  0.69805550117E+02 -0.56900539447E+03  0.57619864076E+03  0.00000000000E+00 0. -1.
         -3    1    6    6    0  503  0.13426837017E+02  0.48363365169E+02 -0.10092389623E+03  0.11271613847E+03  0.00000000000E+00 0.  1.
<mgrwt>
<rscale>  0 0.45843113E+03</rscale>
<asrwt>0</asrwt>
<pdfrwt beam="1">  1        2 0.28943955E+00 0.45843113E+03</pdfrwt>
<pdfrwt beam="2">  1       -2 0.21855430E-01 0.45843113E+03</pdfrwt>
<totfact> 0.15014276E+02</totfact>
</mgrwt>
</event>
<event>
12    1  0.1418317E-007  0.1015433E+04  0.7818608E-02  0.9291778E-01
         -2   -1    0    0    0  501 -0.00000000000E+00  0.00000000000E+00  0.79037275006E+03  0.79037275006E+03  0.00000000000E+00 0. -1.
          2   -1    0    0  501    0  0.00000000000E+00 -0.00000000000E+00 -0.18797668795E+04  0.18797668795E+04  0.00000000000E+00 0.  1.
         23    2    1    2    0    0  0.60825556184E+03 -0.75511992314E+03 -0.11752179268E+04  0.15263254744E+04  0.91385729359E+02 0.  0.
    5000000    2    1    2    0    0 -0.60825556184E+03  0.75511992314E+03  0.85823797378E+02  0.11438141551E+04  0.60063647115E+03 0.  0.
         23    2    4    4    0    0 -0.39446939945E+03  0.72499477099E+03  0.24001715420E+03  0.86427948465E+03  0.90262219236E+02 0.  0.
         23    2    4    4    0    0 -0.21378616239E+03  0.30125152151E+02 -0.15419335682E+03  0.27953467049E+03  0.88045401347E+02 0.  0.
          2    1    3    3  502    0  0.41478973022E+03 -0.49129833921E+03 -0.84104016014E+03  0.10586657307E+04  0.00000000000E+00 0.  1.
         -2    1    3    3    0  502  0.19346583161E+03 -0.26382158393E+03 -0.33417776668E+03  0.46765974371E+03  0.00000000000E+00 0. -1.
         11    1    5    5    0    0 -0.25871305223E+03  0.54479946949E+03  0.19809166891E+03  0.63480643872E+03  0.00000000000E+00 0.  1.
        -11    1    5    5    0    0 -0.13575634722E+03  0.18019530150E+03  0.41925485283E+02  0.22947304593E+03  0.00000000000E+00 0. -1.
          4    1    6    6  503    0 -0.21307487259E+02  0.33269064835E+02 -0.16297906187E+02  0.42737120100E+02  0.00000000000E+00 0. -1.
         -4    1    6    6    0  503 -0.19247867513E+03 -0.31439126839E+01 -0.13789545063E+03  0.23679755039E+03  0.00000000000E+00 0.  1.
<mgrwt>
<rscale>  0 0.10154334E+04</rscale>
<asrwt>0</asrwt>
<pdfrwt beam="1">  1        2 0.28919491E+00 0.10154334E+04</pdfrwt>
<pdfrwt beam="2">  1       -2 0.12159581E+00 0.10154334E+04</pdfrwt>
<totfact> 0.39860091E+00</totfact>
</mgrwt>
</event>
<event>
12    1  0.1418317E-007  0.1148875E+04  0.7818608E-02  0.9158822E-01
          2   -1    0    0  501    0  0.00000000000E+00  0.00000000000E+00  0.14747773414E+04  0.14747773414E+04  0.00000000000E+00 0. -1.
         -2   -1    0    0    0  501 -0.00000000000E+00 -0.00000000000E+00 -0.96774177820E+03  0.96774177820E+03  0.00000000000E+00 0.  1.
         23    2    1    2    0    0  0.10657234079E+04  0.18440121769E+03 -0.48602847398E+02  0.10865408165E+04  0.91861405645E+02 0.  0.
    5000000    2    1    2    0    0 -0.10657234079E+04 -0.18440121769E+03  0.55563841063E+03  0.13559783031E+04  0.60014408592E+03 0.  0.
         23    2    4    4    0    0 -0.61550931667E+03 -0.37679347520E+03  0.23861525171E+03  0.76558478552E+03  0.91420914506E+02 0.  0.
         23    2    4    4    0    0 -0.45021409126E+03  0.19239225751E+03  0.31702315891E+03  0.59039351760E+03  0.91396463903E+02 0.  0.
          3    1    3    3  502    0  0.63419920182E+03  0.11175397366E+03  0.16188895816E+02  0.64417362455E+03  0.00000000000E+00 0. -1.
         -3    1    3    3    0  502  0.43152420611E+03  0.72647244024E+02 -0.64791743214E+02  0.44236719195E+03  0.00000000000E+00 0.  1.
         13    1    5    5    0    0 -0.22058823036E+03 -0.92332571440E+02  0.10274972920E+03  0.26027289135E+03  0.00000000000E+00 0. -1.
        -13    1    5    5    0    0 -0.39492108631E+03 -0.28446090376E+03  0.13586552251E+03  0.50531189417E+03  0.00000000000E+00 0.  1.
          3    1    6    6  503    0 -0.21649048073E+03  0.10723461680E+03  0.10453452062E+03  0.26323916367E+03  0.00000000000E+00 0. -1.
         -3    1    6    6    0  503 -0.23372361053E+03  0.85157640712E+02  0.21248863830E+03  0.32715435393E+03  0.00000000000E+00 0.  1.
<mgrwt>
<rscale>  0 0.11488754E+04</rscale>
<asrwt>0</asrwt>
<pdfrwt beam="1">  1        2 0.22688882E+00 0.11488754E+04</pdfrwt>
<pdfrwt beam="2">  1       -2 0.14888335E+00 0.11488754E+04</pdfrwt>
<totfact> 0.39168083E+00</totfact>
</mgrwt>
</event>
<event>
12    1  0.1418317E-007  0.4551217E+03  0.7818608E-02  0.1026206E+00
          1   -1    0    0  501    0  0.00000000000E+00  0.00000000000E+00  0.71046891304E+03  0.71046891304E+03  0.00000000000E+00 0. -1.
         -1   -1    0    0    0  501 -0.00000000000E+00 -0.00000000000E+00 -0.43663494317E+03  0.43663494317E+03  0.00000000000E+00 0.  1.
         23    2    1    2    0    0  0.26657936972E+03  0.27646640836E+03  0.38091124750E+02  0.39662797871E+03  0.91458101890E+02 0.  0.
    5000000    2    1    2    0    0 -0.26657936972E+03 -0.27646640836E+03  0.23574284512E+03  0.75047587750E+03  0.60011758713E+03 0.  0.
         23    2    4    4    0    0 -0.40470765815E+02 -0.28455883184E+03  0.36396185218E+03  0.47492694098E+03  0.10235114929E+03 0.  0.
         23    2    4    4    0    0 -0.22610860390E+03  0.80924234856E+01 -0.12821900707E+03  0.27554893652E+03  0.91085204984E+02 0.  0.
          3    1    3    3  502    0  0.18805378468E+03  0.16096711258E+03 -0.13083258780E+02  0.24788265153E+03  0.00000000000E+00 0. -1.
         -3    1    3    3    0  502  0.78525585035E+02  0.11549929577E+03  0.51174383530E+02  0.14874532718E+03  0.00000000000E+00 0.  1.
         11    1    5    5    0    0  0.11853695277E+02 -0.12368331865E+03  0.22058266800E+03  0.25316948242E+03  0.00000000000E+00 0.  1.
        -11    1    5    5    0    0 -0.52324461092E+02 -0.16087551319E+03  0.14337918418E+03  0.22175745856E+03  0.00000000000E+00 0. -1.
          1    1    6    6  503    0 -0.22275406467E+02 -0.11095753896E+02  0.11771705831E+02  0.27529666652E+02  0.00000000000E+00 0. -1.
         -1    1    6    6    0  503 -0.20383319744E+03  0.19188177382E+02 -0.13999071290E+03  0.24801926987E+03  0.00000000000E+00 0.  1.
<mgrwt>
<rscale>  0 0.45512175E+03</rscale>
<asrwt>0</asrwt>
<pdfrwt beam="1">  1        1 0.10930291E+00 0.45512175E+03</pdfrwt>
<pdfrwt beam="2">  1       -1 0.67174607E-01 0.45512175E+03</pdfrwt>
<totfact> 0.63040638E+01</totfact>
</mgrwt>
</event>
<event>
12    1  0.1418317E-007  0.7901675E+03  0.7818608E-02  0.9574359E-01
          2   -1    0    0  501    0  0.00000000000E+00  0.00000000000E+00  0.18314323679E+04  0.18314323679E+04  0.00000000000E+00 0.  1.
         -2   -1    0    0    0  501 -0.00000000000E+00 -0.00000000000E+00 -0.45654396521E+03  0.45654396521E+03  0.00000000000E+00 0. -1.
         23    2    1    2    0    0  0.20071101012E+03 -0.65472727892E+03  0.66661109179E+02  0.69411746011E+03  0.91665836625E+02 0.  0.
    5000000    2    1    2    0    0 -0.20071101012E+03  0.65472727892E+03  0.13082272935E+04  0.15938588730E+04  0.59997894648E+03 0.  0.
         23    2    4    4    0    0 -0.38657000550E+03  0.31537039287E+03  0.63102701582E+03  0.80944061786E+03  0.90023137485E+02 0.  0.
         23    2    4    4    0    0  0.18585899538E+03  0.33935688605E+03  0.67720027766E+03  0.78441825513E+03  0.83696598734E+02 0.  0.
          4    1    3    3  502    0  0.10521710027E+03 -0.28365725130E+03  0.71703925930E+02  0.31092366812E+03  0.00000000000E+00 0.  1.
         -4    1    3    3    0  502  0.95493909859E+02 -0.37107002762E+03 -0.50428167514E+01  0.38319379199E+03  0.00000000000E+00 0. -1.
         13    1    5    5    0    0 -0.23581566189E+03  0.19521590397E+03  0.31498260595E+03  0.43924061470E+03  0.00000000000E+00 0. -1.
        -13    1    5    5    0    0 -0.15075434361E+03  0.12015448891E+03  0.31604440987E+03  0.37020000315E+03  0.00000000000E+00 0.  1.
          4    1    6    6  503    0  0.13318086071E+03  0.15687089764E+03  0.34133304462E+03  0.39856475952E+03  0.00000000000E+00 0. -1.
         -4    1    6    6    0  503  0.52678134672E+02  0.18248598840E+03  0.33586723304E+03  0.38585349560E+03  0.00000000000E+00 0.  1.
<mgrwt>
<rscale>  0 0.79016748E+03</rscale>
<asrwt>0</asrwt>
<pdfrwt beam="1">  1        2 0.28175882E+00 0.79016748E+03</pdfrwt>
<pdfrwt beam="2">  1       -2 0.70237534E-01 0.79016748E+03</pdfrwt>
<totfact> 0.15682737E+01</totfact>
</mgrwt>
</event>
<event>
12    1  0.1418317E-007  0.2181668E+04  0.7818608E-02  0.8526097E-01
         -2   -1    0    0    0  501 -0.00000000000E+00  0.00000000000E+00  0.19718978499E+04  0.19718978499E+04  0.00000000000E+00 0. -1.
          2   -1    0    0  501    0  0.00000000000E+00 -0.00000000000E+00 -0.26299584018E+04  0.26299584018E+04  0.00000000000E+00 0.  1.
         23    2    1    2    0    0  0.12555229709E+04 -0.17426402637E+04 -0.95471541925E+03  0.23521467979E+04  0.89330890809E+02 0.  0.
    5000000    2    1    2    0    0 -0.12555229709E+04  0.17426402637E+04  0.29665486739E+03  0.22497094538E+04  0.60004624565E+03 0.  0.
         23    2    4    4    0    0 -0.11521904924E+04  0.12137994986E+04  0.30308362123E+03  0.17030630853E+04  0.87818206378E+02 0.  0.
         23    2    4    4    0    0 -0.10333247852E+03  0.52884076509E+03 -0.64287538386E+01  0.54664636851E+03  0.91819210352E+02 0.  0.
          4    1    3    3  502    0  0.28103619132E+03 -0.38738606647E+03 -0.17253664257E+03  0.50874177965E+03  0.00000000000E+00 0. -1.
         -4    1    3    3    0  502  0.97448677957E+03 -0.13552541972E+04 -0.78217877669E+03  0.18434050183E+04  0.00000000000E+00 0.  1.
         13    1    5    5    0    0 -0.44082825809E+03  0.52625556628E+03  0.13144461992E+03  0.69896506514E+03  0.00000000000E+00 0.  1.
        -13    1    5    5    0    0 -0.71136223428E+03  0.68754393233E+03  0.17163900130E+03  0.10040980201E+04  0.00000000000E+00 0. -1.
          3    1    6    6  503    0 -0.33876640880E+02  0.10873116027E+03 -0.36978990574E+02  0.11973945781E+03  0.00000000000E+00 0. -1.
         -3    1    6    6    0  503 -0.69455837636E+02  0.42010960481E+03  0.30550236735E+02  0.42690691070E+03  0.00000000000E+00 0.  1.
<mgrwt>
<rscale>  0 0.21816681E+04</rscale>
<asrwt>0</asrwt>
<pdfrwt beam="1">  1        2 0.40460898E+00 0.21816681E+04</pdfrwt>
<pdfrwt beam="2">  1       -2 0.30336890E+00 0.21816681E+04</pdfrwt>
<totfact> 0.77077141E-02</totfact>
</mgrwt>
</event>
<event>
12    1  0.1418317E-007  0.4690392E+03  0.7818608E-02  0.1022192E+00
          1   -1    0    0  501    0  0.00000000000E+00  0.00000000000E+00  0.20140092633E+04  0.20140092633E+04  0.00000000000E+00 0. -1.
         -1   -1    0    0    0  501 -0.00000000000E+00 -0.00000000000E+00 -0.75702494645E+03  0.75702494645E+03  0.00000000000E+00 0.  1.
         23    2    1    2    0    0 -0.19328503514E+03  0.33144860661E+03  0.18205642206E+04  0.18628850296E+04  0.93108907183E+02 0.  0.
    5000000    2    1    2    0    0  0.19328503514E+03 -0.33144860661E+03 -0.56357990374E+03  0.90814918015E+03  0.59991277856E+03 0.  0.
         23    2    4    4    0    0  0.23073551688E+02 -0.37240801278E+03 -0.59466017980E+03  0.70768130943E+03  0.89285998431E+02 0.  0.
         23    2    4    4    0    0  0.17021148345E+03  0.40959406169E+02  0.31080276057E+02  0.20046787071E+03  0.92583808400E+02 0.  0.
          1    1    3    3  502    0 -0.16756318157E+02  0.82628627141E+02  0.53597693915E+03  0.54256754743E+03  0.00000000000E+00 0. -1.
         -1    1    3    3    0  502 -0.17652871698E+03  0.24881997947E+03  0.12845872815E+04  0.13203174822E+04  0.00000000000E+00 0.  1.
         13    1    5    5    0    0 -0.25246323412E+01 -0.77167048865E+02 -0.65767587442E+02  0.10142239771E+03  0.00000000000E+00 0.  1.
        -13    1    5    5    0    0  0.25598184029E+02 -0.29524096392E+03 -0.52889259235E+03  0.60625891173E+03  0.00000000000E+00 0. -1.
          2    1    6    6  503    0  0.12837003823E+03  0.32924617663E+02 -0.19918755908E+02  0.13401363364E+03  0.00000000000E+00 0. -1.
         -2    1    6    6    0  503  0.41841445217E+02  0.80347885066E+01  0.50999031965E+02  0.66454237078E+02  0.00000000000E+00 0.  1.
<mgrwt>
<rscale>  0 0.46903920E+03</rscale>
<asrwt>0</asrwt>
<pdfrwt beam="1">  1        1 0.30984758E+00 0.46903920E+03</pdfrwt>
<pdfrwt beam="2">  1       -1 0.11646538E+00 0.46903920E+03</pdfrwt>
<totfact> 0.21970607E+00</totfact>
</mgrwt>
</event>
<event>
12    1  0.1418317E-007  0.6078934E+03  0.7818608E-02  0.9889164E-01
          1   -1    0    0  501    0  0.00000000000E+00  0.00000000000E+00  0.24885258733E+04  0.24885258733E+04  0.00000000000E+00 0. -1.
         -1   -1    0    0    0  501 -0.00000000000E+00 -0.00000000000E+00 -0.15510989086E+03  0.15510989086E+03  0.00000000000E+00 0.  1.
         23    2    1    2    0    0  0.44510516673E+03  0.11887003962E+03  0.69430832880E+03  0.83837003550E+03  0.92474673387E+02 0.  0.
    5000000    2    1    2    0    0 -0.44510516673E+03 -0.11887003962E+03  0.16391076536E+04  0.18052657286E+04  0.60005146033E+03 0.  0.
         23    2    4    4    0    0  0.27932191375E+02 -0.23964574849E+03  0.64457283627E+03  0.69360630371E+03  0.86053885471E+02 0.  0.
         23    2    4    4    0    0 -0.47303735811E+03  0.12077570886E+03  0.99453481735E+03  0.11116594249E+04  0.91302026715E+02 0.  0.
          1    1    3    3  502    0  0.37333441904E+03  0.62411134365E+02  0.56471787840E+03  0.67983823099E+03  0.00000000000E+00 0. -1.
         -1    1    3    3    0  502  0.71770747694E+02  0.56458905258E+02  0.12959045040E+03  0.15853180451E+03  0.00000000000E+00 0.  1.
         11    1    5    5    0    0 -0.27188190609E+02 -0.12069217046E+03  0.27769543755E+03  0.30400748964E+03  0.00000000000E+00 0. -1.
        -11    1    5    5    0    0  0.55120381984E+02 -0.11895357803E+03  0.36687739872E+03  0.38959881407E+03  0.00000000000E+00 0.  1.
          2    1    6    6  503    0 -0.29831894369E+03  0.10261905464E+03  0.71513592151E+03  0.78162922718E+03  0.00000000000E+00 0. -1.
         -2    1    6    6    0  503 -0.17471841442E+03  0.18156654225E+02  0.27939889583E+03  0.33003019774E+03  0.00000000000E+00 0.  1.
<mgrwt>
<rscale>  0 0.60789335E+03</rscale>
<asrwt>0</asrwt>
<pdfrwt beam="1">  1        1 0.38285010E+00 0.60789335E+03</pdfrwt>
<pdfrwt beam="2">  1       -1 0.23863062E-01 0.60789335E+03</pdfrwt>
<totfact> 0.22414329E+01</totfact>
</mgrwt>
</event>
<event>
12    1  0.1418317E-007  0.6297507E+03  0.7818608E-02  0.9845535E-01
         -2   -1    0    0    0  501 -0.00000000000E+00  0.00000000000E+00  0.31912494096E+03  0.31912494096E+03  0.00000000000E+00 0. -1.
          2   -1    0    0  501    0  0.00000000000E+00 -0.00000000000E+00 -0.13667936662E+04  0.13667936662E+04  0.00000000000E+00 0.  1.
         23    2    1    2    0    0  0.22323631992E+03 -0.47185177626E+03 -0.43450665735E+03  0.68144702832E+03  0.55636892760E+02 0.  0.
    5000000    2    1    2    0    0 -0.22323631992E+03  0.47185177626E+03 -0.61316206791E+03  0.10044715789E+04  0.60043057710E+03 0.  0.
         23    2    4    4    0    0 -0.29271010504E+03  0.50995639048E+02 -0.95272841302E+02  0.32673466503E+03  0.96947750094E+02 0.  0.
         23    2    4    4    0    0  0.69473785120E+02  0.42085613721E+03 -0.51788922660E+03  0.67773691382E+03  0.95768357392E+02 0.  0.
          4    1    3    3  502    0  0.19451254097E+03 -0.44094643792E+03 -0.40933580780E+03  0.63231692469E+03  0.00000000000E+00 0. -1.
         -4    1    3    3    0  502  0.28723778957E+02 -0.30905338347E+02 -0.25170849545E+02  0.49130103630E+02  0.00000000000E+00 0.  1.
         11    1    5    5    0    0 -0.16929468185E+03 -0.12957117115E+02 -0.77364356820E+02  0.18658461859E+03  0.00000000000E+00 0. -1.
        -11    1    5    5    0    0 -0.12341542319E+03  0.63952756163E+02 -0.17908484482E+02  0.14015004645E+03  0.00000000000E+00 0.  1.
          2    1    6    6  503    0  0.23193963235E+02  0.15368618891E+03 -0.12055321329E+03  0.19669896245E+03  0.00000000000E+00 0.  1.
         -2    1    6    6    0  503  0.46279821885E+02  0.26716994830E+03 -0.39733601331E+03  0.48103795138E+03  0.00000000000E+00 0. -1.
<mgrwt>
<rscale>  0 0.62975067E+03</rscale>
<asrwt>0</asrwt>
<pdfrwt beam="1">  1        2 0.21027595E+00 0.62975067E+03</pdfrwt>
<pdfrwt beam="2">  1       -2 0.49096144E-01 0.62975067E+03</pdfrwt>
<totfact> 0.61296132E+01</totfact>
</mgrwt>
</event>
<event>
12    1  0.1418317E-007  0.1679283E+04  0.7818608E-02  0.8773269E-01
          2   -1    0    0  501    0  0.00000000000E+00  0.00000000000E+00  0.28242657963E+04  0.28242657963E+04  0.00000000000E+00 0. -1.
         -2   -1    0    0    0  501 -0.00000000000E+00 -0.00000000000E+00 -0.11275020754E+04  0.11275020754E+04  0.00000000000E+00 0.  1.
         23    2    1    2    0    0  0.16346223983E+04  0.17486022500E+03  0.21837032887E+03  0.16608826250E+04  0.90989066869E+02 0.  0.
    5000000    2    1    2    0    0 -0.16346223983E+04 -0.17486022500E+03  0.14783933920E+04  0.22908852466E+04  0.59995142149E+03 0.  0.
         23    2    4    4    0    0 -0.92816924105E+02 -0.13679735757E+03  0.71315023535E+02  0.20117217088E+03  0.89754728655E+02 0.  0.
         23    2    4    4    0    0 -0.15418054742E+04 -0.38062867433E+02  0.14070783685E+04  0.20897130757E+04  0.91751302911E+02 0.  0.
          2    1    3    3  502    0  0.14569091404E+03  0.15246264552E+02 -0.64980564817E+01  0.14663054168E+03  0.00000000000E+00 0. -1.
         -2    1    3    3    0  502  0.14889314843E+04  0.15961396045E+03  0.22486838535E+03  0.15142520833E+04  0.00000000000E+00 0.  1.
         13    1    5    5    0    0 -0.12743004134E+02 -0.60189865560E+02 -0.11804684320E+02  0.62646265989E+02  0.00000000000E+00 0. -1.
        -13    1    5    5    0    0 -0.80073919971E+02 -0.76607492010E+02  0.83119707855E+02  0.13852590489E+03  0.00000000000E+00 0.  1.
          3    1    6    6  503    0 -0.14752385879E+03 -0.34516517219E+01  0.10001039952E+03  0.17826183782E+03  0.00000000000E+00 0. -1.
         -3    1    6    6    0  503 -0.13942816154E+04 -0.34611215711E+02  0.13070679690E+04  0.19114512379E+04  0.00000000000E+00 0.  1.
<mgrwt>
<rscale>  0 0.16792829E+04</rscale>
<asrwt>0</asrwt>
<pdfrwt beam="1">  1        2 0.43450243E+00 0.16792829E+04</pdfrwt>
<pdfrwt beam="2">  1       -2 0.17346186E+00 0.16792829E+04</pdfrwt>
<totfact> 0.41679870E-01</totfact>
</mgrwt>
</event>
<event>
12    1  0.1418317E-007  0.5032607E+03  0.7818608E-02  0.1012931E+00
         -2   -1    0    0    0  501 -0.00000000000E+00  0.00000000000E+00  0.30326334152E+03  0.30326334152E+03  0.00000000000E+00 0.  1.
          2   -1    0    0  501    0  0.00000000000E+00 -0.00000000000E+00 -0.10712272295E+04  0.10712272295E+04  0.00000000000E+00 0. -1.
         23    2    1    2    0    0 -0.29219224503E+03 -0.26040361288E+03 -0.15127613177E+03  0.42928854719E+03  0.90652297518E+02 0.  0.
    5000000    2    1    2    0    0  0.29219224503E+03  0.26040361288E+03 -0.61668775616E+03  0.94520202379E+03  0.59993060226E+03 0.  0.
         23    2    4    4    0    0  0.19179731939E+03 -0.10215024819E+03 -0.47900322496E+03  0.53419279812E+03  0.93257552544E+02 0.  0.
         23    2    4    4    0    0  0.10039492563E+03  0.36255386107E+03 -0.13768453120E+03  0.41100922568E+03  0.91908161712E+02 0.  0.
          1    1    3    3  502    0 -0.10320142401E+03 -0.15243936604E+03 -0.67934123735E+02  0.19622267811E+03  0.00000000000E+00 0. -1.
         -1    1    3    3    0  502 -0.18899082102E+03 -0.10796424684E+03 -0.83342008039E+02  0.23306586908E+03  0.00000000000E+00 0.  1.
         13    1    5    5    0    0  0.13639937453E+03 -0.44411940228E+02 -0.21605609501E+03  0.25934040564E+03  0.00000000000E+00 0.  1.
        -13    1    5    5    0    0  0.55397944865E+02 -0.57738307958E+02 -0.26294712995E+03  0.27485239248E+03  0.00000000000E+00 0. -1.
          2    1    6    6  503    0  0.27308354627E+01  0.11727477972E+03 -0.99607630394E+01  0.11772870602E+03  0.00000000000E+00 0. -1.
         -2    1    6    6    0  503  0.97664090171E+02  0.24527908135E+03 -0.12772376816E+03  0.29328051965E+03  0.00000000000E+00 0.  1.
<mgrwt>
<rscale>  0 0.50326072E+03</rscale>
<asrwt>0</asrwt>
<pdfrwt beam="1">  1        2 0.16480419E+00 0.50326072E+03</pdfrwt>
<pdfrwt beam="2">  1       -2 0.46655898E-01 0.50326072E+03</pdfrwt>
<totfact> 0.10255008E+02</totfact>
</mgrwt>
</event>
<event>
12    1  0.1418317E-007  0.5313838E+03  0.7818608E-02  0.1005897E+00
         -2   -1    0    0    0  501 -0.00000000000E+00  0.00000000000E+00  0.20708043888E+03  0.20708043888E+03  0.00000000000E+00 0.  1.
          2   -1    0    0  501    0  0.00000000000E+00 -0.00000000000E+00 -0.27872628731E+04  0.27872628731E+04  0.00000000000E+00 0. -1.
         23    2    1    2    0    0 -0.76304247800E+02 -0.37763205009E+03 -0.20943521365E+04  0.21313885748E+04  0.89878148242E+02 0.  0.
    5000000    2    1    2    0    0  0.76304247800E+02  0.37763205009E+03 -0.48583029768E+03  0.86295473717E+03  0.60019288298E+03 0.  0.
         23    2    4    4    0    0 -0.14574734830E+03 -0.68379088699E+02 -0.42511104397E+02  0.18993272595E+03  0.91374269245E+02 0.  0.
         23    2    4    4    0    0  0.22205159610E+03  0.44601113879E+03 -0.44331919329E+03  0.67302201123E+03  0.90520015527E+02 0.  0.
          3    1    3    3  502    0 -0.14531583601E+02 -0.27580147808E+03 -0.15021280020E+04  0.15273068312E+04  0.00000000000E+00 0. -1.
         -3    1    3    3    0  502 -0.61772664200E+02 -0.10183057201E+03 -0.59222413454E+03  0.60408174362E+03  0.00000000000E+00 0.  1.
         11    1    5    5    0    0 -0.11995659335E+03 -0.53423405216E+02 -0.70497193260E+02  0.14904193629E+03  0.00000000000E+00 0.  1.
        -11    1    5    5    0    0 -0.25790754946E+02 -0.14955683483E+02  0.27986088864E+02  0.40890789660E+02  0.00000000000E+00 0. -1.
          2    1    6    6  503    0  0.16296218979E+03  0.22652722816E+03 -0.24812957012E+03  0.37341604674E+03  0.00000000000E+00 0. -1.
         -2    1    6    6    0  503  0.59089406307E+02  0.21948391063E+03 -0.19518962317E+03  0.29960596448E+03  0.00000000000E+00 0.  1.
<mgrwt>
<rscale>  0 0.53138382E+03</rscale>
<asrwt>0</asrwt>
<pdfrwt beam="1">  1        2 0.42880964E+00 0.53138382E+03</pdfrwt>
<pdfrwt beam="2">  1       -2 0.31858532E-01 0.53138382E+03</pdfrwt>
<totfact> 0.23638665E+01</totfact>
</mgrwt>
</event>
<event>
12    1  0.1418317E-007  0.1124145E+04  0.7818608E-02  0.9181973E-01
         -1   -1    0    0    0  501 -0.00000000000E+00  0.00000000000E+00  0.90280997269E+03  0.90280997269E+03  0.00000000000E+00 0.  1.
          1   -1    0    0  501    0  0.00000000000E+00 -0.00000000000E+00 -0.19720974393E+04  0.19720974393E+04  0.00000000000E+00 0. -1.
         23    2    1    2    0    0  0.80126013573E+03  0.67567171550E+03 -0.12718174627E+04  0.16505908656E+04  0.91544933498E+02 0.  0.
    5000000    2    1    2    0    0 -0.80126013573E+03 -0.67567171550E+03  0.20252999616E+03  0.12243165463E+04  0.59948522424E+03 0.  0.
         23    2    4    4    0    0 -0.13310975625E+03  0.91730745728E+02  0.23666373731E+02  0.18717292467E+03  0.91328361228E+02 0.  0.
         23    2    4    4    0    0 -0.66815037948E+03 -0.76740246123E+03  0.17886362243E+03  0.10371436217E+04  0.91341280146E+02 0.  0.
          4    1    3    3  502    0  0.38696445091E+03  0.34194460196E+03 -0.69582855025E+03  0.86651310920E+03  0.00000000000E+00 0. -1.
         -4    1    3    3    0  502  0.41429568482E+03  0.33372711354E+03 -0.57598891250E+03  0.78407775641E+03  0.00000000000E+00 0.  1.
         13    1    5    5    0    0 -0.14308307274E+03  0.85210817632E+02  0.69948452921E+01  0.16668106373E+03  0.00000000000E+00 0.  1.
        -13    1    5    5    0    0  0.99733164932E+01  0.65199280958E+01  0.16671528439E+02  0.20491860939E+02  0.00000000000E+00 0. -1.
          3    1    6    6  503    0 -0.33883476850E+03 -0.45695548075E+03  0.10852963112E+03  0.57913382958E+03  0.00000000000E+00 0. -1.
         -3    1    6    6    0  503 -0.32931561098E+03 -0.31044698047E+03  0.70333991306E+02  0.45800979210E+03  0.00000000000E+00 0.  1.
<mgrwt>
<rscale>  0 0.11241452E+04</rscale>
<asrwt>0</asrwt>
<pdfrwt beam="1">  1        1 0.30339960E+00 0.11241452E+04</pdfrwt>
<pdfrwt beam="2">  1       -1 0.13889384E+00 0.11241452E+04</pdfrwt>
<totfact> 0.13227190E+00</totfact>
</mgrwt>
</event>
<event>
12    1  0.1418317E-007  0.1258120E+04  0.7818608E-02  0.9063452E-01
         -2   -1    0    0    0  501 -0.00000000000E+00  0.00000000000E+00  0.64120569984E+03  0.64120569984E+03  0.00000000000E+00 0. -1.
          2   -1    0    0  501    0  0.00000000000E+00 -0.00000000000E+00 -0.27233436428E+04  0.27233436428E+04  0.00000000000E+00 0.  1.
         23    2    1    2    0    0  0.88830956493E+03 -0.87073771442E+03 -0.11657880420E+04  0.17071634689E+04  0.89818151012E+02 0.  0.
    5000000    2    1    2    0    0 -0.88830956493E+03  0.87073771442E+03 -0.91634990103E+03  0.16573858738E+04  0.59996061795E+03 0.  0.
         23    2    4    4    0    0 -0.30221451068E+03  0.45897363798E+03 -0.96232837333E+02  0.56472240895E+03  0.87522736220E+02 0.  0.
         23    2    4    4    0    0 -0.58609505425E+03  0.41176407644E+03 -0.82011706369E+03  0.10926634649E+04  0.90908646441E+02 0.  0.
          4    1    3    3  502    0  0.41563302442E+03 -0.46973441932E+03 -0.59453090369E+03  0.86421538469E+03  0.00000000000E+00 0. -1.
         -4    1    3    3    0  502  0.47267654051E+03 -0.40100329510E+03 -0.57125713829E+03  0.84294808421E+03  0.00000000000E+00 0.  1.
         13    1    5    5    0    0 -0.23495104346E+03  0.30776300578E+03 -0.37056070111E+02  0.38896428227E+03  0.00000000000E+00 0.  1.
        -13    1    5    5    0    0 -0.67263467219E+02  0.15121063220E+03 -0.59176767222E+02  0.17575812667E+03  0.00000000000E+00 0. -1.
          4    1    6    6  503    0 -0.18259186822E+02  0.94645620998E+01 -0.55376264183E+01  0.21298853150E+02  0.00000000000E+00 0. -1.
         -4    1    6    6    0  503 -0.56783586743E+03  0.40229951434E+03 -0.81457943727E+03  0.10713646117E+04  0.00000000000E+00 0.  1.
<mgrwt>
<rscale>  0 0.12581196E+04</rscale>
<asrwt>0</asrwt>
<pdfrwt beam="1">  1        2 0.41897594E+00 0.12581196E+04</pdfrwt>
<pdfrwt beam="2">  1       -2 0.98647031E-01 0.12581196E+04</pdfrwt>
<totfact> 0.21489413E+00</totfact>
</mgrwt>
</event>
<event>
12    1  0.1418317E-007  0.6627813E+03  0.7818608E-02  0.9783087E-01
          2   -1    0    0  501    0  0.00000000000E+00  0.00000000000E+00  0.34082226933E+04  0.34082226933E+04  0.00000000000E+00 0. -1.
         -2   -1    0    0    0  501 -0.00000000000E+00 -0.00000000000E+00 -0.15483852548E+03  0.15483852548E+03  0.00000000000E+00 0.  1.
         23    2    1    2    0    0 -0.42280268873E+03 -0.33145106349E+03  0.20051425636E+04  0.20779211990E+04  0.92400691464E+02 0.  0.
    5000000    2    1    2    0    0  0.42280268873E+03  0.33145106349E+03  0.12482416042E+04  0.14851400197E+04  0.59909252602E+03 0.  0.
         23    2    4    4    0    0 -0.29944565782E+02 -0.11496892232E+03  0.35126054619E+03  0.38191784485E+03  0.91448011351E+02 0.  0.
         23    2    4    4    0    0  0.45274725451E+03  0.44641998581E+03  0.89698105796E+03  0.11032221749E+04  0.90847501803E+02 0.  0.
          4    1    3    3  502    0 -0.27343638877E+03 -0.15932935547E+03  0.11111873836E+04  0.11553747027E+04  0.00000000000E+00 0. -1.
         -4    1    3    3    0  502 -0.14936629996E+03 -0.17212170801E+03  0.89395518004E+03  0.92254649631E+03  0.00000000000E+00 0.  1.
         11    1    5    5    0    0 -0.39479609458E+02 -0.11445301023E+02  0.60610423995E+02  0.73234267767E+02  0.00000000000E+00 0. -1.
        -11    1    5    5    0    0  0.95350436752E+01 -0.10352362130E+03  0.29065012220E+03  0.30868357708E+03  0.00000000000E+00 0.  1.
          2    1    6    6  503    0  0.13181484485E+03  0.14276499214E+03  0.34758636940E+03  0.39821260715E+03  0.00000000000E+00 0.  1.
         -2    1    6    6    0  503  0.32093240966E+03  0.30365499367E+03  0.54939468856E+03  0.70500956772E+03  0.00000000000E+00 0. -1.
<mgrwt>
<rscale>  0 0.66278133E+03</rscale>
<asrwt>0</asrwt>
<pdfrwt beam="1">  1        2 0.52434190E+00 0.66278133E+03</pdfrwt>
<pdfrwt beam="2">  1       -2 0.23821314E-01 0.66278133E+03</pdfrwt>
<totfact> 0.16077771E+01</totfact>
</mgrwt>
</event>
<event>
12    1  0.1418317E-007  0.4121763E+03  0.7818608E-02  0.1039643E+00
          1   -1    0    0  501    0  0.00000000000E+00  0.00000000000E+00  0.34791202328E+03  0.34791202328E+03  0.00000000000E+00 0. -1.
         -1   -1    0    0    0  501 -0.00000000000E+00 -0.00000000000E+00 -0.69354215621E+03  0.69354215621E+03  0.00000000000E+00 0.  1.
         23    2    1    2    0    0 -0.20775953929E+03  0.20739063348E+03 -0.65501709911E+02  0.31698457323E+03  0.10006919930E+03 0.  0.
    5000000    2    1    2    0    0  0.20775953929E+03 -0.20739063348E+03 -0.28012842301E+03  0.72446960626E+03  0.60017445464E+03 0.  0.
         23    2    4    4    0    0  0.21990517804E+03 -0.31434585401E+03  0.18579720211E+02  0.39435771568E+03  0.89449419532E+02 0.  0.
         23    2    4    4    0    0 -0.12145638752E+02  0.10695522053E+03 -0.29870814322E+03  0.33011189058E+03  0.90334764824E+02 0.  0.
          1    1    3    3  502    0 -0.86378151028E+02  0.84104214332E+02  0.22870294772E+02  0.12271004126E+03  0.00000000000E+00 0. -1.
         -1    1    3    3    0  502 -0.12138138826E+03  0.12328641915E+03 -0.88372004683E+02  0.19427453197E+03  0.00000000000E+00 0.  1.
         13    1    5    5    0    0  0.30045922855E+02 -0.10484326593E+03 -0.13134832447E+02  0.10985168052E+03  0.00000000000E+00 0. -1.
        -13    1    5    5    0    0  0.18985925518E+03 -0.20950258808E+03  0.31714552658E+02  0.28450603516E+03  0.00000000000E+00 0.  1.
          3    1    6    6  503    0 -0.47442922033E+02  0.35391186827E+02 -0.15180224826E+03  0.16293338987E+03  0.00000000000E+00 0. -1.
         -3    1    6    6    0  503  0.35297283280E+02  0.71564033701E+02 -0.14690589496E+03  0.16717850072E+03  0.00000000000E+00 0.  1.
<mgrwt>
<rscale>  0 0.41217630E+03</rscale>
<asrwt>0</asrwt>
<pdfrwt beam="1">  1        1 0.53524927E-01 0.41217630E+03</pdfrwt>
<pdfrwt beam="2">  1       -1 0.10669879E+00 0.41217630E+03</pdfrwt>
<totfact> 0.62396926E+01</totfact>
</mgrwt>
</event>
<event>
12    1  0.1418317E-007  0.1046827E+04  0.7818608E-02  0.9258626E-01
         -2   -1    0    0    0  501 -0.00000000000E+00  0.00000000000E+00  0.87084147193E+03  0.87084147193E+03  0.00000000000E+00 0.  1.
          2   -1    0    0  501    0  0.00000000000E+00 -0.00000000000E+00 -0.20276405121E+04  0.20276405121E+04  0.00000000000E+00 0. -1.
         23    2    1    2    0    0  0.54200686388E+03  0.79640476560E+03  0.33531125607E+03  0.10241584191E+04  0.91841372753E+02 0.  0.
    5000000    2    1    2    0    0 -0.54200686388E+03 -0.79640476560E+03 -0.14921102962E+04  0.18743235650E+04  0.59888538037E+03 0.  0.
         23    2    4    4    0    0 -0.20663292974E+03  0.33417350962E+02 -0.39038487475E+03  0.45191140064E+03  0.89496796568E+02 0.  0.
         23    2    4    4    0    0 -0.33537393415E+03 -0.82982211656E+03 -0.11017254215E+04  0.14224121643E+04  0.91526171087E+02 0.  0.
          3    1    3    3  502    0  0.18590046923E+03  0.20837125872E+03  0.11823464430E+03  0.30324412118E+03  0.00000000000E+00 0. -1.
         -3    1    3    3    0  502  0.35610639466E+03  0.58803350688E+03  0.21707661177E+03  0.72091429789E+03  0.00000000000E+00 0.  1.
         13    1    5    5    0    0 -0.45308303674E+02  0.47408164208E+02 -0.11981813987E+03  0.13658976191E+03  0.00000000000E+00 0. -1.
        -13    1    5    5    0    0 -0.16132462606E+03 -0.13990813245E+02 -0.27056673487E+03  0.31532163873E+03  0.00000000000E+00 0.  1.
          1    1    6    6  503    0 -0.16567066691E+03 -0.52562172801E+03 -0.65860656252E+03  0.85877096773E+03  0.00000000000E+00 0. -1.
         -1    1    6    6    0  503 -0.16970326724E+03 -0.30420038855E+03 -0.44311885898E+03  0.56364119658E+03  0.00000000000E+00 0.  1.
<mgrwt>
<rscale>  0 0.10468274E+04</rscale>
<asrwt>0</asrwt>
<pdfrwt beam="1">  1        2 0.31194469E+00 0.10468274E+04</pdfrwt>
<pdfrwt beam="2">  1       -2 0.13397561E+00 0.10468274E+04</pdfrwt>
<totfact> 0.25747481E+00</totfact>
</mgrwt>
</event>
<event>
12    1  0.1418317E-007  0.7968814E+03  0.7818608E-02  0.9564542E-01
          2   -1    0    0  501    0  0.00000000000E+00  0.00000000000E+00  0.13040404412E+04  0.13040404412E+04  0.00000000000E+00 0. -1.
         -2   -1    0    0    0  501 -0.00000000000E+00 -0.00000000000E+00 -0.79826778880E+03  0.79826778880E+03  0.00000000000E+00 0.  1.
         23    2    1    2    0    0 -0.73978434680E+03 -0.51179890664E+02  0.80912394408E+03  0.11014951545E+04  0.93326081596E+02 0.  0.
    5000000    2    1    2    0    0  0.73978434680E+03  0.51179890664E+02 -0.30335129166E+03  0.10008130755E+04  0.59975373699E+03 0.  0.
         23    2    4    4    0    0  0.47436182383E+02 -0.10575599659E+03  0.99724944608E+02  0.17917737530E+03  0.93407414208E+02 0.  0.
         23    2    4    4    0    0  0.69234816442E+03  0.15693588725E+03 -0.40307623627E+03  0.82163570024E+03  0.92951160191E+02 0.  0.
          2    1    3    3  502    0 -0.19061717264E+03 -0.52811782623E+02  0.23105505230E+03  0.30415526969E+03  0.00000000000E+00 0. -1.
         -2    1    3    3    0  502 -0.54916717416E+03  0.16318919584E+01  0.57806889179E+03  0.79733988480E+03  0.00000000000E+00 0.  1.
         11    1    5    5    0    0  0.23360855603E+02 -0.10965651729E+03  0.47940087270E+02  0.12193659551E+03  0.00000000000E+00 0.  1.
        -11    1    5    5    0    0  0.24075326780E+02  0.39005206965E+01  0.51784857339E+02  0.57240779789E+02  0.00000000000E+00 0. -1.
          2    1    6    6  503    0  0.33938228272E+03  0.88790098608E+02 -0.14746252136E+03  0.38053805413E+03  0.00000000000E+00 0. -1.
         -2    1    6    6    0  503  0.35296588170E+03  0.68145788645E+02 -0.25561371491E+03  0.44109764611E+03  0.00000000000E+00 0.  1.
<mgrwt>
<rscale>  0 0.79688140E+03</rscale>
<asrwt>0</asrwt>
<pdfrwt beam="1">  1        2 0.20062161E+00 0.79688140E+03</pdfrwt>
<pdfrwt beam="2">  1       -2 0.12281043E+00 0.79688140E+03</pdfrwt>
<totfact> 0.83679799E+00</totfact>
</mgrwt>
</event>
<event>
12    1  0.1418317E-007  0.8421779E+03  0.7818608E-02  0.9500896E-01
          1   -1    0    0  501    0  0.00000000000E+00  0.00000000000E+00  0.11563774937E+04  0.11563774937E+04  0.00000000000E+00 0. -1.
         -1   -1    0    0    0  501 -0.00000000000E+00 -0.00000000000E+00 -0.21913912086E+04  0.21913912086E+04  0.00000000000E+00 0.  1.
         23    2    1    2    0    0 -0.41038901807E+03  0.70545144294E+03  0.86596558101E+03  0.11937623081E+04  0.95347660422E+02 0.  0.
    5000000    2    1    2    0    0  0.41038901807E+03 -0.70545144294E+03 -0.19009792959E+04  0.21540063942E+04  0.59995031305E+03 0.  0.
         23    2    4    4    0    0  0.54994816349E+02 -0.36331928842E+03 -0.13792696025E+04  0.14302344133E+04  0.90335515681E+02 0.  0.
         23    2    4    4    0    0  0.35539420172E+03 -0.34213215452E+03 -0.52170969342E+03  0.72377198089E+03  0.91134111838E+02 0.  0.
          3    1    3    3  502    0 -0.34519745368E+03  0.55917366655E+03  0.64435240742E+03  0.92034042415E+03  0.00000000000E+00 0. -1.
         -3    1    3    3    0  502 -0.65191564389E+02  0.14627777640E+03  0.22161317359E+03  0.27342188399E+03  0.00000000000E+00 0.  1.
         13    1    5    5    0    0  0.67730077685E+02 -0.23795696836E+03 -0.79841553112E+03  0.83586975215E+03  0.00000000000E+00 0. -1.
        -13    1    5    5    0    0 -0.12735261336E+02 -0.12536232006E+03 -0.58085407137E+03  0.59436466113E+03  0.00000000000E+00 0.  1.
          4    1    6    6  503    0  0.18982897947E+03 -0.19530488218E+03 -0.35106803913E+03  0.44432848947E+03  0.00000000000E+00 0. -1.
         -4    1    6    6    0  503  0.16556522225E+03 -0.14682727234E+03 -0.17064165428E+03  0.27944349142E+03  0.00000000000E+00 0.  1.
<mgrwt>
<rscale>  0 0.84217794E+03</rscale>
<asrwt>0</asrwt>
<pdfrwt beam="1">  1        1 0.17790423E+00 0.84217794E+03</pdfrwt>
<pdfrwt beam="2">  1       -1 0.33713710E+00 0.84217794E+03</pdfrwt>
<totfact> 0.22859261E-01</totfact>
</mgrwt>
</event>
<event>
12    1  0.1638244E-007  0.8057870E+03  0.7818608E-02  0.9551678E-01
          1   -1    0    0  501    0  0.00000000000E+00  0.00000000000E+00  0.17104143511E+04  0.17104143511E+04  0.00000000000E+00 0. -1.
         -1   -1    0    0    0  501 -0.00000000000E+00 -0.00000000000E+00 -0.57767693366E+03  0.57767693366E+03  0.00000000000E+00 0.  1.
         23    2    1    2    0    0  0.76953658677E+03 -0.13064199017E+03 -0.17851529470E+01  0.78590998172E+03  0.91637462961E+02 0.  0.
    5000000    2    1    2    0    0 -0.76953658677E+03  0.13064199017E+03  0.11345225704E+04  0.15021813031E+04  0.60012775018E+03 0.  0.
         23    2    4    4    0    0 -0.71571870748E+03  0.15756043530E+03  0.11732578112E+04  0.13864748437E+04  0.93274014582E+02 0.  0.
         23    2    4    4    0    0 -0.53817879297E+02 -0.26918445127E+02 -0.38735240762E+02  0.11570645935E+03  0.90920839400E+02 0.  0.
          3    1    3    3  502    0  0.29681845614E+03 -0.91247686323E+02 -0.20316148858E+02  0.31119139138E+03  0.00000000000E+00 0. -1.
         -3    1    3    3    0  502  0.47271813063E+03 -0.39394303846E+02  0.18530995911E+02  0.47471859034E+03  0.00000000000E+00 0.  1.
         13    1    5    5    0    0 -0.48424227132E+03  0.70263221728E+02  0.72926144201E+03  0.87820826030E+03  0.00000000000E+00 0. -1.
        -13    1    5    5    0    0 -0.23147643615E+03  0.87297213567E+02  0.44399636914E+03  0.50826658340E+03  0.00000000000E+00 0.  1.
          2    1    6    6  503    0 -0.39300802284E+02 -0.49460629401E+02  0.60981939801E+01  0.63467274171E+02  0.00000000000E+00 0. -1.
         -2    1    6    6    0  503 -0.14517077013E+02  0.22542184274E+02 -0.44833434742E+02  0.52239185174E+02  0.00000000000E+00 0.  1.
<mgrwt>
<rscale>  0 0.80578705E+03</rscale>
<asrwt>0</asrwt>
<pdfrwt beam="1">  1        1 0.26314067E+00 0.80578705E+03</pdfrwt>
<pdfrwt beam="2">  1       -1 0.88873375E-01 0.80578705E+03</pdfrwt>
<totfact> 0.60262821E+00</totfact>
</mgrwt>
</event>
<event>
12    1  0.1418317E-007  0.2626234E+03  0.7818608E-02  0.1105577E+00
         -3   -1    0    0    0  501 -0.00000000000E+00  0.00000000000E+00  0.15646948929E+03  0.15646948929E+03  0.00000000000E+00 0. -1.
          3   -1    0    0  501    0  0.00000000000E+00 -0.00000000000E+00 -0.87616672677E+03  0.87616672677E+03  0.00000000000E+00 0.  1.
         23    2    1    2    0    0  0.44346912599E+02  0.32324728373E+02 -0.24359072226E+03  0.26504930417E+03  0.88899701616E+02 0.  0.
    5000000    2    1    2    0    0 -0.44346912599E+02 -0.32324728373E+02 -0.47610651523E+03  0.76758691189E+03  0.59958378626E+03 0.  0.
         23    2    4    4    0    0 -0.23738992094E+03 -0.37563990193E+02 -0.48958096645E+03  0.55300453540E+03  0.91430112859E+02 0.  0.
         23    2    4    4    0    0  0.19304300834E+03  0.52392618206E+01  0.13474451217E+02  0.21458237650E+03  0.92579601068E+02 0.  0.
          1    1    3    3  502    0  0.36887802005E+02  0.46619777880E+02 -0.75066052346E+02  0.95755030370E+02  0.00000000000E+00 0. -1.
         -1    1    3    3    0  502  0.74591105946E+01 -0.14295049508E+02 -0.16852466991E+03  0.16929427380E+03  0.00000000000E+00 0.  1.
         11    1    5    5    0    0 -0.16367043744E+03 -0.19580853023E+02 -0.23282152596E+03  0.28526704129E+03  0.00000000000E+00 0.  1.
        -11    1    5    5    0    0 -0.73719483504E+02 -0.17983137170E+02 -0.25675944049E+03  0.26773749411E+03  0.00000000000E+00 0. -1.
          1    1    6    6  503    0  0.17867651089E+03 -0.20123774748E+02 -0.53453611129E+01  0.17988561571E+03  0.00000000000E+00 0. -1.
         -1    1    6    6    0  503  0.14366497452E+02  0.25363036569E+02  0.18819812330E+02  0.34696760788E+02  0.00000000000E+00 0.  1.
<mgrwt>
<rscale>  0 0.26262336E+03</rscale>
<asrwt>0</asrwt>
<pdfrwt beam="1">  1        3 0.13479488E+00 0.26262336E+03</pdfrwt>
<pdfrwt beam="2">  1       -3 0.24072230E-01 0.26262336E+03</pdfrwt>
<totfact> 0.17839557E+01</totfact>
</mgrwt>
</event>
<event>
12    1  0.1418317E-007  0.8988957E+03  0.7818608E-02  0.9426963E-01
          1   -1    0    0  501    0  0.00000000000E+00  0.00000000000E+00  0.11963974073E+04  0.11963974073E+04  0.00000000000E+00 0. -1.
         -1   -1    0    0    0  501 -0.00000000000E+00 -0.00000000000E+00 -0.79996168809E+03  0.79996168809E+03  0.00000000000E+00 0.  1.
         23    2    1    2    0    0  0.65603707799E+03 -0.59134423993E+03  0.14670973025E+03  0.89967538789E+03  0.88427375959E+02 0.  0.
    5000000    2    1    2    0    0 -0.65603707799E+03  0.59134423993E+03  0.24972598899E+03  0.10966837075E+04  0.60023281065E+03 0.  0.
         23    2    4    4    0    0 -0.17961311052E+03  0.80767025728E+02  0.32175915072E+03  0.38876323018E+03  0.93934637658E+02 0.  0.
         23    2    4    4    0    0 -0.47642396748E+03  0.51057721420E+03 -0.72033161732E+02  0.70792047735E+03  0.91069958913E+02 0.  0.
          1    1    3    3  502    0  0.34151374251E+03 -0.36259797691E+03  0.65702906114E+02  0.50241994492E+03  0.00000000000E+00 0. -1.
         -1    1    3    3    0  502  0.31452333548E+03 -0.22874626302E+03  0.81006824141E+02  0.39725544297E+03  0.00000000000E+00 0.  1.
         11    1    5    5    0    0 -0.55887972359E+02  0.68059318314E+02  0.17852789416E+03  0.19906718779E+03  0.00000000000E+00 0. -1.
        -11    1    5    5    0    0 -0.12372513816E+03  0.12707707414E+02  0.14323125656E+03  0.18969604238E+03  0.00000000000E+00 0.  1.
          4    1    6    6  503    0 -0.18147023958E+03  0.19297636494E+03  0.16960994811E+02  0.26544114343E+03  0.00000000000E+00 0. -1.
         -4    1    6    6    0  503 -0.29495372790E+03  0.31760084926E+03 -0.88994156542E+02  0.44247933392E+03  0.00000000000E+00 0.  1.
<mgrwt>
<rscale>  0 0.89889573E+03</rscale>
<asrwt>0</asrwt>
<pdfrwt beam="1">  1        1 0.18406114E+00 0.89889573E+03</pdfrwt>
<pdfrwt beam="2">  1       -1 0.12307103E+00 0.89889573E+03</pdfrwt>
<totfact> 0.63504949E+00</totfact>
</mgrwt>
</event>
<event>
12    1  0.1418317E-007  0.7478545E+03  0.7818608E-02  0.9638722E-01
          1   -1    0    0  501    0  0.00000000000E+00  0.00000000000E+00  0.16263739112E+04  0.16263739112E+04  0.00000000000E+00 0. -1.
         -1   -1    0    0    0  501 -0.00000000000E+00 -0.00000000000E+00 -0.53929066595E+03  0.53929066595E+03  0.00000000000E+00 0.  1.
         23    2    1    2    0    0  0.46164772910E+03 -0.47365031893E+03  0.10835141458E+04  0.12726838441E+04  0.90873607773E+02 0.  0.
    5000000    2    1    2    0    0 -0.46164772910E+03  0.47365031893E+03  0.35690995073E+01  0.89298073307E+03  0.59994883177E+03 0.  0.
         23    2    4    4    0    0 -0.16757812637E+03  0.49366699185E+03 -0.14882947374E+03  0.54848756132E+03  0.83059408760E+02 0.  0.
         23    2    4    4    0    0 -0.29406960274E+03 -0.20016672918E+02  0.15239857325E+03  0.34449317175E+03  0.92588453963E+02 0.  0.
          4    1    3    3  502    0  0.33029366286E+03 -0.38594387493E+03  0.78647415574E+03  0.93626287760E+03  0.00000000000E+00 0. -1.
         -4    1    3    3    0  502  0.13135406624E+03 -0.87706443999E+02  0.29703999003E+03  0.33642096652E+03  0.00000000000E+00 0.  1.
         13    1    5    5    0    0 -0.37694204221E+02  0.15525355866E+03 -0.91553943395E+01  0.16002606586E+03  0.00000000000E+00 0.  1.
        -13    1    5    5    0    0 -0.12988392215E+03  0.33841343319E+03 -0.13967407940E+03  0.38846149546E+03  0.00000000000E+00 0. -1.
          4    1    6    6  503    0 -0.27936498562E+03 -0.40537112127E+02  0.13017331714E+03  0.31085872217E+03  0.00000000000E+00 0. -1.
         -4    1    6    6    0  503 -0.14704617111E+02  0.20520439209E+02  0.22225256107E+02  0.33634449582E+02  0.00000000000E+00 0.  1.
<mgrwt>
<rscale>  0 0.74785451E+03</rscale>
<asrwt>0</asrwt>
<pdfrwt beam="1">  1        1 0.25021137E+00 0.74785451E+03</pdfrwt>
<pdfrwt beam="2">  1       -1 0.82967795E-01 0.74785451E+03</pdfrwt>
<totfact> 0.80438871E+00</totfact>
</mgrwt>
</event>
<event>
12    1  0.1418317E-007  0.8628992E+03  0.7818608E-02  0.9473186E-01
          2   -1    0    0  501    0  0.00000000000E+00  0.00000000000E+00  0.28640839639E+04  0.28640839639E+04  0.00000000000E+00 0. -1.
         -2   -1    0    0    0  501 -0.00000000000E+00 -0.00000000000E+00 -0.29330312437E+03  0.29330312437E+03  0.00000000000E+00 0.  1.
         23    2    1    2    0    0  0.11647055511E+03  0.76697330847E+03  0.71798109649E+03  0.10610415078E+04  0.92188829683E+02 0.  0.
    5000000    2    1    2    0    0 -0.11647055511E+03 -0.76697330847E+03  0.18527997431E+04  0.20963455805E+04  0.59998704875E+03 0.  0.
         23    2    4    4    0    0 -0.32854008186E+03 -0.46529053630E+03  0.87837707120E+03  0.10503201537E+04  0.84807296726E+02 0.  0.
         23    2    4    4    0    0  0.21206952675E+03 -0.30168277217E+03  0.97442267187E+03  0.10460254267E+04  0.93186215157E+02 0.  0.
          3    1    3    3  502    0  0.79368802496E+02  0.36121964130E+03  0.39496071907E+03  0.54108502629E+03  0.00000000000E+00 0. -1.
         -3    1    3    3    0  502  0.37101752616E+02  0.40575366717E+03  0.32302037742E+03  0.51995648154E+03  0.00000000000E+00 0.  1.
         13    1    5    5    0    0 -0.24031001996E+03 -0.37384337023E+03  0.73331956310E+03  0.85747615289E+03  0.00000000000E+00 0. -1.
        -13    1    5    5    0    0 -0.88230061899E+02 -0.91447166067E+02  0.14505750811E+03  0.19284400085E+03  0.00000000000E+00 0.  1.
          1    1    6    6  503    0  0.21480429920E+03 -0.26905778429E+03  0.92239997159E+03  0.98455811705E+03  0.00000000000E+00 0.  1.
         -1    1    6    6    0  503 -0.27347724582E+01 -0.32624987886E+02  0.52022700272E+02  0.61467309674E+02  0.00000000000E+00 0. -1.
<mgrwt>
<rscale>  0 0.86289916E+03</rscale>
<asrwt>0</asrwt>
<pdfrwt beam="1">  1        2 0.44062828E+00 0.86289916E+03</pdfrwt>
<pdfrwt beam="2">  1       -2 0.45123560E-01 0.86289916E+03</pdfrwt>
<totfact> 0.10234320E+01</totfact>
</mgrwt>
</event>
<event>
12    1  0.1418317E-007  0.4738924E+03  0.7818608E-02  0.1020827E+00
         -1   -1    0    0    0  501 -0.00000000000E+00  0.00000000000E+00  0.23113932995E+03  0.23113932995E+03  0.00000000000E+00 0.  1.
          1   -1    0    0  501    0  0.00000000000E+00 -0.00000000000E+00 -0.12661597473E+04  0.12661597473E+04  0.00000000000E+00 0. -1.
         23    2    1    2    0    0 -0.32850322747E+03 -0.15343962422E+03 -0.44224416682E+03  0.57916860357E+03  0.91642127521E+02 0.  0.
    5000000    2    1    2    0    0  0.32850322747E+03  0.15343962422E+03 -0.59277625056E+03  0.91813047369E+03  0.60010148706E+03 0.  0.
         23    2    4    4    0    0  0.23157252135E+03  0.29261821186E+03 -0.11230189614E+03  0.40064034976E+03  0.93003889277E+02 0.  0.
         23    2    4    4    0    0  0.96930706117E+02 -0.13917858764E+03 -0.48047435442E+03  0.51749012394E+03  0.90411183341E+02 0.  0.
          1    1    3    3  502    0 -0.47542276336E+02 -0.61030223492E+02 -0.76495931259E+02  0.10879606481E+03  0.00000000000E+00 0. -1.
         -1    1    3    3    0  502 -0.28096095113E+03 -0.92409400727E+02 -0.36574823556E+03  0.47037253876E+03  0.00000000000E+00 0.  1.
         11    1    5    5    0    0  0.17435426699E+03  0.15373084922E+03 -0.87617123475E+02  0.24841365652E+03  0.00000000000E+00 0. -1.
        -11    1    5    5    0    0  0.57218254365E+02  0.13888736264E+03 -0.24684772664E+02  0.15222669324E+03  0.00000000000E+00 0.  1.
          2    1    6    6  503    0  0.11268707769E+03 -0.13468537651E+03 -0.44574343666E+03  0.47908844638E+03  0.00000000000E+00 0. -1.
         -2    1    6    6    0  503 -0.15756371570E+02 -0.44932111267E+01 -0.34730917752E+02  0.38401677557E+02  0.00000000000E+00 0.  1.
<mgrwt>
<rscale>  0 0.47389241E+03</rscale>
<asrwt>0</asrwt>
<pdfrwt beam="1">  1        1 0.19479381E+00 0.47389241E+03</pdfrwt>
<pdfrwt beam="2">  1       -1 0.35559897E-01 0.47389241E+03</pdfrwt>
<totfact> 0.76247061E+01</totfact>
</mgrwt>
</event>
<event>
12    1  0.1418317E-007  0.8446070E+03  0.7818608E-02  0.9497604E-01
          2   -1    0    0  501    0  0.00000000000E+00  0.00000000000E+00  0.10456497058E+04  0.10456497058E+04  0.00000000000E+00 0. -1.
         -2   -1    0    0    0  501 -0.00000000000E+00 -0.00000000000E+00 -0.80682778579E+03  0.80682778579E+03  0.00000000000E+00 0.  1.
         23    2    1    2    0    0 -0.72984230608E+03  0.14921057102E+03  0.44910333394E+03  0.87440569416E+03  0.89207214796E+02 0.  0.
    5000000    2    1    2    0    0  0.72984230608E+03 -0.14921057102E+03 -0.21028141394E+03  0.97807179741E+03  0.59789010829E+03 0.  0.
         23    2    4    4    0    0  0.71483850898E+03  0.63294100507E+02 -0.15174962290E+03  0.73899870078E+03  0.89949400325E+02 0.  0.
         23    2    4    4    0    0  0.15003797102E+02 -0.21250467153E+03 -0.58531791047E+02  0.23907309664E+03  0.91359868774E+02 0.  0.
          3    1    3    3  502    0 -0.26651035803E+03  0.47981168208E+02  0.21355801649E+03  0.34487242547E+03  0.00000000000E+00 0. -1.
         -3    1    3    3    0  502 -0.46333194806E+03  0.10122940281E+03  0.23554531745E+03  0.52953326870E+03  0.00000000000E+00 0.  1.
         13    1    5    5    0    0  0.11175405400E+03  0.29402316835E+02 -0.52256666667E+02  0.12682359415E+03  0.00000000000E+00 0. -1.
        -13    1    5    5    0    0  0.60308445498E+03  0.33891783673E+02 -0.99492956229E+02  0.61217510663E+03  0.00000000000E+00 0.  1.
          4    1    6    6  503    0  0.37871665319E+02 -0.18480159444E+03 -0.70234503368E+02  0.20129276640E+03  0.00000000000E+00 0. -1.
         -4    1    6    6    0  503 -0.22867868217E+02 -0.27703077088E+02  0.11702712321E+02  0.37780330234E+02  0.00000000000E+00 0.  1.
<mgrwt>
<rscale>  0 0.84460703E+03</rscale>
<asrwt>0</asrwt>
<pdfrwt beam="1">  1        2 0.16086919E+00 0.84460703E+03</pdfrwt>
<pdfrwt beam="2">  1       -2 0.12412735E+00 0.84460703E+03</pdfrwt>
<totfact> 0.11577008E+01</totfact>
</mgrwt>
</event>
<event>
12    1  0.1418317E-007  0.4939481E+03  0.7818608E-02  0.1015371E+00
         -2   -1    0    0    0  501 -0.00000000000E+00  0.00000000000E+00  0.30773589843E+03  0.30773589843E+03  0.00000000000E+00 0.  1.
          2   -1    0    0  501    0  0.00000000000E+00 -0.00000000000E+00 -0.85575376610E+03  0.85575376610E+03  0.00000000000E+00 0. -1.
         23    2    1    2    0    0 -0.51335889233E+02  0.32069582849E+03 -0.24806833521E+03  0.41802042826E+03  0.87874863154E+02 0.  0.
    5000000    2    1    2    0    0  0.51335889233E+02 -0.32069582849E+03 -0.29994953246E+03  0.74546923628E+03  0.60022785030E+03 0.  0.
         23    2    4    4    0    0 -0.25119951242E+03 -0.18726824612E+03 -0.22073656255E+03  0.39409791198E+03  0.91749349503E+02 0.  0.
         23    2    4    4    0    0  0.30253540165E+03 -0.13342758237E+03 -0.79212969907E+02  0.35137132430E+03  0.88637034858E+02 0.  0.
          4    1    3    3  502    0 -0.60057240920E+02  0.20068063126E+03 -0.19612065561E+03  0.28695452515E+03  0.00000000000E+00 0.  1.
         -4    1    3    3    0  502  0.87213516864E+01  0.12001519722E+03 -0.51947679602E+02  0.13106590310E+03  0.00000000000E+00 0. -1.
         13    1    5    5    0    0 -0.20296817394E+03 -0.18500572026E+03 -0.16513353392E+03  0.32045636237E+03  0.00000000000E+00 0. -1.
        -13    1    5    5    0    0 -0.48231338480E+02 -0.22625258576E+01 -0.55603028636E+02  0.73641549606E+02  0.00000000000E+00 0.  1.
          3    1    6    6  503    0  0.48730187570E+02 -0.45212661179E+02  0.12128781566E+02  0.67571615740E+02  0.00000000000E+00 0. -1.
         -3    1    6    6    0  503  0.25380521408E+03 -0.88214921190E+02 -0.91341751473E+02  0.28379970856E+03  0.00000000000E+00 0.  1.
<mgrwt>
<rscale>  0 0.49394812E+03</rscale>
<asrwt>0</asrwt>
<pdfrwt beam="1">  1        2 0.13165442E+00 0.49394812E+03</pdfrwt>
<pdfrwt beam="2">  1       -2 0.47343985E-01 0.49394812E+03</pdfrwt>
<totfact> 0.13711139E+02</totfact>
</mgrwt>
</event>
<event>
12    1  0.1418317E-007  0.9517202E+03  0.7818608E-02  0.9363142E-01
         -1   -1    0    0    0  501 -0.00000000000E+00  0.00000000000E+00  0.11968071952E+04  0.11968071952E+04  0.00000000000E+00 0.  1.
          1   -1    0    0  501    0  0.00000000000E+00 -0.00000000000E+00 -0.82594780385E+03  0.82594780385E+03  0.00000000000E+00 0. -1.
         23    2    1    2    0    0  0.39493637136E+02  0.86474383356E+03  0.42374641411E+03  0.96818321436E+03  0.92065563788E+02 0.  0.
    5000000    2    1    2    0    0 -0.39493637136E+02 -0.86474383356E+03 -0.52887022766E+02  0.10545717847E+04  0.59998580552E+03 0.  0.
         23    2    4    4    0    0  0.19813140844E+03 -0.73579656636E+03 -0.51715351881E+02  0.76883508909E+03  0.88205864375E+02 0.  0.
         23    2    4    4    0    0 -0.23762504557E+03 -0.12894726720E+03 -0.11716708847E+01  0.28573669560E+03  0.92471760007E+02 0.  0.
          4    1    3    3  502    0  0.56994129784E+02  0.58520643391E+03  0.25252938349E+03  0.63991092400E+03  0.00000000000E+00 0. -1.
         -4    1    3    3    0  502 -0.17500492648E+02  0.27953739965E+03  0.17121703062E+03  0.32827229036E+03  0.00000000000E+00 0.  1.
         13    1    5    5    0    0  0.14693729170E+03 -0.52183065726E+03 -0.76276815736E+02  0.54746319983E+03  0.00000000000E+00 0.  1.
        -13    1    5    5    0    0  0.51194116735E+02 -0.21396590910E+03  0.24561463854E+02  0.22137188926E+03  0.00000000000E+00 0. -1.
          3    1    6    6  503    0 -0.75399688771E+02 -0.20569545513E+02  0.37751242370E+02  0.86795020421E+02  0.00000000000E+00 0. -1.
         -3    1    6    6    0  503 -0.16222535680E+03 -0.10837772169E+03 -0.38922913254E+02  0.19894167518E+03  0.00000000000E+00 0.  1.
<mgrwt>
<rscale>  0 0.95172022E+03</rscale>
<asrwt>0</asrwt>
<pdfrwt beam="1">  1        1 0.12706889E+00 0.95172022E+03</pdfrwt>
<pdfrwt beam="2">  1       -1 0.18412418E+00 0.95172022E+03</pdfrwt>
<totfact> 0.41190365E+00</totfact>
</mgrwt>
</event>
<event>
12    1  0.1418317E-007  0.1768476E+04  0.7818608E-02  0.8723246E-01
         -2   -1    0    0    0  501 -0.00000000000E+00  0.00000000000E+00  0.14320380710E+04  0.14320380710E+04  0.00000000000E+00 0.  1.
          2   -1    0    0  501    0  0.00000000000E+00 -0.00000000000E+00 -0.23254486158E+04  0.23254486158E+04  0.00000000000E+00 0. -1.
         23    2    1    2    0    0  0.16523030076E+04 -0.58822099004E+03 -0.71138528422E+03  0.18948904027E+04  0.91822947171E+02 0.  0.
    5000000    2    1    2    0    0 -0.16523030076E+04  0.58822099004E+03 -0.18202526061E+03  0.18625962841E+04  0.60001879978E+03 0.  0.
         23    2    4    4    0    0 -0.76149934839E+03  0.11399699326E+03  0.16330376743E+03  0.79229109515E+03  0.90446044264E+02 0.  0.
         23    2    4    4    0    0 -0.89080365923E+03  0.47422399679E+03 -0.34532902804E+03  0.10703051890E+04  0.88777821343E+02 0.  0.
          2    1    3    3  502    0  0.13093579606E+04 -0.46044152147E+03 -0.60225914870E+03  0.15129906628E+04  0.00000000000E+00 0. -1.
         -2    1    3    3    0  502  0.34294504704E+03 -0.12777946858E+03 -0.10912613552E+03  0.38189973989E+03  0.00000000000E+00 0.  1.
         11    1    5    5    0    0 -0.40142585282E+03  0.65631259400E+02  0.13199912027E+03  0.42763763314E+03  0.00000000000E+00 0.  1.
        -11    1    5    5    0    0 -0.36007349556E+03  0.48365733857E+02  0.31304647164E+02  0.36465346201E+03  0.00000000000E+00 0. -1.
          1    1    6    6  503    0 -0.82591974376E+03  0.41168025990E+03 -0.31907111743E+03  0.97643762602E+03  0.00000000000E+00 0. -1.
         -1    1    6    6    0  503 -0.64883915471E+02  0.62543736884E+02 -0.26257910611E+02  0.93867562980E+02  0.00000000000E+00 0.  1.
<mgrwt>
<rscale>  0 0.17684758E+04</rscale>
<asrwt>0</asrwt>
<pdfrwt beam="1">  1        2 0.35776132E+00 0.17684758E+04</pdfrwt>
<pdfrwt beam="2">  1       -2 0.22031355E+00 0.17684758E+04</pdfrwt>
<totfact> 0.39379308E-01</totfact>
</mgrwt>
</event>
<event>
12    1  0.1418317E-007  0.1184981E+04  0.7818608E-02  0.9126105E-01
         -2   -1    0    0    0  501 -0.00000000000E+00  0.00000000000E+00  0.15475880093E+04  0.15475880093E+04  0.00000000000E+00 0.  1.
          2   -1    0    0  501    0  0.00000000000E+00 -0.00000000000E+00 -0.10636036645E+04  0.10636036645E+04  0.00000000000E+00 0. -1.
         23    2    1    2    0    0  0.67090733235E+03 -0.95405138912E+03 -0.10258901698E+03  0.11743974660E+04  0.91401313664E+02 0.  0.
    5000000    2    1    2    0    0 -0.67090733235E+03  0.95405138912E+03  0.58657336182E+03  0.14367942077E+04  0.59998215376E+03 0.  0.
         23    2    4    4    0    0 -0.46394683950E+03  0.83010717200E+03  0.66851431343E+03  0.11660308682E+04  0.91607921777E+02 0.  0.
         23    2    4    4    0    0 -0.20696049285E+03  0.12394421712E+03 -0.81940951612E+02  0.27076333956E+03  0.91671434700E+02 0.  0.
          1    1    3    3  502    0  0.36694143386E+03 -0.59368111881E+03 -0.43823881001E+02  0.69930238042E+03  0.00000000000E+00 0. -1.
         -1    1    3    3    0  502  0.30396589849E+03 -0.36037027031E+03 -0.58765135981E+02  0.47509508562E+03  0.00000000000E+00 0.  1.
         13    1    5    5    0    0 -0.40696527754E+03  0.65663728049E+03  0.53013347731E+03  0.93692836387E+03  0.00000000000E+00 0. -1.
        -13    1    5    5    0    0 -0.56981561957E+02  0.17346989151E+03  0.13838083612E+03  0.22910250428E+03  0.00000000000E+00 0.  1.
          1    1    6    6  503    0 -0.19459057354E+03  0.10060115417E+03 -0.97857300756E+02  0.23992110128E+03  0.00000000000E+00 0. -1.
         -1    1    6    6    0  503 -0.12369919312E+02  0.23343062951E+02  0.15916349145E+02  0.30842238275E+02  0.00000000000E+00 0.  1.
<mgrwt>
<rscale>  0 0.11849814E+04</rscale>
<asrwt>0</asrwt>
<pdfrwt beam="1">  1        2 0.16363133E+00 0.11849814E+04</pdfrwt>
<pdfrwt beam="2">  1       -2 0.23809046E+00 0.11849814E+04</pdfrwt>
<totfact> 0.17027020E+00</totfact>
</mgrwt>
</event>
<event>
12    1  0.1418317E-007  0.8210960E+03  0.7818608E-02  0.9529974E-01
         -2   -1    0    0    0  501 -0.00000000000E+00  0.00000000000E+00  0.74009740149E+03  0.74009740149E+03  0.00000000000E+00 0.  1.
          2   -1    0    0  501    0  0.00000000000E+00 -0.00000000000E+00 -0.10991165827E+04  0.10991165827E+04  0.00000000000E+00 0. -1.
         23    2    1    2    0    0 -0.55509841980E+03 -0.54877873716E+03  0.15452658367E+02  0.78597673726E+03  0.90709915918E+02 0.  0.
    5000000    2    1    2    0    0  0.55509841980E+03  0.54877873716E+03 -0.37447183956E+03  0.10532372469E+04  0.59982262512E+03 0.  0.
         23    2    4    4    0    0  0.58480322686E+03  0.49721776203E+03 -0.12625412216E+03  0.78330472954E+03  0.91683580527E+02 0.  0.
         23    2    4    4    0    0 -0.29704807059E+02  0.51560975131E+02 -0.24821771740E+03  0.26993251736E+03  0.87810130267E+02 0.  0.
          1    1    3    3  502    0 -0.15663214544E+03 -0.12009545479E+03 -0.26775919726E+02  0.19918207029E+03  0.00000000000E+00 0. -1.
         -1    1    3    3    0  502 -0.39846627436E+03 -0.42868328236E+03  0.42228578093E+02  0.58679466697E+03  0.00000000000E+00 0.  1.
         13    1    5    5    0    0  0.12135264282E+03  0.58177099561E+02 -0.26637191622E+02  0.13718811469E+03  0.00000000000E+00 0.  1.
        -13    1    5    5    0    0  0.46345058404E+03  0.43904066247E+03 -0.99616930538E+02  0.64611661486E+03  0.00000000000E+00 0. -1.
          3    1    6    6  503    0  0.14752716852E+02  0.36938845406E+02 -0.19521005562E+03  0.19922120060E+03  0.00000000000E+00 0. -1.
         -3    1    6    6    0  503 -0.44457523912E+02  0.14622129725E+02 -0.53007661781E+02  0.70711316757E+02  0.00000000000E+00 0.  1.
<mgrwt>
<rscale>  0 0.82109598E+03</rscale>
<asrwt>0</asrwt>
<pdfrwt beam="1">  1        2 0.16909486E+00 0.82109598E+03</pdfrwt>
<pdfrwt beam="2">  1       -2 0.11386114E+00 0.82109598E+03</pdfrwt>
<totfact> 0.13312211E+01</totfact>
</mgrwt>
</event>
<event>
12    1  0.1418317E-007  0.6111548E+03  0.7818608E-02  0.9882530E-01
          2   -1    0    0  501    0  0.00000000000E+00  0.00000000000E+00  0.24667955747E+04  0.24667955747E+04  0.00000000000E+00 0. -1.
         -2   -1    0    0    0  501 -0.00000000000E+00 -0.00000000000E+00 -0.18027296430E+03  0.18027296430E+03  0.00000000000E+00 0.  1.
         23    2    1    2    0    0  0.15916869560E+03  0.44874266749E+03  0.46793473409E+03  0.67375004443E+03  0.90948071529E+02 0.  0.
    5000000    2    1    2    0    0 -0.15916869560E+03 -0.44874266749E+03  0.18185878763E+04  0.19733184946E+04  0.60001613466E+03 0.  0.
         23    2    4    4    0    0 -0.82949051555E+00 -0.54435463867E+03  0.11932032897E+04  0.13147936021E+04  0.92873380666E+02 0.  0.
         23    2    4    4    0    0 -0.15833920508E+03  0.95611971177E+02  0.62538458662E+03  0.65852489249E+03  0.91302792691E+02 0.  0.
          1    1    3    3  502    0  0.49185242482E+02  0.18460273590E+03  0.13061285391E+03  0.23142401731E+03  0.00000000000E+00 0. -1.
         -1    1    3    3    0  502  0.10998345312E+03  0.26413993158E+03  0.33732188019E+03  0.44232602712E+03  0.00000000000E+00 0.  1.
         11    1    5    5    0    0  0.66767402879E+01 -0.42789341642E+03  0.83862462618E+03  0.94150338200E+03  0.00000000000E+00 0.  1.
        -11    1    5    5    0    0 -0.75062308034E+01 -0.11646122224E+03  0.35457866353E+03  0.37329022009E+03  0.00000000000E+00 0. -1.
          1    1    6    6  503    0 -0.85436466249E+02  0.69627023536E+01  0.34649966157E+03  0.35694521212E+03  0.00000000000E+00 0. -1.
         -1    1    6    6    0  503 -0.72902738835E+02  0.88649268823E+02  0.27888492504E+03  0.30157968037E+03  0.00000000000E+00 0.  1.
<mgrwt>
<rscale>  0 0.61115480E+03</rscale>
<asrwt>0</asrwt>
<pdfrwt beam="1">  1        2 0.37950699E+00 0.61115480E+03</pdfrwt>
<pdfrwt beam="2">  1       -2 0.27734304E-01 0.61115480E+03</pdfrwt>
<totfact> 0.45834289E+01</totfact>
</mgrwt>
</event>
<event>
12    1  0.1418317E-007  0.6697234E+03  0.7818608E-02  0.9770458E-01
          2   -1    0    0  501    0  0.00000000000E+00  0.00000000000E+00  0.53656922373E+03  0.53656922373E+03  0.00000000000E+00 0. -1.
         -2   -1    0    0    0  501 -0.00000000000E+00 -0.00000000000E+00 -0.96913216399E+03  0.96913216399E+03  0.00000000000E+00 0.  1.
         23    2    1    2    0    0 -0.45083189299E+03  0.38398622318E+03 -0.17794815893E+03  0.62503458579E+03  0.91147522384E+02 0.  0.
    5000000    2    1    2    0    0  0.45083189299E+03 -0.38398622318E+03 -0.25461478133E+03  0.88066680194E+03  0.60004209339E+03 0.  0.
         23    2    4    4    0    0  0.97932911975E+02  0.92398283350E+02 -0.22793693708E+03  0.28016026574E+03  0.91685490669E+02 0.  0.
         23    2    4    4    0    0  0.35289898101E+03 -0.47638450653E+03 -0.26677844251E+02  0.60050653620E+03  0.91741505258E+02 0.  0.
          2    1    3    3  502    0 -0.31656905854E+03  0.24917833224E+03 -0.78865246832E+02  0.41051861985E+03  0.00000000000E+00 0. -1.
         -2    1    3    3    0  502 -0.13426283445E+03  0.13480789094E+03 -0.99082912097E+02  0.21451596594E+03  0.00000000000E+00 0.  1.
         11    1    5    5    0    0  0.76852474165E+02  0.23931633958E+02 -0.16975439679E+03  0.18787118224E+03  0.00000000000E+00 0.  1.
        -11    1    5    5    0    0  0.21080437809E+02  0.68466649392E+02 -0.58182540290E+02  0.92289083492E+02  0.00000000000E+00 0. -1.
          1    1    6    6  503    0  0.21445151796E+03 -0.25644834485E+03  0.26108327389E+02  0.33531604777E+03  0.00000000000E+00 0. -1.
         -1    1    6    6    0  503  0.13844746306E+03 -0.21993616168E+03 -0.52786171639E+02  0.26519048844E+03  0.00000000000E+00 0.  1.
<mgrwt>
<rscale>  0 0.66972343E+03</rscale>
<asrwt>0</asrwt>
<pdfrwt beam="1">  1        2 0.82549113E-01 0.66972343E+03</pdfrwt>
<pdfrwt beam="2">  1       -2 0.14909725E+00 0.66972343E+03</pdfrwt>
<totfact> 0.17634068E+01</totfact>
</mgrwt>
</event>
<event>
12    1  0.1418317E-007  0.1290233E+04  0.7818608E-02  0.9037346E-01
         -2   -1    0    0    0  501 -0.00000000000E+00  0.00000000000E+00  0.80941680752E+03  0.80941680752E+03  0.00000000000E+00 0.  1.
          2   -1    0    0  501    0  0.00000000000E+00 -0.00000000000E+00 -0.24388889569E+04  0.24388889569E+04  0.00000000000E+00 0. -1.
         23    2    1    2    0    0  0.54362465133E+03  0.11600100838E+04 -0.32645592823E+03  0.13250188108E+04  0.89164005181E+02 0.  0.
    5000000    2    1    2    0    0 -0.54362465133E+03 -0.11600100838E+04 -0.13030162212E+04  0.19232869537E+04  0.60002523052E+03 0.  0.
         23    2    4    4    0    0 -0.26452271030E+03 -0.40424854058E+03 -0.15344372644E+03  0.51653570800E+03  0.99373103143E+02 0.  0.
         23    2    4    4    0    0 -0.27910194103E+03 -0.75576154325E+03 -0.11495724948E+04  0.14067512457E+04  0.91426159846E+02 0.  0.
          1    1    3    3  502    0  0.23530328331E+03  0.43725816453E+03 -0.91843471256E+02  0.50497283174E+03  0.00000000000E+00 0. -1.
         -1    1    3    3    0  502  0.30832136802E+03  0.72275191930E+03 -0.23461245698E+03  0.82004597908E+03  0.00000000000E+00 0.  1.
         13    1    5    5    0    0 -0.18136178294E+03 -0.32646227778E+03 -0.15046014049E+03  0.40262633918E+03  0.00000000000E+00 0. -1.
        -13    1    5    5    0    0 -0.83160927362E+02 -0.77786262801E+02 -0.29835859513E+01  0.11390936882E+03  0.00000000000E+00 0.  1.
          4    1    6    6  503    0 -0.19754906692E+03 -0.63564395352E+03 -0.94277866311E+03  0.11540799267E+04  0.00000000000E+00 0. -1.
         -4    1    6    6    0  503 -0.81552874115E+02 -0.12011758973E+03 -0.20679383165E+03  0.25267131900E+03  0.00000000000E+00 0.  1.
<mgrwt>
<rscale>  0 0.12902332E+04</rscale>
<asrwt>0</asrwt>
<pdfrwt beam="1">  1        2 0.37521369E+00 0.12902332E+04</pdfrwt>
<pdfrwt beam="2">  1       -2 0.12452566E+00 0.12902332E+04</pdfrwt>
<totfact> 0.17718939E+00</totfact>
</mgrwt>
</event>
<event>
12    1  0.1418317E-007  0.5639812E+03  0.7818608E-02  0.9983087E-01
          2   -1    0    0  501    0  0.00000000000E+00  0.00000000000E+00  0.14725333737E+04  0.14725333737E+04  0.00000000000E+00 0. -1.
         -2   -1    0    0    0  501 -0.00000000000E+00 -0.00000000000E+00 -0.23027887412E+03  0.23027887412E+03  0.00000000000E+00 0.  1.
         23    2    1    2    0    0  0.18768462428E+03  0.37190812962E+03  0.36692031056E+03  0.56269426528E+03  0.91940996337E+02 0.  0.
    5000000    2    1    2    0    0 -0.18768462428E+03 -0.37190812962E+03  0.87533418901E+03  0.11401179825E+04  0.60009823911E+03 0.  0.
         23    2    4    4    0    0 -0.44652371375E+02  0.14259800841E+03  0.12601562234E+03  0.21576574281E+03  0.91361328925E+02 0.  0.
         23    2    4    4    0    0 -0.14303225290E+03 -0.51450613804E+03  0.74931856666E+03  0.92435223972E+03  0.88170047553E+02 0.  0.
          2    1    3    3  502    0  0.14402746204E+02  0.78853805422E+02  0.11034302696E+03  0.13638528266E+03  0.00000000000E+00 0. -1.
         -2    1    3    3    0  502  0.17328187808E+03  0.29305432420E+03  0.25657728359E+03  0.42630898261E+03  0.00000000000E+00 0.  1.
         13    1    5    5    0    0  0.22057540411E+02  0.74710146964E+02  0.73304097930E+02  0.10696556419E+03  0.00000000000E+00 0. -1.
        -13    1    5    5    0    0 -0.66709911786E+02  0.67887861451E+02  0.52711524413E+02  0.10880017862E+03  0.00000000000E+00 0.  1.
          4    1    6    6  503    0 -0.11184138381E+03 -0.42587974043E+03  0.66815086849E+03  0.80019224659E+03  0.00000000000E+00 0. -1.
         -4    1    6    6    0  503 -0.31190869093E+02 -0.88626397609E+02  0.81167698176E+02  0.12415999313E+03  0.00000000000E+00 0.  1.
<mgrwt>
<rscale>  0 0.56398116E+03</rscale>
<asrwt>0</asrwt>
<pdfrwt beam="1">  1        2 0.22654359E+00 0.56398116E+03</pdfrwt>
<pdfrwt beam="2">  1       -2 0.35427520E-01 0.56398116E+03</pdfrwt>
<totfact> 0.10216487E+02</totfact>
</mgrwt>
</event>
<event>
12    1  0.1418317E-007  0.4566468E+03  0.7818608E-02  0.1025758E+00
          1   -1    0    0  501    0  0.00000000000E+00  0.00000000000E+00  0.26648935232E+04  0.26648935232E+04  0.00000000000E+00 0. -1.
         -1   -1    0    0    0  501 -0.00000000000E+00 -0.00000000000E+00 -0.10448734089E+03  0.10448734089E+03  0.00000000000E+00 0.  1.
         23    2    1    2    0    0  0.13488998744E+03 -0.23996074468E+03  0.31183410071E+03  0.42596464207E+03  0.91809053105E+02 0.  0.
    5000000    2    1    2    0    0 -0.13488998744E+03  0.23996074468E+03  0.22485720816E+04  0.23434162220E+04  0.59978889266E+03 0.  0.
         23    2    4    4    0    0 -0.25353223395E+03  0.36288625218E+03  0.17667683909E+04  0.18241216776E+04  0.99921577871E+02 0.  0.
         23    2    4    4    0    0  0.11864224651E+03 -0.12292550750E+03  0.48180369069E+03  0.51929454446E+03  0.91352966527E+02 0.  0.
          2    1    3    3  502    0  0.10139400718E+03 -0.15731769829E+03  0.26724204004E+03  0.32626356041E+03  0.00000000000E+00 0. -1.
         -2    1    3    3    0  502  0.33495980261E+02 -0.82643046388E+02  0.44592060674E+02  0.99701081665E+02  0.00000000000E+00 0.  1.
         13    1    5    5    0    0 -0.19565535489E+03  0.25815409298E+03  0.11000200902E+04  0.11467208695E+04  0.00000000000E+00 0.  1.
        -13    1    5    5    0    0 -0.57876879060E+02  0.10473215921E+03  0.66674830071E+03  0.67740080809E+03  0.00000000000E+00 0. -1.
          4    1    6    6  503    0 -0.19738673895E+01 -0.54832664257E+02  0.15124048955E+03  0.16088568271E+03  0.00000000000E+00 0. -1.
         -4    1    6    6    0  503  0.12061611390E+03 -0.68092843246E+02  0.33056320113E+03  0.35840886175E+03  0.00000000000E+00 0.  1.
<mgrwt>
<rscale>  0 0.45664680E+03</rscale>
<asrwt>0</asrwt>
<pdfrwt beam="1">  1        1 0.40998357E+00 0.45664680E+03</pdfrwt>
<pdfrwt beam="2">  1       -1 0.16074978E-01 0.45664680E+03</pdfrwt>
<totfact> 0.33670597E+01</totfact>
</mgrwt>
</event>
<event>
12    1  0.1418317E-007  0.8599553E+03  0.7818608E-02  0.9477072E-01
          2   -1    0    0  501    0  0.00000000000E+00  0.00000000000E+00  0.14604076316E+04  0.14604076316E+04  0.00000000000E+00 0. -1.
         -2   -1    0    0    0  501 -0.00000000000E+00 -0.00000000000E+00 -0.67971454223E+03  0.67971454223E+03  0.00000000000E+00 0.  1.
         23    2    1    2    0    0 -0.65300439229E+03 -0.52846883656E+03  0.71320628219E+03  0.11055806588E+04  0.89170312113E+02 0.  0.
    5000000    2    1    2    0    0  0.65300439229E+03  0.52846883656E+03  0.67486807179E+02  0.10345415150E+04  0.60002302426E+03 0.  0.
         23    2    4    4    0    0  0.59300346687E+02  0.34641576310E+02  0.21343505313E+03  0.24338012058E+03  0.94672019421E+02 0.  0.
         23    2    4    4    0    0  0.59370404560E+03  0.49382726025E+03 -0.14594824595E+03  0.79116139446E+03  0.91025297947E+02 0.  0.
          2    1    3    3  502    0 -0.43590926764E+03 -0.35499171178E+03  0.53083585262E+03  0.77318995562E+03  0.00000000000E+00 0. -1.
         -2    1    3    3    0  502 -0.21709512465E+03 -0.17347712477E+03  0.18237042957E+03  0.33239070316E+03  0.00000000000E+00 0.  1.
         11    1    5    5    0    0  0.67245341191E+01  0.51758499152E+02  0.56159829983E+02  0.76668690463E+02  0.00000000000E+00 0.  1.
        -11    1    5    5    0    0  0.52575812568E+02 -0.17116922842E+02  0.15727522315E+03  0.16671143012E+03  0.00000000000E+00 0. -1.
          2    1    6    6  503    0  0.21159631819E+03  0.18466854514E+03 -0.97392698592E+02  0.29725546449E+03  0.00000000000E+00 0. -1.
         -2    1    6    6    0  503  0.38210772742E+03  0.30915871511E+03 -0.48555547362E+02  0.49390592997E+03  0.00000000000E+00 0.  1.
<mgrwt>
<rscale>  0 0.85995532E+03</rscale>
<asrwt>0</asrwt>
<pdfrwt beam="1">  1        2 0.22467810E+00 0.85995532E+03</pdfrwt>
<pdfrwt beam="2">  1       -2 0.10457147E+00 0.85995532E+03</pdfrwt>
<totfact> 0.10021507E+01</totfact>
</mgrwt>
</event>
<event>
12    1  0.1418317E-007  0.9877535E+03  0.7818608E-02  0.9322079E-01
         -2   -1    0    0    0  501 -0.00000000000E+00  0.00000000000E+00  0.71430454244E+03  0.71430454244E+03  0.00000000000E+00 0.  1.
          2   -1    0    0  501    0  0.00000000000E+00 -0.00000000000E+00 -0.38423000990E+04  0.38423000990E+04  0.00000000000E+00 0. -1.
         23    2    1    2    0    0  0.14560887428E+03 -0.89054675696E+03 -0.33326379903E+04  0.34538456284E+04  0.91094343750E+02 0.  0.
    5000000    2    1    2    0    0 -0.14560887428E+03  0.89054675696E+03  0.20464243370E+03  0.11027590131E+04  0.59993620057E+03 0.  0.
         23    2    4    4    0    0 -0.36223981235E+03  0.54478443323E+03  0.18062085371E+03  0.68457435304E+03  0.89500791652E+02 0.  0.
         23    2    4    4    0    0  0.21663093806E+03  0.34576232373E+03  0.24021579987E+02  0.41818466008E+03  0.88435432865E+02 0.  0.
          1    1    3    3  502    0  0.11836454876E+03 -0.84941384354E+03 -0.31513326887E+04  0.32659472989E+04  0.00000000000E+00 0. -1.
         -1    1    3    3    0  502  0.27244325519E+02 -0.41132913417E+02 -0.18130530158E+03  0.18789832948E+03  0.00000000000E+00 0.  1.
         11    1    5    5    0    0 -0.21908159339E+03  0.31665456401E+03  0.60917586183E+02  0.38984331439E+03  0.00000000000E+00 0. -1.
        -11    1    5    5    0    0 -0.14315821896E+03  0.22812986922E+03  0.11970326753E+03  0.29473103865E+03  0.00000000000E+00 0.  1.
          3    1    6    6  503    0  0.49199052780E+02  0.32492696719E+02 -0.15009061974E+02  0.60840727115E+02  0.00000000000E+00 0. -1.
         -3    1    6    6    0  503  0.16743188528E+03  0.31326962701E+03  0.39030641961E+02  0.35734393297E+03  0.00000000000E+00 0.  1.
<mgrwt>
<rscale>  0 0.98775352E+03</rscale>
<asrwt>0</asrwt>
<pdfrwt beam="1">  1        2 0.59112310E+00 0.98775352E+03</pdfrwt>
<pdfrwt beam="2">  1       -2 0.10989301E+00 0.98775352E+03</pdfrwt>
<totfact> 0.31427075E-01</totfact>
</mgrwt>
</event>
<event>
12    1  0.1418317E-007  0.6841279E+03  0.7818608E-02  0.9744767E-01
          1   -1    0    0  501    0  0.00000000000E+00  0.00000000000E+00  0.11465009625E+04  0.11465009625E+04  0.00000000000E+00 0. -1.
         -1   -1    0    0    0  501 -0.00000000000E+00 -0.00000000000E+00 -0.75234103621E+03  0.75234103621E+03  0.00000000000E+00 0.  1.
         23    2    1    2    0    0  0.64204630194E+03 -0.13955389664E+03 -0.33970047448E+03  0.74544500555E+03  0.92698975316E+02 0.  0.
    5000000    2    1    2    0    0 -0.64204630194E+03  0.13955389664E+03  0.73386040075E+03  0.11533969932E+04  0.60006232353E+03 0.  0.
         23    2    4    4    0    0 -0.16781864028E+03 -0.51074460096E+02  0.57844348840E+03  0.61156430874E+03  0.92964175659E+02 0.  0.
         23    2    4    4    0    0 -0.47422766166E+03  0.19062835674E+03  0.15541691235E+03  0.54183268441E+03  0.90538366301E+02 0.  0.
          1    1    3    3  502    0  0.12352527351E+03 -0.33766541325E+02 -0.10890851434E+03  0.16810632649E+03  0.00000000000E+00 0. -1.
         -1    1    3    3    0  502  0.51852102843E+03 -0.10578735532E+03 -0.23079196014E+03  0.57733867906E+03  0.00000000000E+00 0.  1.
         13    1    5    5    0    0 -0.37250875025E+02  0.21370528331E+02  0.20349290224E+03  0.20797521110E+03  0.00000000000E+00 0.  1.
        -13    1    5    5    0    0 -0.13056776525E+03 -0.72444988427E+02  0.37495058616E+03  0.40358909764E+03  0.00000000000E+00 0. -1.
          1    1    6    6  503    0 -0.34740921981E+03  0.95789424493E+02  0.11687542685E+03  0.37885174575E+03  0.00000000000E+00 0. -1.
         -1    1    6    6    0  503 -0.12681844185E+03  0.94838932246E+02  0.38541485504E+02  0.16298093867E+03  0.00000000000E+00 0.  1.
<mgrwt>
<rscale>  0 0.68412787E+03</rscale>
<asrwt>0</asrwt>
<pdfrwt beam="1">  1        1 0.17638476E+00 0.68412787E+03</pdfrwt>
<pdfrwt beam="2">  1       -1 0.11574478E+00 0.68412787E+03</pdfrwt>
<totfact> 0.82692292E+00</totfact>
</mgrwt>
</event>
<event>
12    1  0.1418317E-007  0.5998156E+03  0.7818608E-02  0.9905789E-01
          1   -1    0    0  501    0  0.00000000000E+00  0.00000000000E+00  0.81951509582E+03  0.81951509582E+03  0.00000000000E+00 0. -1.
         -1   -1    0    0    0  501 -0.00000000000E+00 -0.00000000000E+00 -0.47851394082E+03  0.47851394082E+03  0.00000000000E+00 0.  1.
         23    2    1    2    0    0 -0.39131157240E+03  0.27103465342E+03  0.10335680778E+03  0.49599819322E+03  0.93525653765E+02 0.  0.
    5000000    2    1    2    0    0  0.39131157240E+03 -0.27103465342E+03  0.23764434722E+03  0.80203084342E+03  0.60016173486E+03 0.  0.
         23    2    4    4    0    0  0.46465548399E+03 -0.56629044878E+02  0.27848753255E+03  0.55224782889E+03  0.91163540950E+02 0.  0.
         23    2    4    4    0    0 -0.73343911591E+02 -0.21440560854E+03 -0.40843185330E+02  0.24978301453E+03  0.96820938959E+02 0.  0.
          3    1    3    3  502    0 -0.19976889627E+03  0.18395582268E+03  0.86087598305E+02  0.28488318869E+03  0.00000000000E+00 0. -1.
         -3    1    3    3    0  502 -0.19154267613E+03  0.87078830739E+02  0.17269209475E+02  0.21111500453E+03  0.00000000000E+00 0.  1.
         11    1    5    5    0    0  0.20697546211E+03  0.34868124037E+01  0.16330346834E+03  0.26366460238E+03  0.00000000000E+00 0.  1.
        -11    1    5    5    0    0  0.25768002189E+03 -0.60115857281E+02  0.11518406421E+03  0.28858322651E+03  0.00000000000E+00 0. -1.
          3    1    6    6  503    0  0.17559019090E+02 -0.91587019536E+02 -0.22100879420E+02  0.95838145694E+02  0.00000000000E+00 0. -1.
         -3    1    6    6    0  503 -0.90902930681E+02 -0.12281858900E+03 -0.18742305910E+02  0.15394486884E+03  0.00000000000E+00 0.  1.
<mgrwt>
<rscale>  0 0.59981562E+03</rscale>
<asrwt>0</asrwt>
<pdfrwt beam="1">  1        1 0.12607925E+00 0.59981562E+03</pdfrwt>
<pdfrwt beam="2">  1       -1 0.73617529E-01 0.59981562E+03</pdfrwt>
<totfact> 0.41153542E+01</totfact>
</mgrwt>
</event>
<event>
12    1  0.1418317E-007  0.1388053E+04  0.7818608E-02  0.8962512E-01
         -1   -1    0    0    0  501 -0.00000000000E+00  0.00000000000E+00  0.22669977114E+04  0.22669977114E+04  0.00000000000E+00 0.  1.
          1   -1    0    0  501    0  0.00000000000E+00 -0.00000000000E+00 -0.85589857585E+03  0.85589857585E+03  0.00000000000E+00 0. -1.
         23    2    1    2    0    0  0.49354478308E+03  0.12308881546E+04  0.71377280875E+03  0.15088848533E+04  0.92681044159E+02 0.  0.
    5000000    2    1    2    0    0 -0.49354478308E+03 -0.12308881546E+04  0.69732632680E+03  0.16140114340E+04  0.60008066194E+03 0.  0.
         23    2    4    4    0    0 -0.56617921627E+03 -0.11880941636E+04  0.66923009254E+03  0.14792135896E+04  0.89873691869E+02 0.  0.
         23    2    4    4    0    0  0.72634433189E+02 -0.42793991034E+02  0.28096234265E+02  0.13479784434E+03  0.10136061319E+03 0.  0.
          3    1    3    3  502    0  0.82561879643E+02  0.18717690522E+03  0.14848617875E+03  0.25278410373E+03  0.00000000000E+00 0. -1.
         -3    1    3    3    0  502  0.41098290344E+03  0.10437112494E+04  0.56528663000E+03  0.12561007496E+04  0.00000000000E+00 0.  1.
         13    1    5    5    0    0 -0.22883582525E+03 -0.39023311014E+03  0.20955990882E+03  0.49856099983E+03  0.00000000000E+00 0. -1.
        -13    1    5    5    0    0 -0.33734339102E+03 -0.79786105344E+03  0.45967018372E+03  0.98065258979E+03  0.00000000000E+00 0.  1.
          4    1    6    6  503    0  0.40671818529E+02 -0.75312131141E+02  0.24649003706E+02  0.89071248465E+02  0.00000000000E+00 0.  1.
         -4    1    6    6    0  503  0.31962614661E+02  0.32518140107E+02  0.34472305581E+01  0.45726595877E+02  0.00000000000E+00 0. -1.
<mgrwt>
<rscale>  0 0.13880527E+04</rscale>
<asrwt>0</asrwt>
<pdfrwt beam="1">  1        1 0.13167671E+00 0.13880527E+04</pdfrwt>
<pdfrwt beam="2">  1       -1 0.34876887E+00 0.13880527E+04</pdfrwt>
<totfact> 0.30315685E-01</totfact>
</mgrwt>
</event>
<event>
12    1  0.1418317E-007  0.5115046E+03  0.7818608E-02  0.1010819E+00
         -1   -1    0    0    0  501 -0.00000000000E+00  0.00000000000E+00  0.39870089343E+03  0.39870089343E+03  0.00000000000E+00 0.  1.
          1   -1    0    0  501    0  0.00000000000E+00 -0.00000000000E+00 -0.93589002423E+03  0.93589002423E+03  0.00000000000E+00 0. -1.
         23    2    1    2    0    0  0.28084702707E+03  0.36192284884E+03 -0.19692571131E+03  0.50720479750E+03  0.92810396529E+02 0.  0.
    5000000    2    1    2    0    0 -0.28084702707E+03 -0.36192284884E+03 -0.34026341949E+03  0.82738612016E+03  0.59910382745E+03 0.  0.
         23    2    4    4    0    0 -0.64092603193E+02 -0.31259587023E+03 -0.45134231856E+03  0.56014096988E+03  0.90686149718E+02 0.  0.
         23    2    4    4    0    0 -0.21675442388E+03 -0.49326978618E+02  0.11107889907E+03  0.26724515028E+03  0.98314889215E+02 0.  0.
          1    1    3    3  502    0  0.43921557443E+02  0.11265468964E+03 -0.28276419262E+02  0.12417623843E+03  0.00000000000E+00 0. -1.
         -1    1    3    3    0  502  0.23692546963E+03  0.24926815921E+03 -0.16864929205E+03  0.38302855907E+03  0.00000000000E+00 0.  1.
         13    1    5    5    0    0 -0.47286055328E+02 -0.73001398598E+02 -0.16399407291E+03  0.18563197778E+03  0.00000000000E+00 0.  1.
        -13    1    5    5    0    0 -0.16806547865E+02 -0.23959447163E+03 -0.28734824565E+03  0.37450899210E+03  0.00000000000E+00 0. -1.
          3    1    6    6  503    0 -0.73954478125E+02  0.13234456563E+02  0.77161220531E+02  0.10769526280E+03  0.00000000000E+00 0. -1.
         -3    1    6    6    0  503 -0.14279994575E+03 -0.62561435182E+02  0.33917678536E+02  0.15954988748E+03  0.00000000000E+00 0.  1.
<mgrwt>
<rscale>  0 0.51150455E+03</rscale>
<asrwt>0</asrwt>
<pdfrwt beam="1">  1        1 0.14398308E+00 0.51150455E+03</pdfrwt>
<pdfrwt beam="2">  1       -1 0.61338600E-01 0.51150455E+03</pdfrwt>
<totfact> 0.48307273E+01</totfact>
</mgrwt>
</event>
<event>
12    1  0.1418317E-007  0.7346247E+03  0.7818608E-02  0.9659785E-01
         -2   -1    0    0    0  501 -0.00000000000E+00  0.00000000000E+00  0.42486100390E+03  0.42486100390E+03  0.00000000000E+00 0.  1.
          2   -1    0    0  501    0  0.00000000000E+00 -0.00000000000E+00 -0.13547812143E+04  0.13547812143E+04  0.00000000000E+00 0. -1.
         23    2    1    2    0    0  0.62404769949E+03 -0.10708297616E+03 -0.30417510155E+03  0.70639315911E+03  0.74609033064E+02 0.  0.
    5000000    2    1    2    0    0 -0.62404769949E+03  0.10708297616E+03 -0.62574510890E+03  0.10732490591E+04  0.59950338330E+03 0.  0.
         23    2    4    4    0    0 -0.45144611660E+03 -0.18137386969E+03 -0.22862033897E+03  0.54520216457E+03  0.90983867024E+02 0.  0.
         23    2    4    4    0    0 -0.17260158289E+03  0.28845684585E+03 -0.39712476993E+03  0.52804689457E+03  0.90148664047E+02 0.  0.
          2    1    3    3  502    0  0.42309068370E+03 -0.10121810104E+03 -0.23012540131E+03  0.49214685912E+03  0.00000000000E+00 0. -1.
         -2    1    3    3    0  502  0.20095701579E+03 -0.58648751257E+01 -0.74049700234E+02  0.21424629999E+03  0.00000000000E+00 0.  1.
         13    1    5    5    0    0 -0.11715217100E+03 -0.90533869363E+02 -0.79525558233E+02  0.16806346148E+03  0.00000000000E+00 0. -1.
        -13    1    5    5    0    0 -0.33429394560E+03 -0.90840000327E+02 -0.14909478074E+03  0.37713870309E+03  0.00000000000E+00 0.  1.
          3    1    6    6  503    0 -0.22750009002E+02  0.71451365123E+02 -0.14478452361E+03  0.16305035653E+03  0.00000000000E+00 0. -1.
         -3    1    6    6    0  503 -0.14985157389E+03  0.21700548073E+03 -0.25234024633E+03  0.36499653804E+03  0.00000000000E+00 0.  1.
<mgrwt>
<rscale>  0 0.73462466E+03</rscale>
<asrwt>0</asrwt>
<pdfrwt beam="1">  1        2 0.20842787E+00 0.73462466E+03</pdfrwt>
<pdfrwt beam="2">  1       -2 0.65363233E-01 0.73462466E+03</pdfrwt>
<totfact> 0.33883922E+01</totfact>
</mgrwt>
</event>
<event>
12    1  0.1418317E-007  0.8990945E+03  0.7818608E-02  0.9426714E-01
          4   -1    0    0  501    0  0.00000000000E+00  0.00000000000E+00  0.11958624594E+04  0.11958624594E+04  0.00000000000E+00 0. -1.
         -4   -1    0    0    0  501 -0.00000000000E+00 -0.00000000000E+00 -0.78898090907E+03  0.78898090907E+03  0.00000000000E+00 0.  1.
         23    2    1    2    0    0  0.80855409048E+03 -0.33712067128E+03  0.19416211393E+03  0.90195666092E+03  0.91743269309E+02 0.  0.
    5000000    2    1    2    0    0 -0.80855409048E+03  0.33712067128E+03  0.21271943637E+03  0.10828867075E+04  0.59998666525E+03 0.  0.
         23    2    4    4    0    0 -0.40894317596E+03  0.33820190040E+02 -0.16105554057E+03  0.45072121337E+03  0.93980841745E+02 0.  0.
         23    2    4    4    0    0 -0.39961091452E+03  0.30330048124E+03  0.37377497694E+03  0.63216549415E+03  0.90804260289E+02 0.  0.
          3    1    3    3  502    0  0.71971476300E+03 -0.26720114301E+03  0.17217527065E+03  0.78678466860E+03  0.00000000000E+00 0. -1.
         -3    1    3    3    0  502  0.88839327474E+02 -0.69919528268E+02  0.21986843283E+02  0.11517199233E+03  0.00000000000E+00 0.  1.
         13    1    5    5    0    0 -0.24531552299E+03 -0.11149523560E+02 -0.58488784001E+02  0.25243802318E+03  0.00000000000E+00 0.  1.
        -13    1    5    5    0    0 -0.16362765297E+03  0.44969713600E+02 -0.10256675656E+03  0.19828319019E+03  0.00000000000E+00 0. -1.
          4    1    6    6  503    0 -0.71445787247E+01  0.21413153133E+01  0.27048376697E+02  0.28057885137E+02  0.00000000000E+00 0. -1.
         -4    1    6    6    0  503 -0.39246633579E+03  0.30115916593E+03  0.34672660024E+03  0.60410760901E+03  0.00000000000E+00 0.  1.
<mgrwt>
<rscale>  0 0.89909452E+03</rscale>
<asrwt>0</asrwt>
<pdfrwt beam="1">  1        4 0.18397884E+00 0.89909452E+03</pdfrwt>
<pdfrwt beam="2">  1       -4 0.12138168E+00 0.89909452E+03</pdfrwt>
<totfact> 0.16819465E-01</totfact>
</mgrwt>
</event>
<event>
12    1  0.1418317E-007  0.7182150E+03  0.7818608E-02  0.9686579E-01
         -2   -1    0    0    0  501 -0.00000000000E+00  0.00000000000E+00  0.32734965719E+03  0.32734965719E+03  0.00000000000E+00 0.  1.
          2   -1    0    0  501    0  0.00000000000E+00 -0.00000000000E+00 -0.27608609303E+04  0.27608609303E+04  0.00000000000E+00 0. -1.
         23    2    1    2    0    0 -0.51448413415E+03  0.44125413182E+03 -0.25712476307E+03  0.73076979787E+03  0.92261696017E+02 0.  0.
    5000000    2    1    2    0    0  0.51448413415E+03 -0.44125413182E+03 -0.21763865100E+04  0.23574407896E+04  0.60122350445E+03 0.  0.
         23    2    4    4    0    0 -0.20808970584E+02 -0.11678072641E+03 -0.10894552758E+04  0.10996659435E+04  0.91003506025E+02 0.  0.
         23    2    4    4    0    0  0.53529310473E+03 -0.32447340541E+03 -0.10869312343E+04  0.12577748461E+04  0.93575406213E+02 0.  0.
          3    1    3    3  502    0 -0.15111454469E+03  0.13499802021E+03 -0.32807766555E+02  0.20527157773E+03  0.00000000000E+00 0. -1.
         -3    1    3    3    0  502 -0.36336958946E+03  0.30625611161E+03 -0.22431699651E+03  0.52549822014E+03  0.00000000000E+00 0.  1.
         13    1    5    5    0    0  0.93357384021E+00 -0.10977118630E+03 -0.10322087478E+04  0.10380296161E+04  0.00000000000E+00 0. -1.
        -13    1    5    5    0    0 -0.21742544424E+02 -0.70095401131E+01 -0.57246527967E+02  0.61636327397E+02  0.00000000000E+00 0.  1.
          1    1    6    6  503    0  0.33376752343E+03 -0.20370330950E+03 -0.76609055583E+03  0.86011077061E+03  0.00000000000E+00 0. -1.
         -1    1    6    6    0  503  0.20152558131E+03 -0.12077009591E+03 -0.32084067844E+03  0.39766407548E+03  0.00000000000E+00 0.  1.
<mgrwt>
<rscale>  0 0.71821498E+03</rscale>
<asrwt>0</asrwt>
<pdfrwt beam="1">  1        2 0.42474784E+00 0.71821498E+03</pdfrwt>
<pdfrwt beam="2">  1       -2 0.50361485E-01 0.71821498E+03</pdfrwt>
<totfact> 0.96706756E+00</totfact>
</mgrwt>
</event>
<event>
12    1  0.1418317E-007  0.6540891E+03  0.7818608E-02  0.9799136E-01
          1   -1    0    0  501    0  0.00000000000E+00  0.00000000000E+00  0.88987351613E+03  0.88987351613E+03  0.00000000000E+00 0. -1.
         -1   -1    0    0    0  501 -0.00000000000E+00 -0.00000000000E+00 -0.91934119494E+03  0.91934119494E+03  0.00000000000E+00 0.  1.
         23    2    1    2    0    0 -0.98861821257E+02  0.54143848580E+03 -0.59775599402E+03  0.81612635361E+03  0.76293532332E+02 0.  0.
    5000000    2    1    2    0    0  0.98861821257E+02 -0.54143848580E+03  0.56828831520E+03  0.99308835746E+03  0.60028625081E+03 0.  0.
         23    2    4    4    0    0 -0.20221808409E+03 -0.27678301707E+03  0.96368325260E+02  0.36743179216E+03  0.90654705907E+02 0.  0.
         23    2    4    4    0    0  0.30107990535E+03 -0.26465546873E+03  0.47191998994E+03  0.62565656530E+03  0.89699689297E+02 0.  0.
          2    1    3    3  502    0 -0.50386001221E+02  0.42720042901E+03 -0.48719819032E+03  0.64992386655E+03  0.00000000000E+00 0. -1.
         -2    1    3    3    0  502 -0.48475820036E+02  0.11423805679E+03 -0.11055780370E+03  0.16620248706E+03  0.00000000000E+00 0.  1.
         13    1    5    5    0    0 -0.19228814886E+03 -0.21246033608E+03  0.96434697328E+02  0.30234711417E+03  0.00000000000E+00 0. -1.
        -13    1    5    5    0    0 -0.99299352333E+01 -0.64322680989E+02 -0.66372067576E-01  0.65084677987E+02  0.00000000000E+00 0.  1.
          2    1    6    6  503    0  0.86681622911E+02 -0.97185455684E+02  0.21558678212E+03  0.25186579198E+03  0.00000000000E+00 0. -1.
         -2    1    6    6    0  503  0.21439828244E+03 -0.16747001305E+03  0.25633320782E+03  0.37379077331E+03  0.00000000000E+00 0.  1.
<mgrwt>
<rscale>  0 0.65408907E+03</rscale>
<asrwt>0</asrwt>
<pdfrwt beam="1">  1        1 0.13690362E+00 0.65408907E+03</pdfrwt>
<pdfrwt beam="2">  1       -1 0.14143711E+00 0.65408907E+03</pdfrwt>
<totfact> 0.79349663E+00</totfact>
</mgrwt>
</event>
<event>
12    1  0.1418317E-007  0.7961284E+03  0.7818608E-02  0.9565638E-01
          1   -1    0    0  501    0  0.00000000000E+00  0.00000000000E+00  0.20402701876E+04  0.20402701876E+04  0.00000000000E+00 0. -1.
         -1   -1    0    0    0  501 -0.00000000000E+00 -0.00000000000E+00 -0.34567988710E+03  0.34567988710E+03  0.00000000000E+00 0.  1.
         23    2    1    2    0    0 -0.15590741172E+03 -0.69244812262E+03  0.50280762279E+03  0.87457375205E+03  0.90951738241E+02 0.  0.
    5000000    2    1    2    0    0  0.15590741172E+03  0.69244812262E+03  0.11917826777E+04  0.15113763226E+04  0.60010075336E+03 0.  0.
         23    2    4    4    0    0  0.16867487019E+03  0.12127203241E+02  0.50148721852E+03  0.53778450919E+03  0.95522076522E+02 0.  0.
         23    2    4    4    0    0 -0.12767458471E+02  0.68032091938E+03  0.69029545916E+03  0.97359181341E+03  0.91507578206E+02 0.  0.
          3    1    3    3  502    0 -0.60509628565E+02 -0.39368122689E+03  0.23717526130E+03  0.46357138407E+03  0.00000000000E+00 0. -1.
         -3    1    3    3    0  502 -0.95397783155E+02 -0.29876689573E+03  0.26563236149E+03  0.41100236798E+03  0.00000000000E+00 0.  1.
         11    1    5    5    0    0  0.38598568744E+02 -0.38538329533E+02  0.13387489607E+03  0.14455981513E+03  0.00000000000E+00 0.  1.
        -11    1    5    5    0    0  0.13007630145E+03  0.50665532775E+02  0.36761232245E+03  0.39322469407E+03  0.00000000000E+00 0. -1.
          1    1    6    6  503    0  0.37095436248E+02  0.37370078670E+03  0.36161281765E+03  0.52133691531E+03  0.00000000000E+00 0.  1.
         -1    1    6    6    0  503 -0.49862894719E+02  0.30662013268E+03  0.32868264150E+03  0.45225489810E+03  0.00000000000E+00 0. -1.
<mgrwt>
<rscale>  0 0.79612845E+03</rscale>
<asrwt>0</asrwt>
<pdfrwt beam="1">  1        1 0.31388771E+00 0.79612845E+03</pdfrwt>
<pdfrwt beam="2">  1       -1 0.53181522E-01 0.79612845E+03</pdfrwt>
<totfact> 0.10366204E+01</totfact>
</mgrwt>
</event>
<event>
12    1  0.1418317E-007  0.4115484E+03  0.7818608E-02  0.1039853E+00
         -2   -1    0    0    0  501 -0.00000000000E+00  0.00000000000E+00  0.10633351620E+04  0.10633351620E+04  0.00000000000E+00 0.  1.
          2   -1    0    0  501    0  0.00000000000E+00 -0.00000000000E+00 -0.91991669311E+03  0.91991669311E+03  0.00000000000E+00 0. -1.
         23    2    1    2    0    0 -0.11109375696E+03 -0.35908487480E+03  0.87997606096E+03  0.96160318234E+03  0.95073877950E+02 0.  0.
    5000000    2    1    2    0    0  0.11109375696E+03  0.35908487480E+03 -0.73655759203E+03  0.10216486728E+04  0.59997096107E+03 0.  0.
         23    2    4    4    0    0 -0.42530973772E+02  0.12398885855E+03 -0.70712817221E+03  0.72486080383E+03  0.90613532228E+02 0.  0.
         23    2    4    4    0    0  0.15362473074E+03  0.23509601625E+03 -0.29429419816E+02  0.29678786897E+03  0.91357833089E+02 0.  0.
          3    1    3    3  502    0 -0.86575349135E+02 -0.14904606421E+03  0.32852394664E+03  0.37099596204E+03  0.00000000000E+00 0. -1.
         -3    1    3    3    0  502 -0.24518407829E+02 -0.21003881059E+03  0.55145211432E+03  0.59060722030E+03  0.00000000000E+00 0.  1.
         11    1    5    5    0    0 -0.61571891798E+02  0.89402279842E+02 -0.37504880256E+03  0.39044265879E+03  0.00000000000E+00 0. -1.
        -11    1    5    5    0    0  0.19040918027E+02  0.34586578708E+02 -0.33207936965E+03  0.33441814505E+03  0.00000000000E+00 0.  1.
          4    1    6    6  503    0  0.10457582691E+03  0.21330189010E+03 -0.43018099508E+02  0.24142153338E+03  0.00000000000E+00 0. -1.
         -4    1    6    6    0  503  0.49048903823E+02  0.21794126153E+02  0.13588679692E+02  0.55366335591E+02  0.00000000000E+00 0.  1.
<mgrwt>
<rscale>  0 0.41154843E+03</rscale>
<asrwt>0</asrwt>
<pdfrwt beam="1">  1        2 0.14152565E+00 0.41154843E+03</pdfrwt>
<pdfrwt beam="2">  1       -2 0.16359002E+00 0.41154843E+03</pdfrwt>
<totfact> 0.72696076E+00</totfact>
</mgrwt>
</event>
<event>
12    1  0.1418317E-007  0.2184598E+03  0.7818608E-02  0.1135037E+00
          1   -1    0    0  501    0  0.00000000000E+00  0.00000000000E+00  0.74545026130E+03  0.74545026130E+03  0.00000000000E+00 0. -1.
         -1   -1    0    0    0  501 -0.00000000000E+00 -0.00000000000E+00 -0.31646290823E+03  0.31646290823E+03  0.00000000000E+00 0.  1.
         23    2    1    2    0    0  0.13405710364E+03 -0.10274695276E+03 -0.12401269045E+03  0.22867630734E+03  0.91572172670E+02 0.  0.
    5000000    2    1    2    0    0 -0.13405710364E+03  0.10274695276E+03  0.55300004352E+03  0.83323686219E+03  0.59995531254E+03 0.  0.
         23    2    4    4    0    0 -0.19208645411E+01  0.30914828094E+01 -0.11167558982E+03  0.14188683189E+03  0.87448205909E+02 0.  0.
         23    2    4    4    0    0 -0.13213623910E+03  0.99655469953E+02  0.66467563334E+03  0.69135003030E+03  0.93701485938E+02 0.  0.
          2    1    3    3  502    0  0.59629399394E+02 -0.80348311202E+02 -0.11173518091E+03  0.14998755628E+03  0.00000000000E+00 0.  1.
         -2    1    3    3    0  502  0.74427704245E+02 -0.22398641561E+02 -0.12277509537E+02  0.78688751060E+02  0.00000000000E+00 0. -1.
         11    1    5    5    0    0  0.32939828016E+02 -0.91128832148E+01 -0.13070541758E+02  0.36591200746E+02  0.00000000000E+00 0. -1.
        -11    1    5    5    0    0 -0.34860692557E+02  0.12204366024E+02 -0.98605048061E+02  0.10529563115E+03  0.00000000000E+00 0.  1.
          2    1    6    6  503    0 -0.12577004476E+03  0.45885538352E+02  0.51727494955E+03  0.53431915577E+03  0.00000000000E+00 0. -1.
         -2    1    6    6    0  503 -0.63661943353E+01  0.53769931601E+02  0.14740068379E+03  0.15703087454E+03  0.00000000000E+00 0.  1.
<mgrwt>
<rscale>  0 0.21845976E+03</rscale>
<asrwt>0</asrwt>
<pdfrwt beam="1">  1        1 0.11468466E+00 0.21845976E+03</pdfrwt>
<pdfrwt beam="2">  1       -1 0.48686601E-01 0.21845976E+03</pdfrwt>
<totfact> 0.11350831E+02</totfact>
</mgrwt>
</event>
<event>
12    1  0.1418317E-007  0.4933613E+03  0.7818608E-02  0.1015526E+00
         -1   -1    0    0    0  501 -0.00000000000E+00  0.00000000000E+00  0.17055642457E+03  0.17055642457E+03  0.00000000000E+00 0.  1.
          1   -1    0    0  501    0  0.00000000000E+00 -0.00000000000E+00 -0.18269095288E+04  0.18269095288E+04  0.00000000000E+00 0. -1.
         23    2    1    2    0    0 -0.10620828948E+03 -0.35603840475E+03 -0.80986668574E+03  0.89564570662E+03  0.90849527814E+02 0.  0.
    5000000    2    1    2    0    0  0.10620828948E+03  0.35603840475E+03 -0.84648641845E+03  0.11018202467E+04  0.59952068607E+03 0.  0.
         23    2    4    4    0    0  0.23901796281E+03  0.15775584096E+02 -0.59811104056E+03  0.65077238231E+03  0.91593783352E+02 0.  0.
         23    2    4    4    0    0 -0.13280967333E+03  0.34026282065E+03 -0.24837537789E+03  0.45104786440E+03  0.91305263739E+02 0.  0.
          2    1    3    3  502    0 -0.30577106239E+02 -0.20037233861E+03 -0.51912999954E+03  0.55729703923E+03  0.00000000000E+00 0. -1.
         -2    1    3    3    0  502 -0.75631183241E+02 -0.15566606613E+03 -0.29073668620E+03  0.33834866739E+03  0.00000000000E+00 0.  1.
         13    1    5    5    0    0  0.15818971317E+03  0.20752063849E+02 -0.49243361986E+03  0.51763452693E+03  0.00000000000E+00 0. -1.
        -13    1    5    5    0    0  0.80828249634E+02 -0.49764797533E+01 -0.10567742070E+03  0.13313785538E+03  0.00000000000E+00 0.  1.
          3    1    6    6  503    0 -0.11908387107E+03  0.22693606548E+03 -0.20764417773E+03  0.32984397934E+03  0.00000000000E+00 0. -1.
         -3    1    6    6    0  503 -0.13725802261E+02  0.11332675517E+03 -0.40731200165E+02  0.12120388506E+03  0.00000000000E+00 0.  1.
<mgrwt>
<rscale>  0 0.49336135E+03</rscale>
<asrwt>0</asrwt>
<pdfrwt beam="1">  1        1 0.28106300E+00 0.49336135E+03</pdfrwt>
<pdfrwt beam="2">  1       -1 0.26239450E-01 0.49336135E+03</pdfrwt>
<totfact> 0.53787401E+01</totfact>
</mgrwt>
</event>
<event>
12    1  0.1418317E-007  0.4774701E+03  0.7818608E-02  0.1019833E+00
         -1   -1    0    0    0  501 -0.00000000000E+00  0.00000000000E+00  0.34287819043E+03  0.34287819043E+03  0.00000000000E+00 0.  1.
          1   -1    0    0  501    0  0.00000000000E+00 -0.00000000000E+00 -0.95866935398E+03  0.95866935398E+03  0.00000000000E+00 0. -1.
         23    2    1    2    0    0 -0.93139966020E+02  0.34376088748E+03  0.57787062913E+01  0.36692403473E+03  0.88052556934E+02 0.  0.
    5000000    2    1    2    0    0  0.93139966020E+02 -0.34376088748E+03 -0.62156986985E+03  0.93462350968E+03  0.60027110600E+03 0.  0.
         23    2    4    4    0    0 -0.28840041715E+02 -0.43245283800E+03 -0.21780666482E+03  0.49418881283E+03  0.94528484512E+02 0.  0.
         23    2    4    4    0    0  0.12198000774E+03  0.88691950513E+02 -0.40376320503E+03  0.44043469685E+03  0.90623463206E+02 0.  0.
          1    1    3    3  502    0 -0.93993800811E+02  0.22434338056E+03 -0.22264573009E+02  0.24425498603E+03  0.00000000000E+00 0. -1.
         -1    1    3    3    0  502  0.85383479121E+00  0.11941750693E+03  0.28043279300E+02  0.12266904870E+03  0.00000000000E+00 0.  1.
         11    1    5    5    0    0 -0.50785246121E+02 -0.15429774698E+03 -0.57020493158E+02  0.17215769685E+03  0.00000000000E+00 0. -1.
        -11    1    5    5    0    0  0.21945204406E+02 -0.27815509102E+03 -0.16078617166E+03  0.32203111597E+03  0.00000000000E+00 0.  1.
          1    1    6    6  503    0  0.43181208100E+02  0.32181957430E+02 -0.26943370301E+03  0.27476319884E+03  0.00000000000E+00 0. -1.
         -1    1    6    6    0  503  0.78798799635E+02  0.56509993083E+02 -0.13432950202E+03  0.16567149801E+03  0.00000000000E+00 0.  1.
<mgrwt>
<rscale>  0 0.47747012E+03</rscale>
<asrwt>0</asrwt>
<pdfrwt beam="1">  1        1 0.14748759E+00 0.47747012E+03</pdfrwt>
<pdfrwt beam="2">  1       -1 0.52750491E-01 0.47747012E+03</pdfrwt>
<totfact> 0.62345058E+01</totfact>
</mgrwt>
</event>
<event>
12    1  0.1418317E-007  0.3574343E+03  0.7818608E-02  0.1059604E+00
          2   -1    0    0  501    0  0.00000000000E+00  0.00000000000E+00  0.71477876970E+03  0.71477876970E+03  0.00000000000E+00 0. -1.
         -2   -1    0    0    0  501 -0.00000000000E+00 -0.00000000000E+00 -0.46193261552E+03  0.46193261552E+03  0.00000000000E+00 0.  1.
         23    2    1    2    0    0 -0.23277306606E+03  0.37590625575E+02 -0.25250272240E+03  0.35757057376E+03  0.92210275915E+02 0.  0.
    5000000    2    1    2    0    0  0.23277306606E+03 -0.37590625575E+02  0.50534887658E+03  0.81914081146E+03  0.60001485526E+03 0.  0.
         23    2    4    4    0    0  0.17715211926E+03  0.16528400581E+03 -0.36136546271E+01  0.26094953725E+03  0.96850020941E+02 0.  0.
         23    2    4    4    0    0  0.55620946793E+02 -0.20287463139E+03  0.50896253121E+03  0.55819127421E+03  0.91010079940E+02 0.  0.
          2    1    3    3  502    0 -0.68288479187E+02 -0.11109947599E+02 -0.27073959550E+02  0.74294997214E+02  0.00000000000E+00 0.  1.
         -2    1    3    3    0  502 -0.16448458687E+03  0.48700573174E+02 -0.22542876285E+03  0.28327557654E+03  0.00000000000E+00 0. -1.
         11    1    5    5    0    0  0.58204987567E+02  0.81514524007E+02 -0.44833670330E+02  0.10973830779E+03  0.00000000000E+00 0.  1.
        -11    1    5    5    0    0  0.11894713170E+03  0.83769481803E+02  0.41220015703E+02  0.15121122946E+03  0.00000000000E+00 0. -1.
          1    1    6    6  503    0 -0.24746397402E+02 -0.46470572369E+02  0.13665394226E+03  0.14644520550E+03  0.00000000000E+00 0. -1.
         -1    1    6    6    0  503  0.80367344195E+02 -0.15640405902E+03  0.37230858895E+03  0.41174606871E+03  0.00000000000E+00 0.  1.
<mgrwt>
<rscale>  0 0.35743429E+03</rscale>
<asrwt>0</asrwt>
<pdfrwt beam="1">  1        2 0.10996596E+00 0.35743429E+03</pdfrwt>
<pdfrwt beam="2">  1       -2 0.71066556E-01 0.35743429E+03</pdfrwt>
<totfact> 0.75429592E+01</totfact>
</mgrwt>
</event>
<event>
12    1  0.1418317E-007  0.1623539E+04  0.7818608E-02  0.8806216E-01
          2   -1    0    0  501    0  0.00000000000E+00  0.00000000000E+00  0.15633269717E+04  0.15633269717E+04  0.00000000000E+00 0. -1.
         -2   -1    0    0    0  501 -0.00000000000E+00 -0.00000000000E+00 -0.17596429273E+04  0.17596429273E+04  0.00000000000E+00 0.  1.
         23    2    1    2    0    0  0.14650810175E+04  0.57539977789E+03 -0.39833517533E+03  0.16263970835E+04  0.94600576310E+02 0.  0.
    5000000    2    1    2    0    0 -0.14650810175E+04 -0.57539977789E+03  0.20201921976E+03  0.16965728155E+04  0.60000021744E+03 0.  0.
         23    2    4    4    0    0 -0.76089100532E+03 -0.12419708684E+01  0.15677638913E+03  0.78232889536E+03  0.92211712118E+02 0.  0.
         23    2    4    4    0    0 -0.70419001216E+03 -0.57415780702E+03  0.45242830637E+02  0.91424392013E+03  0.90853019695E+02 0.  0.
          1    1    3    3  502    0  0.12437855956E+04  0.48052473102E+03 -0.37126669039E+03  0.13841046132E+04  0.00000000000E+00 0. -1.
         -1    1    3    3    0  502  0.22129542185E+03  0.94875046869E+02 -0.27068484948E+02  0.24229247023E+03  0.00000000000E+00 0.  1.
         13    1    5    5    0    0 -0.44177710821E+03 -0.36183093282E+02  0.61738813203E+02  0.44753537361E+03  0.00000000000E+00 0.  1.
        -13    1    5    5    0    0 -0.31911389711E+03  0.34941122414E+02  0.95037575923E+02  0.33479352175E+03  0.00000000000E+00 0. -1.
          1    1    6    6  503    0 -0.23553786833E+03 -0.18627682763E+03 -0.27553691103E+02  0.30155654498E+03  0.00000000000E+00 0. -1.
         -1    1    6    6    0  503 -0.46865214383E+03 -0.38788097939E+03  0.72796521740E+02  0.61268737515E+03  0.00000000000E+00 0.  1.
<mgrwt>
<rscale>  0 0.16235387E+04</rscale>
<asrwt>0</asrwt>
<pdfrwt beam="1">  1        2 0.24051184E+00 0.16235387E+04</pdfrwt>
<pdfrwt beam="2">  1       -2 0.27071430E+00 0.16235387E+04</pdfrwt>
<totfact> 0.52095147E-01</totfact>
</mgrwt>
</event>
<event>
12    1  0.1418317E-007  0.8104104E+03  0.7818608E-02  0.9545069E-01
          4   -1    0    0  501    0  0.00000000000E+00  0.00000000000E+00  0.12221567323E+04  0.12221567323E+04  0.00000000000E+00 0. -1.
         -4   -1    0    0    0  501 -0.00000000000E+00 -0.00000000000E+00 -0.63559305761E+03  0.63559305761E+03  0.00000000000E+00 0.  1.
         23    2    1    2    0    0  0.40823781035E+03  0.58039074454E+03 -0.73979793535E+02  0.71778950481E+03  0.78976181366E+02 0.  0.
    5000000    2    1    2    0    0 -0.40823781035E+03 -0.58039074454E+03  0.66054346822E+03  0.11399602851E+04  0.59973348417E+03 0.  0.
         23    2    4    4    0    0 -0.54630304730E+03 -0.40430463471E+03  0.45426858385E+03  0.82246760242E+03  0.90464101309E+02 0.  0.
         23    2    4    4    0    0  0.13806523695E+03 -0.17608610983E+03  0.20627488438E+03  0.31749268267E+03  0.90465175059E+02 0.  0.
          1    1    3    3  502    0  0.26501797583E+03  0.43076460545E+03 -0.34477393871E+02  0.50693329296E+03  0.00000000000E+00 0. -1.
         -1    1    3    3    0  502  0.14321983452E+03  0.14962613909E+03 -0.39502399664E+02  0.21085621185E+03  0.00000000000E+00 0.  1.
         13    1    5    5    0    0 -0.34868710759E+03 -0.29518820021E+03  0.33975363661E+03  0.56934287220E+03  0.00000000000E+00 0.  1.
        -13    1    5    5    0    0 -0.19761593971E+03 -0.10911643451E+03  0.11451494723E+03  0.25312473022E+03  0.00000000000E+00 0. -1.
          3    1    6    6  503    0  0.44199908443E+02 -0.77488407748E+02  0.28639804296E+02  0.93692708530E+02  0.00000000000E+00 0. -1.
         -3    1    6    6    0  503  0.93865328506E+02 -0.98597702077E+02  0.17763508008E+03  0.22379997414E+03  0.00000000000E+00 0.  1.
<mgrwt>
<rscale>  0 0.81041043E+03</rscale>
<asrwt>0</asrwt>
<pdfrwt beam="1">  1        4 0.18802411E+00 0.81041043E+03</pdfrwt>
<pdfrwt beam="2">  1       -4 0.97783547E-01 0.81041043E+03</pdfrwt>
<totfact> 0.26916859E-01</totfact>
</mgrwt>
</event>
<event>
12    1  0.1418317E-007  0.4566793E+03  0.7818608E-02  0.1025749E+00
          2   -1    0    0  501    0  0.00000000000E+00  0.00000000000E+00  0.13258653709E+04  0.13258653709E+04  0.00000000000E+00 0. -1.
         -2   -1    0    0    0  501 -0.00000000000E+00 -0.00000000000E+00 -0.17205426019E+03  0.17205426019E+03  0.00000000000E+00 0.  1.
         23    2    1    2    0    0  0.25673474175E+03 -0.51485950874E+02  0.20439172294E+03  0.34460286345E+03  0.91714918802E+02 0.  0.
    5000000    2    1    2    0    0 -0.25673474175E+03  0.51485950874E+02  0.94941938774E+03  0.11533167676E+04  0.60014903308E+03 0.  0.
         23    2    4    4    0    0 -0.37938893534E+02  0.29451371265E+03  0.51847044100E+03  0.60448912538E+03  0.91748667192E+02 0.  0.
         23    2    4    4    0    0 -0.21879584821E+03 -0.24302776177E+03  0.43094894675E+03  0.54882764225E+03  0.92523888841E+02 0.  0.
          3    1    3    3  502    0  0.11662410810E+03 -0.54414341581E+02  0.14066254883E+03  0.19065166089E+03  0.00000000000E+00 0. -1.
         -3    1    3    3    0  502  0.14011063365E+03  0.29283907070E+01  0.63729174117E+02  0.15395120255E+03  0.00000000000E+00 0.  1.
         11    1    5    5    0    0 -0.33837548905E+02  0.29649885506E+02  0.92707670270E+02  0.10304759848E+03  0.00000000000E+00 0. -1.
        -11    1    5    5    0    0 -0.41013446290E+01  0.26486382714E+03  0.42576277073E+03  0.50144152689E+03  0.00000000000E+00 0.  1.
          4    1    6    6  503    0 -0.39365747572E+02 -0.10150524214E+02  0.89212504745E+02  0.98038595597E+02  0.00000000000E+00 0. -1.
         -4    1    6    6    0  503 -0.17943010064E+03 -0.23287723756E+03  0.34173644200E+03  0.45078904665E+03  0.00000000000E+00 0.  1.
<mgrwt>
<rscale>  0 0.45667929E+03</rscale>
<asrwt>0</asrwt>
<pdfrwt beam="1">  1        2 0.20397928E+00 0.45667929E+03</pdfrwt>
<pdfrwt beam="2">  1       -2 0.26469887E-01 0.45667929E+03</pdfrwt>
<totfact> 0.21420607E+02</totfact>
</mgrwt>
</event>
<event>
12    1  0.1418317E-007  0.5410914E+03  0.7818608E-02  0.1003577E+00
          2   -1    0    0  501    0  0.00000000000E+00  0.00000000000E+00  0.81254811273E+03  0.81254811273E+03  0.00000000000E+00 0. -1.
         -2   -1    0    0    0  501 -0.00000000000E+00 -0.00000000000E+00 -0.41503826529E+03  0.41503826529E+03  0.00000000000E+00 0.  1.
         23    2    1    2    0    0  0.20119054562E+03 -0.35558369636E+03  0.24678949437E+03  0.48595692541E+03  0.91278026181E+02 0.  0.
    5000000    2    1    2    0    0 -0.20119054562E+03  0.35558369636E+03  0.15072035308E+03  0.74162945260E+03  0.60031676586E+03 0.  0.
         23    2    4    4    0    0 -0.31816719749E+01  0.44622224668E+03  0.20514833986E+03  0.49945142434E+03  0.90782528412E+02 0.  0.
         23    2    4    4    0    0 -0.19800887365E+03 -0.90638550319E+02 -0.54427986779E+02  0.24217802826E+03  0.90911664703E+02 0.  0.
          1    1    3    3  502    0  0.12865478232E+03 -0.23222702500E+03  0.20919133058E+03  0.33799771736E+03  0.00000000000E+00 0. -1.
         -1    1    3    3    0  502  0.72535763305E+02 -0.12335667136E+03  0.37598163791E+02  0.14795920805E+03  0.00000000000E+00 0.  1.
         13    1    5    5    0    0 -0.25379567123E+02  0.30451876355E+03  0.99695998622E+02  0.32142665092E+03  0.00000000000E+00 0.  1.
        -13    1    5    5    0    0  0.22197895148E+02  0.14170348312E+03  0.10545234123E+03  0.17802477342E+03  0.00000000000E+00 0. -1.
          2    1    6    6  503    0 -0.10717273405E+02 -0.23150767400E+02  0.17017682812E+02  0.30666260103E+02  0.00000000000E+00 0. -1.
         -2    1    6    6    0  503 -0.18729160024E+03 -0.67487782920E+02 -0.71445669591E+02  0.21151176816E+03  0.00000000000E+00 0.  1.
<mgrwt>
<rscale>  0 0.54109143E+03</rscale>
<asrwt>0</asrwt>
<pdfrwt beam="1">  1        2 0.12500740E+00 0.54109143E+03</pdfrwt>
<pdfrwt beam="2">  1       -2 0.63852041E-01 0.54109143E+03</pdfrwt>
<totfact> 0.78881413E+01</totfact>
</mgrwt>
</event>
<event>
12    1  0.1418317E-007  0.4328961E+03  0.7818608E-02  0.1032949E+00
          2   -1    0    0  501    0  0.00000000000E+00  0.00000000000E+00  0.28346489687E+04  0.28346489687E+04  0.00000000000E+00 0. -1.
         -2   -1    0    0    0  501 -0.00000000000E+00 -0.00000000000E+00 -0.11380721960E+03  0.11380721960E+03  0.00000000000E+00 0.  1.
         23    2    1    2    0    0  0.38503501663E+02 -0.35988490725E+03  0.53126835871E+03  0.64947750860E+03  0.92602910879E+02 0.  0.
    5000000    2    1    2    0    0 -0.38503501663E+02  0.35988490725E+03  0.21895733904E+04  0.22989786797E+04  0.60005972346E+03 0.  0.
         23    2    4    4    0    0  0.12403830281E+03  0.25421979049E+03  0.40855529640E+03  0.50510098024E+03  0.90533792452E+02 0.  0.
         23    2    4    4    0    0 -0.16254180447E+03  0.10566511676E+03  0.17810180940E+04  0.17938776995E+04  0.91579443269E+02 0.  0.
          2    1    3    3  502    0  0.48251954516E+02 -0.96775157287E+02  0.18774979560E+03  0.21666487470E+03  0.00000000000E+00 0. -1.
         -2    1    3    3    0  502 -0.97484528528E+01 -0.26310974996E+03  0.34351856311E+03  0.43281263390E+03  0.00000000000E+00 0.  1.
         11    1    5    5    0    0  0.62984523610E+02  0.21134799634E+03  0.32862927938E+03  0.39576789793E+03  0.00000000000E+00 0. -1.
        -11    1    5    5    0    0  0.61053779197E+02  0.42871794153E+02  0.79926017023E+02  0.10933308230E+03  0.00000000000E+00 0.  1.
          2    1    6    6  503    0 -0.11210491543E+03  0.96600177167E+02  0.96799887329E+03  0.97924507912E+03  0.00000000000E+00 0. -1.
         -2    1    6    6    0  503 -0.50436889042E+02  0.90649395913E+01  0.81301922071E+03  0.81463262036E+03  0.00000000000E+00 0.  1.
<mgrwt>
<rscale>  0 0.43289613E+03</rscale>
<asrwt>0</asrwt>
<pdfrwt beam="1">  1        2 0.43609979E+00 0.43289613E+03</pdfrwt>
<pdfrwt beam="2">  1       -2 0.17508805E-01 0.43289613E+03</pdfrwt>
<totfact> 0.65814305E+01</totfact>
</mgrwt>
</event>
<event>
12    1  0.1418317E-007  0.8077592E+03  0.7818608E-02  0.9548853E-01
          2   -1    0    0  501    0  0.00000000000E+00  0.00000000000E+00  0.37475289469E+03  0.37475289469E+03  0.00000000000E+00 0. -1.
         -2   -1    0    0    0  501 -0.00000000000E+00 -0.00000000000E+00 -0.24026034636E+04  0.24026034636E+04  0.00000000000E+00 0.  1.
         23    2    1    2    0    0  0.55854877630E+03 -0.45188320842E+03 -0.24542628604E+03  0.76451342465E+03  0.89841777781E+02 0.  0.
    5000000    2    1    2    0    0 -0.55854877630E+03  0.45188320842E+03 -0.17824242829E+04  0.20128429337E+04  0.59860269110E+03 0.  0.
         23    2    4    4    0    0 -0.65508440774E+03  0.38906269080E+03 -0.13067694055E+04  0.15153818536E+04  0.90722237038E+02 0.  0.
         23    2    4    4    0    0  0.96535631446E+02  0.62820517624E+02 -0.47565487737E+03  0.49746108009E+03  0.89187545452E+02 0.  0.
          1    1    3    3  502    0  0.28623757504E+03 -0.20744144523E+03 -0.16370852114E+03  0.38956948348E+03  0.00000000000E+00 0. -1.
         -1    1    3    3    0  502  0.27231120126E+03 -0.24444176319E+03 -0.81717764907E+02  0.37494394117E+03  0.00000000000E+00 0.  1.
         13    1    5    5    0    0 -0.57311792309E+03  0.30249957788E+03 -0.10990526257E+04  0.12758866809E+04  0.00000000000E+00 0.  1.
        -13    1    5    5    0    0 -0.81966484649E+02  0.86563112920E+02 -0.20771677984E+03  0.23949517271E+03  0.00000000000E+00 0. -1.
          2    1    6    6  503    0  0.72043532885E+01 -0.10855014638E+02 -0.71550345471E+01  0.14863666050E+02  0.00000000000E+00 0. -1.
         -2    1    6    6    0  503  0.89331278157E+02  0.73675532262E+02 -0.46849984282E+03  0.48259741404E+03  0.00000000000E+00 0.  1.
<mgrwt>
<rscale>  0 0.80775924E+03</rscale>
<asrwt>0</asrwt>
<pdfrwt beam="1">  1        2 0.57654294E-01 0.80775924E+03</pdfrwt>
<pdfrwt beam="2">  1       -2 0.36963129E+00 0.80775924E+03</pdfrwt>
<totfact> 0.10461744E+00</totfact>
</mgrwt>
</event>
<event>
12    1  0.1418317E-007  0.8729150E+03  0.7818608E-02  0.9460087E-01
         -1   -1    0    0    0  501 -0.00000000000E+00  0.00000000000E+00  0.11501920636E+04  0.11501920636E+04  0.00000000000E+00 0.  1.
          1   -1    0    0  501    0  0.00000000000E+00 -0.00000000000E+00 -0.10007241933E+04  0.10007241933E+04  0.00000000000E+00 0. -1.
         23    2    1    2    0    0 -0.42393417013E+03 -0.64912707425E+03 -0.54250668305E+03  0.95102637973E+03  0.95139553623E+02 0.  0.
    5000000    2    1    2    0    0  0.42393417013E+03  0.64912707425E+03  0.69197455329E+03  0.11998898771E+04  0.59985064451E+03 0.  0.
         23    2    4    4    0    0 -0.72421377353E+02  0.38333892381E+03  0.20566897807E+03  0.45032038604E+03  0.91077632490E+02 0.  0.
         23    2    4    4    0    0  0.49635554748E+03  0.26578815044E+03  0.48630557522E+03  0.74956949109E+03  0.91373623398E+02 0.  0.
          1    1    3    3  502    0 -0.16848592944E+03 -0.30798558165E+03 -0.29236091592E+03  0.45685613936E+03  0.00000000000E+00 0. -1.
         -1    1    3    3    0  502 -0.25544824069E+03 -0.34114149260E+03 -0.25014576713E+03  0.49417024037E+03  0.00000000000E+00 0.  1.
         13    1    5    5    0    0  0.95884934227E+01  0.15979865717E+03  0.58711938114E+02  0.17051287844E+03  0.00000000000E+00 0. -1.
        -13    1    5    5    0    0 -0.82009870776E+02  0.22354026664E+03  0.14695703996E+03  0.27980750760E+03  0.00000000000E+00 0.  1.
          1    1    6    6  503    0  0.13885554421E+03  0.12277267457E+03  0.16022555765E+03  0.24500249204E+03  0.00000000000E+00 0. -1.
         -1    1    6    6    0  503  0.35750000327E+03  0.14301547587E+03  0.32608001757E+03  0.50456699905E+03  0.00000000000E+00 0.  1.
<mgrwt>
<rscale>  0 0.87291495E+03</rscale>
<asrwt>0</asrwt>
<pdfrwt beam="1">  1        1 0.15395757E+00 0.87291495E+03</pdfrwt>
<pdfrwt beam="2">  1       -1 0.17695262E+00 0.87291495E+03</pdfrwt>
<totfact> 0.33744120E+00</totfact>
</mgrwt>
</event>
<event>
12    1  0.1418317E-007  0.4405619E+03  0.7818608E-02  0.1030575E+00
         -1   -1    0    0    0  501 -0.00000000000E+00  0.00000000000E+00  0.14851310073E+04  0.14851310073E+04  0.00000000000E+00 0.  1.
          1   -1    0    0  501    0  0.00000000000E+00 -0.00000000000E+00 -0.35053359088E+03  0.35053359088E+03  0.00000000000E+00 0. -1.
         23    2    1    2    0    0  0.36474724433E+03 -0.83229474282E+02 -0.11285794263E+03  0.40177170962E+03  0.93358951377E+02 0.  0.
    5000000    2    1    2    0    0 -0.36474724433E+03  0.83229474282E+02  0.12474553590E+04  0.14338928885E+04  0.59994686879E+03 0.  0.
         23    2    4    4    0    0 -0.76688845297E+02 -0.95498194997E+02  0.23619528582E+02  0.16068641951E+03  0.10129737925E+03 0.  0.
         23    2    4    4    0    0 -0.28805839903E+03  0.17872766928E+03  0.12238358305E+04  0.12732064690E+04  0.91429491201E+02 0.  0.
          1    1    3    3  502    0  0.27451000151E+03 -0.96812913639E+02 -0.10771728143E+03  0.31037315267E+03  0.00000000000E+00 0. -1.
         -1    1    3    3    0  502  0.90237242811E+02  0.13583439357E+02 -0.51406612026E+01  0.91398556950E+02  0.00000000000E+00 0.  1.
         13    1    5    5    0    0  0.22411641937E+02 -0.35120199287E+02 -0.25056285720E+01  0.41737132949E+02  0.00000000000E+00 0. -1.
        -13    1    5    5    0    0 -0.99100487234E+02 -0.60377995710E+02  0.26125157154E+02  0.11894928656E+03  0.00000000000E+00 0.  1.
          1    1    6    6  503    0 -0.17765397082E+03  0.13136314331E+03  0.92731437881E+03  0.95327287065E+03  0.00000000000E+00 0. -1.
         -1    1    6    6    0  503 -0.11040442821E+03  0.47364525972E+02  0.29652145165E+03  0.31993359838E+03  0.00000000000E+00 0.  1.
<mgrwt>
<rscale>  0 0.44056191E+03</rscale>
<asrwt>0</asrwt>
<pdfrwt beam="1">  1        1 0.53928246E-01 0.44056191E+03</pdfrwt>
<pdfrwt beam="2">  1       -1 0.22848169E+00 0.44056191E+03</pdfrwt>
<totfact> 0.75349068E+00</totfact>
</mgrwt>
</event>
<event>
12    1  0.1418317E-007  0.6381732E+03  0.7818608E-02  0.9829228E-01
          2   -1    0    0  501    0  0.00000000000E+00  0.00000000000E+00  0.20048625230E+04  0.20048625230E+04  0.00000000000E+00 0. -1.
         -2   -1    0    0    0  501 -0.00000000000E+00 -0.00000000000E+00 -0.44030294351E+03  0.44030294351E+03  0.00000000000E+00 0.  1.
         23    2    1    2    0    0  0.55370778836E+03 -0.11125151972E+03  0.15153634227E+04  0.16196480985E+04  0.89243738181E+02 0.  0.
    5000000    2    1    2    0    0 -0.55370778836E+03  0.11125151972E+03  0.49196156786E+02  0.82551736794E+03  0.60007453487E+03 0.  0.
         23    2    4    4    0    0 -0.44567939725E+03  0.24221356286E+03 -0.16087049800E+03  0.53997841456E+03  0.91650618624E+02 0.  0.
         23    2    4    4    0    0 -0.10802839111E+03 -0.13096204314E+03  0.21006665479E+03  0.28553895338E+03  0.92646124673E+02 0.  0.
          3    1    3    3  502    0  0.16695079293E+03 -0.75932090933E+02  0.48223491705E+03  0.51593484561E+03  0.00000000000E+00 0. -1.
         -3    1    3    3    0  502  0.38675699543E+03 -0.35319428782E+02  0.10331285056E+04  0.11037132529E+04  0.00000000000E+00 0.  1.
         11    1    5    5    0    0 -0.31169660299E+03  0.20197485383E+03 -0.85726493579E+02  0.38117928275E+03  0.00000000000E+00 0. -1.
        -11    1    5    5    0    0 -0.13398279426E+03  0.40238709021E+02 -0.75144004421E+02  0.15879913181E+03  0.00000000000E+00 0.  1.
          1    1    6    6  503    0 -0.12180426998E+03 -0.13179702542E+03  0.19214449626E+03  0.26291870139E+03  0.00000000000E+00 0. -1.
         -1    1    6    6    0  503  0.13775878873E+02  0.83498228260E+00  0.17922158525E+02  0.22620251995E+02  0.00000000000E+00 0.  1.
<mgrwt>
<rscale>  0 0.63817316E+03</rscale>
<asrwt>0</asrwt>
<pdfrwt beam="1">  1        2 0.30844038E+00 0.63817316E+03</pdfrwt>
<pdfrwt beam="2">  1       -2 0.67738915E-01 0.63817316E+03</pdfrwt>
<totfact> 0.13968085E+01</totfact>
</mgrwt>
</event>
<event>
12    1  0.2052084E-007  0.1111420E+04  0.7818608E-02  0.9194132E-01
         -2   -1    0    0    0  501 -0.00000000000E+00  0.00000000000E+00  0.80209230866E+03  0.80209230866E+03  0.00000000000E+00 0. -1.
          2   -1    0    0  501    0  0.00000000000E+00 -0.00000000000E+00 -0.18171987235E+04  0.18171987235E+04  0.00000000000E+00 0.  1.
         23    2    1    2    0    0  0.10580132120E+04 -0.22005382205E+03 -0.83833162882E+03  0.13706931653E+04  0.90466524679E+02 0.  0.
    5000000    2    1    2    0    0 -0.10580132120E+04  0.22005382205E+03 -0.17677478602E+03  0.12485978669E+04  0.59994305301E+03 0.  0.
         23    2    4    4    0    0 -0.52559100982E+03  0.28685460730E+03 -0.32099035432E+03  0.68547549634E+03  0.91161248209E+02 0.  0.
         23    2    4    4    0    0 -0.53242220218E+03 -0.66800785257E+02  0.14421556830E+03  0.56312237055E+03  0.91503703672E+02 0.  0.
          3    1    3    3  502    0  0.42264360125E+03 -0.12411006775E+03 -0.30728004281E+03  0.53707722657E+03  0.00000000000E+00 0. -1.
         -3    1    3    3    0  502  0.63536961075E+03 -0.95943754293E+02 -0.53105158601E+03  0.83361593870E+03  0.00000000000E+00 0.  1.
         13    1    5    5    0    0 -0.19974040355E+03  0.14636531133E+03 -0.16687198766E+03  0.29860558172E+03  0.00000000000E+00 0. -1.
        -13    1    5    5    0    0 -0.32585060627E+03  0.14048929597E+03 -0.15411836667E+03  0.38686991462E+03  0.00000000000E+00 0.  1.
          3    1    6    6  503    0 -0.13774001406E+03 -0.29509650718E+02  0.78533443736E+02  0.16127812234E+03  0.00000000000E+00 0. -1.
         -3    1    6    6    0  503 -0.39468218812E+03 -0.37291134539E+02  0.65682124564E+02  0.40184424821E+03  0.00000000000E+00 0.  1.
<mgrwt>
<rscale>  0 0.11114204E+04</rscale>
<asrwt>0</asrwt>
<pdfrwt beam="1">  1        2 0.27956903E+00 0.11114204E+04</pdfrwt>
<pdfrwt beam="2">  1       -2 0.12339882E+00 0.11114204E+04</pdfrwt>
<totfact> 0.41137275E+00</totfact>
</mgrwt>
</event>
<event>
12    1  0.1418317E-007  0.8077567E+03  0.7818608E-02  0.9548857E-01
         -3   -1    0    0    0  501 -0.00000000000E+00  0.00000000000E+00  0.42079515617E+03  0.42079515617E+03  0.00000000000E+00 0.  1.
          3   -1    0    0  501    0  0.00000000000E+00 -0.00000000000E+00 -0.34935806332E+04  0.34935806332E+04  0.00000000000E+00 0. -1.
         23    2    1    2    0    0 -0.55950717394E+03 -0.52181589261E+03 -0.28004870088E+04  0.29045296912E+04  0.90692543691E+02 0.  0.
    5000000    2    1    2    0    0  0.55950717394E+03  0.52181589261E+03 -0.27229846822E+03  0.10098460981E+04  0.60025209921E+03 0.  0.
         23    2    4    4    0    0  0.53614862600E+03  0.33603779385E+03 -0.41079035728E+03  0.75985749604E+03  0.90873255710E+02 0.  0.
         23    2    4    4    0    0  0.23358547940E+02  0.18577809876E+03  0.13849188906E+03  0.24998860207E+03  0.90857988577E+02 0.  0.
          2    1    3    3  502    0 -0.42981717402E+03 -0.44565949558E+03 -0.21962294523E+04  0.22818367594E+04  0.00000000000E+00 0. -1.
         -2    1    3    3    0  502 -0.12968999992E+03 -0.76156397031E+02 -0.60425755641E+03  0.62269293185E+03  0.00000000000E+00 0.  1.
         11    1    5    5    0    0  0.27151177316E+03  0.12256919545E+03 -0.21649666924E+03  0.36825624018E+03  0.00000000000E+00 0. -1.
        -11    1    5    5    0    0  0.26463685284E+03  0.21346859840E+03 -0.19429368804E+03  0.39160125587E+03  0.00000000000E+00 0.  1.
          4    1    6    6  503    0  0.88993718115E+01 -0.90529321693E+01  0.70539705593E+01  0.14522840636E+02  0.00000000000E+00 0. -1.
         -4    1    6    6    0  503  0.14459176128E+02  0.19483103093E+03  0.13143791850E+03  0.23546576143E+03  0.00000000000E+00 0.  1.
<mgrwt>
<rscale>  0 0.80775668E+03</rscale>
<asrwt>0</asrwt>
<pdfrwt beam="1">  1        3 0.53747393E+00 0.80775668E+03</pdfrwt>
<pdfrwt beam="2">  1       -3 0.64737718E-01 0.80775668E+03</pdfrwt>
<totfact> 0.14045881E-02</totfact>
</mgrwt>
</event>
<event>
12    1  0.1418317E-007  0.9561453E+03  0.7818608E-02  0.9357996E-01
         -3   -1    0    0    0  501 -0.00000000000E+00  0.00000000000E+00  0.70199828315E+03  0.70199828315E+03  0.00000000000E+00 0.  1.
          3   -1    0    0  501    0  0.00000000000E+00 -0.00000000000E+00 -0.13382686822E+04  0.13382686822E+04  0.00000000000E+00 0. -1.
         23    2    1    2    0    0 -0.63590419771E+03 -0.59476520661E+03 -0.20898114364E+03  0.89978116058E+03  0.88392414092E+02 0.  0.
    5000000    2    1    2    0    0  0.63590419771E+03  0.59476520661E+03 -0.42728925540E+03  0.11404858048E+04  0.60000996943E+03 0.  0.
         23    2    4    4    0    0  0.58287216700E+03  0.17014517629E+03 -0.18269127247E+03  0.63911972719E+03  0.80053610644E+02 0.  0.
         23    2    4    4    0    0  0.53032030717E+02  0.42462003032E+03 -0.24459798292E+03  0.50136607757E+03  0.91788910290E+02 0.  0.
          2    1    3    3  502    0 -0.32493142637E+03 -0.35161124620E+03 -0.86885190200E+02  0.48657983577E+03  0.00000000000E+00 0. -1.
         -2    1    3    3    0  502 -0.31097277134E+03 -0.24315396041E+03 -0.12209595344E+03  0.41320132481E+03  0.00000000000E+00 0.  1.
         11    1    5    5    0    0  0.41310293747E+03  0.14431649916E+03 -0.10166319019E+03  0.44924012857E+03  0.00000000000E+00 0.  1.
        -11    1    5    5    0    0  0.16976922953E+03  0.25828677130E+02 -0.81028082279E+02  0.18987959862E+03  0.00000000000E+00 0. -1.
          4    1    6    6  503    0 -0.35663846766E+01  0.55494063129E+01 -0.23039106250E+02  0.23964879030E+02  0.00000000000E+00 0. -1.
         -4    1    6    6    0  503  0.56598415393E+02  0.41907062401E+03 -0.22155887667E+03  0.47740119854E+03  0.00000000000E+00 0.  1.
<mgrwt>
<rscale>  0 0.95614534E+03</rscale>
<asrwt>0</asrwt>
<pdfrwt beam="1">  1        3 0.20588749E+00 0.95614534E+03</pdfrwt>
<pdfrwt beam="2">  1       -3 0.10799974E+00 0.95614534E+03</pdfrwt>
<totfact> 0.25213064E-01</totfact>
</mgrwt>
</event>
<event>
12    1  0.1418317E-007  0.6158997E+03  0.7818608E-02  0.9872957E-01
          2   -1    0    0  501    0  0.00000000000E+00  0.00000000000E+00  0.16781253183E+04  0.16781253183E+04  0.00000000000E+00 0.  1.
         -2   -1    0    0    0  501 -0.00000000000E+00 -0.00000000000E+00 -0.25839394314E+03  0.25839394314E+03  0.00000000000E+00 0. -1.
         23    2    1    2    0    0  0.19647584230E+02  0.51587137238E+03  0.56198015462E+03  0.76937905243E+03  0.98046579369E+02 0.  0.
    5000000    2    1    2    0    0 -0.19647584230E+02 -0.51587137238E+03  0.85775122058E+03  0.11671402091E+04  0.59997484178E+03 0.  0.
         23    2    4    4    0    0 -0.22837882769E+03 -0.37958104817E+03  0.76013087173E+03  0.88469005281E+03  0.92945609511E+02 0.  0.
         23    2    4    4    0    0  0.20873124346E+03 -0.13629032421E+03  0.97620348855E+02  0.28245015624E+03  0.90025406316E+02 0.  0.
          4    1    3    3  502    0  0.44228906224E+02  0.47474826305E+03  0.52195078562E+03  0.70694747473E+03  0.00000000000E+00 0. -1.
         -4    1    3    3    0  502 -0.24581321993E+02  0.41123109327E+02  0.40029368993E+02  0.62431577696E+02  0.00000000000E+00 0.  1.
         13    1    5    5    0    0 -0.80365985223E+02 -0.18716517142E+03  0.42031754130E+03  0.46707208062E+03  0.00000000000E+00 0. -1.
        -13    1    5    5    0    0 -0.14801284246E+03 -0.19241587675E+03  0.33981333043E+03  0.41761797219E+03  0.00000000000E+00 0.  1.
          4    1    6    6  503    0  0.21510787184E+03 -0.13546172339E+03  0.10278692037E+03  0.27420143331E+03  0.00000000000E+00 0. -1.
         -4    1    6    6    0  503 -0.63766283799E+01 -0.82860081829E+00 -0.51665715134E+01  0.82487229323E+01  0.00000000000E+00 0.  1.
<mgrwt>
<rscale>  0 0.61589972E+03</rscale>
<asrwt>0</asrwt>
<pdfrwt beam="1">  1        2 0.25817312E+00 0.61589972E+03</pdfrwt>
<pdfrwt beam="2">  1       -2 0.39752915E-01 0.61589972E+03</pdfrwt>
<totfact> 0.62764817E+01</totfact>
</mgrwt>
</event>
<event>
12    1  0.1418317E-007  0.1247221E+04  0.7818608E-02  0.9072499E-01
          2   -1    0    0  501    0  0.00000000000E+00  0.00000000000E+00  0.46692454257E+04  0.46692454257E+04  0.00000000000E+00 0. -1.
         -2   -1    0    0    0  501 -0.00000000000E+00 -0.00000000000E+00 -0.38398788994E+03  0.38398788994E+03  0.00000000000E+00 0.  1.
         23    2    1    2    0    0  0.39805769082E+03  0.11446070480E+04  0.27545616788E+04  0.30107873727E+04  0.93034091241E+02 0.  0.
    5000000    2    1    2    0    0 -0.39805769082E+03 -0.11446070480E+04  0.15306958570E+04  0.20424459430E+04  0.59998366950E+03 0.  0.
         23    2    4    4    0    0  0.42129445926E+02 -0.47419888491E+03  0.29861933496E+03  0.56951622917E+03  0.92389152035E+02 0.  0.
         23    2    4    4    0    0 -0.44018713674E+03 -0.67040816307E+03  0.12320765221E+04  0.14729297138E+04  0.91090971275E+02 0.  0.
          3    1    3    3  502    0  0.34630460295E+03  0.87799079948E+03  0.21411902530E+04  0.23399765857E+04  0.00000000000E+00 0. -1.
         -3    1    3    3    0  502  0.51753087864E+02  0.26661624850E+03  0.61337142571E+03  0.67081078699E+03  0.00000000000E+00 0.  1.
         11    1    5    5    0    0 -0.36286533154E+01 -0.58183333132E+02  0.55011543893E+01  0.58555359096E+02  0.00000000000E+00 0. -1.
        -11    1    5    5    0    0  0.45758099242E+02 -0.41601555178E+03  0.29311818057E+03  0.51096087007E+03  0.00000000000E+00 0.  1.
          1    1    6    6  503    0 -0.32455676314E+03 -0.47950417997E+03  0.81283483365E+03  0.99797886646E+03  0.00000000000E+00 0. -1.
         -1    1    6    6    0  503 -0.11563037361E+03 -0.19090398310E+03  0.41924168844E+03  0.47495084735E+03  0.00000000000E+00 0.  1.
<mgrwt>
<rscale>  0 0.12472212E+04</rscale>
<asrwt>0</asrwt>
<pdfrwt beam="1">  1        2 0.71834541E+00 0.12472212E+04</pdfrwt>
<pdfrwt beam="2">  1       -2 0.59075063E-01 0.12472212E+04</pdfrwt>
<totfact> 0.22908827E-01</totfact>
</mgrwt>
</event>
<event>
12    1  0.1418317E-007  0.6666053E+03  0.7818608E-02  0.9776110E-01
         -2   -1    0    0    0  501 -0.00000000000E+00  0.00000000000E+00  0.38498778046E+03  0.38498778046E+03  0.00000000000E+00 0.  1.
          2   -1    0    0  501    0  0.00000000000E+00 -0.00000000000E+00 -0.13896447719E+04  0.13896447719E+04  0.00000000000E+00 0. -1.
         23    2    1    2    0    0  0.22176369035E+02  0.60237605017E+03 -0.37280864112E+03  0.71513836212E+03  0.95330461620E+02 0.  0.
    5000000    2    1    2    0    0 -0.22176369035E+02 -0.60237605017E+03 -0.63184835030E+03  0.10594941902E+04  0.59995575187E+03 0.  0.
         23    2    4    4    0    0  0.55108060341E+02  0.12538924940E+02  0.62374463549E+02  0.12441649982E+03  0.91622970764E+02 0.  0.
         23    2    4    4    0    0 -0.77284429376E+02 -0.61491497511E+03 -0.69422281385E+03  0.93507769041E+03  0.91277939282E+02 0.  0.
          1    1    3    3  502    0 -0.37235334685E+01  0.44774147781E+03 -0.31741530240E+03  0.54885222952E+03  0.00000000000E+00 0. -1.
         -1    1    3    3    0  502  0.25899902504E+02  0.15463457236E+03 -0.55393338726E+02  0.16628613260E+03  0.00000000000E+00 0.  1.
         13    1    5    5    0    0  0.34092851989E+02  0.49426465884E+02  0.17277409605E+02  0.62480452697E+02  0.00000000000E+00 0. -1.
        -13    1    5    5    0    0  0.21015208352E+02 -0.36887540944E+02  0.45097053944E+02  0.61936047125E+02  0.00000000000E+00 0.  1.
          2    1    6    6  503    0 -0.55342913675E+02 -0.13710248052E+03 -0.17576682248E+03  0.22968218072E+03  0.00000000000E+00 0. -1.
         -2    1    6    6    0  503 -0.21941515701E+02 -0.47781249459E+03 -0.51845599137E+03  0.70539550969E+03  0.00000000000E+00 0.  1.
<mgrwt>
<rscale>  0 0.66660528E+03</rscale>
<asrwt>0</asrwt>
<pdfrwt beam="1">  1        2 0.21379151E+00 0.66660528E+03</pdfrwt>
<pdfrwt beam="2">  1       -2 0.59228888E-01 0.66660528E+03</pdfrwt>
<totfact> 0.40234855E+01</totfact>
</mgrwt>
</event>
<event>
12    1  0.1998226E-007  0.1495894E+04  0.7818608E-02  0.8887188E-01
          1   -1    0    0  501    0  0.00000000000E+00  0.00000000000E+00  0.10741442912E+04  0.10741442912E+04  0.00000000000E+00 0. -1.
         -1   -1    0    0    0  501 -0.00000000000E+00 -0.00000000000E+00 -0.23928408239E+04  0.23928408239E+04  0.00000000000E+00 0.  1.
         23    2    1    2    0    0 -0.12698928104E+04 -0.73195158229E+03 -0.11673104929E+04  0.18760946980E+04  0.93470103127E+02 0.  0.
    5000000    2    1    2    0    0  0.12698928104E+04  0.73195158229E+03 -0.15138603976E+03  0.15908904171E+04  0.59969468689E+03 0.  0.
         23    2    4    4    0    0  0.71363884206E+03  0.62191884001E+03  0.11445020082E+03  0.95790362801E+03  0.91744599930E+02 0.  0.
         23    2    4    4    0    0  0.55625396830E+03  0.11003274228E+03 -0.26583624058E+03  0.63298678907E+03  0.92074354246E+02 0.  0.
          4    1    3    3  502    0 -0.71650635986E+03 -0.37103201608E+03 -0.67875525187E+03  0.10543978436E+04  0.00000000000E+00 0.  1.
         -4    1    3    3    0  502 -0.55338645050E+03 -0.36091956621E+03 -0.48855524105E+03  0.82169685434E+03  0.00000000000E+00 0. -1.
         13    1    5    5    0    0  0.37543874449E+03  0.27097761471E+03  0.38105048812E+02  0.46458057782E+03  0.00000000000E+00 0. -1.
        -13    1    5    5    0    0  0.33820009757E+03  0.35094122530E+03  0.76345152003E+02  0.49332305019E+03  0.00000000000E+00 0.  1.
          4    1    6    6  503    0  0.37075237026E+03  0.11528163226E+03 -0.19353764278E+03  0.43382484249E+03  0.00000000000E+00 0. -1.
         -4    1    6    6    0  503  0.18550159804E+03 -0.52488899824E+01 -0.72298597799E+02  0.19916194658E+03  0.00000000000E+00 0.  1.
<mgrwt>
<rscale>  0 0.14958940E+04</rscale>
<asrwt>0</asrwt>
<pdfrwt beam="1">  1        1 0.16525297E+00 0.14958940E+04</pdfrwt>
<pdfrwt beam="2">  1       -1 0.36812936E+00 0.14958940E+04</pdfrwt>
<totfact> 0.14850485E-01</totfact>
</mgrwt>
</event>
<event>
12    1  0.1418317E-007  0.3566571E+03  0.7818608E-02  0.1059915E+00
         -1   -1    0    0    0  501 -0.00000000000E+00  0.00000000000E+00  0.30994543534E+03  0.30994543534E+03  0.00000000000E+00 0.  1.
          1   -1    0    0  501    0  0.00000000000E+00 -0.00000000000E+00 -0.72986945440E+03  0.72986945440E+03  0.00000000000E+00 0. -1.
         23    2    1    2    0    0  0.17035088827E+02 -0.24622947342E+03 -0.26568758773E+03  0.37334862602E+03  0.88770234024E+02 0.  0.
    5000000    2    1    2    0    0 -0.17035088827E+02  0.24622947342E+03 -0.15423643134E+03  0.66646626371E+03  0.59955755027E+03 0.  0.
         23    2    4    4    0    0  0.17273216380E+03  0.12977828239E+03  0.14973553728E+03  0.27863607179E+03  0.92404147000E+02 0.  0.
         23    2    4    4    0    0 -0.18976725263E+03  0.11645119102E+03 -0.30397196862E+03  0.38783019193E+03  0.91873880971E+02 0.  0.
          3    1    3    3  502    0 -0.30682485660E+02 -0.12902258944E+03 -0.16461581667E+03  0.21139207792E+03  0.00000000000E+00 0. -1.
         -3    1    3    3    0  502  0.47717574486E+02 -0.11720688397E+03 -0.10107177107E+03  0.16195654810E+03  0.00000000000E+00 0.  1.
         13    1    5    5    0    0  0.15487377682E+03  0.12801584307E+03  0.97371885574E+02  0.22328284064E+03  0.00000000000E+00 0. -1.
        -13    1    5    5    0    0  0.17858386974E+02  0.17624393245E+01  0.52363651711E+02  0.55353231145E+02  0.00000000000E+00 0.  1.
          1    1    6    6  503    0 -0.14122890130E+03  0.12172009263E+03 -0.27090393921E+03  0.32886217142E+03  0.00000000000E+00 0. -1.
         -1    1    6    6    0  503 -0.48538351325E+02 -0.52689016069E+01 -0.33068029411E+02  0.58968020508E+02  0.00000000000E+00 0.  1.
<mgrwt>
<rscale>  0 0.35665707E+03</rscale>
<asrwt>0</asrwt>
<pdfrwt beam="1">  1        1 0.11228761E+00 0.35665707E+03</pdfrwt>
<pdfrwt beam="2">  1       -1 0.47683913E-01 0.35665707E+03</pdfrwt>
<totfact> 0.11868297E+02</totfact>
</mgrwt>
</event>
<event>
12    1  0.1418317E-007  0.6689938E+03  0.7818608E-02  0.9771777E-01
         -1   -1    0    0    0  501 -0.00000000000E+00  0.00000000000E+00  0.40480603328E+03  0.40480603328E+03  0.00000000000E+00 0.  1.
          1   -1    0    0  501    0  0.00000000000E+00 -0.00000000000E+00 -0.11842670116E+04  0.11842670116E+04  0.00000000000E+00 0. -1.
         23    2    1    2    0    0 -0.51369558824E+03 -0.18881743479E+03 -0.19393919025E+03  0.58787207602E+03  0.91902052154E+02 0.  0.
    5000000    2    1    2    0    0  0.51369558824E+03  0.18881743479E+03 -0.58552178806E+03  0.10012009688E+04  0.60002702828E+03 0.  0.
         23    2    4    4    0    0  0.60662575881E+02 -0.18679447247E+03 -0.13608397882E+03  0.25520294849E+03  0.89652510111E+02 0.  0.
         23    2    4    4    0    0  0.45303301236E+03  0.37561190726E+03 -0.44943780924E+03  0.74599802035E+03  0.90528928126E+02 0.  0.
          3    1    3    3  502    0 -0.17334552004E+03 -0.57077415160E+02 -0.11101176178E+03  0.21361205933E+03  0.00000000000E+00 0. -1.
         -3    1    3    3    0  502 -0.34035006821E+03 -0.13174001963E+03 -0.82927428470E+02  0.37426001669E+03  0.00000000000E+00 0.  1.
         11    1    5    5    0    0  0.57771148653E+02 -0.18840850277E+03 -0.14566989467E+03  0.24506119184E+03  0.00000000000E+00 0. -1.
        -11    1    5    5    0    0  0.28914272277E+01  0.16140302981E+01  0.95859158532E+01  0.10141756651E+02  0.00000000000E+00 0.  1.
          3    1    6    6  503    0  0.21931802000E+03  0.21055032302E+03 -0.28087603745E+03  0.41391204481E+03  0.00000000000E+00 0. -1.
         -3    1    6    6    0  503  0.23371499236E+03  0.16506158424E+03 -0.16856177179E+03  0.33208597555E+03  0.00000000000E+00 0.  1.
<mgrwt>
<rscale>  0 0.66899384E+03</rscale>
<asrwt>0</asrwt>
<pdfrwt beam="1">  1        1 0.18219492E+00 0.66899384E+03</pdfrwt>
<pdfrwt beam="2">  1       -1 0.62277852E-01 0.66899384E+03</pdfrwt>
<totfact> 0.29818319E+01</totfact>
</mgrwt>
</event>
<event>
12    1  0.1418317E-007  0.3771580E+03  0.7818608E-02  0.1051989E+00
         -1   -1    0    0    0  501 -0.00000000000E+00  0.00000000000E+00  0.35152335737E+03  0.35152335737E+03  0.00000000000E+00 0.  1.
          1   -1    0    0  501    0  0.00000000000E+00 -0.00000000000E+00 -0.11799638617E+04  0.11799638617E+04  0.00000000000E+00 0. -1.
         23    2    1    2    0    0 -0.11711897819E+03  0.26672245544E+03  0.15563941193E+03  0.34275863297E+03  0.91663136780E+02 0.  0.
    5000000    2    1    2    0    0  0.11711897819E+03 -0.26672245544E+03 -0.98407991625E+03  0.11887285861E+04  0.59983718337E+03 0.  0.
         23    2    4    4    0    0 -0.80979709125E+02  0.17130540959E+02 -0.75128039400E+03  0.76087403837E+03  0.87498017896E+02 0.  0.
         23    2    4    4    0    0  0.19809868731E+03 -0.28385299640E+03 -0.23279952226E+03  0.42785454773E+03  0.95122463024E+02 0.  0.
          1    1    3    3  502    0 -0.99067998108E+02  0.26408683581E+03  0.12823933516E+03  0.30984133388E+03  0.00000000000E+00 0. -1.
         -1    1    3    3    0  502 -0.18050980080E+02  0.26356196275E+01  0.27400076767E+02  0.32917299092E+02  0.00000000000E+00 0.  1.
         11    1    5    5    0    0 -0.68536361498E+02  0.34566864352E+02 -0.32059523546E+03  0.32965649692E+03  0.00000000000E+00 0. -1.
        -11    1    5    5    0    0 -0.12443347628E+02 -0.17436323393E+02 -0.43068515853E+03  0.43121754145E+03  0.00000000000E+00 0.  1.
          1    1    6    6  503    0  0.15779836411E+03 -0.15644624061E+03 -0.11750545048E+03  0.25136284692E+03  0.00000000000E+00 0. -1.
         -1    1    6    6    0  503  0.40300323206E+02 -0.12740675578E+03 -0.11529407177E+03  0.17649170081E+03  0.00000000000E+00 0.  1.
<mgrwt>
<rscale>  0 0.37715795E+03</rscale>
<asrwt>0</asrwt>
<pdfrwt beam="1">  1        1 0.18153290E+00 0.37715795E+03</pdfrwt>
<pdfrwt beam="2">  1       -1 0.54080516E-01 0.37715795E+03</pdfrwt>
<totfact> 0.41465060E+01</totfact>
</mgrwt>
</event>
<event>
12    1  0.1418317E-007  0.5884899E+03  0.7818608E-02  0.9929578E-01
         -1   -1    0    0    0  501 -0.00000000000E+00  0.00000000000E+00  0.68498702178E+03  0.68498702178E+03  0.00000000000E+00 0.  1.
          1   -1    0    0  501    0  0.00000000000E+00 -0.00000000000E+00 -0.72909363654E+03  0.72909363654E+03  0.00000000000E+00 0. -1.
         23    2    1    2    0    0 -0.37752303693E+02  0.45678243263E+03  0.33215837986E+03  0.57043053795E+03  0.70614319554E+02 0.  0.
    5000000    2    1    2    0    0  0.37752303693E+02 -0.45678243263E+03 -0.37626499462E+03  0.84365012036E+03  0.60007895498E+03 0.  0.
         23    2    4    4    0    0  0.24570722209E+03 -0.43269098466E+02 -0.22771267570E+03  0.34914261428E+03  0.88335998120E+02 0.  0.
         23    2    4    4    0    0 -0.20795491840E+03 -0.41351333417E+03 -0.14855231892E+03  0.49450750608E+03  0.90726823428E+02 0.  0.
          1    1    3    3  502    0 -0.95402219286E+01  0.77894513922E+02  0.92138583735E+02  0.12102929293E+03  0.00000000000E+00 0. -1.
         -1    1    3    3    0  502 -0.28212081764E+02  0.37888791871E+03  0.24001979612E+03  0.44940124503E+03  0.00000000000E+00 0.  1.
         13    1    5    5    0    0  0.15215008767E+03 -0.17676676034E+02 -0.19238524049E+03  0.24591501543E+03  0.00000000000E+00 0.  1.
        -13    1    5    5    0    0  0.93557134423E+02 -0.25592422433E+02 -0.35327435208E+02  0.10322759886E+03  0.00000000000E+00 0. -1.
          1    1    6    6  503    0 -0.89549206373E+02 -0.25692035793E+03 -0.11480441610E+03  0.29530862608E+03  0.00000000000E+00 0. -1.
         -1    1    6    6    0  503 -0.11840571203E+03 -0.15659297623E+03 -0.33747902823E+02  0.19919887999E+03  0.00000000000E+00 0.  1.
<mgrwt>
<rscale>  0 0.58848991E+03</rscale>
<asrwt>0</asrwt>
<pdfrwt beam="1">  1        1 0.11216825E+00 0.58848991E+03</pdfrwt>
<pdfrwt beam="2">  1       -1 0.10538262E+00 0.58848991E+03</pdfrwt>
<totfact> 0.22632760E+01</totfact>
</mgrwt>
</event>
<event>
12    1  0.1418317E-007  0.4474719E+03  0.7818608E-02  0.1028479E+00
         -2   -1    0    0    0  501 -0.00000000000E+00  0.00000000000E+00  0.80886548464E+02  0.80886548464E+02  0.00000000000E+00 0.  1.
          2   -1    0    0  501    0  0.00000000000E+00 -0.00000000000E+00 -0.27369219872E+04  0.27369219872E+04  0.00000000000E+00 0. -1.
         23    2    1    2    0    0 -0.51282699932E+02  0.26344389391E+03 -0.83846819077E+03  0.88504337840E+03  0.90775955839E+02 0.  0.
    5000000    2    1    2    0    0  0.51282699932E+02 -0.26344389391E+03 -0.18175672479E+04  0.19327651573E+04  0.59999820977E+03 0.  0.
         23    2    4    4    0    0  0.27480930623E+03 -0.12695430129E+02 -0.10673994690E+04  0.11059536877E+04  0.90058892816E+02 0.  0.
         23    2    4    4    0    0 -0.22352660629E+03 -0.25074846378E+03 -0.75016777895E+03  0.82681146956E+03  0.89591148046E+02 0.  0.
          2    1    3    3  502    0 -0.28983992340E+01  0.75643579332E+02 -0.12923237962E+03  0.14977102441E+03  0.00000000000E+00 0. -1.
         -2    1    3    3    0  502 -0.48384300698E+02  0.18780031457E+03 -0.70923581115E+03  0.73527235398E+03  0.00000000000E+00 0.  1.
         11    1    5    5    0    0  0.10641748532E+03 -0.24984257856E+02 -0.57807763463E+03  0.58832188977E+03  0.00000000000E+00 0. -1.
        -11    1    5    5    0    0  0.16839182090E+03  0.12288827727E+02 -0.48932183436E+03  0.51763179792E+03  0.00000000000E+00 0.  1.
          4    1    6    6  503    0 -0.59476422918E+02 -0.13157512987E+03 -0.33395677779E+03  0.36383593708E+03  0.00000000000E+00 0. -1.
         -4    1    6    6    0  503 -0.16405018338E+03 -0.11917333391E+03 -0.41621100117E+03  0.46297553248E+03  0.00000000000E+00 0.  1.
<mgrwt>
<rscale>  0 0.44747191E+03</rscale>
<asrwt>0</asrwt>
<pdfrwt beam="1">  1        2 0.42106498E+00 0.44747191E+03</pdfrwt>
<pdfrwt beam="2">  1       -2 0.12444083E-01 0.44747191E+03</pdfrwt>
<totfact> 0.13235386E+02</totfact>
</mgrwt>
</event>
<event>
12    1  0.1418317E-007  0.8215938E+03  0.7818608E-02  0.9529276E-01
         -2   -1    0    0    0  501 -0.00000000000E+00  0.00000000000E+00  0.27472838530E+03  0.27472838530E+03  0.00000000000E+00 0.  1.
          2   -1    0    0  501    0  0.00000000000E+00 -0.00000000000E+00 -0.27424288755E+04  0.27424288755E+04  0.00000000000E+00 0. -1.
         23    2    1    2    0    0 -0.63908576516E+03 -0.36984840615E+03 -0.14124039937E+04  0.15962946715E+04  0.89739500902E+02 0.  0.
    5000000    2    1    2    0    0  0.63908576516E+03  0.36984840615E+03 -0.10552964965E+04  0.14208625893E+04  0.59998445267E+03 0.  0.
         23    2    4    4    0    0 -0.65983917374E+02  0.12295793247E+03 -0.35814345961E+03  0.39502686154E+03  0.91142488298E+02 0.  0.
         23    2    4    4    0    0  0.70506968253E+03  0.24689047368E+03 -0.69715303688E+03  0.10258357278E+04  0.90765744148E+02 0.  0.
          1    1    3    3  502    0 -0.52789674649E+03 -0.34132222418E+03 -0.12127650779E+04  0.13660069436E+04  0.00000000000E+00 0. -1.
         -1    1    3    3    0  502 -0.11118901867E+03 -0.28526181966E+02 -0.19963891580E+03  0.23028772792E+03  0.00000000000E+00 0.  1.
         13    1    5    5    0    0 -0.40457948431E+02  0.11578885635E+03 -0.19953866170E+03  0.23422122525E+03  0.00000000000E+00 0.  1.
        -13    1    5    5    0    0 -0.25525968943E+02  0.71690761120E+01 -0.15860479791E+03  0.16080563629E+03  0.00000000000E+00 0. -1.
          1    1    6    6  503    0  0.44301025015E+03  0.11744332898E+03 -0.46117908733E+03  0.65018241121E+03  0.00000000000E+00 0. -1.
         -1    1    6    6    0  503  0.26205943239E+03  0.12944714470E+03 -0.23597394954E+03  0.37565331655E+03  0.00000000000E+00 0.  1.
<mgrwt>
<rscale>  0 0.82159378E+03</rscale>
<asrwt>0</asrwt>
<pdfrwt beam="1">  1        2 0.42191214E+00 0.82159378E+03</pdfrwt>
<pdfrwt beam="2">  1       -2 0.42265905E-01 0.82159378E+03</pdfrwt>
<totfact> 0.13849286E+01</totfact>
</mgrwt>
</event>
<event>
12    1  0.1418317E-007  0.7559306E+03  0.7818608E-02  0.9626092E-01
          2   -1    0    0  501    0  0.00000000000E+00  0.00000000000E+00  0.12738171032E+04  0.12738171032E+04  0.00000000000E+00 0. -1.
         -2   -1    0    0    0  501 -0.00000000000E+00 -0.00000000000E+00 -0.48609630562E+03  0.48609630562E+03  0.00000000000E+00 0.  1.
         23    2    1    2    0    0 -0.48554241642E+03  0.41814304336E+03  0.12146162509E+03  0.65787242059E+03  0.86302679807E+02 0.  0.
    5000000    2    1    2    0    0  0.48554241642E+03 -0.41814304336E+03  0.66625917252E+03  0.11020409883E+04  0.59999834332E+03 0.  0.
         23    2    4    4    0    0 -0.89858780892E+02 -0.22241157517E+03  0.26285061405E+03  0.36702118459E+03  0.89847623006E+02 0.  0.
         23    2    4    4    0    0  0.57540119731E+03 -0.19573146820E+03  0.40340855847E+03  0.73501980367E+03  0.90101616129E+02 0.  0.
          1    1    3    3  502    0 -0.23780388731E+03  0.17244677831E+03  0.19640760996E+02  0.29440506052E+03  0.00000000000E+00 0.  1.
         -1    1    3    3    0  502 -0.24773852912E+03  0.24569626505E+03  0.10182086409E+03  0.36346736006E+03  0.00000000000E+00 0. -1.
         13    1    5    5    0    0 -0.76020256463E+02 -0.72858014003E+02  0.12144520185E+03  0.16073676197E+03  0.00000000000E+00 0. -1.
        -13    1    5    5    0    0 -0.13838524430E+02 -0.14955356116E+03  0.14140541220E+03  0.20628442262E+03  0.00000000000E+00 0.  1.
          4    1    6    6  503    0  0.29122899481E+03 -0.54151290868E+02  0.21243340923E+03  0.36451974306E+03  0.00000000000E+00 0. -1.
         -4    1    6    6    0  503  0.28417220251E+03 -0.14158017733E+03  0.19097514924E+03  0.37050006062E+03  0.00000000000E+00 0.  1.
<mgrwt>
<rscale>  0 0.75593061E+03</rscale>
<asrwt>0</asrwt>
<pdfrwt beam="1">  1        2 0.19597186E+00 0.75593061E+03</pdfrwt>
<pdfrwt beam="2">  1       -2 0.74784047E-01 0.75593061E+03</pdfrwt>
<totfact> 0.28049212E+01</totfact>
</mgrwt>
</event>
<event>
12    1  0.1418317E-007  0.4448937E+03  0.7818608E-02  0.1029256E+00
         -2   -1    0    0    0  501 -0.00000000000E+00  0.00000000000E+00  0.28002747815E+03  0.28002747815E+03  0.00000000000E+00 0. -1.
          2   -1    0    0  501    0  0.00000000000E+00 -0.00000000000E+00 -0.87302584960E+03  0.87302584960E+03  0.00000000000E+00 0.  1.
         23    2    1    2    0    0  0.14760788449E+03 -0.24077658537E+03 -0.54469010530E+02  0.29882829140E+03  0.81055678423E+02 0.  0.
    5000000    2    1    2    0    0 -0.14760788449E+03  0.24077658537E+03 -0.53852936092E+03  0.85422503635E+03  0.59993757052E+03 0.  0.
         23    2    4    4    0    0 -0.16883651911E+03  0.39089365096E+03 -0.51022590810E+03  0.67126053330E+03  0.94639366712E+02 0.  0.
         23    2    4    4    0    0  0.21228634624E+02 -0.15011706559E+03 -0.28303452826E+02  0.18296450304E+03  0.98433407044E+02 0.  0.
          1    1    3    3  502    0  0.50703170603E+02 -0.10465874823E+03 -0.61573791355E+02  0.13158874144E+03  0.00000000000E+00 0. -1.
         -1    1    3    3    0  502  0.96904713886E+02 -0.13611783714E+03  0.71047808247E+01  0.16723954996E+03  0.00000000000E+00 0.  1.
         13    1    5    5    0    0 -0.15297567233E+03  0.24501528462E+03 -0.35476250321E+03  0.45748276438E+03  0.00000000000E+00 0. -1.
        -13    1    5    5    0    0 -0.15860846786E+02  0.14587836634E+03 -0.15546340488E+03  0.21377776892E+03  0.00000000000E+00 0.  1.
          3    1    6    6  503    0 -0.10383374153E+02 -0.13565939317E+03  0.31393644926E+01  0.13609239885E+03  0.00000000000E+00 0. -1.
         -3    1    6    6    0  503  0.31612008778E+02 -0.14457672417E+02 -0.31442817319E+02  0.46872104194E+02  0.00000000000E+00 0.  1.
<mgrwt>
<rscale>  0 0.44489373E+03</rscale>
<asrwt>0</asrwt>
<pdfrwt beam="1">  1        2 0.13431167E+00 0.44489373E+03</pdfrwt>
<pdfrwt beam="2">  1       -2 0.43081150E-01 0.44489373E+03</pdfrwt>
<totfact> 0.16164300E+02</totfact>
</mgrwt>
</event>
<event>
12    1  0.1418317E-007  0.6120478E+03  0.7818608E-02  0.9880721E-01
         -2   -1    0    0    0  501 -0.00000000000E+00  0.00000000000E+00  0.38088353654E+03  0.38088353654E+03  0.00000000000E+00 0.  1.
          2   -1    0    0  501    0  0.00000000000E+00 -0.00000000000E+00 -0.11217004578E+04  0.11217004578E+04  0.00000000000E+00 0. -1.
         23    2    1    2    0    0  0.29593358701E+03  0.37275520458E+03 -0.50979840509E+03  0.70228434207E+03  0.82375680949E+02 0.  0.
    5000000    2    1    2    0    0 -0.29593358701E+03 -0.37275520458E+03 -0.23101851620E+03  0.80029965230E+03  0.60048884102E+03 0.  0.
         23    2    4    4    0    0 -0.24424895071E+03  0.90566367013E+02 -0.16497278727E+03  0.32130295114E+03  0.90331329641E+02 0.  0.
         23    2    4    4    0    0 -0.51684636293E+02 -0.46332157160E+03 -0.66045728926E+02  0.47899670116E+03  0.87963748658E+02 0.  0.
          1    1    3    3  502    0  0.11057570023E+03  0.18123306320E+03 -0.18068307351E+03  0.27878088480E+03  0.00000000000E+00 0. -1.
         -1    1    3    3    0  502  0.18535788677E+03  0.19152214138E+03 -0.32911533159E+03  0.42350345726E+03  0.00000000000E+00 0.  1.
         11    1    5    5    0    0 -0.19148580877E+03  0.32969667436E+02 -0.94351360791E+02  0.21599998429E+03  0.00000000000E+00 0.  1.
        -11    1    5    5    0    0 -0.52763141948E+02  0.57596699577E+02 -0.70621426480E+02  0.10530296685E+03  0.00000000000E+00 0. -1.
          1    1    6    6  503    0  0.20695669488E+02 -0.14020594108E+03 -0.37750494591E+02  0.14666668500E+03  0.00000000000E+00 0. -1.
         -1    1    6    6    0  503 -0.72380305781E+02 -0.32311563052E+03 -0.28295234335E+02  0.33233001616E+03  0.00000000000E+00 0.  1.
<mgrwt>
<rscale>  0 0.61204776E+03</rscale>
<asrwt>0</asrwt>
<pdfrwt beam="1">  1        2 0.17256930E+00 0.61204776E+03</pdfrwt>
<pdfrwt beam="2">  1       -2 0.58597468E-01 0.61204776E+03</pdfrwt>
<totfact> 0.59254680E+01</totfact>
</mgrwt>
</event>
<event>
12    1  0.1418317E-007  0.8653073E+03  0.7818608E-02  0.9470019E-01
         -2   -1    0    0    0  501 -0.00000000000E+00  0.00000000000E+00  0.59630134247E+03  0.59630134247E+03  0.00000000000E+00 0.  1.
          2   -1    0    0  501    0  0.00000000000E+00 -0.00000000000E+00 -0.17080486179E+04  0.17080486179E+04  0.00000000000E+00 0. -1.
         23    2    1    2    0    0 -0.83306551934E+03  0.95102152978E+02 -0.93305356809E+03  0.12578902652E+04  0.93039665478E+02 0.  0.
    5000000    2    1    2    0    0  0.83306551934E+03 -0.95102152978E+02 -0.17869370735E+03  0.10464596952E+04  0.60008655508E+03 0.  0.
         23    2    4    4    0    0  0.58854459434E+02 -0.65927219098E+02  0.15419739160E+03  0.19833456858E+03  0.88031357502E+02 0.  0.
         23    2    4    4    0    0  0.77421105991E+03 -0.29174933880E+02 -0.33289109895E+03  0.84812512661E+03  0.90806412629E+02 0.  0.
          3    1    3    3  502    0 -0.21602121210E+03  0.43726037708E+02 -0.19287525138E+03  0.29287880265E+03  0.00000000000E+00 0. -1.
         -3    1    3    3    0  502 -0.61704430724E+03  0.51376115270E+02 -0.74017831671E+03  0.96501146255E+03  0.00000000000E+00 0.  1.
         11    1    5    5    0    0  0.58581455288E+02 -0.14191025708E+02  0.38302775040E+02  0.71416207474E+02  0.00000000000E+00 0.  1.
        -11    1    5    5    0    0  0.27300414598E+00 -0.51736193389E+02  0.11589461656E+03  0.12691836110E+03  0.00000000000E+00 0. -1.
          1    1    6    6  503    0  0.26183723945E+03  0.28622222869E+02 -0.13344913444E+03  0.29527384423E+03  0.00000000000E+00 0. -1.
         -1    1    6    6    0  503  0.51237382046E+03 -0.57797156749E+02 -0.19944196452E+03  0.55285128238E+03  0.00000000000E+00 0.  1.
<mgrwt>
<rscale>  0 0.86530735E+03</rscale>
<asrwt>0</asrwt>
<pdfrwt beam="1">  1        2 0.26277671E+00 0.86530735E+03</pdfrwt>
<pdfrwt beam="2">  1       -2 0.91738669E-01 0.86530735E+03</pdfrwt>
<totfact> 0.99427792E+00</totfact>
</mgrwt>
</event>
<event>
12    1  0.1418317E-007  0.1025602E+04  0.7818608E-02  0.9280902E-01
          2   -1    0    0  501    0  0.00000000000E+00  0.00000000000E+00  0.78882951211E+03  0.78882951211E+03  0.00000000000E+00 0. -1.
         -2   -1    0    0    0  501 -0.00000000000E+00 -0.00000000000E+00 -0.13459912938E+04  0.13459912938E+04  0.00000000000E+00 0.  1.
         23    2    1    2    0    0 -0.90628108444E+03  0.25196383384E+03 -0.25932014572E+03  0.98003635619E+03  0.91614103193E+02 0.  0.
    5000000    2    1    2    0    0  0.90628108444E+03 -0.25196383384E+03 -0.29784163601E+03  0.11547844497E+04  0.59998858961E+03 0.  0.
         23    2    4    4    0    0  0.82956769496E+03 -0.40260458546E+03 -0.23933904388E+03  0.95715665561E+03  0.92696670372E+02 0.  0.
         23    2    4    4    0    0  0.76713389474E+02  0.15064075162E+03 -0.58502592126E+02  0.19762779413E+03  0.84003640135E+02 0.  0.
          4    1    3    3  502    0 -0.56225702055E+03  0.19684774840E+03 -0.18502589670E+03  0.62379209329E+03  0.00000000000E+00 0. -1.
         -4    1    3    3    0  502 -0.34402406389E+03  0.55116085447E+02 -0.74294249016E+02  0.35624426289E+03  0.00000000000E+00 0.  1.
         13    1    5    5    0    0  0.48622479902E+03 -0.21160621318E+03 -0.95767720194E+02  0.53885359873E+03  0.00000000000E+00 0.  1.
        -13    1    5    5    0    0  0.34334289594E+03 -0.19099837228E+03 -0.14357132369E+03  0.41830305688E+03  0.00000000000E+00 0. -1.
          1    1    6    6  503    0  0.86152307747E+02  0.15164929985E+03 -0.43303479389E+02  0.17970787852E+03  0.00000000000E+00 0. -1.
         -1    1    6    6    0  503 -0.94389182731E+01 -0.10085482284E+01 -0.15199112737E+02  0.17919915616E+02  0.00000000000E+00 0.  1.
<mgrwt>
<rscale>  0 0.10256020E+04</rscale>
<asrwt>0</asrwt>
<pdfrwt beam="1">  1        2 0.12135839E+00 0.10256020E+04</pdfrwt>
<pdfrwt beam="2">  1       -2 0.20707558E+00 0.10256020E+04</pdfrwt>
<totfact> 0.41587671E+00</totfact>
</mgrwt>
</event>
<event>
12    1  0.1418317E-007  0.5460448E+03  0.7818608E-02  0.1002414E+00
          1   -1    0    0  501    0  0.00000000000E+00  0.00000000000E+00  0.24424501362E+04  0.24424501362E+04  0.00000000000E+00 0. -1.
         -1   -1    0    0    0  501 -0.00000000000E+00 -0.00000000000E+00 -0.28404237781E+03  0.28404237781E+03  0.00000000000E+00 0.  1.
         23    2    1    2    0    0 -0.43067995336E+03 -0.11757884419E+03  0.14305898486E+02  0.45573493962E+03  0.90441526002E+02 0.  0.
    5000000    2    1    2    0    0  0.43067995336E+03  0.11757884419E+03  0.21441018599E+04  0.22707575744E+04  0.59988096251E+03 0.  0.
         23    2    4    4    0    0  0.48889274154E+03  0.20286177361E+03  0.20036919203E+04  0.20745130955E+04  0.93028274878E+02 0.  0.
         23    2    4    4    0    0 -0.58212788183E+02 -0.85282929414E+02  0.14040993960E+03  0.19624447890E+03  0.90194443313E+02 0.  0.
          3    1    3    3  502    0 -0.23909384865E+03 -0.24795326307E+02 -0.15063187588E+02  0.24084762047E+03  0.00000000000E+00 0. -1.
         -3    1    3    3    0  502 -0.19158610472E+03 -0.92783517887E+02  0.29369086075E+02  0.21488731914E+03  0.00000000000E+00 0.  1.
         11    1    5    5    0    0  0.29770420151E+03  0.12938129895E+03  0.13955977997E+04  0.14328504914E+04  0.00000000000E+00 0. -1.
        -11    1    5    5    0    0  0.19118854004E+03  0.73480474659E+02  0.60809412057E+03  0.64166260407E+03  0.00000000000E+00 0.  1.
          1    1    6    6  503    0 -0.53871796712E+02 -0.48838564012E+02  0.14197126295E+03  0.15950929540E+03  0.00000000000E+00 0. -1.
         -1    1    6    6    0  503 -0.43409914711E+01 -0.36444365402E+02 -0.15613233486E+01  0.36735183505E+02  0.00000000000E+00 0.  1.
<mgrwt>
<rscale>  0 0.54604480E+03</rscale>
<asrwt>0</asrwt>
<pdfrwt beam="1">  1        1 0.37576155E+00 0.54604480E+03</pdfrwt>
<pdfrwt beam="2">  1       -1 0.43698829E-01 0.54604480E+03</pdfrwt>
<totfact> 0.84331173E+00</totfact>
</mgrwt>
</event>
<event>
12    1  0.1418317E-007  0.1205628E+04  0.7818608E-02  0.9107944E-01
          1   -1    0    0  501    0  0.00000000000E+00  0.00000000000E+00  0.26162979236E+04  0.26162979236E+04  0.00000000000E+00 0. -1.
         -1   -1    0    0    0  501 -0.00000000000E+00 -0.00000000000E+00 -0.65085457782E+03  0.65085457782E+03  0.00000000000E+00 0.  1.
         23    2    1    2    0    0  0.55547064845E+03  0.10458009174E+04  0.49694101123E+03  0.12874879062E+04  0.91801632288E+02 0.  0.
    5000000    2    1    2    0    0 -0.55547064845E+03 -0.10458009174E+04  0.14685023345E+04  0.19796645952E+04  0.60027127446E+03 0.  0.
         23    2    4    4    0    0 -0.50200930357E+03 -0.96768462551E+03  0.14856447847E+04  0.18450397869E+04  0.92760516856E+02 0.  0.
         23    2    4    4    0    0 -0.53461344881E+02 -0.78116291919E+02 -0.17142450192E+02  0.13462480836E+03  0.94179111099E+02 0.  0.
          3    1    3    3  502    0  0.77029351526E+02  0.12018874644E+03  0.30903642557E+02  0.14606125733E+03  0.00000000000E+00 0. -1.
         -3    1    3    3    0  502  0.47844129692E+03  0.92561217098E+03  0.46603736867E+03  0.11414266488E+04  0.00000000000E+00 0.  1.
         11    1    5    5    0    0 -0.13358917095E+03 -0.34040905852E+03  0.53346583477E+03  0.64676903960E+03  0.00000000000E+00 0.  1.
        -11    1    5    5    0    0 -0.36842013261E+03 -0.62727556699E+03  0.95217894995E+03  0.11982707473E+04  0.00000000000E+00 0. -1.
          4    1    6    6  503    0 -0.31107057790E+02 -0.98409088149E+02 -0.15731887357E+02  0.10440062239E+03  0.00000000000E+00 0.  1.
         -4    1    6    6    0  503 -0.22354287090E+02  0.20292796231E+02 -0.14105628349E+01  0.30224185972E+02  0.00000000000E+00 0. -1.
<mgrwt>
<rscale>  0 0.12056283E+04</rscale>
<asrwt>0</asrwt>
<pdfrwt beam="1">  1        1 0.40250737E+00 0.12056283E+04</pdfrwt>
<pdfrwt beam="2">  1       -1 0.10013147E+00 0.12056283E+04</pdfrwt>
<totfact> 0.10580265E+00</totfact>
</mgrwt>
</event>
<event>
12    1  0.1418317E-007  0.1094351E+04  0.7818608E-02  0.9210715E-01
          3   -1    0    0  501    0  0.00000000000E+00  0.00000000000E+00  0.16029273746E+04  0.16029273746E+04  0.00000000000E+00 0. -1.
         -3   -1    0    0    0  501 -0.00000000000E+00 -0.00000000000E+00 -0.84815317150E+03  0.84815317150E+03  0.00000000000E+00 0.  1.
         23    2    1    2    0    0  0.10805859385E+04  0.47431421711E+02  0.24556351589E+03  0.11134205921E+04  0.97407722683E+02 0.  0.
    5000000    2    1    2    0    0 -0.10805859385E+04 -0.47431421711E+02  0.50921068725E+03  0.13376599540E+04  0.60010242329E+03 0.  0.
         23    2    4    4    0    0 -0.10204968429E+04 -0.68237136572E+02  0.25176564316E+03  0.10572010497E+04  0.90653224637E+02 0.  0.
         23    2    4    4    0    0 -0.60089095558E+02  0.20805714861E+02  0.25744504408E+03  0.28045890437E+03  0.91299885767E+02 0.  0.
          1    1    3    3  502    0  0.18529167238E+03 -0.26619198025E+02  0.54634849682E+02  0.19500398036E+03  0.00000000000E+00 0. -1.
         -1    1    3    3    0  502  0.89529426607E+03  0.74050619737E+02  0.19092866621E+03  0.91841661175E+03  0.00000000000E+00 0.  1.
         13    1    5    5    0    0 -0.43262738558E+03 -0.67675083761E+02  0.13089724218E+03  0.45703441854E+03  0.00000000000E+00 0. -1.
        -13    1    5    5    0    0 -0.58786945731E+03 -0.56205281101E+00  0.12086840099E+03  0.60016663111E+03  0.00000000000E+00 0.  1.
          3    1    6    6  503    0 -0.67034482210E+02  0.15896197783E+02  0.26193328265E+03  0.27084193816E+03  0.00000000000E+00 0.  1.
         -3    1    6    6    0  503  0.69453866514E+01  0.49095170777E+01 -0.44882385619E+01  0.96169662089E+01  0.00000000000E+00 0. -1.
<mgrwt>
<rscale>  0 0.10943513E+04</rscale>
<asrwt>0</asrwt>
<pdfrwt beam="1">  1        3 0.24660421E+00 0.10943513E+04</pdfrwt>
<pdfrwt beam="2">  1       -3 0.13048510E+00 0.10943513E+04</pdfrwt>
<totfact> 0.89609195E-02</totfact>
</mgrwt>
</event>
<event>
12    1  0.1418317E-007  0.1247911E+04  0.7818608E-02  0.9071924E-01
         -2   -1    0    0    0  501 -0.00000000000E+00  0.00000000000E+00  0.35908805044E+04  0.35908805044E+04  0.00000000000E+00 0.  1.
          2   -1    0    0  501    0  0.00000000000E+00 -0.00000000000E+00 -0.12323522339E+04  0.12323522339E+04  0.00000000000E+00 0. -1.
         23    2    1    2    0    0  0.11397418768E+04  0.50134750770E+03  0.30368990516E+04  0.32835175982E+04  0.91493708698E+02 0.  0.
    5000000    2    1    2    0    0 -0.11397418768E+04 -0.50134750770E+03 -0.67837078104E+03  0.15397151401E+04  0.60014575475E+03 0.  0.
         23    2    4    4    0    0 -0.73364991664E+03 -0.34954055649E+03 -0.72670069149E+03  0.10934215126E+04  0.83999454090E+02 0.  0.
         23    2    4    4    0    0 -0.40609196018E+03 -0.15180695121E+03  0.48329910448E+02  0.44629362758E+03  0.94266596523E+02 0.  0.
          1    1    3    3  502    0  0.36160023510E+03  0.20526348485E+03  0.10335678943E+04  0.11140693068E+04  0.00000000000E+00 0. -1.
         -1    1    3    3    0  502  0.77814164172E+03  0.29608402284E+03  0.20033311573E+04  0.21694482914E+04  0.00000000000E+00 0.  1.
         11    1    5    5    0    0 -0.56501132125E+03 -0.28691425040E+03 -0.52280379805E+03  0.82151165024E+03  0.00000000000E+00 0.  1.
        -11    1    5    5    0    0 -0.16863859540E+03 -0.62626306083E+02 -0.20389689344E+03  0.27190986232E+03  0.00000000000E+00 0. -1.
          3    1    6    6  503    0 -0.23268898176E+03 -0.77908638901E+02  0.73431146904E+02  0.25613678296E+03  0.00000000000E+00 0. -1.
         -3    1    6    6    0  503 -0.17340297842E+03 -0.73898312307E+02 -0.25101236456E+02  0.19015684463E+03  0.00000000000E+00 0.  1.
<mgrwt>
<rscale>  0 0.12479109E+04</rscale>
<asrwt>0</asrwt>
<pdfrwt beam="1">  1        2 0.18959265E+00 0.12479109E+04</pdfrwt>
<pdfrwt beam="2">  1       -2 0.55244315E+00 0.12479109E+04</pdfrwt>
<totfact> 0.14328057E-02</totfact>
</mgrwt>
</event>
<event>
12    1  0.1418317E-007  0.1213855E+04  0.7818608E-02  0.9100815E-01
         -1   -1    0    0    0  501 -0.00000000000E+00  0.00000000000E+00  0.21502201077E+04  0.21502201077E+04  0.00000000000E+00 0.  1.
          1   -1    0    0  501    0  0.00000000000E+00 -0.00000000000E+00 -0.16647860935E+04  0.16647860935E+04  0.00000000000E+00 0. -1.
         23    2    1    2    0    0  0.80046488720E+03  0.87391045279E+03 -0.11865598309E+04  0.16795979637E+04  0.93067567071E+02 0.  0.
    5000000    2    1    2    0    0 -0.80046488720E+03 -0.87391045279E+03  0.16719938450E+04  0.21354082376E+04  0.59995117146E+03 0.  0.
         23    2    4    4    0    0 -0.32482704071E+02 -0.18075972423E+03  0.63611496321E+03  0.66853801403E+03  0.92583075245E+02 0.  0.
         23    2    4    4    0    0 -0.76798218313E+03 -0.69315072856E+03  0.10358788818E+04  0.14668702236E+04  0.91698575790E+02 0.  0.
          1    1    3    3  502    0  0.14659306033E+03  0.21286891675E+03 -0.23848679324E+03  0.35167975717E+03  0.00000000000E+00 0. -1.
         -1    1    3    3    0  502  0.65387182687E+03  0.66104153604E+03 -0.94807303767E+03  0.13279182065E+04  0.00000000000E+00 0.  1.
         11    1    5    5    0    0 -0.28460550559E+02 -0.18965604297E+03  0.62491247395E+03  0.65367806883E+03  0.00000000000E+00 0.  1.
        -11    1    5    5    0    0 -0.40221535121E+01  0.88963187326E+01  0.11202489260E+02  0.14859945205E+02  0.00000000000E+00 0. -1.
          3    1    6    6  503    0 -0.49038674738E+03 -0.38745735598E+03  0.64958922238E+03  0.90142582754E+03  0.00000000000E+00 0. -1.
         -3    1    6    6    0  503 -0.27759543575E+03 -0.30569337258E+03  0.38628965946E+03  0.56544439602E+03  0.00000000000E+00 0.  1.
<mgrwt>
<rscale>  0 0.12138554E+04</rscale>
<asrwt>0</asrwt>
<pdfrwt beam="1">  1        1 0.25612094E+00 0.12138554E+04</pdfrwt>
<pdfrwt beam="2">  1       -1 0.33080309E+00 0.12138554E+04</pdfrwt>
<totfact> 0.10315061E-01</totfact>
</mgrwt>
</event>
<event>
12    1  0.1418317E-007  0.6619648E+03  0.7818608E-02  0.9784584E-01
         -2   -1    0    0    0  501 -0.00000000000E+00  0.00000000000E+00  0.66365411777E+03  0.66365411777E+03  0.00000000000E+00 0.  1.
          2   -1    0    0  501    0  0.00000000000E+00 -0.00000000000E+00 -0.92821853460E+03  0.92821853460E+03  0.00000000000E+00 0. -1.
         23    2    1    2    0    0 -0.20913270235E+03  0.56486783056E+03 -0.40265482757E+03  0.73055318595E+03  0.93621013405E+02 0.  0.
    5000000    2    1    2    0    0  0.20913270235E+03 -0.56486783056E+03  0.13809041074E+03  0.86131946641E+03  0.59999175702E+03 0.  0.
         23    2    4    4    0    0  0.30769666333E+03 -0.39457822620E+03 -0.12287795800E+03  0.52311424728E+03  0.90445065762E+02 0.  0.
         23    2    4    4    0    0 -0.98563960978E+02 -0.17028960435E+03  0.26096836874E+03  0.33820521914E+03  0.86976301432E+02 0.  0.
          1    1    3    3  502    0 -0.12387749246E+03  0.23599757281E+03 -0.13962129171E+03  0.30088966849E+03  0.00000000000E+00 0. -1.
         -1    1    3    3    0  502 -0.85255209891E+02  0.32887025775E+03 -0.26303353586E+03  0.42966351746E+03  0.00000000000E+00 0.  1.
         13    1    5    5    0    0  0.10838909657E+03 -0.99344177647E+02 -0.70552442896E+02  0.16308006956E+03  0.00000000000E+00 0. -1.
        -13    1    5    5    0    0  0.19930756676E+03 -0.29523404856E+03 -0.52325515105E+02  0.36003417772E+03  0.00000000000E+00 0.  1.
          4    1    6    6  503    0 -0.50003310132E+02 -0.15751384855E+02  0.52433555097E+02  0.74146576786E+02  0.00000000000E+00 0. -1.
         -4    1    6    6    0  503 -0.48560650846E+02 -0.15453821950E+03  0.20853481365E+03  0.26405864235E+03  0.00000000000E+00 0.  1.
<mgrwt>
<rscale>  0 0.66196477E+03</rscale>
<asrwt>0</asrwt>
<pdfrwt beam="1">  1        2 0.14280285E+00 0.66196477E+03</pdfrwt>
<pdfrwt beam="2">  1       -2 0.10210063E+00 0.66196477E+03</pdfrwt>
<totfact> 0.22619652E+01</totfact>
</mgrwt>
</event>
<event>
12    1  0.1418317E-007  0.9543538E+03  0.7818608E-02  0.9360076E-01
         -1   -1    0    0    0  501 -0.00000000000E+00  0.00000000000E+00  0.91098766386E+03  0.91098766386E+03  0.00000000000E+00 0.  1.
          1   -1    0    0  501    0  0.00000000000E+00 -0.00000000000E+00 -0.11839907739E+04  0.11839907739E+04  0.00000000000E+00 0. -1.
         23    2    1    2    0    0 -0.88165254460E+03  0.25643654383E+03 -0.36967639416E+03  0.99392731811E+03  0.90332535009E+02 0.  0.
    5000000    2    1    2    0    0  0.88165254460E+03 -0.25643654383E+03  0.96673284138E+02  0.11010511196E+04  0.59991410533E+03 0.  0.
         23    2    4    4    0    0  0.35757529939E+03 -0.27648663353E+03 -0.18540090439E+03  0.49702707225E+03  0.91419155233E+02 0.  0.
         23    2    4    4    0    0  0.52407724520E+03  0.20050089701E+02  0.28207418853E+03  0.60402404738E+03  0.10109518756E+03 0.  0.
          4    1    3    3  502    0 -0.26267677922E+03  0.11886714958E+03 -0.10546726715E+03  0.30700461566E+03  0.00000000000E+00 0. -1.
         -4    1    3    3    0  502 -0.61897576537E+03  0.13756939424E+03 -0.26420912701E+03  0.68692270245E+03  0.00000000000E+00 0.  1.
         13    1    5    5    0    0  0.12195658405E+03 -0.10988718392E+03 -0.22616170394E+02  0.16571087094E+03  0.00000000000E+00 0.  1.
        -13    1    5    5    0    0  0.23561871534E+03 -0.16659944961E+03 -0.16278473400E+03  0.33131620131E+03  0.00000000000E+00 0. -1.
          4    1    6    6  503    0  0.13813560050E+03  0.48963501544E+02  0.65531513689E+02  0.16054048678E+03  0.00000000000E+00 0. -1.
         -4    1    6    6    0  503  0.38594164470E+03 -0.28913411842E+02  0.21654267484E+03  0.44348356061E+03  0.00000000000E+00 0.  1.
<mgrwt>
<rscale>  0 0.95435376E+03</rscale>
<asrwt>0</asrwt>
<pdfrwt beam="1">  1        1 0.18215243E+00 0.95435376E+03</pdfrwt>
<pdfrwt beam="2">  1       -1 0.14015195E+00 0.95435376E+03</pdfrwt>
<totfact> 0.46293231E+00</totfact>
</mgrwt>
</event>
<event>
12    1  0.1418317E-007  0.4252202E+03  0.7818608E-02  0.1035381E+00
          2   -1    0    0  501    0  0.00000000000E+00  0.00000000000E+00  0.13295589616E+04  0.13295589616E+04  0.00000000000E+00 0. -1.
         -2   -1    0    0    0  501 -0.00000000000E+00 -0.00000000000E+00 -0.18496271517E+03  0.18496271517E+03  0.00000000000E+00 0.  1.
         23    2    1    2    0    0  0.18046639426E+03  0.24462098379E+03  0.30568143117E+03  0.43919205429E+03  0.83910535804E+02 0.  0.
    5000000    2    1    2    0    0 -0.18046639426E+03 -0.24462098379E+03  0.83891481530E+03  0.10753296225E+04  0.60012347444E+03 0.  0.
         23    2    4    4    0    0  0.38755073487E+01 -0.32677377287E+03  0.18816176355E+03  0.38799196974E+03  0.91306084832E+02 0.  0.
         23    2    4    4    0    0 -0.18434190161E+03  0.82152789076E+02  0.65075305174E+03  0.68733765278E+03  0.90677985912E+02 0.  0.
          3    1    3    3  502    0  0.95593204889E+02  0.13602863911E+03  0.10818116730E+03  0.19835578247E+03  0.00000000000E+00 0. -1.
         -3    1    3    3    0  502  0.84873189370E+02  0.10859234468E+03  0.19750026386E+03  0.24083627182E+03  0.00000000000E+00 0.  1.
         11    1    5    5    0    0  0.13766218051E+02 -0.27755604428E+03  0.19179821050E+03  0.33765873308E+03  0.00000000000E+00 0.  1.
        -11    1    5    5    0    0 -0.98907107023E+01 -0.49217728593E+02 -0.36364469526E+01  0.50333236659E+02  0.00000000000E+00 0. -1.
          1    1    6    6  503    0 -0.76193076279E+02  0.79442996127E+02  0.38448742906E+03  0.39993394156E+03  0.00000000000E+00 0. -1.
         -1    1    6    6    0  503 -0.10814882533E+03  0.27097929492E+01  0.26626562269E+03  0.28740371122E+03  0.00000000000E+00 0.  1.
<mgrwt>
<rscale>  0 0.42522024E+03</rscale>
<asrwt>0</asrwt>
<pdfrwt beam="1">  1        2 0.20454753E+00 0.42522024E+03</pdfrwt>
<pdfrwt beam="2">  1       -2 0.28455803E-01 0.42522024E+03</pdfrwt>
<totfact> 0.18766204E+02</totfact>
</mgrwt>
</event>
<event>
12    1  0.1418317E-007  0.5546282E+03  0.7818608E-02  0.1000428E+00
          2   -1    0    0  501    0  0.00000000000E+00  0.00000000000E+00  0.17491397483E+04  0.17491397483E+04  0.00000000000E+00 0. -1.
         -2   -1    0    0    0  501 -0.00000000000E+00 -0.00000000000E+00 -0.36805463617E+03  0.36805463617E+03  0.00000000000E+00 0.  1.
         23    2    1    2    0    0  0.39441331413E+03  0.25601371561E+03  0.12561974064E+04  0.13444909303E+04  0.92298715386E+02 0.  0.
    5000000    2    1    2    0    0 -0.39441331413E+03 -0.25601371561E+03  0.12488770579E+03  0.77270345422E+03  0.60030725813E+03 0.  0.
         23    2    4    4    0    0 -0.43091487588E+03 -0.33192194941E+03 -0.55062077166E+02  0.55416756969E+03  0.90609338327E+02 0.  0.
         23    2    4    4    0    0  0.36501561753E+02  0.75908233806E+02  0.17994978295E+03  0.21853588453E+03  0.91003211338E+02 0.  0.
          1    1    3    3  502    0  0.19685044220E+03  0.10751857102E+03  0.47840622928E+03  0.52837757326E+03  0.00000000000E+00 0.  1.
         -1    1    3    3    0  502  0.19756287193E+03  0.14849514458E+03  0.77779117707E+03  0.81611335699E+03  0.00000000000E+00 0. -1.
         13    1    5    5    0    0 -0.17971316302E+03 -0.19538797787E+03 -0.30182354531E+02  0.26717832507E+03  0.00000000000E+00 0. -1.
        -13    1    5    5    0    0 -0.25120171286E+03 -0.13653397154E+03 -0.24879722635E+02  0.28698924462E+03  0.00000000000E+00 0.  1.
          4    1    6    6  503    0  0.93954138245E+00  0.20955665632E+02  0.14061395415E+03  0.14216999248E+03  0.00000000000E+00 0. -1.
         -4    1    6    6    0  503  0.35562020371E+02  0.54952568174E+02  0.39335828808E+02  0.76365892058E+02  0.00000000000E+00 0.  1.
<mgrwt>
<rscale>  0 0.55462818E+03</rscale>
<asrwt>0</asrwt>
<pdfrwt beam="1">  1        2 0.26909842E+00 0.55462818E+03</pdfrwt>
<pdfrwt beam="2">  1       -2 0.56623791E-01 0.55462818E+03</pdfrwt>
<totfact> 0.28488707E+01</totfact>
</mgrwt>
</event>
<event>
12    1  0.1418317E-007  0.1369735E+04  0.7818608E-02  0.8976022E-01
          1   -1    0    0  501    0  0.00000000000E+00  0.00000000000E+00  0.15137950648E+04  0.15137950648E+04  0.00000000000E+00 0. -1.
         -1   -1    0    0    0  501 -0.00000000000E+00 -0.00000000000E+00 -0.13445232906E+04  0.13445232906E+04  0.00000000000E+00 0.  1.
         23    2    1    2    0    0 -0.62871059969E+03 -0.11455937567E+04 -0.30347102233E+03  0.13446406504E+04  0.91113905547E+02 0.  0.
    5000000    2    1    2    0    0  0.62871059969E+03  0.11455937567E+04  0.47274279648E+03  0.15136777050E+04  0.60006030491E+03 0.  0.
         23    2    4    4    0    0 -0.91851781541E+02  0.26779292713E+03  0.75128281432E+02  0.30690853991E+03  0.91644921347E+02 0.  0.
         23    2    4    4    0    0  0.72056238123E+03  0.87780082953E+03  0.39761451505E+03  0.12067691651E+04  0.91924282161E+02 0.  0.
          1    1    3    3  502    0 -0.17738524587E+03 -0.25149431266E+03 -0.89194616545E+02  0.32042252476E+03  0.00000000000E+00 0. -1.
         -1    1    3    3    0  502 -0.45132535382E+03 -0.89409944400E+03 -0.21427640579E+03  0.10242181256E+04  0.00000000000E+00 0.  1.
         13    1    5    5    0    0 -0.39115370438E+02  0.20567773580E+03  0.24052624393E+02  0.21074124406E+03  0.00000000000E+00 0. -1.
        -13    1    5    5    0    0 -0.52736411104E+02  0.62115191332E+02  0.51075657039E+02  0.96167295856E+02  0.00000000000E+00 0.  1.
          1    1    6    6  503    0  0.73351495347E+02  0.13862200640E+03  0.50125778900E+02  0.16464840187E+03  0.00000000000E+00 0. -1.
         -1    1    6    6    0  503  0.64721088588E+03  0.73917882313E+03  0.34748873615E+03  0.10421207632E+04  0.00000000000E+00 0.  1.
<mgrwt>
<rscale>  0 0.13697353E+04</rscale>
<asrwt>0</asrwt>
<pdfrwt beam="1">  1        1 0.23289155E+00 0.13697353E+04</pdfrwt>
<pdfrwt beam="2">  1       -1 0.20684974E+00 0.13697353E+04</pdfrwt>
<totfact> 0.83008343E-01</totfact>
</mgrwt>
</event>
<event>
12    1  0.1418317E-007  0.4947843E+03  0.7818608E-02  0.1015149E+00
          2   -1    0    0  501    0  0.00000000000E+00  0.00000000000E+00  0.34073718671E+04  0.34073718671E+04  0.00000000000E+00 0. -1.
         -2   -1    0    0    0  501 -0.00000000000E+00 -0.00000000000E+00 -0.17259249699E+03  0.17259249699E+03  0.00000000000E+00 0.  1.
         23    2    1    2    0    0  0.68128123716E+02  0.33196768425E+03  0.26590158991E+04  0.26821444234E+04  0.93215726811E+02 0.  0.
    5000000    2    1    2    0    0 -0.68128123716E+02 -0.33196768425E+03  0.57576347099E+03  0.89781994067E+03  0.59977753102E+03 0.  0.
         23    2    4    4    0    0  0.17592498488E+03 -0.34444769578E+03  0.21298673402E+03  0.45101853631E+03  0.91981279614E+02 0.  0.
         23    2    4    4    0    0 -0.24405310860E+03  0.12480011528E+02  0.36277673697E+03  0.44680140436E+03  0.91141996598E+02 0.  0.
          1    1    3    3  502    0  0.57672074924E+02  0.18687895066E+03  0.18344329520E+04  0.18448290072E+04  0.00000000000E+00 0. -1.
         -1    1    3    3    0  502  0.10456048792E+02  0.14508873359E+03  0.82458294711E+03  0.83731541622E+03  0.00000000000E+00 0.  1.
         11    1    5    5    0    0  0.31552378512E+02 -0.87138031503E+02  0.96546832005E+02  0.13382779941E+03  0.00000000000E+00 0.  1.
        -11    1    5    5    0    0  0.14437260637E+03 -0.25730966427E+03  0.11643990201E+03  0.31719073691E+03  0.00000000000E+00 0. -1.
          2    1    6    6  503    0  0.35021997324E+01  0.12781480384E+02  0.17722108777E+02  0.22129274351E+02  0.00000000000E+00 0. -1.
         -2    1    6    6    0  503 -0.24755530833E+03 -0.30146885685E+00  0.34505462820E+03  0.42467213001E+03  0.00000000000E+00 0.  1.
<mgrwt>
<rscale>  0 0.49478431E+03</rscale>
<asrwt>0</asrwt>
<pdfrwt beam="1">  1        2 0.52421101E+00 0.49478431E+03</pdfrwt>
<pdfrwt beam="2">  1       -2 0.26552694E-01 0.49478431E+03</pdfrwt>
<totfact> 0.13789328E+01</totfact>
</mgrwt>
</event>
<event>
12    1  0.1418317E-007  0.1969855E+04  0.7818608E-02  0.8620846E-01
          1   -1    0    0  501    0  0.00000000000E+00  0.00000000000E+00  0.13714508594E+04  0.13714508594E+04  0.00000000000E+00 0. -1.
         -1   -1    0    0    0  501 -0.00000000000E+00 -0.00000000000E+00 -0.28589333169E+04  0.28589333169E+04  0.00000000000E+00 0.  1.
         23    2    1    2    0    0 -0.18538236011E+04 -0.52118941285E+03 -0.54161608167E+03  0.20025620716E+04  0.92771344267E+02 0.  0.
    5000000    2    1    2    0    0  0.18538236011E+04  0.52118941285E+03 -0.94586637584E+03  0.22278221048E+04  0.60018978783E+03 0.  0.
         23    2    4    4    0    0  0.39128734323E+03  0.36116986012E+03 -0.29827764021E+03  0.61740303747E+03  0.93099447896E+02 0.  0.
         23    2    4    4    0    0  0.14625362579E+04  0.16001955273E+03 -0.64758873562E+03  0.16104190673E+04  0.97261703095E+02 0.  0.
          2    1    3    3  502    0 -0.11572513505E+04 -0.34946406947E+03 -0.37964490715E+03  0.12670777717E+04  0.00000000000E+00 0. -1.
         -2    1    3    3    0  502 -0.69657225068E+03 -0.17172534338E+03 -0.16197117451E+03  0.73548429986E+03  0.00000000000E+00 0.  1.
         13    1    5    5    0    0  0.12664203112E+02  0.45264338747E+02 -0.33392347968E+02  0.57656667485E+02  0.00000000000E+00 0. -1.
        -13    1    5    5    0    0  0.37862314012E+03  0.31590552137E+03 -0.26488529225E+03  0.55974636999E+03  0.00000000000E+00 0.  1.
          2    1    6    6  503    0  0.14202205062E+03  0.38892686611E+02 -0.45896610196E+02  0.15423813653E+03  0.00000000000E+00 0. -1.
         -2    1    6    6    0  503  0.13205142073E+04  0.12112686612E+03 -0.60169212543E+03  0.14561809308E+04  0.00000000000E+00 0.  1.
<mgrwt>
<rscale>  0 0.19698545E+04</rscale>
<asrwt>0</asrwt>
<pdfrwt beam="1">  1        1 0.21099244E+00 0.19698545E+04</pdfrwt>
<pdfrwt beam="2">  1       -1 0.43983589E+00 0.19698545E+04</pdfrwt>
<totfact> 0.27452610E-02</totfact>
</mgrwt>
</event>
<event>
12    1  0.1418317E-007  0.3913430E+03  0.7818608E-02  0.1046819E+00
         -2   -1    0    0    0  501 -0.00000000000E+00  0.00000000000E+00  0.10957507721E+03  0.10957507721E+03  0.00000000000E+00 0.  1.
          2   -1    0    0  501    0  0.00000000000E+00 -0.00000000000E+00 -0.19444807131E+04  0.19444807131E+04  0.00000000000E+00 0. -1.
         23    2    1    2    0    0 -0.19952554386E+03  0.15302910979E+03 -0.57727549151E+03  0.63802798955E+03  0.10297752786E+03 0.  0.
    5000000    2    1    2    0    0  0.19952554386E+03 -0.15302910979E+03 -0.12576301443E+04  0.14160278007E+04  0.60022729142E+03 0.  0.
         23    2    4    4    0    0  0.28998341724E+02  0.14692734883E+03 -0.87772717554E+03  0.89511980203E+03  0.91683780731E+02 0.  0.
         23    2    4    4    0    0  0.17052720214E+03 -0.29995645862E+03 -0.37990296879E+03  0.52090799869E+03  0.89249502286E+02 0.  0.
          3    1    3    3  502    0 -0.11284951893E+03  0.14353041784E+03 -0.42491716352E+03  0.46248307063E+03  0.00000000000E+00 0. -1.
         -3    1    3    3    0  502 -0.86676024931E+02  0.94986919489E+01 -0.15235832800E+03  0.17554491891E+03  0.00000000000E+00 0.  1.
         11    1    5    5    0    0 -0.19409169769E+02  0.76074220341E+02 -0.26413341921E+03  0.27555483305E+03  0.00000000000E+00 0. -1.
        -11    1    5    5    0    0  0.48407511492E+02  0.70853128490E+02 -0.61359375633E+03  0.61956496898E+03  0.00000000000E+00 0.  1.
          3    1    6    6  503    0  0.80527311312E+02 -0.93688818312E+02 -0.18901426301E+03  0.22580663003E+03  0.00000000000E+00 0. -1.
         -3    1    6    6    0  503  0.89999890826E+02 -0.20626764031E+03 -0.19088870579E+03  0.29510136866E+03  0.00000000000E+00 0.  1.
<mgrwt>
<rscale>  0 0.39134298E+03</rscale>
<asrwt>0</asrwt>
<pdfrwt beam="1">  1        2 0.29915088E+00 0.39134298E+03</pdfrwt>
<pdfrwt beam="2">  1       -2 0.16857704E-01 0.39134298E+03</pdfrwt>
<totfact> 0.21964860E+02</totfact>
</mgrwt>
</event>
<event>
12    1  0.1418317E-007  0.1210186E+04  0.7818608E-02  0.9103987E-01
          1   -1    0    0  501    0  0.00000000000E+00  0.00000000000E+00  0.24118468658E+04  0.24118468658E+04  0.00000000000E+00 0. -1.
         -1   -1    0    0    0  501 -0.00000000000E+00 -0.00000000000E+00 -0.11130649540E+04  0.11130649540E+04  0.00000000000E+00 0.  1.
         23    2    1    2    0    0 -0.98591988333E+03 -0.64147734768E+03  0.17664947388E+04  0.21241411765E+04  0.89111567815E+02 0.  0.
    5000000    2    1    2    0    0  0.98591988333E+03  0.64147734768E+03 -0.46771282705E+03  0.14007706432E+04  0.59989324241E+03 0.  0.
         23    2    4    4    0    0  0.82956680211E+02  0.19791282669E+03 -0.29486214387E+03  0.37592796479E+03  0.91251592117E+02 0.  0.
         23    2    4    4    0    0  0.90296320312E+03  0.44356452099E+03 -0.17285068317E+03  0.10248426784E+04  0.91285958979E+02 0.  0.
          1    1    3    3  502    0 -0.38107312666E+03 -0.29735623598E+03  0.69839156562E+03  0.84934577050E+03  0.00000000000E+00 0. -1.
         -1    1    3    3    0  502 -0.60484675667E+03 -0.34412111170E+03  0.10681031732E+04  0.12747954060E+04  0.00000000000E+00 0.  1.
         13    1    5    5    0    0  0.10074428540E+03  0.15980995218E+03 -0.25952460911E+03  0.32100101961E+03  0.00000000000E+00 0.  1.
        -13    1    5    5    0    0 -0.17787605186E+02  0.38102874509E+02 -0.35337534762E+02  0.54926945183E+02  0.00000000000E+00 0. -1.
          3    1    6    6  503    0  0.65400834944E+03  0.36572286873E+03 -0.12867606523E+03  0.76028788469E+03  0.00000000000E+00 0. -1.
         -3    1    6    6    0  503  0.24895485369E+03  0.77841652265E+02 -0.44174617943E+02  0.26455479370E+03  0.00000000000E+00 0.  1.
<mgrwt>
<rscale>  0 0.12101864E+04</rscale>
<asrwt>0</asrwt>
<pdfrwt beam="1">  1        1 0.37105336E+00 0.12101864E+04</pdfrwt>
<pdfrwt beam="2">  1       -1 0.17124076E+00 0.12101864E+04</pdfrwt>
<totfact> 0.36956396E-01</totfact>
</mgrwt>
</event>
<event>
12    1  0.1418317E-007  0.4118589E+03  0.7818608E-02  0.1039749E+00
         -2   -1    0    0    0  501 -0.00000000000E+00  0.00000000000E+00  0.23961817197E+03  0.23961817197E+03  0.00000000000E+00 0. -1.
          2   -1    0    0  501    0  0.00000000000E+00 -0.00000000000E+00 -0.78145385985E+03  0.78145385985E+03  0.00000000000E+00 0.  1.
         23    2    1    2    0    0  0.72801946484E+02  0.19807492508E+03 -0.15561181712E+03  0.27693090399E+03  0.89117274418E+02 0.  0.
    5000000    2    1    2    0    0 -0.72801946484E+02 -0.19807492508E+03 -0.38622387076E+03  0.74414112783E+03  0.60003611593E+03 0.  0.
         23    2    4    4    0    0  0.12647356588E+03  0.15391569776E+03 -0.16307407576E+03  0.27314539869E+03  0.91266914942E+02 0.  0.
         23    2    4    4    0    0 -0.19927551236E+03 -0.35199062283E+03 -0.22314979501E+03  0.47099572914E+03  0.91831462267E+02 0.  0.
          1    1    3    3  502    0  0.33496668265E+02  0.12943282524E+03 -0.45243087157E+02  0.14114467744E+03  0.00000000000E+00 0. -1.
         -1    1    3    3    0  502  0.39305278218E+02  0.68642099837E+02 -0.11036872996E+03  0.13578622655E+03  0.00000000000E+00 0.  1.
         13    1    5    5    0    0  0.10466861358E+03  0.13050349959E+03 -0.82657750233E+02  0.18659846127E+03  0.00000000000E+00 0.  1.
        -13    1    5    5    0    0  0.21804952296E+02  0.23412198170E+02 -0.80416325522E+02  0.86546937428E+02  0.00000000000E+00 0. -1.
          2    1    6    6  503    0 -0.11535966004E+03 -0.12733667028E+03 -0.12196473000E+03  0.21070803052E+03  0.00000000000E+00 0.  1.
         -2    1    6    6    0  503 -0.83915852323E+02 -0.22465395255E+03 -0.10118506500E+03  0.26028769861E+03  0.00000000000E+00 0. -1.
<mgrwt>
<rscale>  0 0.41185891E+03</rscale>
<asrwt>0</asrwt>
<pdfrwt beam="1">  1        2 0.12022367E+00 0.41185891E+03</pdfrwt>
<pdfrwt beam="2">  1       -2 0.36864334E-01 0.41185891E+03</pdfrwt>
<totfact> 0.25350150E+02</totfact>
</mgrwt>
</event>
<event>
12    1  0.1418317E-007  0.1148366E+04  0.7818608E-02  0.9159292E-01
         -1   -1    0    0    0  501 -0.00000000000E+00  0.00000000000E+00  0.19508430645E+04  0.19508430645E+04  0.00000000000E+00 0.  1.
          1   -1    0    0  501    0  0.00000000000E+00 -0.00000000000E+00 -0.84149600915E+03  0.84149600915E+03  0.00000000000E+00 0. -1.
         23    2    1    2    0    0 -0.83907664602E+03 -0.69230075165E+03 -0.50367943112E+02  0.10928818279E+04  0.92324490177E+02 0.  0.
    5000000    2    1    2    0    0  0.83907664602E+03  0.69230075165E+03  0.11597149985E+04  0.16994572458E+04  0.59990507901E+03 0.  0.
         23    2    4    4    0    0  0.81065388621E+02 -0.55059094333E+02  0.26480413271E+02  0.14222133087E+03  0.99612215947E+02 0.  0.
         23    2    4    4    0    0  0.75801125740E+03  0.74735984598E+03  0.11332345852E+04  0.15572359149E+04  0.87379996413E+02 0.  0.
          4    1    3    3  502    0 -0.54081734139E+03 -0.41169542743E+03  0.45687236537E+01  0.67970390241E+03  0.00000000000E+00 0. -1.
         -4    1    3    3    0  502 -0.29825930463E+03 -0.28060532422E+03 -0.54936666766E+02  0.41317792552E+03  0.00000000000E+00 0.  1.
         13    1    5    5    0    0  0.87218976617E+01 -0.65990160488E+02  0.13253666609E+02  0.67870703979E+02  0.00000000000E+00 0. -1.
        -13    1    5    5    0    0  0.72343490959E+02  0.10931066156E+02  0.13226746662E+02  0.74350626888E+02  0.00000000000E+00 0.  1.
          4    1    6    6  503    0  0.40387123656E+03  0.45667922550E+03  0.66395541663E+03  0.90139041819E+03  0.00000000000E+00 0. -1.
         -4    1    6    6    0  503  0.35414002084E+03  0.29068062048E+03  0.46927916860E+03  0.65584549672E+03  0.00000000000E+00 0.  1.
<mgrwt>
<rscale>  0 0.11483661E+04</rscale>
<asrwt>0</asrwt>
<pdfrwt beam="1">  1        1 0.12946092E+00 0.11483661E+04</pdfrwt>
<pdfrwt beam="2">  1       -1 0.30012970E+00 0.11483661E+04</pdfrwt>
<totfact> 0.66652369E-01</totfact>
</mgrwt>
</event>
<event>
12    1  0.1418317E-007  0.9314120E+03  0.7818608E-02  0.9387145E-01
         -1   -1    0    0    0  501 -0.00000000000E+00  0.00000000000E+00  0.47957702784E+03  0.47957702784E+03  0.00000000000E+00 0.  1.
          1   -1    0    0  501    0  0.00000000000E+00 -0.00000000000E+00 -0.20147684319E+04  0.20147684319E+04  0.00000000000E+00 0. -1.
         23    2    1    2    0    0  0.59912615060E+03 -0.62967497206E+03 -0.93383716933E+03  0.12790231617E+04  0.91682465694E+02 0.  0.
    5000000    2    1    2    0    0 -0.59912615060E+03  0.62967497206E+03 -0.60135423473E+03  0.12153222981E+04  0.59994887933E+03 0.  0.
         23    2    4    4    0    0 -0.10537597437E+03  0.43810503356E+03 -0.79753202050E+02  0.46646416013E+03  0.90488248104E+02 0.  0.
         23    2    4    4    0    0 -0.49375017623E+03  0.19156993849E+03 -0.52160103268E+03  0.74885813794E+03  0.90733651994E+02 0.  0.
          1    1    3    3  502    0  0.11148125330E+03 -0.16858687402E+03 -0.23896874323E+03  0.31297869603E+03  0.00000000000E+00 0. -1.
         -1    1    3    3    0  502  0.48764489729E+03 -0.46108809804E+03 -0.69486842610E+03  0.96604446564E+03  0.00000000000E+00 0.  1.
         11    1    5    5    0    0 -0.60714351497E+02  0.35354069023E+03 -0.91254652837E+02  0.37014141053E+03  0.00000000000E+00 0.  1.
        -11    1    5    5    0    0 -0.44661622871E+02  0.84564343337E+02  0.11501450787E+02  0.96322749607E+02  0.00000000000E+00 0. -1.
          3    1    6    6  503    0 -0.23858420693E+03  0.13408937089E+03 -0.23372152344E+03  0.35990017186E+03  0.00000000000E+00 0. -1.
         -3    1    6    6    0  503 -0.25516596929E+03  0.57480567605E+02 -0.28787950924E+03  0.38895796608E+03  0.00000000000E+00 0.  1.
<mgrwt>
<rscale>  0 0.93141199E+03</rscale>
<asrwt>0</asrwt>
<pdfrwt beam="1">  1        1 0.30996437E+00 0.93141199E+03</pdfrwt>
<pdfrwt beam="2">  1       -1 0.73781082E-01 0.93141199E+03</pdfrwt>
<totfact> 0.54997022E+00</totfact>
</mgrwt>
</event>
<event>
12    1  0.1418317E-007  0.5796735E+03  0.7818608E-02  0.9948498E-01
         -2   -1    0    0    0  501 -0.00000000000E+00  0.00000000000E+00  0.30631282382E+03  0.30631282382E+03  0.00000000000E+00 0.  1.
          2   -1    0    0  501    0  0.00000000000E+00 -0.00000000000E+00 -0.16796872969E+04  0.16796872969E+04  0.00000000000E+00 0. -1.
         23    2    1    2    0    0  0.53557636477E+03 -0.92381972184E+02 -0.87873653866E+03  0.10372787534E+04  0.91612426527E+02 0.  0.
    5000000    2    1    2    0    0 -0.53557636477E+03  0.92381972184E+02 -0.49463793438E+03  0.94872136723E+03  0.60002422887E+03 0.  0.
         23    2    4    4    0    0 -0.49874362268E+03  0.13906234215E+03 -0.59890988929E+03  0.79684778115E+03  0.90497484343E+02 0.  0.
         23    2    4    4    0    0 -0.36832742094E+02 -0.46680369967E+02  0.10427195490E+03  0.15187358608E+03  0.93044278382E+02 0.  0.
          3    1    3    3  502    0  0.38421923562E+03 -0.10768268744E+03 -0.63673469425E+03  0.75143266701E+03  0.00000000000E+00 0. -1.
         -3    1    3    3    0  502  0.15135712915E+03  0.15300715255E+02 -0.24200184441E+03  0.28584608643E+03  0.00000000000E+00 0.  1.
         11    1    5    5    0    0 -0.15258307276E+03  0.24787153858E+01 -0.15363287057E+03  0.21654282958E+03  0.00000000000E+00 0. -1.
        -11    1    5    5    0    0 -0.34616054992E+03  0.13658362677E+03 -0.44527701872E+03  0.58030495157E+03  0.00000000000E+00 0.  1.
          2    1    6    6  503    0 -0.31502159553E+02 -0.60739980679E+02  0.27664041279E+02  0.73804000497E+02  0.00000000000E+00 0. -1.
         -2    1    6    6    0  503 -0.53305825404E+01  0.14059610712E+02  0.76607913624E+02  0.78069585585E+02  0.00000000000E+00 0.  1.
<mgrwt>
<rscale>  0 0.57967345E+03</rscale>
<asrwt>0</asrwt>
<pdfrwt beam="1">  1        2 0.25841343E+00 0.57967345E+03</pdfrwt>
<pdfrwt beam="2">  1       -2 0.47125049E-01 0.57967345E+03</pdfrwt>
<totfact> 0.45009186E+01</totfact>
</mgrwt>
</event>
<event>
12    1  0.1418317E-007  0.5572854E+03  0.7818608E-02  0.9998216E-01
          2   -1    0    0  501    0  0.00000000000E+00  0.00000000000E+00  0.29902215142E+04  0.29902215142E+04  0.00000000000E+00 0. -1.
         -2   -1    0    0    0  501 -0.00000000000E+00 -0.00000000000E+00 -0.15690483662E+03  0.15690483662E+03  0.00000000000E+00 0.  1.
         23    2    1    2    0    0  0.36256830673E+03  0.36159425726E+03  0.16066140898E+04  0.16886950992E+04  0.90973185203E+02 0.  0.
    5000000    2    1    2    0    0 -0.36256830673E+03 -0.36159425726E+03  0.12267025878E+04  0.14584312517E+04  0.60001357741E+03 0.  0.
         23    2    4    4    0    0 -0.28204548885E+03 -0.39003963608E+03  0.42958161456E+03  0.65153894682E+03  0.91005824897E+02 0.  0.
         23    2    4    4    0    0 -0.80522817883E+02  0.28445378821E+02  0.79712097321E+03  0.80689230485E+03  0.91543879697E+02 0.  0.
          3    1    3    3  502    0  0.20941403734E+03  0.26934687249E+03  0.10374325590E+04  0.10920935359E+04  0.00000000000E+00 0. -1.
         -3    1    3    3    0  502  0.15315426940E+03  0.92247384768E+02  0.56918153083E+03  0.59660156325E+03  0.00000000000E+00 0.  1.
         11    1    5    5    0    0 -0.26461155671E+03 -0.31878549860E+03  0.34144253294E+03  0.53686727724E+03  0.00000000000E+00 0. -1.
        -11    1    5    5    0    0 -0.17433932139E+02 -0.71254137479E+02  0.88139081618E+02  0.11467166959E+03  0.00000000000E+00 0.  1.
          2    1    6    6  503    0 -0.42876114855E+02  0.48136834730E+02  0.66479739205E+03  0.66791548010E+03  0.00000000000E+00 0. -1.
         -2    1    6    6    0  503 -0.37646703027E+02 -0.19691455909E+02  0.13232358116E+03  0.13897682475E+03  0.00000000000E+00 0.  1.
<mgrwt>
<rscale>  0 0.55728540E+03</rscale>
<asrwt>0</asrwt>
<pdfrwt beam="1">  1        2 0.46003404E+00 0.55728540E+03</pdfrwt>
<pdfrwt beam="2">  1       -2 0.24139208E-01 0.55728540E+03</pdfrwt>
<totfact> 0.29533542E+01</totfact>
</mgrwt>
</event>
<event>
12    1  0.1418317E-007  0.2054102E+03  0.7818608E-02  0.1145253E+00
         -1   -1    0    0    0  501 -0.00000000000E+00  0.00000000000E+00  0.39177680298E+03  0.39177680298E+03  0.00000000000E+00 0.  1.
          1   -1    0    0  501    0  0.00000000000E+00 -0.00000000000E+00 -0.33197241024E+03  0.33197241024E+03  0.00000000000E+00 0. -1.
         23    2    1    2    0    0  0.49584838312E+02  0.22457768529E+02 -0.41017858584E+02  0.11291989997E+03  0.90030170106E+02 0.  0.
    5000000    2    1    2    0    0 -0.49584838312E+02 -0.22457768529E+02  0.10082225133E+03  0.61082931325E+03  0.59998692986E+03 0.  0.
         23    2    4    4    0    0  0.54447010444E+02  0.92816605726E+02  0.30700595045E+03  0.33861693538E+03  0.93964759728E+02 0.  0.
         23    2    4    4    0    0 -0.10403184876E+03 -0.11527437426E+03 -0.20618369912E+03  0.27221237787E+03  0.86469959907E+02 0.  0.
          3    1    3    3  502    0  0.74171864612E+02  0.29197359806E+02 -0.31286294208E+02  0.85631673609E+02  0.00000000000E+00 0. -1.
         -3    1    3    3    0  502 -0.24587026301E+02 -0.67395912770E+01 -0.97315643760E+01  0.27288226364E+02  0.00000000000E+00 0.  1.
         11    1    5    5    0    0  0.56265817650E+02  0.24232555397E+02  0.21677199397E+03  0.22526241663E+03  0.00000000000E+00 0. -1.
        -11    1    5    5    0    0 -0.18188072065E+01  0.68584050329E+02  0.90233956483E+02  0.11335451875E+03  0.00000000000E+00 0.  1.
          1    1    6    6  503    0 -0.14358540067E+02 -0.76859546033E+02 -0.71817950996E+02  0.10616673478E+03  0.00000000000E+00 0. -1.
         -1    1    6    6    0  503 -0.89673308688E+02 -0.38414828223E+02 -0.13436574813E+03  0.16604564309E+03  0.00000000000E+00 0.  1.
<mgrwt>
<rscale>  0 0.20541021E+03</rscale>
<asrwt>0</asrwt>
<pdfrwt beam="1">  1        1 0.51072679E-01 0.20541021E+03</pdfrwt>
<pdfrwt beam="2">  1       -1 0.60273354E-01 0.20541021E+03</pdfrwt>
<totfact> 0.22530082E+02</totfact>
</mgrwt>
</event>
<event>
12    1  0.1603495E-007  0.1130960E+04  0.7818608E-02  0.9175531E-01
         -1   -1    0    0    0  501 -0.00000000000E+00  0.00000000000E+00  0.47957627211E+03  0.47957627211E+03  0.00000000000E+00 0.  1.
          1   -1    0    0  501    0  0.00000000000E+00 -0.00000000000E+00 -0.26882772740E+04  0.26882772740E+04  0.00000000000E+00 0. -1.
         23    2    1    2    0    0 -0.10490083136E+04 -0.89422886386E+02 -0.95732934750E+03  0.14259021633E+04  0.91118632005E+02 0.  0.
    5000000    2    1    2    0    0  0.10490083136E+04  0.89422886386E+02 -0.12513716544E+04  0.17419513828E+04  0.60004058872E+03 0.  0.
         23    2    4    4    0    0  0.36443115223E+03 -0.24101090572E+03 -0.45421171321E+03  0.63670717325E+03  0.90506478495E+02 0.  0.
         23    2    4    4    0    0  0.68457716136E+03  0.33043379211E+03 -0.79715994121E+03  0.11052442096E+04  0.90930798766E+02 0.  0.
          4    1    3    3  502    0 -0.71764744273E+03 -0.89703730891E+02 -0.61353587965E+03  0.94841493399E+03  0.00000000000E+00 0.  1.
         -4    1    3    3    0  502 -0.33136087086E+03  0.28084450439E+00 -0.34379346784E+03  0.47748722930E+03  0.00000000000E+00 0. -1.
         13    1    5    5    0    0  0.15478481256E+03 -0.14992321178E+03 -0.18945813002E+03  0.28693150866E+03  0.00000000000E+00 0. -1.
        -13    1    5    5    0    0  0.20964633967E+03 -0.91087693942E+02 -0.26475358319E+03  0.34977566459E+03  0.00000000000E+00 0.  1.
          3    1    6    6  503    0  0.29075076853E+03  0.17831496279E+03 -0.31379608681E+03  0.46346544580E+03  0.00000000000E+00 0. -1.
         -3    1    6    6    0  503  0.39382639283E+03  0.15211882931E+03 -0.48336385439E+03  0.64177876379E+03  0.00000000000E+00 0.  1.
<mgrwt>
<rscale>  0 0.11309601E+04</rscale>
<asrwt>0</asrwt>
<pdfrwt beam="1">  1        1 0.41358112E+00 0.11309601E+04</pdfrwt>
<pdfrwt beam="2">  1       -1 0.73780965E-01 0.11309601E+04</pdfrwt>
<totfact> 0.18570843E+00</totfact>
</mgrwt>
</event>
<event>
12    1  0.1418317E-007  0.6090252E+03  0.7818608E-02  0.9886857E-01
         -2   -1    0    0    0  501 -0.00000000000E+00  0.00000000000E+00  0.46449412886E+03  0.46449412886E+03  0.00000000000E+00 0.  1.
          2   -1    0    0  501    0  0.00000000000E+00 -0.00000000000E+00 -0.99078970600E+03  0.99078970600E+03  0.00000000000E+00 0. -1.
         23    2    1    2    0    0  0.43042485885E+03  0.32803962374E+03 -0.20500276375E+03  0.58574694725E+03  0.90541698705E+02 0.  0.
    5000000    2    1    2    0    0 -0.43042485885E+03 -0.32803962374E+03 -0.32129281339E+03  0.86953688762E+03  0.59999147756E+03 0.  0.
         23    2    4    4    0    0 -0.10059206540E+03  0.85241544713E+02  0.98353531141E+02  0.18847838055E+03  0.92009772735E+02 0.  0.
         23    2    4    4    0    0 -0.32983279345E+03 -0.41328116845E+03 -0.41964634453E+03  0.68105850707E+03  0.90258737818E+02 0.  0.
          1    1    3    3  502    0  0.23810604582E+03  0.21179088724E+03 -0.79835623443E+02  0.32851726856E+03  0.00000000000E+00 0. -1.
         -1    1    3    3    0  502  0.19231881303E+03  0.11624873650E+03 -0.12516714031E+03  0.25722967869E+03  0.00000000000E+00 0.  1.
         13    1    5    5    0    0  0.51131992055E+01  0.22244309102E+01  0.42604021344E+02  0.42967377552E+02  0.00000000000E+00 0.  1.
        -13    1    5    5    0    0 -0.10570526461E+03  0.83017113803E+02  0.55749509796E+02  0.14551100300E+03  0.00000000000E+00 0. -1.
          4    1    6    6  503    0 -0.26380373080E+03 -0.27301296800E+03 -0.32226322000E+03  0.49797798349E+03  0.00000000000E+00 0. -1.
         -4    1    6    6    0  503 -0.66029062649E+02 -0.14026820045E+03 -0.97383124527E+02  0.18308052358E+03  0.00000000000E+00 0.  1.
<mgrwt>
<rscale>  0 0.60902516E+03</rscale>
<asrwt>0</asrwt>
<pdfrwt beam="1">  1        2 0.15242919E+00 0.60902516E+03</pdfrwt>
<pdfrwt beam="2">  1       -2 0.71460635E-01 0.60902516E+03</pdfrwt>
<totfact> 0.46709695E+01</totfact>
</mgrwt>
</event>
<event>
12    1  0.1418317E-007  0.8613413E+03  0.7818608E-02  0.9475240E-01
          1   -1    0    0  501    0  0.00000000000E+00  0.00000000000E+00  0.29554197243E+03  0.29554197243E+03  0.00000000000E+00 0. -1.
         -1   -1    0    0    0  501 -0.00000000000E+00 -0.00000000000E+00 -0.34994737845E+04  0.34994737845E+04  0.00000000000E+00 0.  1.
         23    2    1    2    0    0  0.81129718316E+03 -0.26129148529E+03 -0.78964367705E+03  0.11653814528E+04  0.90002411459E+02 0.  0.
    5000000    2    1    2    0    0 -0.81129718316E+03  0.26129148529E+03 -0.24142881350E+04  0.26296343042E+04  0.59976079823E+03 0.  0.
         23    2    4    4    0    0 -0.25854270215E+03  0.14549032351E+03 -0.16285635671E+04  0.16577729190E+04  0.89330822347E+02 0.  0.
         23    2    4    4    0    0 -0.55275448101E+03  0.11580116178E+03 -0.78572456796E+03  0.97186138520E+03  0.90576100692E+02 0.  0.
          3    1    3    3  502    0  0.37015640259E+03 -0.12198427329E+03 -0.30057374314E+03  0.49217933761E+03  0.00000000000E+00 0. -1.
         -3    1    3    3    0  502  0.44114078057E+03 -0.13930721200E+03 -0.48906993391E+03  0.67320211516E+03  0.00000000000E+00 0.  1.
         13    1    5    5    0    0 -0.16596270780E+03  0.75292222701E+02 -0.11991446958E+04  0.12129140698E+04  0.00000000000E+00 0.  1.
        -13    1    5    5    0    0 -0.92579994356E+02  0.70198100806E+02 -0.42941887126E+03  0.44485884919E+03  0.00000000000E+00 0. -1.
          3    1    6    6  503    0 -0.12162434407E+03  0.64677212752E+02 -0.18285804406E+03  0.22893817331E+03  0.00000000000E+00 0. -1.
         -3    1    6    6    0  503 -0.43113013694E+03  0.51123949030E+02 -0.60286652389E+03  0.74292321190E+03  0.00000000000E+00 0.  1.
<mgrwt>
<rscale>  0 0.86134127E+03</rscale>
<asrwt>0</asrwt>
<pdfrwt beam="1">  1        1 0.45467994E-01 0.86134127E+03</pdfrwt>
<pdfrwt beam="2">  1       -1 0.53838060E+00 0.86134127E+03</pdfrwt>
<totfact> 0.79920328E-02</totfact>
</mgrwt>
</event>
<event>
12    1  0.1418317E-007  0.9122265E+03  0.7818608E-02  0.9410425E-01
         -2   -1    0    0    0  501 -0.00000000000E+00  0.00000000000E+00  0.29348193198E+03  0.29348193198E+03  0.00000000000E+00 0.  1.
          2   -1    0    0  501    0  0.00000000000E+00 -0.00000000000E+00 -0.30473642668E+04  0.30473642668E+04  0.00000000000E+00 0. -1.
         23    2    1    2    0    0 -0.76969113871E+03  0.35341096219E+03 -0.13230692904E+04  0.15732199788E+04  0.84764362876E+02 0.  0.
    5000000    2    1    2    0    0  0.76969113871E+03 -0.35341096219E+03 -0.14308130444E+04  0.17676262200E+04  0.59996060570E+03 0.  0.
         23    2    4    4    0    0  0.26805192782E+03  0.10325746077E+03 -0.20745375187E+03  0.36575578704E+03  0.90698938137E+02 0.  0.
         23    2    4    4    0    0  0.50163921089E+03 -0.45666842295E+03 -0.12233592925E+04  0.14018704329E+04  0.91895624175E+02 0.  0.
          1    1    3    3  502    0 -0.40380876853E+03  0.18640220325E+03 -0.61622857516E+03  0.75996378845E+03  0.00000000000E+00 0. -1.
         -1    1    3    3    0  502 -0.36588237018E+03  0.16700875893E+03 -0.70684071529E+03  0.81325619036E+03  0.00000000000E+00 0.  1.
         13    1    5    5    0    0  0.32738852995E+02 -0.66510985752E+01 -0.81869617445E-01  0.33407728302E+02  0.00000000000E+00 0. -1.
        -13    1    5    5    0    0  0.23531307482E+03  0.10990855934E+03 -0.20737188225E+03  0.33234805874E+03  0.00000000000E+00 0.  1.
          3    1    6    6  503    0  0.28283497926E+02 -0.61736752532E+02 -0.11179878571E+03  0.13080654171E+03  0.00000000000E+00 0. -1.
         -3    1    6    6    0  503  0.47335571297E+03 -0.39493167042E+03 -0.11115605068E+04  0.12710638912E+04  0.00000000000E+00 0.  1.
<mgrwt>
<rscale>  0 0.91222650E+03</rscale>
<asrwt>0</asrwt>
<pdfrwt beam="1">  1        2 0.46882528E+00 0.91222650E+03</pdfrwt>
<pdfrwt beam="2">  1       -2 0.45151066E-01 0.91222650E+03</pdfrwt>
<totfact> 0.78439131E+00</totfact>
</mgrwt>
</event>
<event>
12    1  0.1418317E-007  0.7745966E+03  0.7818608E-02  0.9597533E-01
         -1   -1    0    0    0  501 -0.00000000000E+00  0.00000000000E+00  0.28643589965E+03  0.28643589965E+03  0.00000000000E+00 0.  1.
          1   -1    0    0  501    0  0.00000000000E+00 -0.00000000000E+00 -0.23830683124E+04  0.23830683124E+04  0.00000000000E+00 0. -1.
         23    2    1    2    0    0  0.42865826165E+03 -0.56267695944E+03 -0.10705518537E+04  0.12863163679E+04  0.90417149928E+02 0.  0.
    5000000    2    1    2    0    0 -0.42865826165E+03  0.56267695944E+03 -0.10260805590E+04  0.13831878441E+04  0.60001169363E+03 0.  0.
         23    2    4    4    0    0 -0.49116345551E+03  0.55128587492E+03 -0.10310268447E+04  0.12714975392E+04  0.92368727804E+02 0.  0.
         23    2    4    4    0    0  0.62505193865E+02  0.11391084513E+02  0.49462856399E+01  0.11169030489E+03  0.91725691046E+02 0.  0.
          1    1    3    3  502    0  0.29952047707E+03 -0.45386933409E+03 -0.83604064446E+03  0.99733336844E+03  0.00000000000E+00 0. -1.
         -1    1    3    3    0  502  0.12913778458E+03 -0.10880762534E+03 -0.23451120922E+03  0.28898299948E+03  0.00000000000E+00 0.  1.
         13    1    5    5    0    0 -0.14781451590E+03  0.14759145764E+03 -0.36271383427E+03  0.41856145911E+03  0.00000000000E+00 0. -1.
        -13    1    5    5    0    0 -0.34334893962E+03  0.40369441728E+03 -0.66831301041E+03  0.85293608012E+03  0.00000000000E+00 0.  1.
          3    1    6    6  503    0  0.19258620498E+02 -0.31411107770E+02 -0.24344074359E+02  0.44160911576E+02  0.00000000000E+00 0. -1.
         -3    1    6    6    0  503  0.43246573366E+02  0.42802192283E+02  0.29290359999E+02  0.67529393312E+02  0.00000000000E+00 0.  1.
<mgrwt>
<rscale>  0 0.77459656E+03</rscale>
<asrwt>0</asrwt>
<pdfrwt beam="1">  1        1 0.36662589E+00 0.77459656E+03</pdfrwt>
<pdfrwt beam="2">  1       -1 0.44067062E-01 0.77459656E+03</pdfrwt>
<totfact> 0.87148877E+00</totfact>
</mgrwt>
</event>
<event>
12    1  0.1418317E-007  0.5214784E+03  0.7818608E-02  0.1008320E+00
         -1   -1    0    0    0  501 -0.00000000000E+00  0.00000000000E+00  0.31036259789E+03  0.31036259789E+03  0.00000000000E+00 0.  1.
          1   -1    0    0  501    0  0.00000000000E+00 -0.00000000000E+00 -0.11019087928E+04  0.11019087928E+04  0.00000000000E+00 0. -1.
         23    2    1    2    0    0 -0.19445837467E+03 -0.36377968632E+03 -0.17081714806E+03  0.45548104356E+03  0.90192922747E+02 0.  0.
    5000000    2    1    2    0    0  0.19445837467E+03  0.36377968632E+03 -0.62072904686E+03  0.95679034714E+03  0.59999458256E+03 0.  0.
         23    2    4    4    0    0  0.25780235488E+03  0.43924845234E+03 -0.63666511356E+03  0.82074758367E+03  0.94248990560E+02 0.  0.
         23    2    4    4    0    0 -0.63343980211E+02 -0.75468766022E+02  0.15936066698E+02  0.13604276347E+03  0.92442851511E+02 0.  0.
          1    1    3    3  502    0 -0.17748964567E+03 -0.25645768562E+03 -0.10847858625E+03  0.33021314709E+03  0.00000000000E+00 0. -1.
         -1    1    3    3    0  502 -0.16968728992E+02 -0.10732200070E+03 -0.62338561809E+02  0.12526789647E+03  0.00000000000E+00 0.  1.
         13    1    5    5    0    0  0.10023113242E+03  0.23595046789E+03 -0.26448840825E+03  0.36833818877E+03  0.00000000000E+00 0. -1.
        -13    1    5    5    0    0  0.15757122246E+03  0.20329798445E+03 -0.37217670531E+03  0.45240939491E+03  0.00000000000E+00 0.  1.
          1    1    6    6  503    0 -0.35760963998E+01 -0.38290388475E+02  0.45607059640E+02  0.59656904077E+02  0.00000000000E+00 0. -1.
         -1    1    6    6    0  503 -0.59767883812E+02 -0.37178377547E+02 -0.29670992942E+02  0.76385859388E+02  0.00000000000E+00 0.  1.
<mgrwt>
<rscale>  0 0.52147838E+03</rscale>
<asrwt>0</asrwt>
<pdfrwt beam="1">  1        1 0.16952443E+00 0.52147838E+03</pdfrwt>
<pdfrwt beam="2">  1       -1 0.47748092E-01 0.52147838E+03</pdfrwt>
<totfact> 0.58212705E+01</totfact>
</mgrwt>
</event>
<event>
12    1  0.1418317E-007  0.1785478E+04  0.7818608E-02  0.8714061E-01
          1   -1    0    0  501    0  0.00000000000E+00  0.00000000000E+00  0.35319093520E+04  0.35319093520E+04  0.00000000000E+00 0. -1.
         -1   -1    0    0    0  501 -0.00000000000E+00 -0.00000000000E+00 -0.96846004733E+03  0.96846004733E+03  0.00000000000E+00 0.  1.
         23    2    1    2    0    0  0.17232462134E+04  0.39241432296E+03  0.16624825919E+04  0.24278724835E+04  0.84557170532E+02 0.  0.
    5000000    2    1    2    0    0 -0.17232462134E+04 -0.39241432296E+03  0.90096671275E+03  0.20724969158E+04  0.59994661062E+03 0.  0.
         23    2    4    4    0    0 -0.32047011703E+03  0.38268228831E+02 -0.25119765237E+02  0.33494348484E+03  0.85968495296E+02 0.  0.
         23    2    4    4    0    0 -0.14027760964E+04 -0.43068255179E+03  0.92608647799E+03  0.17375534309E+04  0.90484936381E+02 0.  0.
          1    1    3    3  502    0  0.99023449873E+03  0.19224311846E+03  0.98443349796E+03  0.14094790140E+04  0.00000000000E+00 0.  1.
         -1    1    3    3    0  502  0.73301171466E+03  0.20017120450E+03  0.67804909394E+03  0.10183934695E+04  0.00000000000E+00 0. -1.
         13    1    5    5    0    0 -0.36940390936E+02  0.33214888155E+02  0.42140059272E+01  0.49855582672E+02  0.00000000000E+00 0. -1.
        -13    1    5    5    0    0 -0.28352972610E+03  0.50533406761E+01 -0.29333771164E+02  0.28508790217E+03  0.00000000000E+00 0.  1.
          1    1    6    6  503    0 -0.88356351057E+03 -0.23516308990E+03  0.60818167444E+03  0.10981216259E+04  0.00000000000E+00 0. -1.
         -1    1    6    6    0  503 -0.51921258579E+03 -0.19551946190E+03  0.31790480354E+03  0.63943180507E+03  0.00000000000E+00 0.  1.
<mgrwt>
<rscale>  0 0.17854776E+04</rscale>
<asrwt>0</asrwt>
<pdfrwt beam="1">  1        1 0.54337066E+00 0.17854776E+04</pdfrwt>
<pdfrwt beam="2">  1       -1 0.14899385E+00 0.17854776E+04</pdfrwt>
<totfact> 0.77358433E-02</totfact>
</mgrwt>
</event>
<event>
12    1  0.1418317E-007  0.1034943E+04  0.7818608E-02  0.9271029E-01
          2   -1    0    0  501    0  0.00000000000E+00  0.00000000000E+00  0.18174419685E+04  0.18174419685E+04  0.00000000000E+00 0. -1.
         -2   -1    0    0    0  501 -0.00000000000E+00 -0.00000000000E+00 -0.67982311418E+03  0.67982311418E+03  0.00000000000E+00 0.  1.
         23    2    1    2    0    0  0.88268379931E+03 -0.36022659095E+03  0.96153154691E+03  0.13571175219E+04  0.91275221489E+02 0.  0.
    5000000    2    1    2    0    0 -0.88268379931E+03  0.36022659095E+03  0.17608730738E+03  0.11401475608E+04  0.60002986107E+03 0.  0.
         23    2    4    4    0    0 -0.25192781483E+03  0.40687906485E+03  0.82319717565E+02  0.49497566365E+03  0.95948811391E+02 0.  0.
         23    2    4    4    0    0 -0.63075598448E+03 -0.46652473904E+02  0.93767589819E+02  0.64517189714E+03  0.86167573256E+02 0.  0.
          4    1    3    3  502    0  0.68336977090E+03 -0.24848559872E+03  0.76864706790E+03  0.10580915138E+04  0.00000000000E+00 0. -1.
         -4    1    3    3    0  502  0.19931402841E+03 -0.11174099223E+03  0.19288447901E+03  0.29902600808E+03  0.00000000000E+00 0.  1.
         11    1    5    5    0    0 -0.75976581915E+02  0.17367087374E+03  0.71620454018E+02  0.20264131567E+03  0.00000000000E+00 0. -1.
        -11    1    5    5    0    0 -0.17595123291E+03  0.23320819111E+03  0.10699263546E+02  0.29233434798E+03  0.00000000000E+00 0.  1.
          1    1    6    6  503    0 -0.10932857682E+03 -0.47411866727E+01  0.49764625498E+02  0.12021536721E+03  0.00000000000E+00 0. -1.
         -1    1    6    6    0  503 -0.52142740766E+03 -0.41911287231E+02  0.44002964321E+02  0.52495652994E+03  0.00000000000E+00 0.  1.
<mgrwt>
<rscale>  0 0.10349430E+04</rscale>
<asrwt>0</asrwt>
<pdfrwt beam="1">  1        2 0.27960645E+00 0.10349430E+04</pdfrwt>
<pdfrwt beam="2">  1       -2 0.10458817E+00 0.10349430E+04</pdfrwt>
<totfact> 0.62243295E+00</totfact>
</mgrwt>
</event>
<event>
12    1  0.1418317E-007  0.5303051E+03  0.7818608E-02  0.1006158E+00
          1   -1    0    0  501    0  0.00000000000E+00  0.00000000000E+00  0.25497592946E+03  0.25497592946E+03  0.00000000000E+00 0. -1.
         -1   -1    0    0    0  501 -0.00000000000E+00 -0.00000000000E+00 -0.13924190808E+04  0.13924190808E+04  0.00000000000E+00 0.  1.
         23    2    1    2    0    0  0.36942110033E+03  0.13737611805E+03 -0.16008933810E+03  0.43486286676E+03  0.90182978040E+02 0.  0.
    5000000    2    1    2    0    0 -0.36942110033E+03 -0.13737611805E+03 -0.97735381322E+03  0.12125321435E+04  0.59972458312E+03 0.  0.
         23    2    4    4    0    0  0.82253728864E+02  0.11172466935E+03 -0.39122626639E+03  0.42505964304E+03  0.91485687282E+02 0.  0.
         23    2    4    4    0    0 -0.45167482920E+03 -0.24910078740E+03 -0.58612754682E+03  0.78747250044E+03  0.10249919119E+03 0.  0.
          3    1    3    3  502    0  0.15889742826E+03  0.12132183470E+02 -0.63650832220E+02  0.17160131417E+03  0.00000000000E+00 0. -1.
         -3    1    3    3    0  502  0.21052367207E+03  0.12524393458E+03 -0.96438505881E+02  0.26326155258E+03  0.00000000000E+00 0.  1.
         11    1    5    5    0    0  0.48101239689E+02  0.80723533055E+02 -0.13360020887E+03  0.16333717844E+03  0.00000000000E+00 0.  1.
        -11    1    5    5    0    0  0.34152489175E+02  0.31001136294E+02 -0.25762605752E+03  0.26172246461E+03  0.00000000000E+00 0. -1.
          4    1    6    6  503    0 -0.30437331979E+03 -0.15711478509E+03 -0.45672289176E+03  0.57089751563E+03  0.00000000000E+00 0. -1.
         -4    1    6    6    0  503 -0.14730150941E+03 -0.91986002315E+02 -0.12940465506E+03  0.21657498482E+03  0.00000000000E+00 0.  1.
<mgrwt>
<rscale>  0 0.53030510E+03</rscale>
<asrwt>0</asrwt>
<pdfrwt beam="1">  1        1 0.39227066E-01 0.53030510E+03</pdfrwt>
<pdfrwt beam="2">  1       -1 0.21421832E+00 0.53030510E+03</pdfrwt>
<totfact> 0.13832114E+01</totfact>
</mgrwt>
</event>
<event>
12    1  0.1921473E-007  0.1073539E+04  0.7818608E-02  0.9231373E-01
         -1   -1    0    0    0  501 -0.00000000000E+00  0.00000000000E+00  0.10336381913E+04  0.10336381913E+04  0.00000000000E+00 0.  1.
          1   -1    0    0  501    0  0.00000000000E+00 -0.00000000000E+00 -0.28100112284E+04  0.28100112284E+04  0.00000000000E+00 0. -1.
         23    2    1    2    0    0  0.18645215659E+03  0.10330672975E+04 -0.22969988913E+04  0.25271901051E+04  0.92160040222E+02 0.  0.
    5000000    2    1    2    0    0 -0.18645215659E+03 -0.10330672975E+04  0.52062585420E+03  0.13164593146E+04  0.60001783239E+03 0.  0.
         23    2    4    4    0    0  0.39372081066E+02 -0.14023156992E+03  0.32903907098E+03  0.37122220015E+03  0.91236821970E+02 0.  0.
         23    2    4    4    0    0 -0.22582423765E+03 -0.89283572753E+03  0.19158678322E+03  0.94523711446E+03  0.92819633533E+02 0.  0.
          1    1    3    3  502    0  0.51643061286E+02  0.51564595142E+03 -0.11820634532E+04  0.12906710505E+04  0.00000000000E+00 0. -1.
         -1    1    3    3    0  502  0.13480909530E+03  0.51742134604E+03 -0.11149354381E+04  0.12365190547E+04  0.00000000000E+00 0.  1.
         13    1    5    5    0    0 -0.19063934718E+02 -0.89077218117E+02  0.21219974791E+03  0.23092621637E+03  0.00000000000E+00 0.  1.
        -13    1    5    5    0    0  0.58436015784E+02 -0.51154351806E+02  0.11683932307E+03  0.14029598378E+03  0.00000000000E+00 0. -1.
          1    1    6    6  503    0 -0.19202382375E+03 -0.58486737251E+03  0.13707482671E+03  0.63066036853E+03  0.00000000000E+00 0. -1.
         -1    1    6    6    0  503 -0.33800413901E+02 -0.30796835503E+03  0.54511956507E+02  0.31457674593E+03  0.00000000000E+00 0.  1.
<mgrwt>
<rscale>  0 0.10735393E+04</rscale>
<asrwt>0</asrwt>
<pdfrwt beam="1">  1        1 0.43230942E+00 0.10735393E+04</pdfrwt>
<pdfrwt beam="2">  1       -1 0.15902126E+00 0.10735393E+04</pdfrwt>
<totfact> 0.24630433E-01</totfact>
</mgrwt>
</event>
<event>
12    1  0.1418317E-007  0.4969443E+03  0.7818608E-02  0.1014580E+00
         -1   -1    0    0    0  501 -0.00000000000E+00  0.00000000000E+00  0.68002384988E+03  0.68002384988E+03  0.00000000000E+00 0.  1.
          1   -1    0    0  501    0  0.00000000000E+00 -0.00000000000E+00 -0.39775288814E+03  0.39775288814E+03  0.00000000000E+00 0. -1.
         23    2    1    2    0    0 -0.26283816911E+03  0.21391494796E+03  0.10329809443E+03  0.36579583932E+03  0.91063668099E+02 0.  0.
    5000000    2    1    2    0    0  0.26283816911E+03 -0.21391494796E+03  0.17897286731E+03  0.71198089871E+03  0.60003500297E+03 0.  0.
         23    2    4    4    0    0 -0.14346506777E+03 -0.15084631759E+03 -0.48691235224E+02  0.23247134765E+03  0.91297611627E+02 0.  0.
         23    2    4    4    0    0  0.40630323688E+03 -0.63068630365E+02  0.22766410253E+03  0.47950955106E+03  0.95070992095E+02 0.  0.
          2    1    3    3  502    0 -0.54147382932E+02  0.98110657152E+02  0.27583069396E+02  0.11540565776E+03  0.00000000000E+00 0. -1.
         -2    1    3    3    0  502 -0.20869078618E+03  0.11580429080E+03  0.75715025035E+02  0.25039018156E+03  0.00000000000E+00 0.  1.
         11    1    5    5    0    0 -0.10126761190E+03 -0.51849688205E+02 -0.51355525072E+02  0.12482351278E+03  0.00000000000E+00 0.  1.
        -11    1    5    5    0    0 -0.42197455868E+02 -0.98996629385E+02  0.26642898480E+01  0.10764783487E+03  0.00000000000E+00 0. -1.
          3    1    6    6  503    0  0.35558956622E+03 -0.86424755010E+02  0.20293787373E+03  0.41844588476E+03  0.00000000000E+00 0. -1.
         -3    1    6    6    0  503  0.50713670668E+02  0.23356124645E+02  0.24726228803E+02  0.61063666299E+02  0.00000000000E+00 0.  1.
<mgrwt>
<rscale>  0 0.49694425E+03</rscale>
<asrwt>0</asrwt>
<pdfrwt beam="1">  1        1 0.61192752E-01 0.49694425E+03</pdfrwt>
<pdfrwt beam="2">  1       -1 0.10461905E+00 0.49694425E+03</pdfrwt>
<totfact> 0.54280247E+01</totfact>
</mgrwt>
</event>
<event>
12    1  0.1418317E-007  0.8990640E+03  0.7818608E-02  0.9426752E-01
          1   -1    0    0  501    0  0.00000000000E+00  0.00000000000E+00  0.21786745666E+04  0.21786745666E+04  0.00000000000E+00 0. -1.
         -1   -1    0    0    0  501 -0.00000000000E+00 -0.00000000000E+00 -0.58365244766E+03  0.58365244766E+03  0.00000000000E+00 0.  1.
         23    2    1    2    0    0 -0.38477621244E+03  0.71186181941E+03  0.15534554228E+04  0.17540356137E+04  0.92828874502E+02 0.  0.
    5000000    2    1    2    0    0  0.38477621244E+03 -0.71186181941E+03  0.41566696149E+02  0.10082914006E+04  0.60010313666E+03 0.  0.
         23    2    4    4    0    0  0.15994722741E+03 -0.74106972398E+03  0.27058866091E+02  0.76381760092E+03  0.88981424359E+02 0.  0.
         23    2    4    4    0    0  0.22482898503E+03  0.29207904572E+02  0.14507830058E+02  0.24447379965E+03  0.90309398068E+02 0.  0.
          1    1    3    3  502    0 -0.18832537628E+03  0.39383942359E+03  0.74812260349E+03  0.86617744647E+03  0.00000000000E+00 0. -1.
         -1    1    3    3    0  502 -0.19645083617E+03  0.31802239582E+03  0.80533281934E+03  0.88785816727E+03  0.00000000000E+00 0.  1.
         13    1    5    5    0    0  0.10124636034E+03 -0.44058656442E+03 -0.27182956756E+02  0.45288658555E+03  0.00000000000E+00 0. -1.
        -13    1    5    5    0    0  0.58700867067E+02 -0.30048315956E+03  0.54241822847E+02  0.31093101537E+03  0.00000000000E+00 0.  1.
          1    1    6    6  503    0  0.12267525491E+03  0.33912086428E+02 -0.33341441306E+02  0.13157089147E+03  0.00000000000E+00 0. -1.
         -1    1    6    6    0  503  0.10215373012E+03 -0.47041818562E+01  0.47849271364E+02  0.11290290818E+03  0.00000000000E+00 0.  1.
<mgrwt>
<rscale>  0 0.89906396E+03</rscale>
<asrwt>0</asrwt>
<pdfrwt beam="1">  1        1 0.33518070E+00 0.89906396E+03</pdfrwt>
<pdfrwt beam="2">  1       -1 0.89792686E-01 0.89906396E+03</pdfrwt>
<totfact> 0.28144465E+00</totfact>
</mgrwt>
</event>
<event>
12    1  0.1418317E-007  0.3916784E+03  0.7818608E-02  0.1046700E+00
         -1   -1    0    0    0  501 -0.00000000000E+00  0.00000000000E+00  0.78119736590E+03  0.78119736590E+03  0.00000000000E+00 0.  1.
          1   -1    0    0  501    0  0.00000000000E+00 -0.00000000000E+00 -0.31969540474E+03  0.31969540474E+03  0.00000000000E+00 0. -1.
         23    2    1    2    0    0  0.88913034980E+02 -0.27025689964E+03  0.12878463269E+02  0.29946638981E+03  0.92573993202E+02 0.  0.
    5000000    2    1    2    0    0 -0.88913034980E+02  0.27025689964E+03  0.44862349789E+03  0.80142638082E+03  0.60006406444E+03 0.  0.
         23    2    4    4    0    0  0.58451739797E+02  0.30721745044E+03  0.51750765599E+03  0.61095257932E+03  0.87462634485E+02 0.  0.
         23    2    4    4    0    0 -0.14736477478E+03 -0.36960550793E+02 -0.68884158101E+02  0.19047380151E+03  0.91939015998E+02 0.  0.
          3    1    3    3  502    0  0.92335118531E+02 -0.15005299253E+03 -0.12266548568E+02  0.17661297488E+03  0.00000000000E+00 0. -1.
         -3    1    3    3    0  502 -0.34220835508E+01 -0.12020390711E+03  0.25145011837E+02  0.12285341493E+03  0.00000000000E+00 0.  1.
         13    1    5    5    0    0  0.56408303235E+02  0.28759307661E+03  0.42428013283E+03  0.51566006778E+03  0.00000000000E+00 0.  1.
        -13    1    5    5    0    0  0.20434365624E+01  0.19624373825E+02  0.93227523157E+02  0.95292511537E+02  0.00000000000E+00 0. -1.
          1    1    6    6  503    0  0.10498971659E+02 -0.89262833827E+01 -0.17149313002E+02  0.22000133576E+02  0.00000000000E+00 0. -1.
         -1    1    6    6    0  503 -0.15786374644E+03 -0.28034267410E+02 -0.51734845099E+02  0.16847366793E+03  0.00000000000E+00 0.  1.
<mgrwt>
<rscale>  0 0.39167835E+03</rscale>
<asrwt>0</asrwt>
<pdfrwt beam="1">  1        1 0.49183909E-01 0.39167835E+03</pdfrwt>
<pdfrwt beam="2">  1       -1 0.12018421E+00 0.39167835E+03</pdfrwt>
<totfact> 0.52720836E+01</totfact>
</mgrwt>
</event>
<event>
12    1  0.1418317E-007  0.8750864E+03  0.7818608E-02  0.9457272E-01
         -2   -1    0    0    0  501 -0.00000000000E+00  0.00000000000E+00  0.79366425186E+03  0.79366425186E+03  0.00000000000E+00 0.  1.
          2   -1    0    0  501    0  0.00000000000E+00 -0.00000000000E+00 -0.12595062140E+04  0.12595062140E+04  0.00000000000E+00 0. -1.
         23    2    1    2    0    0 -0.78505617367E+03  0.32876106239E+03  0.10810192228E+03  0.86415534584E+03  0.10335087893E+03 0.  0.
    5000000    2    1    2    0    0  0.78505617367E+03 -0.32876106239E+03 -0.57394388442E+03  0.11890151200E+04  0.59995694949E+03 0.  0.
         23    2    4    4    0    0  0.72139286859E+03 -0.28683995963E+03 -0.21335443474E+03  0.81029647053E+03  0.91517331847E+02 0.  0.
         23    2    4    4    0    0  0.63663305077E+02 -0.41921102760E+02 -0.36058944968E+03  0.37871864951E+03  0.87135922510E+02 0.  0.
          1    1    3    3  502    0 -0.12268143983E+03  0.94243845520E+02  0.19436343011E+02  0.15591795768E+03  0.00000000000E+00 0. -1.
         -1    1    3    3    0  502 -0.66237473383E+03  0.23451721687E+03  0.88665579270E+02  0.70823738815E+03  0.00000000000E+00 0.  1.
         11    1    5    5    0    0  0.33350609858E+03 -0.15349049142E+03 -0.14371400152E+03  0.39425799038E+03  0.00000000000E+00 0. -1.
        -11    1    5    5    0    0  0.38788677002E+03 -0.13334946821E+03 -0.69640433219E+02  0.41603848015E+03  0.00000000000E+00 0.  1.
          1    1    6    6  503    0 -0.21903962217E+02 -0.11106589492E+02 -0.66633388323E+02  0.71015127475E+02  0.00000000000E+00 0. -1.
         -1    1    6    6    0  503  0.85567267295E+02 -0.30814513268E+02 -0.29395606136E+03  0.30770352203E+03  0.00000000000E+00 0.  1.
<mgrwt>
<rscale>  0 0.87508643E+03</rscale>
<asrwt>0</asrwt>
<pdfrwt beam="1">  1        2 0.19377019E+00 0.87508643E+03</pdfrwt>
<pdfrwt beam="2">  1       -2 0.12210219E+00 0.87508643E+03</pdfrwt>
<totfact> 0.89284883E+00</totfact>
</mgrwt>
</event>
<event>
12    1  0.1418317E-007  0.4688325E+03  0.7818608E-02  0.1022250E+00
         -2   -1    0    0    0  501 -0.00000000000E+00  0.00000000000E+00  0.25779822039E+03  0.25779822039E+03  0.00000000000E+00 0. -1.
          2   -1    0    0  501    0  0.00000000000E+00 -0.00000000000E+00 -0.15579033588E+04  0.15579033588E+04  0.00000000000E+00 0.  1.
         23    2    1    2    0    0 -0.11568426598E+03  0.31678050858E+03 -0.10105557628E+04  0.10690738143E+04  0.89236374615E+02 0.  0.
    5000000    2    1    2    0    0  0.11568426598E+03 -0.31678050858E+03 -0.28954937558E+03  0.74662776492E+03  0.59990119056E+03 0.  0.
         23    2    4    4    0    0  0.27619194407E+03 -0.30667803887E+03 -0.35220953286E+03  0.54988443508E+03  0.89375205782E+02 0.  0.
         23    2    4    4    0    0 -0.16050767809E+03 -0.10102469710E+02  0.62660157283E+02  0.19674332984E+03  0.94429168715E+02 0.  0.
          1    1    3    3  502    0 -0.22550350188E+02  0.16741626750E+03 -0.57480346296E+03  0.59911246519E+03  0.00000000000E+00 0. -1.
         -1    1    3    3    0  502 -0.93133915792E+02  0.14936424108E+03 -0.43575229986E+03  0.46996134907E+03  0.00000000000E+00 0.  1.
         13    1    5    5    0    0  0.53856725283E+02 -0.72633721742E+02 -0.34010221538E+02  0.96606933298E+02  0.00000000000E+00 0. -1.
        -13    1    5    5    0    0  0.22233521879E+03 -0.23404431713E+03 -0.31819931132E+03  0.45327750178E+03  0.00000000000E+00 0.  1.
          4    1    6    6  503    0 -0.41441371218E+02 -0.39051970686E+02  0.45754753846E+02  0.73047526736E+02  0.00000000000E+00 0. -1.
         -4    1    6    6    0  503 -0.11906630688E+03  0.28949500976E+02  0.16905403438E+02  0.12369580310E+03  0.00000000000E+00 0.  1.
<mgrwt>
<rscale>  0 0.46883249E+03</rscale>
<asrwt>0</asrwt>
<pdfrwt beam="1">  1        2 0.23967744E+00 0.46883249E+03</pdfrwt>
<pdfrwt beam="2">  1       -2 0.39661265E-01 0.46883249E+03</pdfrwt>
<totfact> 0.74853178E+01</totfact>
</mgrwt>
</event>
<event>
12    1  0.1418317E-007  0.1182513E+04  0.7818608E-02  0.9128302E-01
         -2   -1    0    0    0  501 -0.00000000000E+00  0.00000000000E+00  0.45017127869E+03  0.45017127869E+03  0.00000000000E+00 0.  1.
          2   -1    0    0  501    0  0.00000000000E+00 -0.00000000000E+00 -0.34116855770E+04  0.34116855770E+04  0.00000000000E+00 0. -1.
         23    2    1    2    0    0 -0.72113416814E+03  0.86643141543E+03 -0.93752030665E+03  0.14686811596E+04  0.85686270650E+02 0.  0.
    5000000    2    1    2    0    0  0.72113416814E+03 -0.86643141543E+03 -0.20239939917E+04  0.23931756961E+04  0.60000029013E+03 0.  0.
         23    2    4    4    0    0  0.31107325223E+03 -0.73701114480E+03 -0.15530943457E+04  0.17494236522E+04  0.91809980432E+02 0.  0.
         23    2    4    4    0    0  0.41006091591E+03 -0.12942027062E+03 -0.47089964601E+03  0.64375204394E+03  0.88151325926E+02 0.  0.
          3    1    3    3  502    0 -0.37119606203E+03  0.37926074521E+03 -0.44342344756E+03  0.69155591471E+03  0.00000000000E+00 0. -1.
         -3    1    3    3    0  502 -0.34993810611E+03  0.48717067021E+03 -0.49409685909E+03  0.77712524485E+03  0.00000000000E+00 0.  1.
         13    1    5    5    0    0  0.62437529544E+02 -0.24727654691E+03 -0.53265963252E+03  0.59056787913E+03  0.00000000000E+00 0. -1.
        -13    1    5    5    0    0  0.24863572268E+03 -0.48973459789E+03 -0.10204347132E+04  0.11588557731E+04  0.00000000000E+00 0.  1.
          1    1    6    6  503    0  0.73810458644E+02 -0.29184260490E+02 -0.42599524288E+02  0.90080099551E+02  0.00000000000E+00 0. -1.
         -1    1    6    6    0  503  0.33625045727E+03 -0.10023601013E+03 -0.42830012172E+03  0.55367194439E+03  0.00000000000E+00 0.  1.
<mgrwt>
<rscale>  0 0.11825134E+04</rscale>
<asrwt>0</asrwt>
<pdfrwt beam="1">  1        2 0.52487470E+00 0.11825134E+04</pdfrwt>
<pdfrwt beam="2">  1       -2 0.69257120E-01 0.11825134E+04</pdfrwt>
<totfact> 0.17908906E+00</totfact>
</mgrwt>
</event>
<event>
12    1  0.1418317E-007  0.8598329E+03  0.7818608E-02  0.9477234E-01
          2   -1    0    0  501    0  0.00000000000E+00  0.00000000000E+00  0.43499534625E+04  0.43499534625E+04  0.00000000000E+00 0.  1.
         -2   -1    0    0    0  501 -0.00000000000E+00 -0.00000000000E+00 -0.21544708222E+03  0.21544708222E+03  0.00000000000E+00 0. -1.
         23    2    1    2    0    0  0.76869914484E+03  0.17203319561E+03  0.98858955020E+03  0.12673634484E+04  0.91689780567E+02 0.  0.
    5000000    2    1    2    0    0 -0.76869914484E+03 -0.17203319561E+03  0.31459168301E+04  0.32980370964E+04  0.59980179345E+03 0.  0.
         23    2    4    4    0    0  0.33653831122E+02  0.45304795277E+02  0.12820322594E+03  0.16672819995E+03  0.90427433289E+02 0.  0.
         23    2    4    4    0    0 -0.80235297596E+03 -0.21733799089E+03  0.30177136042E+04  0.31313088964E+04  0.86567359638E+02 0.  0.
          3    1    3    3  502    0  0.35720500227E+03  0.67948654679E+02  0.52722337795E+03  0.64045056295E+03  0.00000000000E+00 0. -1.
         -3    1    3    3    0  502  0.41149414257E+03  0.10408454094E+03  0.46136617225E+03  0.62691288544E+03  0.00000000000E+00 0.  1.
         13    1    5    5    0    0  0.25492044899E+02 -0.21257543336E+02  0.71800937328E+02  0.79101846394E+02  0.00000000000E+00 0. -1.
        -13    1    5    5    0    0  0.81617862235E+01  0.66562338613E+02  0.56402288615E+02  0.87626353553E+02  0.00000000000E+00 0.  1.
          4    1    6    6  503    0 -0.10410708385E+03 -0.24178698071E+02  0.50804273102E+03  0.51916308699E+03  0.00000000000E+00 0. -1.
         -4    1    6    6    0  503 -0.69824589211E+03 -0.19315929282E+03  0.25096708731E+04  0.26121458094E+04  0.00000000000E+00 0.  1.
<mgrwt>
<rscale>  0 0.85983294E+03</rscale>
<asrwt>0</asrwt>
<pdfrwt beam="1">  1        2 0.66922354E+00 0.85983294E+03</pdfrwt>
<pdfrwt beam="2">  1       -2 0.33145708E-01 0.85983294E+03</pdfrwt>
<totfact> 0.15954199E+00</totfact>
</mgrwt>
</event>
<event>
12    1  0.1418317E-007  0.9431047E+03  0.7818608E-02  0.9373247E-01
          1   -1    0    0  501    0  0.00000000000E+00  0.00000000000E+00  0.73563312644E+03  0.73563312644E+03  0.00000000000E+00 0. -1.
         -1   -1    0    0    0  501 -0.00000000000E+00 -0.00000000000E+00 -0.17404723859E+04  0.17404723859E+04  0.00000000000E+00 0.  1.
         23    2    1    2    0    0  0.34373178750E+03  0.79884613264E+03 -0.11109981020E+04  0.14141956076E+04  0.96569915044E+02 0.  0.
    5000000    2    1    2    0    0 -0.34373178750E+03 -0.79884613264E+03  0.10615884251E+03  0.10619099048E+04  0.60006354721E+03 0.  0.
         23    2    4    4    0    0  0.32062080789E+02  0.56719125730E+02 -0.39915738496E+02  0.11176600232E+03  0.81567989110E+02 0.  0.
         23    2    4    4    0    0 -0.37579386829E+03 -0.85556525837E+03  0.14607458101E+03  0.95014390247E+03  0.90679156463E+02 0.  0.
          4    1    3    3  502    0  0.11737157639E+03  0.36351228606E+03 -0.53803038674E+03  0.65984389527E+03  0.00000000000E+00 0. -1.
         -4    1    3    3    0  502  0.22636021111E+03  0.43533384658E+03 -0.57296771527E+03  0.75435171232E+03  0.00000000000E+00 0.  1.
         11    1    5    5    0    0 -0.63118609495E+01  0.31064851886E+02  0.18971907814E+02  0.36943171188E+02  0.00000000000E+00 0.  1.
        -11    1    5    5    0    0  0.38373941738E+02  0.25654273843E+02 -0.58887646310E+02  0.74822831134E+02  0.00000000000E+00 0. -1.
          2    1    6    6  503    0 -0.73607239346E+02 -0.12447073667E+03 -0.53114626579E+01  0.14470384102E+03  0.00000000000E+00 0. -1.
         -2    1    6    6    0  503 -0.30218662894E+03 -0.73109452170E+03  0.15138604367E+03  0.80544006145E+03  0.00000000000E+00 0.  1.
<mgrwt>
<rscale>  0 0.94310467E+03</rscale>
<asrwt>0</asrwt>
<pdfrwt beam="1">  1        1 0.11317433E+00 0.94310467E+03</pdfrwt>
<pdfrwt beam="2">  1       -1 0.26776498E+00 0.94310467E+03</pdfrwt>
<totfact> 0.13727888E+00</totfact>
</mgrwt>
</event>
<event>
12    1  0.1418317E-007  0.1427325E+04  0.7818608E-02  0.8934273E-01
          2   -1    0    0  501    0  0.00000000000E+00  0.00000000000E+00  0.21068050567E+04  0.21068050567E+04  0.00000000000E+00 0.  1.
         -2   -1    0    0    0  501 -0.00000000000E+00 -0.00000000000E+00 -0.11003161758E+04  0.11003161758E+04  0.00000000000E+00 0. -1.
         23    2    1    2    0    0 -0.79878709286E+03  0.11706902615E+04  0.10625117586E+03  0.14241367001E+04  0.91101701328E+02 0.  0.
    5000000    2    1    2    0    0  0.79878709286E+03 -0.11706902615E+04  0.90023770508E+03  0.17829845324E+04  0.60002450698E+03 0.  0.
         23    2    4    4    0    0  0.34516979159E+03 -0.63419835759E+03  0.77549383042E+03  0.10635214286E+04  0.91309398525E+02 0.  0.
         23    2    4    4    0    0  0.45361730128E+03 -0.53649190391E+03  0.12474387466E+03  0.71946310379E+03  0.92053812921E+02 0.  0.
          4    1    3    3  502    0 -0.29786280867E+03  0.36277877426E+03  0.45511189796E+02  0.47159512322E+03  0.00000000000E+00 0. -1.
         -4    1    3    3    0  502 -0.50092428419E+03  0.80791148725E+03  0.60739986062E+02  0.95254157685E+03  0.00000000000E+00 0.  1.
         11    1    5    5    0    0  0.21520189070E+03 -0.30003870906E+03  0.38996699531E+03  0.53703755747E+03  0.00000000000E+00 0.  1.
        -11    1    5    5    0    0  0.12996790088E+03 -0.33415964853E+03  0.38552683511E+03  0.52648387113E+03  0.00000000000E+00 0. -1.
          2    1    6    6  503    0  0.30169035148E+03 -0.29766619724E+03  0.50370904321E+02  0.42680143059E+03  0.00000000000E+00 0. -1.
         -2    1    6    6    0  503  0.15192694980E+03 -0.23882570668E+03  0.74372970337E+02  0.29266167320E+03  0.00000000000E+00 0.  1.
<mgrwt>
<rscale>  0 0.14273250E+04</rscale>
<asrwt>0</asrwt>
<pdfrwt beam="1">  1        2 0.32412385E+00 0.14273250E+04</pdfrwt>
<pdfrwt beam="2">  1       -2 0.16927941E+00 0.14273250E+04</pdfrwt>
<totfact> 0.11918242E+00</totfact>
</mgrwt>
</event>
<event>
12    1  0.1418317E-007  0.1000286E+04  0.7818608E-02  0.9308231E-01
         -2   -1    0    0    0  501 -0.00000000000E+00  0.00000000000E+00  0.10589668919E+04  0.10589668919E+04  0.00000000000E+00 0.  1.
          2   -1    0    0  501    0  0.00000000000E+00 -0.00000000000E+00 -0.10378956620E+04  0.10378956620E+04  0.00000000000E+00 0. -1.
         23    2    1    2    0    0  0.17697795992E+03 -0.94024609251E+03  0.94667036018E+02  0.96530808923E+03  0.86451990430E+02 0.  0.
    5000000    2    1    2    0    0 -0.17697795992E+03  0.94024609251E+03 -0.73595806163E+02  0.11315544646E+04  0.59967929011E+03 0.  0.
         23    2    4    4    0    0  0.63785563372E+02  0.65782529811E+03 -0.24978313177E+03  0.71201110486E+03  0.88121958663E+02 0.  0.
         23    2    4    4    0    0 -0.24076352329E+03  0.28242079439E+03  0.17618732560E+03  0.41954335978E+03  0.85123896639E+02 0.  0.
          1    1    3    3  502    0  0.78210206498E+02 -0.21679065427E+03  0.25479146792E+02  0.23187110881E+03  0.00000000000E+00 0. -1.
         -1    1    3    3    0  502  0.98767753419E+02 -0.72345543823E+03  0.69187889225E+02  0.73343698041E+03  0.00000000000E+00 0.  1.
         11    1    5    5    0    0  0.53737806382E+02  0.28636185255E+03 -0.14762489217E+03  0.32662512337E+03  0.00000000000E+00 0.  1.
        -11    1    5    5    0    0  0.10047756990E+02  0.37146344556E+03 -0.10215823960E+03  0.38538598149E+03  0.00000000000E+00 0. -1.
          1    1    6    6  503    0 -0.95383125318E+02  0.16291922438E+03  0.58758363114E+02  0.19771990164E+03  0.00000000000E+00 0. -1.
         -1    1    6    6    0  503 -0.14538039797E+03  0.11950157001E+03  0.11742896249E+03  0.22182345814E+03  0.00000000000E+00 0.  1.
<mgrwt>
<rscale>  0 0.10002859E+04</rscale>
<asrwt>0</asrwt>
<pdfrwt beam="1">  1        2 0.15967626E+00 0.10002859E+04</pdfrwt>
<pdfrwt beam="2">  1       -2 0.16291798E+00 0.10002859E+04</pdfrwt>
<totfact> 0.56607511E+00</totfact>
</mgrwt>
</event>
<event>
12    1  0.1418317E-007  0.4814252E+03  0.7818608E-02  0.1018744E+00
         -4   -1    0    0    0  501 -0.00000000000E+00  0.00000000000E+00  0.74920788903E+03  0.74920788903E+03  0.00000000000E+00 0.  1.
          4   -1    0    0  501    0  0.00000000000E+00 -0.00000000000E+00 -0.38067023653E+03  0.38067023653E+03  0.00000000000E+00 0. -1.
         23    2    1    2    0    0  0.21992996820E+03  0.21355330795E+03  0.32276831506E+03  0.45458488410E+03  0.92161952008E+02 0.  0.
    5000000    2    1    2    0    0 -0.21992996820E+03 -0.21355330795E+03  0.45769337443E+02  0.67529324146E+03  0.59995993488E+03 0.  0.
         23    2    4    4    0    0 -0.39885891131E+03 -0.82504894519E+02 -0.45430624461E+02  0.41871641245E+03  0.85813773185E+02 0.  0.
         23    2    4    4    0    0  0.17892894310E+03 -0.13104841343E+03  0.91199961904E+02  0.25657682901E+03  0.91241343640E+02 0.  0.
          4    1    3    3  502    0  0.80474007033E+02  0.87018553807E+02  0.64443469320E+02  0.13491202783E+03  0.00000000000E+00 0. -1.
         -4    1    3    3    0  502  0.13945596117E+03  0.12653475414E+03  0.25832484574E+03  0.31967285627E+03  0.00000000000E+00 0.  1.
         13    1    5    5    0    0 -0.13593829359E+03  0.12805505301E+02 -0.12128594055E+02  0.13707772767E+03  0.00000000000E+00 0. -1.
        -13    1    5    5    0    0 -0.26292061772E+03 -0.95310399820E+02 -0.33302030406E+02  0.28163868478E+03  0.00000000000E+00 0.  1.
          2    1    6    6  503    0  0.24846822900E+02  0.13729619495E+02  0.10259879169E+02  0.30184966130E+02  0.00000000000E+00 0. -1.
         -2    1    6    6    0  503  0.15408212020E+03 -0.14477803292E+03  0.80940082735E+02  0.22639186288E+03  0.00000000000E+00 0.  1.
<mgrwt>
<rscale>  0 0.48142517E+03</rscale>
<asrwt>0</asrwt>
<pdfrwt beam="1">  1        4 0.58564652E-01 0.48142517E+03</pdfrwt>
<pdfrwt beam="2">  1       -4 0.11526275E+00 0.48142517E+03</pdfrwt>
<totfact> 0.31468199E+00</totfact>
</mgrwt>
</event>
<event>
12    1  0.1505293E-007  0.1710180E+04  0.7818608E-02  0.8755580E-01
          1   -1    0    0  501    0  0.00000000000E+00  0.00000000000E+00  0.16017613901E+04  0.16017613901E+04  0.00000000000E+00 0.  1.
         -1   -1    0    0    0  501 -0.00000000000E+00 -0.00000000000E+00 -0.21488868676E+04  0.21488868676E+04  0.00000000000E+00 0. -1.
         23    2    1    2    0    0  0.17946056047E+03  0.16956311587E+04  0.33341979581E+03  0.17400059775E+04  0.95293873390E+02 0.  0.
    5000000    2    1    2    0    0 -0.17946056047E+03 -0.16956311587E+04 -0.88054527324E+03  0.20106422802E+04  0.59995939991E+03 0.  0.
         23    2    4    4    0    0 -0.85673758889E+02 -0.35239617006E+03 -0.46892202107E+03  0.59952449950E+03  0.89547250209E+02 0.  0.
         23    2    4    4    0    0 -0.93786801584E+02 -0.13432349886E+04 -0.41162325216E+03  0.14111177807E+04  0.93506632889E+02 0.  0.
          2    1    3    3  502    0  0.13977443903E+03  0.97912163258E+03  0.16227564688E+03  0.10022721441E+04  0.00000000000E+00 0. -1.
         -2    1    3    3    0  502  0.39686121446E+02  0.71650952612E+03  0.17114414893E+03  0.73773383342E+03  0.00000000000E+00 0.  1.
         13    1    5    5    0    0 -0.77467579875E+01 -0.15061302925E+03 -0.13952686581E+03  0.20545569625E+03  0.00000000000E+00 0. -1.
        -13    1    5    5    0    0 -0.77927000902E+02 -0.20178314081E+03 -0.32939515526E+03  0.39406880325E+03  0.00000000000E+00 0.  1.
          3    1    6    6  503    0 -0.52885048719E+02 -0.85814285867E+03 -0.30894728634E+03  0.91359423159E+03  0.00000000000E+00 0. -1.
         -3    1    6    6    0  503 -0.40901752865E+02 -0.48509212997E+03 -0.10267596583E+03  0.49752354910E+03  0.00000000000E+00 0.  1.
<mgrwt>
<rscale>  0 0.17101800E+04</rscale>
<asrwt>0</asrwt>
<pdfrwt beam="1">  1        1 0.24642483E+00 0.17101800E+04</pdfrwt>
<pdfrwt beam="2">  1       -1 0.33059798E+00 0.17101800E+04</pdfrwt>
<totfact> 0.10709021E-01</totfact>
</mgrwt>
</event>
<event>
12    1  0.1418317E-007  0.9944026E+03  0.7818608E-02  0.9314705E-01
         -1   -1    0    0    0  501 -0.00000000000E+00  0.00000000000E+00  0.10588177155E+04  0.10588177155E+04  0.00000000000E+00 0.  1.
          1   -1    0    0  501    0  0.00000000000E+00 -0.00000000000E+00 -0.10181011535E+04  0.10181011535E+04  0.00000000000E+00 0. -1.
         23    2    1    2    0    0 -0.90339346928E+03  0.28085971906E+03 -0.57310204807E+02  0.95222403908E+03  0.91892431098E+02 0.  0.
    5000000    2    1    2    0    0  0.90339346928E+03 -0.28085971906E+03  0.98026766797E+02  0.11246948299E+04  0.60027266415E+03 0.  0.
         23    2    4    4    0    0  0.72160293944E+03 -0.39480701650E+03  0.22372378617E+03  0.85682579254E+03  0.86687506480E+02 0.  0.
         23    2    4    4    0    0  0.18179052984E+03  0.11394729744E+03 -0.12569701938E+03  0.26786903739E+03  0.99610728225E+02 0.  0.
          3    1    3    3  502    0 -0.87295625643E+03  0.25930290764E+03 -0.41170788132E+02  0.91158414716E+03  0.00000000000E+00 0. -1.
         -3    1    3    3    0  502 -0.30437212845E+02  0.21556811419E+02 -0.16139416676E+02  0.40639891916E+02  0.00000000000E+00 0.  1.
         11    1    5    5    0    0  0.66222771235E+03 -0.38358907406E+03  0.19411479995E+03  0.78953573466E+03  0.00000000000E+00 0.  1.
        -11    1    5    5    0    0  0.59375227086E+02 -0.11217942433E+02  0.29608986223E+02  0.67290057877E+02  0.00000000000E+00 0. -1.
          4    1    6    6  503    0  0.99466554176E+02  0.71542329617E+02 -0.14833256381E+02  0.12341768845E+03  0.00000000000E+00 0. -1.
         -4    1    6    6    0  503  0.82323975665E+02  0.42404967820E+02 -0.11086376300E+03  0.14445134894E+03  0.00000000000E+00 0.  1.
<mgrwt>
<rscale>  0 0.99440264E+03</rscale>
<asrwt>0</asrwt>
<pdfrwt beam="1">  1        1 0.15663095E+00 0.99440264E+03</pdfrwt>
<pdfrwt beam="2">  1       -1 0.16289503E+00 0.99440264E+03</pdfrwt>
<totfact> 0.40848486E+00</totfact>
</mgrwt>
</event>
<event>
12    1  0.1418317E-007  0.4197315E+03  0.7818608E-02  0.1037154E+00
          1   -1    0    0  501    0  0.00000000000E+00  0.00000000000E+00  0.66868589201E+03  0.66868589201E+03  0.00000000000E+00 0.  1.
         -1   -1    0    0    0  501 -0.00000000000E+00 -0.00000000000E+00 -0.38370681353E+03  0.38370681353E+03  0.00000000000E+00 0. -1.
         23    2    1    2    0    0 -0.16021654015E+03 -0.16036687672E+03 -0.14230166520E+03  0.28150827968E+03  0.87236877083E+02 0.  0.
    5000000    2    1    2    0    0  0.16021654015E+03  0.16036687672E+03  0.42728074368E+03  0.77088442586E+03  0.60025585314E+03 0.  0.
         23    2    4    4    0    0  0.36479801226E+03  0.78273291900E+02  0.17546620056E+03  0.42254311519E+03  0.92466202915E+02 0.  0.
         23    2    4    4    0    0 -0.20458147212E+03  0.82093584823E+02  0.25181454312E+03  0.34834131066E+03  0.96634202980E+02 0.  0.
          3    1    3    3  502    0 -0.80956107952E+02 -0.93641487059E+02 -0.12599094870E+03  0.17662485291E+03  0.00000000000E+00 0. -1.
         -3    1    3    3    0  502 -0.79260432195E+02 -0.66725389663E+02 -0.16310716505E+02  0.10488342677E+03  0.00000000000E+00 0.  1.
         11    1    5    5    0    0  0.29406797951E+03  0.56727110637E+02  0.97184648621E+02  0.31486314104E+03  0.00000000000E+00 0.  1.
        -11    1    5    5    0    0  0.70730032750E+02  0.21546181262E+02  0.78281551943E+02  0.10767997416E+03  0.00000000000E+00 0. -1.
          2    1    6    6  503    0 -0.36600739479E+02  0.58509433066E+02  0.94310501621E+02  0.11686504441E+03  0.00000000000E+00 0. -1.
         -2    1    6    6    0  503 -0.16798073264E+03  0.23584151757E+02  0.15750404150E+03  0.23147626626E+03  0.00000000000E+00 0.  1.
<mgrwt>
<rscale>  0 0.41973147E+03</rscale>
<asrwt>0</asrwt>
<pdfrwt beam="1">  1        1 0.10287475E+00 0.41973147E+03</pdfrwt>
<pdfrwt beam="2">  1       -1 0.59031818E-01 0.41973147E+03</pdfrwt>
<totfact> 0.89414055E+01</totfact>
</mgrwt>
</event>
<event>
12    1  0.1418317E-007  0.4991278E+03  0.7818608E-02  0.1014007E+00
          4   -1    0    0  501    0  0.00000000000E+00  0.00000000000E+00  0.20379344262E+04  0.20379344262E+04  0.00000000000E+00 0.  1.
         -4   -1    0    0    0  501 -0.00000000000E+00 -0.00000000000E+00 -0.15600670595E+03  0.15600670595E+03  0.00000000000E+00 0. -1.
         23    2    1    2    0    0 -0.25379122999E+03  0.20589121759E+03  0.24116385841E+03  0.41648985373E+03  0.92209596862E+02 0.  0.
    5000000    2    1    2    0    0  0.25379122999E+03 -0.20589121759E+03  0.16407638619E+04  0.17774512784E+04  0.60035474092E+03 0.  0.
         23    2    4    4    0    0 -0.16040057498E+03 -0.17219549016E+03  0.49623940636E+03  0.55718181424E+03  0.93906306601E+02 0.  0.
         23    2    4    4    0    0  0.41419180497E+03 -0.33695727436E+02  0.11445244555E+04  0.12202694642E+04  0.80194031343E+02 0.  0.
          3    1    3    3  502    0 -0.30254625077E+02  0.42070809780E+02  0.44354845134E+01  0.52009315483E+02  0.00000000000E+00 0. -1.
         -3    1    3    3    0  502 -0.22353660491E+03  0.16382040781E+03  0.23672837390E+03  0.36448053824E+03  0.00000000000E+00 0.  1.
         11    1    5    5    0    0  0.89746113344E+01 -0.24201795480E+00  0.40403046856E+02  0.41388505851E+02  0.00000000000E+00 0.  1.
        -11    1    5    5    0    0 -0.16937518631E+03 -0.17195347220E+03  0.45583635950E+03  0.51579330839E+03  0.00000000000E+00 0. -1.
          3    1    6    6  503    0  0.38958271896E+03 -0.44430780799E+02  0.11048335253E+04  0.11723505908E+04  0.00000000000E+00 0. -1.
         -3    1    6    6    0  503  0.24609086002E+02  0.10735053363E+02  0.39690930222E+02  0.47918873384E+02  0.00000000000E+00 0.  1.
<mgrwt>
<rscale>  0 0.49912782E+03</rscale>
<asrwt>0</asrwt>
<pdfrwt beam="1">  1        4 0.31352836E+00 0.49912782E+03</pdfrwt>
<pdfrwt beam="2">  1       -4 0.24001033E-01 0.49912782E+03</pdfrwt>
<totfact> 0.86689788E-01</totfact>
</mgrwt>
</event>
<event>
12    1  0.1418317E-007  0.8921347E+03  0.7818608E-02  0.9435467E-01
         -2   -1    0    0    0  501 -0.00000000000E+00  0.00000000000E+00  0.10061430995E+04  0.10061430995E+04  0.00000000000E+00 0.  1.
          2   -1    0    0  501    0  0.00000000000E+00 -0.00000000000E+00 -0.10377323151E+04  0.10377323151E+04  0.00000000000E+00 0. -1.
         23    2    1    2    0    0 -0.52516058922E+03  0.60508908236E+03 -0.48947656646E+03  0.94318247354E+03  0.89885634080E+02 0.  0.
    5000000    2    1    2    0    0  0.52516058922E+03 -0.60508908236E+03  0.45788735088E+03  0.11006929411E+04  0.59994806647E+03 0.  0.
         23    2    4    4    0    0  0.38356875773E+03 -0.68898257037E+03  0.44848196970E+03  0.91142319102E+03  0.87944197127E+02 0.  0.
         23    2    4    4    0    0  0.14159183149E+03  0.83893488007E+02  0.94053811827E+01  0.18926975009E+03  0.92995768880E+02 0.  0.
          2    1    3    3  502    0 -0.12955968763E+03  0.96530456410E+02 -0.10947390709E+03  0.19516244005E+03  0.00000000000E+00 0. -1.
         -2    1    3    3    0  502 -0.39560090159E+03  0.50855862595E+03 -0.38000265938E+03  0.74802003349E+03  0.00000000000E+00 0.  1.
         13    1    5    5    0    0  0.21652468817E+03 -0.35235553168E+03  0.28098976980E+03  0.49999261197E+03  0.00000000000E+00 0.  1.
        -13    1    5    5    0    0  0.16704406956E+03 -0.33662703869E+03  0.16749219990E+03  0.41143057905E+03  0.00000000000E+00 0. -1.
          3    1    6    6  503    0  0.81116082838E+01  0.50892564862E+02  0.22005783593E+01  0.51581914392E+02  0.00000000000E+00 0. -1.
         -3    1    6    6    0  503  0.13348022321E+03  0.33000923145E+02  0.72048028234E+01  0.13768783570E+03  0.00000000000E+00 0.  1.
<mgrwt>
<rscale>  0 0.89213472E+03</rscale>
<asrwt>0</asrwt>
<pdfrwt beam="1">  1        2 0.15965113E+00 0.89213472E+03</pdfrwt>
<pdfrwt beam="2">  1       -2 0.15479125E+00 0.89213472E+03</pdfrwt>
<totfact> 0.65799090E+00</totfact>
</mgrwt>
</event>
<event>
12    1  0.1418317E-007  0.8671767E+03  0.7818608E-02  0.9467569E-01
          2   -1    0    0  501    0  0.00000000000E+00  0.00000000000E+00  0.90107681273E+03  0.90107681273E+03  0.00000000000E+00 0. -1.
         -2   -1    0    0    0  501 -0.00000000000E+00 -0.00000000000E+00 -0.99982997714E+03  0.99982997714E+03  0.00000000000E+00 0.  1.
         23    2    1    2    0    0  0.75156874917E+03 -0.27592483109E+03 -0.33528879623E+03  0.87280941791E+03  0.91583873982E+02 0.  0.
    5000000    2    1    2    0    0 -0.75156874917E+03  0.27592483109E+03  0.23653563182E+03  0.10280973720E+04  0.60003750214E+03 0.  0.
         23    2    4    4    0    0 -0.81502049649E+03  0.22312956258E+03  0.11854888464E+03  0.85778822565E+03  0.87758706838E+02 0.  0.
         23    2    4    4    0    0  0.63451747316E+02  0.52795268512E+02  0.11798674717E+03  0.17030914631E+03  0.90944313697E+02 0.  0.
          4    1    3    3  502    0  0.25938917326E+03 -0.10772192037E+03 -0.16379257505E+03  0.32513806756E+03  0.00000000000E+00 0. -1.
         -4    1    3    3    0  502  0.49217957591E+03 -0.16820291072E+03 -0.17149622117E+03  0.54767135035E+03  0.00000000000E+00 0.  1.
         11    1    5    5    0    0 -0.77508635625E+03  0.21742696974E+03  0.13094863123E+03  0.81558622526E+03  0.00000000000E+00 0.  1.
        -11    1    5    5    0    0 -0.39934140239E+02  0.57025928418E+01 -0.12399746586E+02  0.42202000393E+02  0.00000000000E+00 0. -1.
          2    1    6    6  503    0  0.12358831953E+02  0.29254796015E+02 -0.76380902904E+01  0.32663806276E+02  0.00000000000E+00 0. -1.
         -2    1    6    6    0  503  0.51092915364E+02  0.23540472497E+02  0.12562483746E+03  0.13764534003E+03  0.00000000000E+00 0.  1.
<mgrwt>
<rscale>  0 0.86717673E+03</rscale>
<asrwt>0</asrwt>
<pdfrwt beam="1">  1        2 0.13862720E+00 0.86717673E+03</pdfrwt>
<pdfrwt beam="2">  1       -2 0.15382000E+00 0.86717673E+03</pdfrwt>
<totfact> 0.82369485E+00</totfact>
</mgrwt>
</event>
<event>
12    1  0.1418317E-007  0.5717354E+03  0.7818608E-02  0.9965846E-01
          1   -1    0    0  501    0  0.00000000000E+00  0.00000000000E+00  0.12206658659E+04  0.12206658659E+04  0.00000000000E+00 0. -1.
         -1   -1    0    0    0  501 -0.00000000000E+00 -0.00000000000E+00 -0.29471837246E+03  0.29471837246E+03  0.00000000000E+00 0.  1.
         23    2    1    2    0    0  0.18573621760E+03 -0.38622487257E+03  0.20226865835E+03  0.48229338391E+03  0.89591870698E+02 0.  0.
    5000000    2    1    2    0    0 -0.18573621760E+03  0.38622487257E+03  0.72367883506E+03  0.10330908544E+04  0.59991504604E+03 0.  0.
         23    2    4    4    0    0 -0.10846135715E+03 -0.13727789788E+03  0.15525644647E+03  0.25102900199E+03  0.91114809064E+02 0.  0.
         23    2    4    4    0    0 -0.77274860441E+02  0.52350277044E+03  0.56842238859E+03  0.78206185244E+03  0.92142142710E+02 0.  0.
          3    1    3    3  502    0  0.91069549274E+02 -0.11196450153E+03  0.95849264326E+02  0.17325355373E+03  0.00000000000E+00 0. -1.
         -3    1    3    3    0  502  0.94666668321E+02 -0.27426037104E+03  0.10641939403E+03  0.30903983018E+03  0.00000000000E+00 0.  1.
         11    1    5    5    0    0 -0.87648426789E+02 -0.94288962010E+02  0.55028993541E+02  0.14000301856E+03  0.00000000000E+00 0. -1.
        -11    1    5    5    0    0 -0.20812930366E+02 -0.42988935865E+02  0.10022745293E+03  0.11102598343E+03  0.00000000000E+00 0.  1.
          2    1    6    6  503    0 -0.10226957838E+02  0.27294451353E+03  0.34263110375E+03  0.43817732870E+03  0.00000000000E+00 0.  1.
         -2    1    6    6    0  503 -0.67047902603E+02  0.25055825692E+03  0.22579128484E+03  0.34388452373E+03  0.00000000000E+00 0. -1.
<mgrwt>
<rscale>  0 0.57173544E+03</rscale>
<asrwt>0</asrwt>
<pdfrwt beam="1">  1        1 0.18779475E+00 0.57173544E+03</pdfrwt>
<pdfrwt beam="2">  1       -1 0.45341289E-01 0.57173544E+03</pdfrwt>
<totfact> 0.52187900E+01</totfact>
</mgrwt>
</event>
<event>
12    1  0.1418317E-007  0.5445830E+03  0.7818608E-02  0.1002756E+00
         -2   -1    0    0    0  501 -0.00000000000E+00  0.00000000000E+00  0.16320245401E+03  0.16320245401E+03  0.00000000000E+00 0.  1.
          2   -1    0    0  501    0  0.00000000000E+00 -0.00000000000E+00 -0.24058191899E+04  0.24058191899E+04  0.00000000000E+00 0. -1.
         23    2    1    2    0    0 -0.17643298238E+03 -0.36650677508E+03 -0.13831275476E+04  0.14445832562E+04  0.91231342374E+02 0.  0.
    5000000    2    1    2    0    0  0.17643298238E+03  0.36650677508E+03 -0.85948918835E+03  0.11244383877E+04  0.60015348825E+03 0.  0.
         23    2    4    4    0    0  0.36770298893E+03  0.26039595154E+03 -0.40474118575E+03  0.61168910697E+03  0.85653934493E+02 0.  0.
         23    2    4    4    0    0 -0.19127000656E+03  0.10611082354E+03 -0.45474800261E+03  0.51274928077E+03  0.90952497340E+02 0.  0.
          3    1    3    3  502    0 -0.58064950335E+01 -0.57746047554E+01 -0.11178340438E+03  0.11208296454E+03  0.00000000000E+00 0. -1.
         -3    1    3    3    0  502 -0.17062648734E+03 -0.36073217032E+03 -0.12713441432E+04  0.13325002917E+04  0.00000000000E+00 0.  1.
         11    1    5    5    0    0  0.16798177467E+03  0.68121274896E+02 -0.15277072954E+03  0.23705965604E+03  0.00000000000E+00 0.  1.
        -11    1    5    5    0    0  0.19972121426E+03  0.19227467664E+03 -0.25197045621E+03  0.37462945093E+03  0.00000000000E+00 0. -1.
          1    1    6    6  503    0 -0.94668245228E+02  0.26668438995E+02 -0.28784153159E+03  0.30418091591E+03  0.00000000000E+00 0. -1.
         -1    1    6    6    0  503 -0.96601761327E+02  0.79442384544E+02 -0.16690647101E+03  0.20856836486E+03  0.00000000000E+00 0.  1.
<mgrwt>
<rscale>  0 0.54458296E+03</rscale>
<asrwt>0</asrwt>
<pdfrwt beam="1">  1        2 0.37012599E+00 0.54458296E+03</pdfrwt>
<pdfrwt beam="2">  1       -2 0.25108073E-01 0.54458296E+03</pdfrwt>
<totfact> 0.60041765E+01</totfact>
</mgrwt>
</event>
<event>
12    1  0.1418317E-007  0.2697705E+03  0.7818608E-02  0.1101411E+00
          2   -1    0    0  501    0  0.00000000000E+00  0.00000000000E+00  0.28469059292E+04  0.28469059292E+04  0.00000000000E+00 0.  1.
         -2   -1    0    0    0  501 -0.00000000000E+00 -0.00000000000E+00 -0.68798663754E+02  0.68798663754E+02  0.00000000000E+00 0. -1.
         23    2    1    2    0    0  0.19345704143E+03  0.95288473911E+02  0.99350315714E+03  0.10205965226E+04  0.89795426402E+02 0.  0.
    5000000    2    1    2    0    0 -0.19345704143E+03 -0.95288473911E+02  0.17846041083E+04  0.18951080703E+04  0.60009770431E+03 0.  0.
         23    2    4    4    0    0 -0.20095795200E+02  0.22736607934E+00 -0.18556455163E+01  0.95739578774E+02  0.93588091355E+02 0.  0.
         23    2    4    4    0    0 -0.17336124623E+03 -0.95515839990E+02  0.17864597538E+04  0.17993684916E+04  0.84327451048E+02 0.  0.
          3    1    3    3  502    0  0.47661952831E+02  0.68669287604E+02  0.29955891931E+03  0.31100269926E+03  0.00000000000E+00 0. -1.
         -3    1    3    3    0  502  0.14579508860E+03  0.26619186307E+02  0.69394423783E+03  0.70959382336E+03  0.00000000000E+00 0.  1.
         13    1    5    5    0    0  0.26310910715E+02  0.28241563125E+02  0.10787875863E+02  0.40077776586E+02  0.00000000000E+00 0.  1.
        -13    1    5    5    0    0 -0.46406705915E+02 -0.28014197046E+02 -0.12643521379E+02  0.55661802188E+02  0.00000000000E+00 0. -1.
          1    1    6    6  503    0 -0.10746432903E+03 -0.11371419933E+02  0.85875614609E+03  0.86552874571E+03  0.00000000000E+00 0. -1.
         -1    1    6    6    0  503 -0.65896917203E+02 -0.84144420058E+02  0.92770360773E+03  0.93383974584E+03  0.00000000000E+00 0.  1.
<mgrwt>
<rscale>  0 0.26977047E+03</rscale>
<asrwt>0</asrwt>
<pdfrwt beam="1">  1        2 0.43798544E+00 0.26977047E+03</pdfrwt>
<pdfrwt beam="2">  1       -2 0.10584412E-01 0.26977047E+03</pdfrwt>
<totfact> 0.15557858E+02</totfact>
</mgrwt>
</event>
<event>
12    1  0.1418317E-007  0.9997065E+03  0.7818608E-02  0.9308867E-01
         -2   -1    0    0    0  501 -0.00000000000E+00  0.00000000000E+00  0.13150133595E+04  0.13150133595E+04  0.00000000000E+00 0.  1.
          2   -1    0    0  501    0  0.00000000000E+00 -0.00000000000E+00 -0.77829161573E+03  0.77829161573E+03  0.00000000000E+00 0. -1.
         23    2    1    2    0    0 -0.27084922851E+03 -0.87268989518E+03  0.13276620587E+03  0.92790359280E+03  0.91821862202E+02 0.  0.
    5000000    2    1    2    0    0  0.27084922851E+03  0.87268989518E+03  0.40395553789E+03  0.11654013824E+04  0.60002778918E+03 0.  0.
         23    2    4    4    0    0  0.44172011675E+03  0.63643093161E+03  0.35250926651E+03  0.85534664765E+03  0.84818113767E+02 0.  0.
         23    2    4    4    0    0 -0.17087088824E+03  0.23625896357E+03  0.51446271378E+02  0.31005473475E+03  0.92043801464E+02 0.  0.
          3    1    3    3  502    0 -0.15476908011E+03 -0.57239058334E+03  0.12432441324E+03  0.60583909397E+03  0.00000000000E+00 0. -1.
         -3    1    3    3    0  502 -0.11608014841E+03 -0.30029931184E+03  0.84417926267E+01  0.32206449884E+03  0.00000000000E+00 0.  1.
         13    1    5    5    0    0  0.11689096894E+03  0.11020075353E+03  0.63632852898E+02  0.17279133273E+03  0.00000000000E+00 0. -1.
        -13    1    5    5    0    0  0.32482914781E+03  0.52623017808E+03  0.28887641361E+03  0.68255531492E+03  0.00000000000E+00 0.  1.
          1    1    6    6  503    0 -0.14811737848E+03  0.13091110239E+03  0.26694431383E+02  0.19947197097E+03  0.00000000000E+00 0. -1.
         -1    1    6    6    0  503 -0.22753509761E+02  0.10534786119E+03  0.24751839995E+02  0.11058276378E+03  0.00000000000E+00 0.  1.
<mgrwt>
<rscale>  0 0.99970647E+03</rscale>
<asrwt>0</asrwt>
<pdfrwt beam="1">  1        2 0.11973717E+00 0.99970647E+03</pdfrwt>
<pdfrwt beam="2">  1       -2 0.20230975E+00 0.99970647E+03</pdfrwt>
<totfact> 0.45573147E+00</totfact>
</mgrwt>
</event>
<event>
12    1  0.1418317E-007  0.4514018E+03  0.7818608E-02  0.1027305E+00
         -2   -1    0    0    0  501 -0.00000000000E+00  0.00000000000E+00  0.15216643144E+03  0.15216643144E+03  0.00000000000E+00 0.  1.
          2   -1    0    0  501    0  0.00000000000E+00 -0.00000000000E+00 -0.14519075909E+04  0.14519075909E+04  0.00000000000E+00 0. -1.
         23    2    1    2    0    0  0.36174498978E+02  0.26626903921E+03 -0.38572551384E+03  0.47806494557E+03  0.86914466803E+02 0.  0.
    5000000    2    1    2    0    0 -0.36174498978E+02 -0.26626903921E+03 -0.91401564564E+03  0.11260090768E+04  0.60021999710E+03 0.  0.
         23    2    4    4    0    0 -0.19026207766E+03  0.98964042332E+02 -0.21336124282E+03  0.31583487655E+03  0.90747503761E+02 0.  0.
         23    2    4    4    0    0  0.15408757868E+03 -0.36523308154E+03 -0.70065440282E+03  0.81017420024E+03  0.91254900064E+02 0.  0.
          3    1    3    3  502    0  0.63060548368E+02  0.16062160500E+03 -0.25417670608E+03  0.30721609767E+03  0.00000000000E+00 0. -1.
         -3    1    3    3    0  502 -0.26886049389E+02  0.10564743421E+03 -0.13154880776E+03  0.17084884790E+03  0.00000000000E+00 0.  1.
         13    1    5    5    0    0 -0.93167130734E+02  0.49022395549E+02 -0.16655811987E+03  0.19704039385E+03  0.00000000000E+00 0. -1.
        -13    1    5    5    0    0 -0.97094946925E+02  0.49941646783E+02 -0.46803122947E+02  0.11879448270E+03  0.00000000000E+00 0.  1.
          1    1    6    6  503    0  0.95703993736E+02 -0.31670653835E+03 -0.57164018725E+03  0.66048072609E+03  0.00000000000E+00 0. -1.
         -1    1    6    6    0  503  0.58383584945E+02 -0.48526543192E+02 -0.12901421556E+03  0.14969347415E+03  0.00000000000E+00 0.  1.
<mgrwt>
<rscale>  0 0.45140181E+03</rscale>
<asrwt>0</asrwt>
<pdfrwt beam="1">  1        2 0.22337039E+00 0.45140181E+03</pdfrwt>
<pdfrwt beam="2">  1       -2 0.23410222E-01 0.45140181E+03</pdfrwt>
<totfact> 0.22714715E+02</totfact>
</mgrwt>
</event>
<event>
12    1  0.1418317E-007  0.3838578E+03  0.7818608E-02  0.1049517E+00
          1   -1    0    0  501    0  0.00000000000E+00  0.00000000000E+00  0.56751686434E+03  0.56751686434E+03  0.00000000000E+00 0. -1.
         -1   -1    0    0    0  501 -0.00000000000E+00 -0.00000000000E+00 -0.39487124052E+03  0.39487124052E+03  0.00000000000E+00 0.  1.
         23    2    1    2    0    0  0.27020874508E+03 -0.24915776724E+02  0.94452912485E+02  0.29917277825E+03  0.83363281616E+02 0.  0.
    5000000    2    1    2    0    0 -0.27020874508E+03  0.24915776724E+02  0.78192711333E+02  0.66321532660E+03  0.60008908295E+03 0.  0.
         23    2    4    4    0    0  0.10433506463E+03 -0.29326063813E+02  0.20966034255E+03  0.25152074613E+03  0.86944825992E+02 0.  0.
         23    2    4    4    0    0 -0.37454380972E+03  0.54241840537E+02 -0.13146763121E+03  0.41169458047E+03  0.94781046983E+02 0.  0.
          2    1    3    3  502    0  0.14072983668E+03 -0.69710235386E+01  0.54026348928E+01  0.14100592386E+03  0.00000000000E+00 0.  1.
         -2    1    3    3    0  502  0.12947890841E+03 -0.17944753186E+02  0.89050277592E+02  0.15816685439E+03  0.00000000000E+00 0. -1.
         13    1    5    5    0    0  0.36698385863E+02 -0.10306257264E+02  0.93534337769E+01  0.39248913197E+02  0.00000000000E+00 0. -1.
        -13    1    5    5    0    0  0.67636678770E+02 -0.19019806549E+02  0.20030690877E+03  0.21227183293E+03  0.00000000000E+00 0.  1.
          1    1    6    6  503    0 -0.19873995827E+03  0.71176359973E+02 -0.94313503183E+02  0.23121133648E+03  0.00000000000E+00 0. -1.
         -1    1    6    6    0  503 -0.17580385145E+03 -0.16934519436E+02 -0.37154128030E+02  0.18048324399E+03  0.00000000000E+00 0.  1.
<mgrwt>
<rscale>  0 0.38385783E+03</rscale>
<asrwt>0</asrwt>
<pdfrwt beam="1">  1        1 0.87310287E-01 0.38385783E+03</pdfrwt>
<pdfrwt beam="2">  1       -1 0.60749422E-01 0.38385783E+03</pdfrwt>
<totfact> 0.10731833E+02</totfact>
</mgrwt>
</event>
<event>
12    1  0.1418317E-007  0.1181843E+04  0.7818608E-02  0.9128899E-01
          1   -1    0    0  501    0  0.00000000000E+00  0.00000000000E+00  0.19570444616E+04  0.19570444616E+04  0.00000000000E+00 0. -1.
         -1   -1    0    0    0  501 -0.00000000000E+00 -0.00000000000E+00 -0.11864090444E+04  0.11864090444E+04  0.00000000000E+00 0.  1.
         23    2    1    2    0    0 -0.11000574552E+04  0.13323768711E+03  0.13562858292E+04  0.17539098653E+04  0.93860955520E+02 0.  0.
    5000000    2    1    2    0    0  0.11000574552E+04 -0.13323768711E+03 -0.58565041203E+03  0.13895436406E+04  0.59997203104E+03 0.  0.
         23    2    4    4    0    0  0.27095201774E+03 -0.28969978118E+03 -0.24549324400E+03  0.47527181101E+03  0.90969238539E+02 0.  0.
         23    2    4    4    0    0  0.82910543751E+03  0.15646209407E+03 -0.34015716803E+03  0.91427182963E+03  0.91048701872E+02 0.  0.
          4    1    3    3  502    0 -0.10274153601E+04  0.10033635218E+03  0.12614532459E+04  0.16300042937E+04  0.00000000000E+00 0. -1.
         -4    1    3    3    0  502 -0.72642095104E+02  0.32901334928E+02  0.94832583353E+02  0.12390557165E+03  0.00000000000E+00 0.  1.
         11    1    5    5    0    0  0.23122750973E+03 -0.28293395560E+03 -0.20924931595E+03  0.42107369986E+03  0.00000000000E+00 0. -1.
        -11    1    5    5    0    0  0.39724508000E+02 -0.67658255829E+01 -0.36243928054E+02  0.54198111153E+02  0.00000000000E+00 0.  1.
          4    1    6    6  503    0  0.79666481169E+03  0.13773829215E+03 -0.30889711340E+03  0.86548488489E+03  0.00000000000E+00 0. -1.
         -4    1    6    6    0  503  0.32440625819E+02  0.18723801921E+02 -0.31260054628E+02  0.48786944742E+02  0.00000000000E+00 0.  1.
<mgrwt>
<rscale>  0 0.11818433E+04</rscale>
<asrwt>0</asrwt>
<pdfrwt beam="1">  1        1 0.30108376E+00 0.11818433E+04</pdfrwt>
<pdfrwt beam="2">  1       -1 0.18252447E+00 0.11818433E+04</pdfrwt>
<totfact> 0.62601718E-01</totfact>
</mgrwt>
</event>
<event>
12    1  0.1418317E-007  0.2559567E+04  0.7818608E-02  0.8382067E-01
         -1   -1    0    0    0  501 -0.00000000000E+00  0.00000000000E+00  0.36410423361E+04  0.36410423361E+04  0.00000000000E+00 0.  1.
          1   -1    0    0  501    0  0.00000000000E+00 -0.00000000000E+00 -0.19764426356E+04  0.19764426356E+04  0.00000000000E+00 0. -1.
         23    2    1    2    0    0 -0.25105509858E+04  0.34970158370E+03  0.16247708760E+04  0.30122588987E+04  0.93090401899E+02 0.  0.
    5000000    2    1    2    0    0  0.25105509858E+04 -0.34970158370E+03  0.39828824461E+02  0.26052260730E+04  0.60038246640E+03 0.  0.
         23    2    4    4    0    0  0.11140925414E+03 -0.12669234926E+03  0.79502756330E+01  0.19396579088E+03  0.95375824401E+02 0.  0.
         23    2    4    4    0    0  0.23991417317E+04 -0.22300923445E+03  0.31878548828E+02  0.24112602821E+04  0.86866211948E+02 0.  0.
          1    1    3    3  502    0 -0.16008798459E+04  0.17775363777E+03  0.10306926253E+04  0.19122604228E+04  0.00000000000E+00 0. -1.
         -1    1    3    3    0  502 -0.90967113993E+03  0.17194794593E+03  0.59407825068E+03  0.10999984758E+04  0.00000000000E+00 0.  1.
         13    1    5    5    0    0  0.64370862645E+02 -0.96877130003E+02 -0.37364586128E+02  0.12216750211E+03  0.00000000000E+00 0. -1.
        -13    1    5    5    0    0  0.47038391499E+02 -0.29815219252E+02  0.45314861761E+02  0.71798288770E+02  0.00000000000E+00 0.  1.
          3    1    6    6  503    0  0.29978072192E+03 -0.32392090141E+01  0.18795806867E+02  0.30038684403E+03  0.00000000000E+00 0. -1.
         -3    1    6    6    0  503  0.20993610098E+04 -0.21977002543E+03  0.13082741960E+02  0.21108734381E+04  0.00000000000E+00 0.  1.
<mgrwt>
<rscale>  0 0.25595668E+04</rscale>
<asrwt>0</asrwt>
<pdfrwt beam="1">  1        1 0.30406810E+00 0.25595668E+04</pdfrwt>
<pdfrwt beam="2">  1       -1 0.56016036E+00 0.25595668E+04</pdfrwt>
<totfact> 0.16928018E-03</totfact>
</mgrwt>
</event>
<event>
12    1  0.1418317E-007  0.1174521E+04  0.7818608E-02  0.9135455E-01
          1   -1    0    0  501    0  0.00000000000E+00  0.00000000000E+00  0.19696460974E+04  0.19696460974E+04  0.00000000000E+00 0. -1.
         -1   -1    0    0    0  501 -0.00000000000E+00 -0.00000000000E+00 -0.89760964064E+03  0.89760964064E+03  0.00000000000E+00 0.  1.
         23    2    1    2    0    0 -0.12883750777E+02  0.11561029024E+04 -0.31453776428E+02  0.11600291060E+04  0.89096996668E+02 0.  0.
    5000000    2    1    2    0    0  0.12883750777E+02 -0.11561029024E+04  0.11034902332E+04  0.17072266320E+04  0.60016011725E+03 0.  0.
         23    2    4    4    0    0  0.13023541608E+03 -0.57604948875E+03  0.21103334396E+03  0.63272362936E+03  0.83724797998E+02 0.  0.
         23    2    4    4    0    0 -0.11735166531E+03 -0.58005341365E+03  0.89245688923E+03  0.10745030027E+04  0.88566514738E+02 0.  0.
          4    1    3    3  502    0  0.35806483302E+02  0.39377772768E+03 -0.23684949026E+02  0.39611107012E+03  0.00000000000E+00 0. -1.
         -4    1    3    3    0  502 -0.48690234080E+02  0.76232517472E+03 -0.77688274023E+01  0.76391803591E+03  0.00000000000E+00 0.  1.
         11    1    5    5    0    0  0.85267574851E+02 -0.20446527843E+03  0.64081860508E+02  0.23061460112E+03  0.00000000000E+00 0.  1.
        -11    1    5    5    0    0  0.44967841233E+02 -0.37158421032E+03  0.14695148345E+03  0.40210902824E+03  0.00000000000E+00 0. -1.
          4    1    6    6  503    0 -0.11827412629E+03 -0.49716133716E+03  0.71736272129E+03  0.88077661073E+03  0.00000000000E+00 0. -1.
         -4    1    6    6    0  503  0.92246098294E+00 -0.82892076498E+02  0.17509416795E+03  0.19372639193E+03  0.00000000000E+00 0.  1.
<mgrwt>
<rscale>  0 0.11745210E+04</rscale>
<asrwt>0</asrwt>
<pdfrwt beam="1">  1        1 0.30302248E+00 0.11745210E+04</pdfrwt>
<pdfrwt beam="2">  1       -1 0.13809379E+00 0.11745210E+04</pdfrwt>
<totfact> 0.13391510E+00</totfact>
</mgrwt>
</event>
<event>
12    1  0.1418317E-007  0.8739238E+03  0.7818608E-02  0.9458778E-01
         -2   -1    0    0    0  501 -0.00000000000E+00  0.00000000000E+00  0.12060484870E+04  0.12060484870E+04  0.00000000000E+00 0.  1.
          2   -1    0    0  501    0  0.00000000000E+00 -0.00000000000E+00 -0.72075696673E+03  0.72075696673E+03  0.00000000000E+00 0. -1.
         23    2    1    2    0    0 -0.11447130364E+03 -0.76635111201E+03  0.53468962339E+03  0.94561033143E+03  0.88815535324E+02 0.  0.
    5000000    2    1    2    0    0  0.11447130364E+03  0.76635111201E+03 -0.49398103081E+02  0.98119512233E+03  0.59992165261E+03 0.  0.
         23    2    4    4    0    0  0.34154324769E+03  0.54579759464E+03 -0.11182125572E+02  0.64931284104E+03  0.83278576186E+02 0.  0.
         23    2    4    4    0    0 -0.22707194406E+03  0.22055351737E+03 -0.38215977510E+02  0.33188228129E+03  0.92086187332E+02 0.  0.
          3    1    3    3  502    0 -0.77340372547E+02 -0.36295253506E+03  0.20965371196E+03  0.42622852423E+03  0.00000000000E+00 0. -1.
         -3    1    3    3    0  502 -0.37130931090E+02 -0.40339857695E+03  0.32503591143E+03  0.51938180720E+03  0.00000000000E+00 0.  1.
         11    1    5    5    0    0  0.27662680731E+03  0.44174313462E+03 -0.41868395936E+02  0.52288846812E+03  0.00000000000E+00 0. -1.
        -11    1    5    5    0    0  0.64916440379E+02  0.10405446002E+03  0.30686270364E+02  0.12642437292E+03  0.00000000000E+00 0.  1.
          2    1    6    6  503    0 -0.11859897222E+03  0.57128482741E+02 -0.32769420238E+02  0.13565844852E+03  0.00000000000E+00 0. -1.
         -2    1    6    6    0  503 -0.10847297184E+03  0.16342503463E+03 -0.54465572714E+01  0.19622383278E+03  0.00000000000E+00 0.  1.
<mgrwt>
<rscale>  0 0.87392378E+03</rscale>
<asrwt>0</asrwt>
<pdfrwt beam="1">  1        2 0.11088569E+00 0.87392378E+03</pdfrwt>
<pdfrwt beam="2">  1       -2 0.18554592E+00 0.87392378E+03</pdfrwt>
<totfact> 0.65899201E+00</totfact>
</mgrwt>
</event>
<event>
12    1  0.1418317E-007  0.6519446E+03  0.7818608E-02  0.9803137E-01
          1   -1    0    0  501    0  0.00000000000E+00  0.00000000000E+00  0.20771729151E+04  0.20771729151E+04  0.00000000000E+00 0. -1.
         -1   -1    0    0    0  501 -0.00000000000E+00 -0.00000000000E+00 -0.34798367868E+03  0.34798367868E+03  0.00000000000E+00 0.  1.
         23    2    1    2    0    0  0.41824596679E+03  0.36512225134E+03  0.14597969723E+04  0.15644842358E+04  0.91431813011E+02 0.  0.
    5000000    2    1    2    0    0 -0.41824596679E+03 -0.36512225134E+03  0.26939226415E+03  0.86067235806E+03  0.59995063862E+03 0.  0.
         23    2    4    4    0    0 -0.37934617585E+03 -0.23217034358E+02  0.31493693463E+03  0.50179015837E+03  0.90363368825E+02 0.  0.
         23    2    4    4    0    0 -0.38899790936E+02 -0.34190521699E+03 -0.45544670472E+02  0.35888219969E+03  0.91157803352E+02 0.  0.
          2    1    3    3  502    0  0.20341309953E+03  0.23475616750E+03  0.76640059946E+03  0.82695660472E+03  0.00000000000E+00 0. -1.
         -2    1    3    3    0  502  0.21483286726E+03  0.13036608384E+03  0.69339637284E+03  0.73752763103E+03  0.00000000000E+00 0.  1.
         13    1    5    5    0    0 -0.13648413301E+03 -0.43102558404E+02  0.15128140995E+03  0.20825900725E+03  0.00000000000E+00 0.  1.
        -13    1    5    5    0    0 -0.24286204284E+03  0.19885524046E+02  0.16365552468E+03  0.29353115111E+03  0.00000000000E+00 0. -1.
          4    1    6    6  503    0  0.14952787698E+02 -0.23490434220E+03 -0.41608157749E+02  0.23902902468E+03  0.00000000000E+00 0. -1.
         -4    1    6    6    0  503 -0.53852578634E+02 -0.10700087478E+03 -0.39365127235E+01  0.11985317502E+03  0.00000000000E+00 0.  1.
<mgrwt>
<rscale>  0 0.65194462E+03</rscale>
<asrwt>0</asrwt>
<pdfrwt beam="1">  1        1 0.31956506E+00 0.65194462E+03</pdfrwt>
<pdfrwt beam="2">  1       -1 0.53535952E-01 0.65194462E+03</pdfrwt>
<totfact> 0.99025035E+00</totfact>
</mgrwt>
</event>
<event>
12    1  0.1418317E-007  0.6897711E+03  0.7818608E-02  0.9734887E-01
          1   -1    0    0  501    0  0.00000000000E+00  0.00000000000E+00  0.11162671242E+04  0.11162671242E+04  0.00000000000E+00 0. -1.
         -1   -1    0    0    0  501 -0.00000000000E+00 -0.00000000000E+00 -0.48190238238E+03  0.48190238238E+03  0.00000000000E+00 0.  1.
         23    2    1    2    0    0 -0.29354529645E+03  0.53024494790E+03  0.29469059621E+03  0.68018089933E+03  0.92059559408E+02 0.  0.
    5000000    2    1    2    0    0  0.29354529645E+03 -0.53024494790E+03  0.33967414558E+03  0.91798860722E+03  0.59999667663E+03 0.  0.
         23    2    4    4    0    0  0.12821360089E+03 -0.56589223043E+03  0.77643831307E+02  0.59261810039E+03  0.92167805947E+02 0.  0.
         23    2    4    4    0    0  0.16533169556E+03  0.35647282532E+02  0.26203031428E+03  0.32537050683E+03  0.92740405484E+02 0.  0.
          4    1    3    3  502    0 -0.93988532133E+02  0.18197213079E+03  0.52693741457E+02  0.21148127801E+03  0.00000000000E+00 0. -1.
         -4    1    3    3    0  502 -0.19955676431E+03  0.34827281710E+03  0.24199685475E+03  0.46869962132E+03  0.00000000000E+00 0.  1.
         13    1    5    5    0    0  0.21481457691E+02 -0.60984751917E+02 -0.19405511046E+02  0.67506791139E+02  0.00000000000E+00 0.  1.
        -13    1    5    5    0    0  0.10673214320E+03 -0.50490747851E+03  0.97049342353E+02  0.52511130925E+03  0.00000000000E+00 0. -1.
          2    1    6    6  503    0  0.30765930028E+02  0.48501187337E+02  0.86224223225E+02  0.10360272339E+03  0.00000000000E+00 0. -1.
         -2    1    6    6    0  503  0.13456576553E+03 -0.12853904806E+02  0.17580609105E+03  0.22176778344E+03  0.00000000000E+00 0.  1.
<mgrwt>
<rscale>  0 0.68977107E+03</rscale>
<asrwt>0</asrwt>
<pdfrwt beam="1">  1        1 0.17173340E+00 0.68977107E+03</pdfrwt>
<pdfrwt beam="2">  1       -1 0.74138829E-01 0.68977107E+03</pdfrwt>
<totfact> 0.23418860E+01</totfact>
</mgrwt>
</event>
<event>
12    1  0.1418317E-007  0.5190748E+03  0.7818608E-02  0.1008917E+00
          1   -1    0    0  501    0  0.00000000000E+00  0.00000000000E+00  0.21501483247E+03  0.21501483247E+03  0.00000000000E+00 0. -1.
         -1   -1    0    0    0  501 -0.00000000000E+00 -0.00000000000E+00 -0.18929972573E+04  0.18929972573E+04  0.00000000000E+00 0.  1.
         23    2    1    2    0    0  0.23711090084E+03 -0.39269878463E+03 -0.36287920019E+03  0.59143999389E+03  0.87670050176E+02 0.  0.
    5000000    2    1    2    0    0 -0.23711090084E+03  0.39269878463E+03 -0.13151032247E+04  0.15165720959E+04  0.60005042771E+03 0.  0.
         23    2    4    4    0    0  0.46078389786E+02  0.24380132814E+03 -0.10727174224E+04  0.11048559064E+04  0.91769275642E+02 0.  0.
         23    2    4    4    0    0 -0.28318929063E+03  0.14889745648E+03 -0.24238580224E+03  0.41171618948E+03  0.91611771526E+02 0.  0.
          2    1    3    3  502    0  0.12509033627E+03 -0.21984245696E+03 -0.25396982072E+03  0.35843962943E+03  0.00000000000E+00 0. -1.
         -2    1    3    3    0  502  0.11202056458E+03 -0.17285632766E+03 -0.10890937947E+03  0.23300036446E+03  0.00000000000E+00 0.  1.
         13    1    5    5    0    0 -0.19120428483E+02  0.63389847982E+02 -0.18079433208E+03  0.19253689029E+03  0.00000000000E+00 0. -1.
        -13    1    5    5    0    0  0.65198818269E+02  0.18041148016E+03 -0.89192309037E+03  0.91231901614E+03  0.00000000000E+00 0.  1.
          1    1    6    6  503    0 -0.17241408634E+03  0.10602825810E+03 -0.20276877934E+03  0.28650268159E+03  0.00000000000E+00 0. -1.
         -1    1    6    6    0  503 -0.11077520429E+03  0.42869198384E+02 -0.39617022900E+02  0.12521350790E+03  0.00000000000E+00 0.  1.
<mgrwt>
<rscale>  0 0.51907479E+03</rscale>
<asrwt>0</asrwt>
<pdfrwt beam="1">  1        1 0.33079205E-01 0.51907479E+03</pdfrwt>
<pdfrwt beam="2">  1       -1 0.29123035E+00 0.51907479E+03</pdfrwt>
<totfact> 0.55223611E+00</totfact>
</mgrwt>
</event>
<event>
12    1  0.1418317E-007  0.2050873E+03  0.7818608E-02  0.1145516E+00
          1   -1    0    0  501    0  0.00000000000E+00  0.00000000000E+00  0.21981875550E+04  0.21981875550E+04  0.00000000000E+00 0. -1.
         -1   -1    0    0    0  501 -0.00000000000E+00 -0.00000000000E+00 -0.74325144916E+02  0.74325144916E+02  0.00000000000E+00 0.  1.
         23    2    1    2    0    0 -0.20461352334E+02  0.13868130032E+03  0.72171114639E+03  0.74093505100E+03  0.92014134704E+02 0.  0.
    5000000    2    1    2    0    0  0.20461352334E+02 -0.13868130032E+03  0.14021512637E+04  0.15315776489E+04  0.60004229715E+03 0.  0.
         23    2    4    4    0    0  0.10740192936E+03 -0.44294680184E+02  0.13603905275E+04  0.13682573157E+04  0.89266462542E+02 0.  0.
         23    2    4    4    0    0 -0.86940577027E+02 -0.94386620136E+02  0.41760736139E+02  0.16332033323E+03  0.91989532929E+02 0.  0.
          4    1    3    3  502    0 -0.49733467895E+02  0.94543810265E+02  0.57769713775E+03  0.58749121939E+03  0.00000000000E+00 0. -1.
         -4    1    3    3    0  502  0.29272115562E+02  0.44137490055E+02  0.14401400864E+03  0.15344383162E+03  0.00000000000E+00 0.  1.
         11    1    5    5    0    0  0.17526627771E+02 -0.51308737265E+01  0.73519447561E+03  0.73542125719E+03  0.00000000000E+00 0. -1.
        -11    1    5    5    0    0  0.89875301590E+02 -0.39163806458E+02  0.62519605193E+03  0.63283605848E+03  0.00000000000E+00 0.  1.
          3    1    6    6  503    0 -0.61558862641E+01  0.35690396687E+01 -0.20649119364E+02  0.21840767166E+02  0.00000000000E+00 0. -1.
         -3    1    6    6    0  503 -0.80784690763E+02 -0.97955659804E+02  0.62409855504E+02  0.14147956606E+03  0.00000000000E+00 0.  1.
<mgrwt>
<rscale>  0 0.20508732E+03</rscale>
<asrwt>0</asrwt>
<pdfrwt beam="1">  1        1 0.33818265E+00 0.20508732E+03</pdfrwt>
<pdfrwt beam="2">  1       -1 0.11434639E-01 0.20508732E+03</pdfrwt>
<totfact> 0.12684721E+02</totfact>
</mgrwt>
</event>
<event>
12    1  0.1418317E-007  0.5528376E+03  0.7818608E-02  0.1000839E+00
         -2   -1    0    0    0  501 -0.00000000000E+00  0.00000000000E+00  0.71115171646E+03  0.71115171646E+03  0.00000000000E+00 0.  1.
          2   -1    0    0  501    0  0.00000000000E+00 -0.00000000000E+00 -0.58258684167E+03  0.58258684167E+03  0.00000000000E+00 0. -1.
         23    2    1    2    0    0 -0.31580730960E+03  0.30306143691E+03 -0.18821424865E+03  0.48615239281E+03  0.96638782554E+02 0.  0.
    5000000    2    1    2    0    0  0.31580730960E+03 -0.30306143691E+03  0.31677912345E+03  0.80758616532E+03  0.60022155078E+03 0.  0.
         23    2    4    4    0    0  0.30898500687E+03  0.37362369862E+02  0.31948275679E+03  0.45502906659E+03  0.90080732679E+02 0.  0.
         23    2    4    4    0    0  0.68223027304E+01 -0.34042380677E+03 -0.27036333450E+01  0.35255709873E+03  0.91401784443E+02 0.  0.
          3    1    3    3  502    0 -0.16711307470E+03  0.11547743945E+03 -0.47943779937E+02  0.20871134322E+03  0.00000000000E+00 0.  1.
         -3    1    3    3    0  502 -0.14869423490E+03  0.18758399746E+03 -0.14027046872E+03  0.27744104958E+03  0.00000000000E+00 0. -1.
         13    1    5    5    0    0  0.26334866933E+03 -0.30036325858E+00  0.24301785912E+03  0.35834381773E+03  0.00000000000E+00 0.  1.
        -13    1    5    5    0    0  0.45636337540E+02  0.37662733120E+02  0.76464897670E+02  0.96685248854E+02  0.00000000000E+00 0. -1.
          4    1    6    6  503    0  0.63383544194E+01 -0.86430674387E+02 -0.40687985833E+02  0.95738959692E+02  0.00000000000E+00 0. -1.
         -4    1    6    6    0  503  0.48394831092E+00 -0.25399313239E+03  0.37984352488E+02  0.25681813904E+03  0.00000000000E+00 0.  1.
<mgrwt>
<rscale>  0 0.55283764E+03</rscale>
<asrwt>0</asrwt>
<pdfrwt beam="1">  1        2 0.89628745E-01 0.55283764E+03</pdfrwt>
<pdfrwt beam="2">  1       -2 0.10940796E+00 0.55283764E+03</pdfrwt>
<totfact> 0.35257851E+01</totfact>
</mgrwt>
</event>
<event>
12    1  0.1418317E-007  0.1242835E+04  0.7818608E-02  0.9076168E-01
         -2   -1    0    0    0  501 -0.00000000000E+00  0.00000000000E+00  0.52099741840E+03  0.52099741840E+03  0.00000000000E+00 0.  1.
          2   -1    0    0  501    0  0.00000000000E+00 -0.00000000000E+00 -0.33525692188E+04  0.33525692188E+04  0.00000000000E+00 0. -1.
         23    2    1    2    0    0  0.33995865547E+03 -0.11412320504E+04 -0.77895215651E+03  0.14258730596E+04  0.91460590493E+02 0.  0.
    5000000    2    1    2    0    0 -0.33995865547E+03  0.11412320504E+04 -0.20526196439E+04  0.24476935776E+04  0.59997830549E+03 0.  0.
         23    2    4    4    0    0 -0.38985106809E+03  0.43913497081E+03 -0.68414657631E+03  0.90622778784E+03  0.91481624901E+02 0.  0.
         23    2    4    4    0    0  0.49892412622E+02  0.70209707960E+03 -0.13684730676E+04  0.15414657898E+04  0.89267476234E+02 0.  0.
          2    1    3    3  502    0  0.20273378148E+03 -0.68176296631E+03 -0.51838720816E+03  0.88012898257E+03  0.00000000000E+00 0. -1.
         -2    1    3    3    0  502  0.13722487399E+03 -0.45946908411E+03 -0.26056494835E+03  0.54574407702E+03  0.00000000000E+00 0.  1.
         11    1    5    5    0    0 -0.16413941319E+02  0.45395202990E+02 -0.32404966373E+02  0.58139691862E+02  0.00000000000E+00 0.  1.
        -11    1    5    5    0    0 -0.37343712677E+03  0.39373976782E+03 -0.65174160994E+03  0.84808809598E+03  0.00000000000E+00 0. -1.
          1    1    6    6  503    0  0.32481713764E+02  0.52049100961E+03 -0.10932786078E+04  0.12112902489E+04  0.00000000000E+00 0. -1.
         -1    1    6    6    0  503  0.17410698858E+02  0.18160606999E+03 -0.27519445977E+03  0.33017554086E+03  0.00000000000E+00 0.  1.
<mgrwt>
<rscale>  0 0.12428353E+04</rscale>
<asrwt>0</asrwt>
<pdfrwt beam="1">  1        2 0.51577987E+00 0.12428353E+04</pdfrwt>
<pdfrwt beam="2">  1       -2 0.80153450E-01 0.12428353E+04</pdfrwt>
<totfact> 0.14054292E+00</totfact>
</mgrwt>
</event>
<event>
12    1  0.1418317E-007  0.7314919E+03  0.7818608E-02  0.9664843E-01
          1   -1    0    0  501    0  0.00000000000E+00  0.00000000000E+00  0.10397803592E+04  0.10397803592E+04  0.00000000000E+00 0. -1.
         -1   -1    0    0    0  501 -0.00000000000E+00 -0.00000000000E+00 -0.61347931993E+03  0.61347931993E+03  0.00000000000E+00 0.  1.
         23    2    1    2    0    0  0.44297311015E+03  0.51940556971E+03  0.16121790966E+03  0.70654560614E+03  0.84900865740E+02 0.  0.
    5000000    2    1    2    0    0 -0.44297311015E+03 -0.51940556971E+03  0.26508312961E+03  0.94671407299E+03  0.59999262348E+03 0.  0.
         23    2    4    4    0    0 -0.44671347115E+03 -0.27967506599E+03  0.39070769699E+03  0.66205844175E+03  0.88869612144E+02 0.  0.
         23    2    4    4    0    0  0.37403609961E+01 -0.23973050372E+03 -0.12562456738E+03  0.28465563124E+03  0.88105571616E+02 0.  0.
          4    1    3    3  502    0  0.19999637091E+03  0.23780837934E+03  0.11686330812E+03  0.33197651490E+03  0.00000000000E+00 0. -1.
         -4    1    3    3    0  502  0.24297673925E+03  0.28159719037E+03  0.44354601541E+02  0.37456909125E+03  0.00000000000E+00 0.  1.
         13    1    5    5    0    0 -0.34640106313E+03 -0.24725605224E+03  0.34175718570E+03  0.54582710256E+03  0.00000000000E+00 0. -1.
        -13    1    5    5    0    0 -0.10031240802E+03 -0.32419013749E+02  0.48950511290E+02  0.11623133919E+03  0.00000000000E+00 0.  1.
          2    1    6    6  503    0  0.35594284636E+02 -0.10518296402E+03 -0.87086254514E+02  0.14111847768E+03  0.00000000000E+00 0. -1.
         -2    1    6    6    0  503 -0.31853923640E+02 -0.13454753970E+03 -0.38538312870E+02  0.14353715355E+03  0.00000000000E+00 0.  1.
<mgrwt>
<rscale>  0 0.73149190E+03</rscale>
<asrwt>0</asrwt>
<pdfrwt beam="1">  1        1 0.15996621E+00 0.73149190E+03</pdfrwt>
<pdfrwt beam="2">  1       -1 0.94381434E-01 0.73149190E+03</pdfrwt>
<totfact> 0.15819666E+01</totfact>
</mgrwt>
</event>
<event>
12    1  0.1418317E-007  0.1415917E+04  0.7818608E-02  0.8942377E-01
         -2   -1    0    0    0  501 -0.00000000000E+00  0.00000000000E+00  0.10155156488E+04  0.10155156488E+04  0.00000000000E+00 0.  1.
          2   -1    0    0  501    0  0.00000000000E+00 -0.00000000000E+00 -0.21771690461E+04  0.21771690461E+04  0.00000000000E+00 0. -1.
         23    2    1    2    0    0 -0.48527290461E+03  0.13058902371E+04 -0.23666915720E+03  0.14160648151E+04  0.91586939625E+02 0.  0.
    5000000    2    1    2    0    0  0.48527290461E+03 -0.13058902371E+04 -0.92498424008E+03  0.17766198798E+04  0.59995270614E+03 0.  0.
         23    2    4    4    0    0  0.35625207818E+03 -0.12345787416E+04 -0.95796005923E+03  0.16053793091E+04  0.91951284167E+02 0.  0.
         23    2    4    4    0    0  0.12902082642E+03 -0.71311495437E+02  0.32975819146E+02  0.17124057063E+03  0.80648777727E+02 0.  0.
          2    1    3    3  502    0 -0.33863796540E+03  0.10215823691E+04 -0.18418727666E+03  0.10918933837E+04  0.00000000000E+00 0. -1.
         -2    1    3    3    0  502 -0.14663493921E+03  0.28430786793E+03 -0.52481880532E+02  0.32417143142E+03  0.00000000000E+00 0.  1.
         13    1    5    5    0    0  0.82240719622E+02 -0.44313174079E+03 -0.33471463684E+03  0.56139394704E+03  0.00000000000E+00 0.  1.
        -13    1    5    5    0    0  0.27401135856E+03 -0.79144700084E+03 -0.62324542239E+03  0.10439853621E+04  0.00000000000E+00 0. -1.
          3    1    6    6  503    0  0.80734656854E+02 -0.46484234610E+02 -0.20109783280E+02  0.95306202674E+02  0.00000000000E+00 0. -1.
         -3    1    6    6    0  503  0.48286169569E+02 -0.24827260827E+02  0.53085602426E+02  0.75934367955E+02  0.00000000000E+00 0.  1.
<mgrwt>
<rscale>  0 0.14159169E+04</rscale>
<asrwt>0</asrwt>
<pdfrwt beam="1">  1        2 0.33494908E+00 0.14159169E+04</pdfrwt>
<pdfrwt beam="2">  1       -2 0.15623318E+00 0.14159169E+04</pdfrwt>
<totfact> 0.13596974E+00</totfact>
</mgrwt>
</event>
<event>
12    1  0.1418317E-007  0.4261297E+03  0.7818608E-02  0.1035090E+00
         -2   -1    0    0    0  501 -0.00000000000E+00  0.00000000000E+00  0.54168875322E+03  0.54168875322E+03  0.00000000000E+00 0.  1.
          2   -1    0    0  501    0  0.00000000000E+00 -0.00000000000E+00 -0.37327994362E+03  0.37327994362E+03  0.00000000000E+00 0. -1.
         23    2    1    2    0    0  0.58092706271E+02 -0.22711306731E+03  0.92125178128E+01  0.25143390973E+03  0.90438004247E+02 0.  0.
    5000000    2    1    2    0    0 -0.58092706271E+02  0.22711306731E+03  0.15919629179E+03  0.66353478711E+03  0.59998320520E+03 0.  0.
         23    2    4    4    0    0  0.24225685932E+03  0.70123372149E+02 -0.28556028544E+02  0.26803256775E+03  0.86141380304E+02 0.  0.
         23    2    4    4    0    0 -0.30034956559E+03  0.15698969516E+03  0.18775232033E+03  0.39550221936E+03  0.79469779122E+02 0.  0.
          4    1    3    3  502    0  0.74837994183E+02 -0.18627678920E+03  0.29418803819E+02  0.20289217231E+03  0.00000000000E+00 0. -1.
         -4    1    3    3    0  502 -0.16745287912E+02 -0.40836278114E+02 -0.20206286006E+02  0.48541737419E+02  0.00000000000E+00 0.  1.
         13    1    5    5    0    0  0.14957227011E+03  0.41688653261E+01  0.40852504121E+01  0.14968611390E+03  0.00000000000E+00 0.  1.
        -13    1    5    5    0    0  0.92684589211E+02  0.65954506823E+02 -0.32641278956E+02  0.11834645385E+03  0.00000000000E+00 0. -1.
          3    1    6    6  503    0 -0.84867639395E+02  0.75572580069E+02  0.34236054561E+02  0.11868377525E+03  0.00000000000E+00 0. -1.
         -3    1    6    6    0  503 -0.21548192619E+03  0.81417115093E+02  0.15351626577E+03  0.27681844412E+03  0.00000000000E+00 0.  1.
<mgrwt>
<rscale>  0 0.42612970E+03</rscale>
<asrwt>0</asrwt>
<pdfrwt beam="1">  1        2 0.57427683E-01 0.42612970E+03</pdfrwt>
<pdfrwt beam="2">  1       -2 0.83336732E-01 0.42612970E+03</pdfrwt>
<totfact> 0.11152098E+02</totfact>
</mgrwt>
</event>
<event>
12    1  0.1418317E-007  0.5724928E+03  0.7818608E-02  0.9964178E-01
          2   -1    0    0  501    0  0.00000000000E+00  0.00000000000E+00  0.59380605540E+03  0.59380605540E+03  0.00000000000E+00 0. -1.
         -2   -1    0    0    0  501 -0.00000000000E+00 -0.00000000000E+00 -0.12838922996E+04  0.12838922996E+04  0.00000000000E+00 0.  1.
         23    2    1    2    0    0 -0.49408672117E+03 -0.11939704038E+03  0.31240591090E+03  0.60362094482E+03  0.91561184843E+02 0.  0.
    5000000    2    1    2    0    0  0.49408672117E+03  0.11939704038E+03 -0.10024921551E+04  0.12740774102E+04  0.59992114885E+03 0.  0.
         23    2    4    4    0    0  0.47563444782E+03 -0.30818237693E+01 -0.10095492075E+04  0.11198468421E+04  0.92896295578E+02 0.  0.
         23    2    4    4    0    0  0.18452273341E+02  0.12247886415E+03  0.70570524292E+01  0.15423056810E+03  0.91628093899E+02 0.  0.
          3    1    3    3  502    0 -0.19924333150E+02  0.13439748770E+02  0.13028373682E+02  0.27337600832E+02  0.00000000000E+00 0. -1.
         -3    1    3    3    0  502 -0.47416238802E+03 -0.13283678915E+03  0.29937753722E+03  0.57628334398E+03  0.00000000000E+00 0.  1.
         11    1    5    5    0    0  0.25775561930E+03 -0.45256130944E+02 -0.51011531811E+03  0.57332688271E+03  0.00000000000E+00 0. -1.
        -11    1    5    5    0    0  0.21787882853E+03  0.42174307175E+02 -0.49943388941E+03  0.54651995938E+03  0.00000000000E+00 0.  1.
          2    1    6    6  503    0  0.36906272240E+02  0.22455216946E+02  0.26494652604E+02  0.50678164088E+02  0.00000000000E+00 0. -1.
         -2    1    6    6    0  503 -0.18453998899E+02  0.10002364721E+03 -0.19437600175E+02  0.10355240401E+03  0.00000000000E+00 0.  1.
<mgrwt>
<rscale>  0 0.57249281E+03</rscale>
<asrwt>0</asrwt>
<pdfrwt beam="1">  1        2 0.91354778E-01 0.57249281E+03</pdfrwt>
<pdfrwt beam="2">  1       -2 0.19752189E+00 0.57249281E+03</pdfrwt>
<totfact> 0.72431986E+00</totfact>
</mgrwt>
</event>
<event>
12    1  0.1418317E-007  0.1066293E+04  0.7818608E-02  0.9238682E-01
          2   -1    0    0  501    0  0.00000000000E+00  0.00000000000E+00  0.14174416533E+04  0.14174416533E+04  0.00000000000E+00 0. -1.
         -2   -1    0    0    0  501 -0.00000000000E+00 -0.00000000000E+00 -0.83089235694E+03  0.83089235694E+03  0.00000000000E+00 0.  1.
         23    2    1    2    0    0 -0.74042673707E+03  0.64708776248E+03  0.83461007858E+02  0.99132825399E+03  0.93870346810E+02 0.  0.
    5000000    2    1    2    0    0  0.74042673707E+03 -0.64708776248E+03  0.50308828847E+03  0.12570057562E+04  0.60000943314E+03 0.  0.
         23    2    4    4    0    0  0.27166273465E+03 -0.60362320686E+03  0.24799914458E+03  0.71236100092E+03  0.88277985092E+02 0.  0.
         23    2    4    4    0    0  0.46876400242E+03 -0.43464555618E+02  0.25508914390E+03  0.54464475531E+03  0.99692429959E+02 0.  0.
          3    1    3    3  502    0 -0.32308394652E+03  0.24616130163E+03 -0.29896346256E+01  0.40618660839E+03  0.00000000000E+00 0. -1.
         -3    1    3    3    0  502 -0.41734279055E+03  0.40092646085E+03  0.86450642483E+02  0.58514164561E+03  0.00000000000E+00 0.  1.
         11    1    5    5    0    0  0.11780593792E+03 -0.36048809752E+03  0.12346613860E+03  0.39884056319E+03  0.00000000000E+00 0. -1.
        -11    1    5    5    0    0  0.15385679673E+03 -0.24313510934E+03  0.12453300598E+03  0.31352043773E+03  0.00000000000E+00 0.  1.
          3    1    6    6  503    0  0.22719096351E+03 -0.69897978958E+02  0.13853817794E+03  0.27512594954E+03  0.00000000000E+00 0. -1.
         -3    1    6    6    0  503  0.24157303891E+03  0.26433423340E+02  0.11655096595E+03  0.26951880576E+03  0.00000000000E+00 0.  1.
<mgrwt>
<rscale>  0 0.10662934E+04</rscale>
<asrwt>0</asrwt>
<pdfrwt beam="1">  1        2 0.21806795E+00 0.10662934E+04</pdfrwt>
<pdfrwt beam="2">  1       -2 0.12782959E+00 0.10662934E+04</pdfrwt>
<totfact> 0.63216762E+00</totfact>
</mgrwt>
</event>
<event>
12    1  0.1418317E-007  0.1300130E+04  0.7818608E-02  0.9029462E-01
          2   -1    0    0  501    0  0.00000000000E+00  0.00000000000E+00  0.23905125594E+04  0.23905125594E+04  0.00000000000E+00 0. -1.
         -2   -1    0    0    0  501 -0.00000000000E+00 -0.00000000000E+00 -0.82021308815E+03  0.82021308815E+03  0.00000000000E+00 0.  1.
         23    2    1    2    0    0 -0.53179252461E+03  0.11190586568E+04  0.18208927900E+03  0.12557115003E+04  0.92516483199E+02 0.  0.
    5000000    2    1    2    0    0  0.53179252461E+03 -0.11190586568E+04  0.13882101922E+04  0.19550141473E+04  0.59988099782E+03 0.  0.
         23    2    4    4    0    0  0.62166824221E+03 -0.76611503847E+03  0.11092591184E+04  0.14873423176E+04  0.91256355401E+02 0.  0.
         23    2    4    4    0    0 -0.89875717593E+02 -0.35294361838E+03  0.27895107384E+03  0.46767182970E+03  0.90864714424E+02 0.  0.
          2    1    3    3  502    0 -0.58234185721E+02  0.13177783364E+03 -0.82671055918E+01  0.14430856821E+03  0.00000000000E+00 0. -1.
         -2    1    3    3    0  502 -0.47355833889E+03  0.98728082321E+03  0.19035638459E+03  0.11114029320E+04  0.00000000000E+00 0.  1.
         11    1    5    5    0    0  0.10050127154E+03 -0.12510008704E+03  0.13287122137E+03  0.20833938376E+03  0.00000000000E+00 0.  1.
        -11    1    5    5    0    0  0.52116697066E+03 -0.64101495143E+03  0.97638789703E+03  0.12790029338E+04  0.00000000000E+00 0. -1.
          1    1    6    6  503    0 -0.18179626358E+02 -0.43364482102E+01  0.21046059577E+02  0.28146762182E+02  0.00000000000E+00 0. -1.
         -1    1    6    6    0  503 -0.71696091235E+02 -0.34860717017E+03  0.25790501427E+03  0.43952506752E+03  0.00000000000E+00 0.  1.
<mgrwt>
<rscale>  0 0.13001296E+04</rscale>
<asrwt>0</asrwt>
<pdfrwt beam="1">  1        2 0.36777116E+00 0.13001296E+04</pdfrwt>
<pdfrwt beam="2">  1       -2 0.12618663E+00 0.13001296E+04</pdfrwt>
<totfact> 0.18239897E+00</totfact>
</mgrwt>
</event>
<event>
12    1  0.1418317E-007  0.1480653E+04  0.7818608E-02  0.8897422E-01
          1   -1    0    0  501    0  0.00000000000E+00  0.00000000000E+00  0.15228388613E+04  0.15228388613E+04  0.00000000000E+00 0.  1.
         -1   -1    0    0    0  501 -0.00000000000E+00 -0.00000000000E+00 -0.14948522043E+04  0.14948522043E+04  0.00000000000E+00 0. -1.
         23    2    1    2    0    0  0.13791086909E+04  0.38558212525E+03 -0.19888666811E+03  0.14485759186E+04  0.90564498598E+02 0.  0.
    5000000    2    1    2    0    0 -0.13791086909E+04 -0.38558212525E+03  0.22687332503E+03  0.15691151470E+04  0.60003040122E+03 0.  0.
         23    2    4    4    0    0  0.11728625003E+02 -0.17011439787E+02 -0.43323559250E+02  0.10229588468E+03  0.90335859483E+02 0.  0.
         23    2    4    4    0    0 -0.13908373159E+04 -0.36857068546E+03  0.27019688428E+03  0.14668192624E+04  0.90992321748E+02 0.  0.
          3    1    3    3  502    0  0.69602859849E+03  0.21372661031E+03 -0.59330135789E+02  0.73051689843E+03  0.00000000000E+00 0. -1.
         -3    1    3    3    0  502  0.68308009242E+03  0.17185551493E+03 -0.13955653232E+03  0.71805902013E+03  0.00000000000E+00 0.  1.
         11    1    5    5    0    0 -0.21476098002E+02 -0.41036202221E+02 -0.57089520911E+01  0.46666742035E+02  0.00000000000E+00 0.  1.
        -11    1    5    5    0    0  0.33204723006E+02  0.24024762434E+02 -0.37614607158E+02  0.55629142646E+02  0.00000000000E+00 0. -1.
          3    1    6    6  503    0 -0.11520111807E+04 -0.27041317197E+03  0.23078419142E+03  0.12056178445E+04  0.00000000000E+00 0. -1.
         -3    1    6    6    0  503 -0.23882613521E+03 -0.98157513491E+02  0.39412692861E+02  0.26120141782E+03  0.00000000000E+00 0.  1.
<mgrwt>
<rscale>  0 0.14806525E+04</rscale>
<asrwt>0</asrwt>
<pdfrwt beam="1">  1        1 0.23428290E+00 0.14806525E+04</pdfrwt>
<pdfrwt beam="2">  1       -1 0.22997726E+00 0.14806525E+04</pdfrwt>
<totfact> 0.56468279E-01</totfact>
</mgrwt>
</event>
<event>
12    1  0.1418317E-007  0.6202366E+03  0.7818608E-02  0.9864289E-01
         -2   -1    0    0    0  501 -0.00000000000E+00  0.00000000000E+00  0.42071405762E+03  0.42071405762E+03  0.00000000000E+00 0.  1.
          2   -1    0    0  501    0  0.00000000000E+00 -0.00000000000E+00 -0.10212939638E+04  0.10212939638E+04  0.00000000000E+00 0. -1.
         23    2    1    2    0    0 -0.30857661473E+03 -0.37478523203E+03 -0.42238438910E+03  0.64983287359E+03  0.90502453752E+02 0.  0.
    5000000    2    1    2    0    0  0.30857661473E+03  0.37478523203E+03 -0.17819551705E+03  0.79217514779E+03  0.60008693134E+03 0.  0.
         23    2    4    4    0    0  0.37650044519E+03  0.15080689010E+02 -0.14028220039E+03  0.41271710220E+03  0.93146649396E+02 0.  0.
         23    2    4    4    0    0 -0.67923830461E+02  0.35970454302E+03 -0.37913316661E+02  0.37945804559E+03  0.92466122251E+02 0.  0.
          4    1    3    3  502    0 -0.16889191853E+03 -0.15513449976E+03 -0.24028190025E+03  0.33215445917E+03  0.00000000000E+00 0. -1.
         -4    1    3    3    0  502 -0.13968469620E+03 -0.21965073228E+03 -0.18210248885E+03  0.31767841442E+03  0.00000000000E+00 0.  1.
         13    1    5    5    0    0  0.34846237714E+03 -0.58949810346E+01 -0.10740853068E+03  0.36468804689E+03  0.00000000000E+00 0.  1.
        -13    1    5    5    0    0  0.28038068049E+02  0.20975670044E+02 -0.32873669705E+02  0.48029055306E+02  0.00000000000E+00 0. -1.
          1    1    6    6  503    0 -0.31304892344E+02  0.24274100973E+03 -0.66462956698E+02  0.25361490237E+03  0.00000000000E+00 0. -1.
         -1    1    6    6    0  503 -0.36618938117E+02  0.11696353329E+03  0.28549640037E+02  0.12584314322E+03  0.00000000000E+00 0.  1.
<mgrwt>
<rscale>  0 0.62023658E+03</rscale>
<asrwt>0</asrwt>
<pdfrwt beam="1">  1        2 0.15712215E+00 0.62023658E+03</pdfrwt>
<pdfrwt beam="2">  1       -2 0.64725239E-01 0.62023658E+03</pdfrwt>
<totfact> 0.55285294E+01</totfact>
</mgrwt>
</event>
<event>
12    1  0.1418317E-007  0.7536525E+03  0.7818608E-02  0.9629638E-01
         -2   -1    0    0    0  501 -0.00000000000E+00  0.00000000000E+00  0.88581924000E+03  0.88581924000E+03  0.00000000000E+00 0.  1.
          2   -1    0    0  501    0  0.00000000000E+00 -0.00000000000E+00 -0.98586101304E+03  0.98586101304E+03  0.00000000000E+00 0. -1.
         23    2    1    2    0    0  0.63106105117E+03  0.11009529262E+03 -0.58192779231E+03  0.87036204051E+03  0.92363966706E+02 0.  0.
    5000000    2    1    2    0    0 -0.63106105117E+03 -0.11009529262E+03  0.48188601926E+03  0.10013182125E+04  0.60005416707E+03 0.  0.
         23    2    4    4    0    0 -0.30660642887E+03  0.22936071752E+03  0.27314124315E+03  0.47936361360E+03  0.92571563508E+02 0.  0.
         23    2    4    4    0    0 -0.32445462230E+03 -0.33945601014E+03  0.20874477612E+03  0.52195459893E+03  0.91438706427E+02 0.  0.
          3    1    3    3  502    0  0.86263078629E+02  0.42246461623E+02 -0.62648842937E+02  0.11467763416E+03  0.00000000000E+00 0. -1.
         -3    1    3    3    0  502  0.54479797254E+03  0.67848830995E+02 -0.51927894937E+03  0.75568440636E+03  0.00000000000E+00 0.  1.
         11    1    5    5    0    0 -0.42241078585E+02  0.67359762245E+02  0.28660893607E+02  0.84516821474E+02  0.00000000000E+00 0.  1.
        -11    1    5    5    0    0 -0.26436535029E+03  0.16200095528E+03  0.24448034954E+03  0.39484679213E+03  0.00000000000E+00 0. -1.
          2    1    6    6  503    0 -0.20966484548E+03 -0.18078712880E+03  0.16146338016E+03  0.32048986958E+03  0.00000000000E+00 0. -1.
         -2    1    6    6    0  503 -0.11478977682E+03 -0.15866888134E+03  0.47281395959E+02  0.20146472935E+03  0.00000000000E+00 0.  1.
<mgrwt>
<rscale>  0 0.75365249E+03</rscale>
<asrwt>0</asrwt>
<pdfrwt beam="1">  1        2 0.15167092E+00 0.75365249E+03</pdfrwt>
<pdfrwt beam="2">  1       -2 0.13627988E+00 0.75365249E+03</pdfrwt>
<totfact> 0.10074168E+01</totfact>
</mgrwt>
</event>
<event>
12    1  0.1418317E-007  0.4955523E+03  0.7818608E-02  0.1014946E+00
          2   -1    0    0  501    0  0.00000000000E+00  0.00000000000E+00  0.20428546396E+04  0.20428546396E+04  0.00000000000E+00 0. -1.
         -2   -1    0    0    0  501 -0.00000000000E+00 -0.00000000000E+00 -0.19401643238E+03  0.19401643238E+03  0.00000000000E+00 0.  1.
         23    2    1    2    0    0  0.32575286156E+03  0.35419584921E+03  0.70966946597E+03  0.86234142867E+03  0.91827894781E+02 0.  0.
    5000000    2    1    2    0    0 -0.32575286156E+03 -0.35419584921E+03  0.11391687412E+04  0.13745296433E+04  0.60004724220E+03 0.  0.
         23    2    4    4    0    0 -0.19245057943E+01 -0.13110019796E+02  0.75487914698E+03  0.76042181786E+03  0.90682072046E+02 0.  0.
         23    2    4    4    0    0 -0.32382835577E+03 -0.34108582942E+03  0.38428959426E+03  0.61410782544E+03  0.90805186944E+02 0.  0.
          3    1    3    3  502    0  0.27847960326E+03  0.33979875700E+03  0.61871880505E+03  0.75883268539E+03  0.00000000000E+00 0. -1.
         -3    1    3    3    0  502  0.47273258304E+02  0.14397092215E+02  0.90950660922E+02  0.10350874329E+03  0.00000000000E+00 0.  1.
         13    1    5    5    0    0 -0.91101783339E+01  0.74169915599E+00  0.50738456465E+01  0.10454155947E+02  0.00000000000E+00 0.  1.
        -13    1    5    5    0    0  0.71856725396E+01 -0.13851718952E+02  0.74980530134E+03  0.74996766192E+03  0.00000000000E+00 0. -1.
          1    1    6    6  503    0 -0.25769752084E+03 -0.21654858775E+03  0.24895863319E+03  0.41866657873E+03  0.00000000000E+00 0. -1.
         -1    1    6    6    0  503 -0.66130834926E+02 -0.12453724167E+03  0.13533096107E+03  0.19544124671E+03  0.00000000000E+00 0.  1.
<mgrwt>
<rscale>  0 0.49555230E+03</rscale>
<asrwt>0</asrwt>
<pdfrwt beam="1">  1        2 0.31428531E+00 0.49555230E+03</pdfrwt>
<pdfrwt beam="2">  1       -2 0.29848683E-01 0.49555230E+03</pdfrwt>
<totfact> 0.69797668E+01</totfact>
</mgrwt>
</event>
<event>
12    1  0.1418317E-007  0.6306400E+03  0.7818608E-02  0.9843801E-01
         -1   -1    0    0    0  501 -0.00000000000E+00  0.00000000000E+00  0.43581514519E+03  0.43581514519E+03  0.00000000000E+00 0.  1.
          1   -1    0    0  501    0  0.00000000000E+00 -0.00000000000E+00 -0.10227200557E+04  0.10227200557E+04  0.00000000000E+00 0. -1.
         23    2    1    2    0    0 -0.33016579258E+03  0.40704571612E+03 -0.30644805939E+03  0.61390572955E+03  0.90962443175E+02 0.  0.
    5000000    2    1    2    0    0  0.33016579258E+03 -0.40704571612E+03 -0.28045685117E+03  0.84462947139E+03  0.60003935952E+03 0.  0.
         23    2    4    4    0    0  0.93042991712E+02 -0.46399807319E+03 -0.32322030556E+03  0.58063818488E+03  0.93370903271E+02 0.  0.
         23    2    4    4    0    0  0.23712280087E+03  0.56952357072E+02  0.42763454397E+02  0.26399128651E+03  0.91607274026E+02 0.  0.
          2    1    3    3  502    0 -0.19278520205E+03  0.23461394689E+03 -0.22862952963E+03  0.38010695866E+03  0.00000000000E+00 0. -1.
         -2    1    3    3    0  502 -0.13738059053E+03  0.17243176923E+03 -0.77818529757E+02  0.23379877088E+03  0.00000000000E+00 0.  1.
         11    1    5    5    0    0 -0.14259455847E+02 -0.10801051536E+03 -0.54006606899E+02  0.12159900122E+03  0.00000000000E+00 0.  1.
        -11    1    5    5    0    0  0.10730244756E+03 -0.35598755783E+03 -0.26921369866E+03  0.45903918365E+03  0.00000000000E+00 0. -1.
          3    1    6    6  503    0  0.14131508749E+03 -0.65283109853E+01  0.29575219712E+00  0.14146610996E+03  0.00000000000E+00 0. -1.
         -3    1    6    6    0  503  0.95807713375E+02  0.63480668058E+02  0.42467702200E+02  0.12252517655E+03  0.00000000000E+00 0.  1.
<mgrwt>
<rscale>  0 0.63063998E+03</rscale>
<asrwt>0</asrwt>
<pdfrwt beam="1">  1        1 0.15734155E+00 0.63063998E+03</pdfrwt>
<pdfrwt beam="2">  1       -1 0.67048484E-01 0.63063998E+03</pdfrwt>
<totfact> 0.34083093E+01</totfact>
</mgrwt>
</event>
<event>
12    1  0.1418317E-007  0.4591398E+03  0.7818608E-02  0.1025031E+00
          2   -1    0    0  501    0  0.00000000000E+00  0.00000000000E+00  0.15505621104E+04  0.15505621104E+04  0.00000000000E+00 0.  1.
         -2   -1    0    0    0  501 -0.00000000000E+00 -0.00000000000E+00 -0.16464291776E+03  0.16464291776E+03  0.00000000000E+00 0. -1.
         23    2    1    2    0    0 -0.12290971528E+03 -0.23854829493E+03  0.74718722367E+03  0.79872911918E+03  0.87563528347E+02 0.  0.
    5000000    2    1    2    0    0  0.12290971528E+03  0.23854829493E+03  0.63873196897E+03  0.91647590897E+03  0.59994789476E+03 0.  0.
         23    2    4    4    0    0 -0.22497331596E+03  0.14517394070E+03  0.31843383743E+03  0.42612076936E+03  0.92143015475E+02 0.  0.
         23    2    4    4    0    0  0.34788303125E+03  0.93374354234E+02  0.32029813153E+03  0.49035513962E+03  0.90088270193E+02 0.  0.
          3    1    3    3  502    0 -0.19772731963E+02 -0.13384422930E+03  0.35501991585E+03  0.37992680781E+03  0.00000000000E+00 0. -1.
         -3    1    3    3    0  502 -0.10313698332E+03 -0.10470406563E+03  0.39216730782E+03  0.41880231137E+03  0.00000000000E+00 0.  1.
         11    1    5    5    0    0 -0.12596134474E+03  0.41905538892E+02  0.10538891137E+03  0.16949677637E+03  0.00000000000E+00 0. -1.
        -11    1    5    5    0    0 -0.99011971221E+02  0.10326840181E+03  0.21304492606E+03  0.25662399299E+03  0.00000000000E+00 0.  1.
          2    1    6    6  503    0  0.24576596076E+03  0.66498634480E+02  0.27698428396E+03  0.37622236698E+03  0.00000000000E+00 0. -1.
         -2    1    6    6    0  503  0.10211707049E+03  0.26875719753E+02  0.43313847568E+02  0.11413277264E+03  0.00000000000E+00 0.  1.
<mgrwt>
<rscale>  0 0.45913977E+03</rscale>
<asrwt>0</asrwt>
<pdfrwt beam="1">  1        2 0.23854801E+00 0.45913977E+03</pdfrwt>
<pdfrwt beam="2">  1       -2 0.25329681E-01 0.45913977E+03</pdfrwt>
<totfact> 0.17414863E+02</totfact>
</mgrwt>
</event>
<event>
12    1  0.1418317E-007  0.5406448E+03  0.7818608E-02  0.1003683E+00
          1   -1    0    0  501    0  0.00000000000E+00  0.00000000000E+00  0.10049330177E+04  0.10049330177E+04  0.00000000000E+00 0. -1.
         -1   -1    0    0    0  501 -0.00000000000E+00 -0.00000000000E+00 -0.44130230033E+03  0.44130230033E+03  0.00000000000E+00 0.  1.
         23    2    1    2    0    0 -0.10237003288E+03  0.51457579700E+03  0.26759682662E+03  0.59622913385E+03  0.92807564042E+02 0.  0.
    5000000    2    1    2    0    0  0.10237003288E+03 -0.51457579700E+03  0.29603389072E+03  0.85000618416E+03  0.59967205552E+03 0.  0.
         23    2    4    4    0    0  0.73457115709E+02 -0.37900883205E+03  0.46741964288E+03  0.61305575853E+03  0.91173449503E+02 0.  0.
         23    2    4    4    0    0  0.28912917174E+02 -0.13556696495E+03 -0.17138575216E+03  0.23695042563E+03  0.86937157767E+02 0.  0.
          2    1    3    3  502    0 -0.11202437785E+03  0.46176813372E+03  0.21666172810E+03  0.52222751265E+03  0.00000000000E+00 0. -1.
         -2    1    3    3    0  502  0.96543449681E+01  0.52807663278E+02  0.50935098521E+02  0.74001621192E+02  0.00000000000E+00 0.  1.
         13    1    5    5    0    0  0.48473863250E+02 -0.12912138357E+03  0.22562651290E+03  0.26444162009E+03  0.00000000000E+00 0. -1.
        -13    1    5    5    0    0  0.24983252458E+02 -0.24988744848E+03  0.24179312998E+03  0.34861413844E+03  0.00000000000E+00 0.  1.
          4    1    6    6  503    0  0.55572763765E+02 -0.53648015808E+02 -0.74735857270E+02  0.10747971918E+03  0.00000000000E+00 0.  1.
         -4    1    6    6    0  503 -0.26659846591E+02 -0.81918949142E+02 -0.96649894887E+02  0.12947070646E+03  0.00000000000E+00 0. -1.
<mgrwt>
<rscale>  0 0.54064480E+03</rscale>
<asrwt>0</asrwt>
<pdfrwt beam="1">  1        1 0.15460508E+00 0.54064480E+03</pdfrwt>
<pdfrwt beam="2">  1       -1 0.67892662E-01 0.54064480E+03</pdfrwt>
<totfact> 0.34725580E+01</totfact>
</mgrwt>
</event>
<event>
12    1  0.1418317E-007  0.4951375E+03  0.7818608E-02  0.1015056E+00
          1   -1    0    0  501    0  0.00000000000E+00  0.00000000000E+00  0.32411741499E+04  0.32411741499E+04  0.00000000000E+00 0. -1.
         -1   -1    0    0    0  501 -0.00000000000E+00 -0.00000000000E+00 -0.13438648663E+03  0.13438648663E+03  0.00000000000E+00 0.  1.
         23    2    1    2    0    0  0.19874401675E+03  0.40924448009E+03  0.60201783263E+03  0.76006898243E+03  0.91099717673E+02 0.  0.
    5000000    2    1    2    0    0 -0.19874401675E+03 -0.40924448009E+03  0.25047698306E+04  0.26154916541E+04  0.59995371451E+03 0.  0.
         23    2    4    4    0    0 -0.20967662316E+03 -0.38671266035E+03  0.87978714360E+03  0.98790272097E+03  0.91735489753E+02 0.  0.
         23    2    4    4    0    0  0.10932606406E+02 -0.22531819747E+02  0.16249826870E+04  0.16275889331E+04  0.88599081983E+02 0.  0.
          2    1    3    3  502    0  0.45652081830E+02  0.19736079521E+03  0.26484630215E+03  0.33343509087E+03  0.00000000000E+00 0. -1.
         -2    1    3    3    0  502  0.15309193492E+03  0.21188368489E+03  0.33717153049E+03  0.42663389156E+03  0.00000000000E+00 0.  1.
         11    1    5    5    0    0 -0.44376620030E+02 -0.10536585039E+03  0.32178715688E+03  0.34149410121E+03  0.00000000000E+00 0. -1.
        -11    1    5    5    0    0 -0.16530000313E+03 -0.28134680996E+03  0.55799998672E+03  0.64640861975E+03  0.00000000000E+00 0.  1.
          2    1    6    6  503    0  0.20086034602E+02 -0.51499329351E+02  0.72960916584E+03  0.73170018764E+03  0.00000000000E+00 0. -1.
         -2    1    6    6    0  503 -0.91534281961E+01  0.28967509604E+02  0.89537352120E+03  0.89588874551E+03  0.00000000000E+00 0.  1.
<mgrwt>
<rscale>  0 0.49513753E+03</rscale>
<asrwt>0</asrwt>
<pdfrwt beam="1">  1        1 0.49864212E+00 0.49513753E+03</pdfrwt>
<pdfrwt beam="2">  1       -1 0.20674846E-01 0.49513753E+03</pdfrwt>
<totfact> 0.86417884E+00</totfact>
</mgrwt>
</event>
<event>
12    1  0.1418317E-007  0.5406804E+03  0.7818608E-02  0.1003674E+00
          2   -1    0    0  501    0  0.00000000000E+00  0.00000000000E+00  0.37342190853E+03  0.37342190853E+03  0.00000000000E+00 0. -1.
         -2   -1    0    0    0  501 -0.00000000000E+00 -0.00000000000E+00 -0.92854733491E+03  0.92854733491E+03  0.00000000000E+00 0.  1.
         23    2    1    2    0    0 -0.64627202296E+02 -0.37905607280E+03  0.58092219307E+01  0.39487486702E+03  0.89622720001E+02 0.  0.
    5000000    2    1    2    0    0  0.64627202296E+02  0.37905607280E+03 -0.56093464830E+03  0.90709437643E+03  0.60026023229E+03 0.  0.
         23    2    4    4    0    0  0.30821251047E+03  0.30281022592E+03 -0.35938315242E+03  0.56934819475E+03  0.91170894971E+02 0.  0.
         23    2    4    4    0    0 -0.24358530818E+03  0.76245846875E+02 -0.20155149589E+03  0.33774618168E+03  0.91116662679E+02 0.  0.
          3    1    3    3  502    0 -0.21110077382E+02 -0.23459141758E+03 -0.36090525964E+02  0.23828825954E+03  0.00000000000E+00 0. -1.
         -3    1    3    3    0  502 -0.43517124913E+02 -0.14446465522E+03  0.41899747895E+02  0.15658660748E+03  0.00000000000E+00 0.  1.
         13    1    5    5    0    0  0.16604271488E+03  0.21790818775E+03 -0.25006496125E+03  0.37092673980E+03  0.00000000000E+00 0. -1.
        -13    1    5    5    0    0  0.14216979559E+03  0.84902038167E+02 -0.10931819117E+03  0.19842145495E+03  0.00000000000E+00 0.  1.
          3    1    6    6  503    0 -0.17163324487E+03  0.57935452868E+02 -0.86309890001E+02  0.20065862692E+03  0.00000000000E+00 0. -1.
         -3    1    6    6    0  503 -0.71952063301E+02  0.18310394008E+02 -0.11524160589E+03  0.13708755476E+03  0.00000000000E+00 0.  1.
<mgrwt>
<rscale>  0 0.54068044E+03</rscale>
<asrwt>0</asrwt>
<pdfrwt beam="1">  1        2 0.57449525E-01 0.54068044E+03</pdfrwt>
<pdfrwt beam="2">  1       -2 0.14285343E+00 0.54068044E+03</pdfrwt>
<totfact> 0.30168454E+01</totfact>
</mgrwt>
</event>
<event>
12    1  0.1418317E-007  0.8811643E+03  0.7818608E-02  0.9449438E-01
          1   -1    0    0  501    0  0.00000000000E+00  0.00000000000E+00  0.22922187707E+04  0.22922187707E+04  0.00000000000E+00 0. -1.
         -1   -1    0    0    0  501 -0.00000000000E+00 -0.00000000000E+00 -0.69322335368E+03  0.69322335368E+03  0.00000000000E+00 0.  1.
         23    2    1    2    0    0  0.79793434742E+03  0.29896410904E+03 -0.22382375805E+03  0.88575738464E+03  0.91598627088E+02 0.  0.
    5000000    2    1    2    0    0 -0.79793434742E+03 -0.29896410904E+03  0.18228191751E+04  0.20996847398E+04  0.59993958029E+03 0.  0.
         23    2    4    4    0    0 -0.36274299333E+03 -0.28983496949E+03  0.43502298031E+03  0.64253869692E+03  0.89577870537E+02 0.  0.
         23    2    4    4    0    0 -0.43519135409E+03 -0.91291395507E+01  0.13877961948E+04  0.14571460429E+04  0.88438996191E+02 0.  0.
          1    1    3    3  502    0  0.71482779056E+03  0.23907476844E+03 -0.20951991647E+03  0.78232608959E+03  0.00000000000E+00 0. -1.
         -1    1    3    3    0  502  0.83106556861E+02  0.59889340599E+02 -0.14303841588E+02  0.10343129505E+03  0.00000000000E+00 0.  1.
         13    1    5    5    0    0 -0.32977689952E+03 -0.27746930581E+03  0.42644878012E+03  0.60630073494E+03  0.00000000000E+00 0. -1.
        -13    1    5    5    0    0 -0.32966093812E+02 -0.12365663681E+02  0.85742001906E+01  0.36237961979E+02  0.00000000000E+00 0.  1.
          2    1    6    6  503    0 -0.33143580671E+03 -0.34257388452E+02  0.95805524404E+03  0.10143436860E+04  0.00000000000E+00 0. -1.
         -2    1    6    6    0  503 -0.10375554738E+03  0.25128248901E+02  0.42974095076E+03  0.44280235689E+03  0.00000000000E+00 0.  1.
<mgrwt>
<rscale>  0 0.88116433E+03</rscale>
<asrwt>0</asrwt>
<pdfrwt beam="1">  1        1 0.35264904E+00 0.88116433E+03</pdfrwt>
<pdfrwt beam="2">  1       -1 0.10664975E+00 0.88116433E+03</pdfrwt>
<totfact> 0.16006757E+00</totfact>
</mgrwt>
</event>
<event>
12    1  0.1418317E-007  0.4312400E+03  0.7818608E-02  0.1033469E+00
          1   -1    0    0  501    0  0.00000000000E+00  0.00000000000E+00  0.18292364244E+04  0.18292364244E+04  0.00000000000E+00 0. -1.
         -1   -1    0    0    0  501 -0.00000000000E+00 -0.00000000000E+00 -0.17747988184E+03  0.17747988184E+03  0.00000000000E+00 0.  1.
         23    2    1    2    0    0  0.15821929444E+03  0.21105947826E+03  0.48316791951E+02  0.27447343457E+03  0.58495345108E+02 0.  0.
    5000000    2    1    2    0    0 -0.15821929444E+03 -0.21105947826E+03  0.16034397506E+04  0.17322428717E+04  0.60005573421E+03 0.  0.
         23    2    4    4    0    0 -0.11276599038E+03 -0.37372819657E+03  0.13823371386E+04  0.14392451231E+04  0.90452341525E+02 0.  0.
         23    2    4    4    0    0 -0.45453304065E+02  0.16266871831E+03  0.22110261196E+03  0.29299774854E+03  0.91837905415E+02 0.  0.
          3    1    3    3  502    0  0.92516761907E+02  0.75248458651E+02  0.24288506861E+02  0.12170297173E+03  0.00000000000E+00 0. -1.
         -3    1    3    3    0  502  0.65702532535E+02  0.13581101961E+03  0.24028285090E+02  0.15277046283E+03  0.00000000000E+00 0.  1.
         11    1    5    5    0    0 -0.69052535496E+02 -0.91169032099E+02  0.42548934412E+03  0.44059190532E+03  0.00000000000E+00 0.  1.
        -11    1    5    5    0    0 -0.43713454881E+02 -0.28255916447E+03  0.95684779452E+03  0.99865321781E+03  0.00000000000E+00 0. -1.
          1    1    6    6  503    0  0.24751547483E+02  0.16028074552E+02  0.38736354994E+02  0.48683092290E+02  0.00000000000E+00 0. -1.
         -1    1    6    6    0  503 -0.70204851548E+02  0.14664064375E+03  0.18236625696E+03  0.24431465625E+03  0.00000000000E+00 0.  1.
<mgrwt>
<rscale>  0 0.43124000E+03</rscale>
<asrwt>0</asrwt>
<pdfrwt beam="1">  1        1 0.28142098E+00 0.43124000E+03</pdfrwt>
<pdfrwt beam="2">  1       -1 0.27304598E-01 0.43124000E+03</pdfrwt>
<totfact> 0.50680142E+01</totfact>
</mgrwt>
</event>
<event>
12    1  0.1418317E-007  0.1109884E+04  0.7818608E-02  0.9195611E-01
         -1   -1    0    0    0  501 -0.00000000000E+00  0.00000000000E+00  0.10974452615E+04  0.10974452615E+04  0.00000000000E+00 0.  1.
          1   -1    0    0  501    0  0.00000000000E+00 -0.00000000000E+00 -0.16252047792E+04  0.16252047792E+04  0.00000000000E+00 0. -1.
         23    2    1    2    0    0  0.37604918557E+03 -0.96165753276E+03 -0.99823092118E+03  0.14390908322E+04  0.91209928101E+02 0.  0.
    5000000    2    1    2    0    0 -0.37604918557E+03  0.96165753276E+03  0.47047140343E+03  0.12835592085E+04  0.59998558311E+03 0.  0.
         23    2    4    4    0    0 -0.48232400455E+03  0.47484687539E+03  0.30999937496E+03  0.75007176235E+03  0.91608055142E+02 0.  0.
         23    2    4    4    0    0  0.10627481898E+03  0.48681065737E+03  0.16047202848E+03  0.53348744613E+03  0.10285246705E+03 0.  0.
          3    1    3    3  502    0  0.31650572876E+03 -0.72723884325E+03 -0.73031083161E+03  0.10781493970E+04  0.00000000000E+00 0. -1.
         -3    1    3    3    0  502  0.59543456816E+02 -0.23441868951E+03 -0.26792008957E+03  0.36094143519E+03  0.00000000000E+00 0.  1.
         13    1    5    5    0    0 -0.14351409652E+03  0.11140146870E+03  0.45969646256E+02  0.18740275213E+03  0.00000000000E+00 0.  1.
        -13    1    5    5    0    0 -0.33880990802E+03  0.36344540669E+03  0.26402972870E+03  0.56266901022E+03  0.00000000000E+00 0. -1.
          1    1    6    6  503    0  0.74756260655E+02  0.14662258704E+03  0.77483131906E+02  0.18190744148E+03  0.00000000000E+00 0. -1.
         -1    1    6    6    0  503  0.31518558321E+02  0.34018807033E+03  0.82988896569E+02  0.35158000465E+03  0.00000000000E+00 0.  1.
<mgrwt>
<rscale>  0 0.11098841E+04</rscale>
<asrwt>0</asrwt>
<pdfrwt beam="1">  1        1 0.25003151E+00 0.11098841E+04</pdfrwt>
<pdfrwt beam="2">  1       -1 0.16883773E+00 0.11098841E+04</pdfrwt>
<totfact> 0.13346705E+00</totfact>
</mgrwt>
</event>
<event>
12    1  0.1418317E-007  0.6330949E+03  0.7818608E-02  0.9839028E-01
          1   -1    0    0  501    0  0.00000000000E+00  0.00000000000E+00  0.36418758213E+03  0.36418758213E+03  0.00000000000E+00 0. -1.
         -1   -1    0    0    0  501 -0.00000000000E+00 -0.00000000000E+00 -0.12213030081E+04  0.12213030081E+04  0.00000000000E+00 0.  1.
         23    2    1    2    0    0  0.49935849146E+03  0.72467356731E+02 -0.52508804597E+03  0.73414852070E+03  0.92984803276E+02 0.  0.
    5000000    2    1    2    0    0 -0.49935849146E+03 -0.72467356731E+02 -0.33202737995E+03  0.85134206950E+03  0.59994226178E+03 0.  0.
         23    2    4    4    0    0 -0.60345972195E+03 -0.13683046758E+03 -0.29324975608E+03  0.69072003050E+03  0.90623000504E+02 0.  0.
         23    2    4    4    0    0  0.10410123049E+03  0.64363110846E+02 -0.38777623870E+02  0.16062203899E+03  0.96519734099E+02 0.  0.
          1    1    3    3  502    0  0.35001613074E+03  0.25609227278E+02 -0.41105298011E+03  0.54049206910E+03  0.00000000000E+00 0. -1.
         -1    1    3    3    0  502  0.14934236072E+03  0.46858129453E+02 -0.11403506586E+03  0.19365645160E+03  0.00000000000E+00 0.  1.
         13    1    5    5    0    0 -0.25474978587E+03 -0.10338241648E+03 -0.13622195253E+03  0.30682535389E+03  0.00000000000E+00 0. -1.
        -13    1    5    5    0    0 -0.34870993608E+03 -0.33448051098E+02 -0.15702780355E+03  0.38389467661E+03  0.00000000000E+00 0.  1.
          2    1    6    6  503    0  0.11049853409E+03  0.61615387076E+02 -0.58734728883E+02  0.13948530510E+03  0.00000000000E+00 0. -1.
         -2    1    6    6    0  503 -0.63973036043E+01  0.27477237701E+01  0.19957105012E+02  0.21136733896E+02  0.00000000000E+00 0.  1.
<mgrwt>
<rscale>  0 0.63309494E+03</rscale>
<asrwt>0</asrwt>
<pdfrwt beam="1">  1        1 0.56028858E-01 0.63309494E+03</pdfrwt>
<pdfrwt beam="2">  1       -1 0.18789277E+00 0.63309494E+03</pdfrwt>
<totfact> 0.12977592E+01</totfact>
</mgrwt>
</event>
<event>
12    1  0.1418317E-007  0.6033262E+03  0.7818608E-02  0.9898529E-01
          2   -1    0    0  501    0  0.00000000000E+00  0.00000000000E+00  0.14234282694E+04  0.14234282694E+04  0.00000000000E+00 0. -1.
         -2   -1    0    0    0  501 -0.00000000000E+00 -0.00000000000E+00 -0.33857263710E+03  0.33857263710E+03  0.00000000000E+00 0.  1.
         23    2    1    2    0    0  0.52602543905E+01  0.56008123458E+03  0.43391153215E+03  0.71446862924E+03  0.92019263327E+02 0.  0.
    5000000    2    1    2    0    0 -0.52602543905E+01 -0.56008123458E+03  0.65094410016E+03  0.10475322773E+04  0.59989748357E+03 0.  0.
         23    2    4    4    0    0 -0.15179070736E+03 -0.35631840332E+03  0.67098269915E+03  0.77975749723E+03  0.88321846345E+02 0.  0.
         23    2    4    4    0    0  0.14653045297E+03 -0.20376283127E+03 -0.20038598990E+02  0.26777478005E+03  0.91166453961E+02 0.  0.
          2    1    3    3  502    0  0.19780607137E+02  0.42484416444E+03  0.28065242758E+03  0.50955826123E+03  0.00000000000E+00 0. -1.
         -2    1    3    3    0  502 -0.14520352747E+02  0.13523707015E+03  0.15325910457E+03  0.20491036802E+03  0.00000000000E+00 0.  1.
         13    1    5    5    0    0  0.45115748088E+01 -0.49527483554E+02  0.55574187990E+02  0.74577585809E+02  0.00000000000E+00 0.  1.
        -13    1    5    5    0    0 -0.15630228217E+03 -0.30679091976E+03  0.61540851116E+03  0.70517991142E+03  0.00000000000E+00 0. -1.
          2    1    6    6  503    0  0.22802685764E+02 -0.24463883245E+02  0.29242216071E+02  0.44424669523E+02  0.00000000000E+00 0. -1.
         -2    1    6    6    0  503  0.12372776720E+03 -0.17929894802E+03 -0.49280815061E+02  0.22335011053E+03  0.00000000000E+00 0.  1.
<mgrwt>
<rscale>  0 0.60332622E+03</rscale>
<asrwt>0</asrwt>
<pdfrwt beam="1">  1        2 0.21898896E+00 0.60332622E+03</pdfrwt>
<pdfrwt beam="2">  1       -2 0.52088099E-01 0.60332622E+03</pdfrwt>
<totfact> 0.50667346E+01</totfact>
</mgrwt>
</event>
<event>
12    1  0.1418317E-007  0.7254432E+03  0.7818608E-02  0.9674684E-01
         -1   -1    0    0    0  501 -0.00000000000E+00  0.00000000000E+00  0.81430399937E+03  0.81430399937E+03  0.00000000000E+00 0.  1.
          1   -1    0    0  501    0  0.00000000000E+00 -0.00000000000E+00 -0.76933664358E+03  0.76933664358E+03  0.00000000000E+00 0. -1.
         23    2    1    2    0    0 -0.11877895667E+03 -0.61281904715E+03  0.27447564816E+03  0.68793822969E+03  0.90920302131E+02 0.  0.
    5000000    2    1    2    0    0  0.11877895667E+03  0.61281904715E+03 -0.22950829237E+03  0.89570241326E+03  0.59996094186E+03 0.  0.
         23    2    4    4    0    0  0.30302777665E+03  0.18949491132E+03 -0.21440901426E+03  0.42650787944E+03  0.90573677152E+02 0.  0.
         23    2    4    4    0    0 -0.18424881997E+03  0.42332413583E+03 -0.15099278113E+02  0.46919453382E+03  0.82247010455E+02 0.  0.
          2    1    3    3  502    0 -0.39361313568E+02 -0.29343209246E+03  0.84290274173E+02  0.30782552885E+03  0.00000000000E+00 0. -1.
         -2    1    3    3    0  502 -0.79417643107E+02 -0.31938695469E+03  0.19018537399E+03  0.38011270084E+03  0.00000000000E+00 0.  1.
         13    1    5    5    0    0  0.23493388166E+03  0.15029876720E+03 -0.11982758143E+03  0.30354949752E+03  0.00000000000E+00 0.  1.
        -13    1    5    5    0    0  0.68093894992E+02  0.39196144117E+02 -0.94581432827E+02  0.12295838192E+03  0.00000000000E+00 0. -1.
          1    1    6    6  503    0 -0.16951676750E+03  0.30443740965E+03 -0.22448305849E+02  0.34917330553E+03  0.00000000000E+00 0. -1.
         -1    1    6    6    0  503 -0.14732052473E+02  0.11888672618E+03  0.73490277364E+01  0.12002122829E+03  0.00000000000E+00 0.  1.
<mgrwt>
<rscale>  0 0.72544320E+03</rscale>
<asrwt>0</asrwt>
<pdfrwt beam="1">  1        1 0.11835948E+00 0.72544320E+03</pdfrwt>
<pdfrwt beam="2">  1       -1 0.12527754E+00 0.72544320E+03</pdfrwt>
<totfact> 0.13522456E+01</totfact>
</mgrwt>
</event>
<event>
12    1  0.1418317E-007  0.6945999E+03  0.7818608E-02  0.9726512E-01
          2   -1    0    0  501    0  0.00000000000E+00  0.00000000000E+00  0.17423923371E+04  0.17423923371E+04  0.00000000000E+00 0. -1.
         -2   -1    0    0    0  501 -0.00000000000E+00 -0.00000000000E+00 -0.35290660591E+03  0.35290660591E+03  0.00000000000E+00 0.  1.
         23    2    1    2    0    0 -0.25977923380E+03 -0.55714489749E+03  0.93674232551E+03  0.11240527369E+04  0.90070437499E+02 0.  0.
    5000000    2    1    2    0    0  0.25977923380E+03  0.55714489749E+03  0.45274340566E+03  0.97124620614E+03  0.60037231321E+03 0.  0.
         23    2    4    4    0    0  0.47534365848E+02 -0.68589983452E+02 -0.55894300478E+02  0.13248954670E+03  0.86401420077E+02 0.  0.
         23    2    4    4    0    0  0.21224486795E+03  0.62573488094E+03  0.50863770614E+03  0.83875665945E+03  0.90600179166E+02 0.  0.
          4    1    3    3  502    0 -0.78085224699E+02 -0.25050223333E+03  0.44730211890E+03  0.51858254578E+03  0.00000000000E+00 0. -1.
         -4    1    3    3    0  502 -0.18169400910E+03 -0.30664266416E+03  0.48944020662E+03  0.60547019108E+03  0.00000000000E+00 0.  1.
         13    1    5    5    0    0  0.15475603833E+02  0.11018730877E+02 -0.41267929252E+02  0.45430702491E+02  0.00000000000E+00 0.  1.
        -13    1    5    5    0    0  0.32058762015E+02 -0.79608714329E+02 -0.14626371226E+02  0.87058844205E+02  0.00000000000E+00 0. -1.
          4    1    6    6  503    0  0.91344645794E+02  0.39090392964E+03  0.28024840551E+03  0.48958032571E+03  0.00000000000E+00 0. -1.
         -4    1    6    6    0  503  0.12090022216E+03  0.23483095129E+03  0.22838930062E+03  0.34917633374E+03  0.00000000000E+00 0.  1.
<mgrwt>
<rscale>  0 0.69459988E+03</rscale>
<asrwt>0</asrwt>
<pdfrwt beam="1">  1        2 0.26806036E+00 0.69459988E+03</pdfrwt>
<pdfrwt beam="2">  1       -2 0.54293325E-01 0.69459988E+03</pdfrwt>
<totfact> 0.30695802E+01</totfact>
</mgrwt>
</event>
<event>
12    1  0.1418317E-007  0.1257959E+04  0.7818608E-02  0.9063585E-01
         -1   -1    0    0    0  501 -0.00000000000E+00  0.00000000000E+00  0.65212116551E+03  0.65212116551E+03  0.00000000000E+00 0.  1.
          1   -1    0    0  501    0  0.00000000000E+00 -0.00000000000E+00 -0.26621712547E+04  0.26621712547E+04  0.00000000000E+00 0. -1.
         23    2    1    2    0    0  0.74282844632E+03 -0.10019475032E+04 -0.91230140487E+03  0.15477134125E+04  0.86197762172E+02 0.  0.
    5000000    2    1    2    0    0 -0.74282844632E+03  0.10019475032E+04 -0.10977486843E+04  0.17665790077E+04  0.60004692875E+03 0.  0.
         23    2    4    4    0    0 -0.59909491194E+03  0.86212014852E+03 -0.11294886159E+04  0.15447384517E+04  0.91139930306E+02 0.  0.
         23    2    4    4    0    0 -0.14373353438E+03  0.13982735464E+03  0.31739931555E+02  0.22184055594E+03  0.89413595140E+02 0.  0.
          3    1    3    3  502    0  0.18012901787E+03 -0.23654015356E+03 -0.17332664910E+03  0.34415088931E+03  0.00000000000E+00 0. -1.
         -3    1    3    3    0  502  0.56269942845E+03 -0.76540734961E+03 -0.73897475577E+03  0.12035625232E+04  0.00000000000E+00 0.  1.
         13    1    5    5    0    0 -0.47540364654E+03  0.68103171211E+03 -0.83674628689E+03  0.11789644476E+04  0.00000000000E+00 0. -1.
        -13    1    5    5    0    0 -0.12369126540E+03  0.18108843641E+03 -0.29274232896E+03  0.36577400414E+03  0.00000000000E+00 0.  1.
          4    1    6    6  503    0 -0.19200552898E+02 -0.11809278507E+02  0.91388114806E+01  0.24323613336E+02  0.00000000000E+00 0. -1.
         -4    1    6    6    0  503 -0.12453298148E+03  0.15163663315E+03  0.22601120074E+02  0.19751694261E+03  0.00000000000E+00 0.  1.
<mgrwt>
<rscale>  0 0.12579587E+04</rscale>
<asrwt>0</asrwt>
<pdfrwt beam="1">  1        1 0.40956481E+00 0.12579587E+04</pdfrwt>
<pdfrwt beam="2">  1       -1 0.10032633E+00 0.12579587E+04</pdfrwt>
<totfact> 0.97177716E-01</totfact>
</mgrwt>
</event>
<event>
12    1  0.1611745E-007  0.5398798E+03  0.7818608E-02  0.1003864E+00
          2   -1    0    0  501    0  0.00000000000E+00  0.00000000000E+00  0.10107887466E+04  0.10107887466E+04  0.00000000000E+00 0. -1.
         -2   -1    0    0    0  501 -0.00000000000E+00 -0.00000000000E+00 -0.39437414417E+03  0.39437414417E+03  0.00000000000E+00 0.  1.
         23    2    1    2    0    0 -0.48218118529E+03 -0.13472373753E+02  0.28286646783E+03  0.56614026968E+03  0.88437356457E+02 0.  0.
    5000000    2    1    2    0    0  0.48218118529E+03  0.13472373753E+02  0.33354813462E+03  0.83902262112E+03  0.60002033327E+03 0.  0.
         23    2    4    4    0    0  0.34537052307E+03 -0.13340616902E+03 -0.61792188523E+02  0.38653796527E+03  0.92278490948E+02 0.  0.
         23    2    4    4    0    0  0.13681066222E+03  0.14687854277E+03  0.39534032314E+03  0.45248465585E+03  0.90321254721E+02 0.  0.
          2    1    3    3  502    0 -0.14753927665E+03 -0.41183442881E+02  0.10906125616E+03  0.18803795287E+03  0.00000000000E+00 0. -1.
         -2    1    3    3    0  502 -0.33464190864E+03  0.27711069128E+02  0.17380521167E+03  0.37810231681E+03  0.00000000000E+00 0.  1.
         13    1    5    5    0    0  0.14378895680E+03 -0.14297102685E+02 -0.46920330239E+02  0.15192494408E+03  0.00000000000E+00 0. -1.
        -13    1    5    5    0    0  0.20158156627E+03 -0.11910906634E+03 -0.14871858284E+02  0.23461302119E+03  0.00000000000E+00 0.  1.
          4    1    6    6  503    0  0.54464282351E+02  0.10828825805E+03  0.16416883232E+03  0.20406888638E+03  0.00000000000E+00 0. -1.
         -4    1    6    6    0  503  0.82346379871E+02  0.38590284724E+02  0.23117149082E+03  0.24841576947E+03  0.00000000000E+00 0.  1.
<mgrwt>
<rscale>  0 0.53987980E+03</rscale>
<asrwt>0</asrwt>
<pdfrwt beam="1">  1        2 0.15550596E+00 0.53987980E+03</pdfrwt>
<pdfrwt beam="2">  1       -2 0.60672946E-01 0.53987980E+03</pdfrwt>
<totfact> 0.64957317E+01</totfact>
</mgrwt>
</event>
<event>
12    1  0.1418317E-007  0.5594968E+03  0.7818608E-02  0.9993194E-01
          1   -1    0    0  501    0  0.00000000000E+00  0.00000000000E+00  0.14896994908E+04  0.14896994908E+04  0.00000000000E+00 0. -1.
         -1   -1    0    0    0  501 -0.00000000000E+00 -0.00000000000E+00 -0.42305790935E+03  0.42305790935E+03  0.00000000000E+00 0.  1.
         23    2    1    2    0    0 -0.40206025170E+03 -0.19489134413E+03  0.10714347756E+04  0.11646803184E+04  0.94194924483E+02 0.  0.
    5000000    2    1    2    0    0  0.40206025170E+03  0.19489134413E+03 -0.47931940968E+01  0.74807708176E+03  0.59996771874E+03 0.  0.
         23    2    4    4    0    0  0.46571769280E+03  0.28499742257E+02 -0.15258565100E+03  0.49955228174E+03  0.92546726630E+02 0.  0.
         23    2    4    4    0    0 -0.63657441092E+02  0.16639160188E+03  0.14779245691E+03  0.24852480002E+03  0.90462870414E+02 0.  0.
          3    1    3    3  502    0 -0.19245553577E+03 -0.10513077579E+03  0.64268874660E+03  0.67907322011E+03  0.00000000000E+00 0. -1.
         -3    1    3    3    0  502 -0.20960471594E+03 -0.89760568342E+02  0.42874602899E+03  0.48560709833E+03  0.00000000000E+00 0.  1.
         13    1    5    5    0    0  0.23296615204E+03 -0.23627482675E+02 -0.47591723960E+02  0.23894865165E+03  0.00000000000E+00 0. -1.
        -13    1    5    5    0    0  0.23275154075E+03  0.52127224932E+02 -0.10499392704E+03  0.26060363009E+03  0.00000000000E+00 0.  1.
          1    1    6    6  503    0 -0.62446858321E+02  0.43500708831E+02  0.67481946947E+02  0.10171398599E+03  0.00000000000E+00 0. -1.
         -1    1    6    6    0  503 -0.12105827711E+01  0.12289089305E+03  0.80310509959E+02  0.14681081402E+03  0.00000000000E+00 0.  1.
<mgrwt>
<rscale>  0 0.55949684E+03</rscale>
<asrwt>0</asrwt>
<pdfrwt beam="1">  1        1 0.22918454E+00 0.55949684E+03</pdfrwt>
<pdfrwt beam="2">  1       -1 0.65085833E-01 0.55949684E+03</pdfrwt>
<totfact> 0.16988859E+01</totfact>
</mgrwt>
</event>
<event>
12    1  0.1418317E-007  0.6074341E+03  0.7818608E-02  0.9890102E-01
         -1   -1    0    0    0  501 -0.00000000000E+00  0.00000000000E+00  0.63492701151E+03  0.63492701151E+03  0.00000000000E+00 0.  1.
          1   -1    0    0  501    0  0.00000000000E+00 -0.00000000000E+00 -0.64116060473E+03  0.64116060473E+03  0.00000000000E+00 0. -1.
         23    2    1    2    0    0 -0.48142214527E+03  0.95452968574E+02 -0.32563080482E+02  0.50021074997E+03  0.90949925813E+02 0.  0.
    5000000    2    1    2    0    0  0.48142214527E+03 -0.95452968574E+02  0.26329487263E+02  0.77587686627E+03  0.60034416674E+03 0.  0.
         23    2    4    4    0    0 -0.90277203365E+02 -0.70609280827E+02 -0.10643488818E+03  0.18139210048E+03  0.91864382150E+02 0.  0.
         23    2    4    4    0    0  0.57169934863E+03 -0.24843687747E+02  0.13276437544E+03  0.59448476579E+03  0.91260086141E+02 0.  0.
          1    1    3    3  502    0 -0.38564222618E+03  0.82314765462E+02 -0.61950629879E+02  0.39916604035E+03  0.00000000000E+00 0. -1.
         -1    1    3    3    0  502 -0.95779919085E+02  0.13138203112E+02  0.29387549397E+02  0.10104470961E+03  0.00000000000E+00 0.  1.
         13    1    5    5    0    0 -0.10516334423E+03 -0.39400263402E+02 -0.80809204764E+02  0.13835402886E+03  0.00000000000E+00 0.  1.
        -13    1    5    5    0    0  0.14886140865E+02 -0.31209017425E+02 -0.25625683412E+02  0.43038071621E+02  0.00000000000E+00 0. -1.
          1    1    6    6  503    0  0.28134308235E+03 -0.49176519349E+02  0.93235877235E+02  0.30044165631E+03  0.00000000000E+00 0. -1.
         -1    1    6    6    0  503  0.29035626628E+03  0.24332831602E+02  0.39528498204E+02  0.29404310948E+03  0.00000000000E+00 0.  1.
<mgrwt>
<rscale>  0 0.60743407E+03</rscale>
<asrwt>0</asrwt>
<pdfrwt beam="1">  1        1 0.98640093E-01 0.60743407E+03</pdfrwt>
<pdfrwt beam="2">  1       -1 0.97681079E-01 0.60743407E+03</pdfrwt>
<totfact> 0.32516177E+01</totfact>
</mgrwt>
</event>
<event>
12    1  0.1418317E-007  0.1491070E+04  0.7818608E-02  0.8890413E-01
         -1   -1    0    0    0  501 -0.00000000000E+00  0.00000000000E+00  0.94002516036E+03  0.94002516036E+03  0.00000000000E+00 0.  1.
          1   -1    0    0  501    0  0.00000000000E+00 -0.00000000000E+00 -0.26453507399E+04  0.26453507399E+04  0.00000000000E+00 0. -1.
         23    2    1    2    0    0 -0.13455451210E+04 -0.62172582970E+03 -0.11970274673E+04  0.19074690075E+04  0.92350296649E+02 0.  0.
    5000000    2    1    2    0    0  0.13455451210E+04  0.62172582970E+03 -0.50829811227E+03  0.16779068928E+04  0.59997490780E+03 0.  0.
         23    2    4    4    0    0  0.91349371043E+03  0.32401075204E+03 -0.48418415388E+02  0.97423322542E+03  0.85628897688E+02 0.  0.
         23    2    4    4    0    0  0.43205141053E+03  0.29771507766E+03 -0.45987969688E+03  0.70367366735E+03  0.91458218379E+02 0.  0.
          3    1    3    3  502    0 -0.53623722519E+03 -0.29319912103E+03 -0.46830412442E+03  0.76995119274E+03  0.00000000000E+00 0. -1.
         -3    1    3    3    0  502 -0.80930789578E+03 -0.32852670867E+03 -0.72872334287E+03  0.11375178148E+04  0.00000000000E+00 0.  1.
         13    1    5    5    0    0  0.27280612013E+03  0.10077138125E+03 -0.53737695275E+02  0.29574615864E+03  0.00000000000E+00 0.  1.
        -13    1    5    5    0    0  0.64068759030E+03  0.22323937079E+03  0.53192798870E+01  0.67848706677E+03  0.00000000000E+00 0. -1.
          3    1    6    6  503    0  0.14721861186E+03  0.13750329446E+03 -0.21992620133E+03  0.29824152913E+03  0.00000000000E+00 0. -1.
         -3    1    6    6    0  503  0.28483279867E+03  0.16021178320E+03 -0.23995349555E+03  0.40543213822E+03  0.00000000000E+00 0.  1.
<mgrwt>
<rscale>  0 0.14910702E+04</rscale>
<asrwt>0</asrwt>
<pdfrwt beam="1">  1        1 0.40697703E+00 0.14910702E+04</pdfrwt>
<pdfrwt beam="2">  1       -1 0.14461926E+00 0.14910702E+04</pdfrwt>
<totfact> 0.39277826E-01</totfact>
</mgrwt>
</event>
<event>
12    1  0.1418317E-007  0.9472485E+03  0.7818608E-02  0.9368372E-01
          2   -1    0    0  501    0  0.00000000000E+00  0.00000000000E+00  0.16291486121E+04  0.16291486121E+04  0.00000000000E+00 0. -1.
         -2   -1    0    0    0  501 -0.00000000000E+00 -0.00000000000E+00 -0.66500906108E+03  0.66500906108E+03  0.00000000000E+00 0.  1.
         23    2    1    2    0    0  0.20989810933E+03  0.91580470936E+03  0.27409985185E+03  0.98282873501E+03  0.89811533717E+02 0.  0.
    5000000    2    1    2    0    0 -0.20989810933E+03 -0.91580470936E+03  0.69003969920E+03  0.13113289382E+04  0.60056083433E+03 0.  0.
         23    2    4    4    0    0 -0.78767578742E+02 -0.44640049244E+03  0.67176044474E+03  0.81591844139E+03  0.94779094543E+02 0.  0.
         23    2    4    4    0    0 -0.13113053058E+03 -0.46940421692E+03  0.18279254457E+02  0.49541049682E+03  0.86959153081E+02 0.  0.
          3    1    3    3  502    0  0.11072171900E+03  0.59931084911E+03  0.21284453854E+03  0.64555061033E+03  0.00000000000E+00 0. -1.
         -3    1    3    3    0  502  0.99176390325E+02  0.31649386025E+03  0.61255313318E+02  0.33727812467E+03  0.00000000000E+00 0.  1.
         11    1    5    5    0    0 -0.10353564203E+02 -0.30915458399E+03  0.46524089264E+03  0.55868850111E+03  0.00000000000E+00 0. -1.
        -11    1    5    5    0    0 -0.68414014538E+02 -0.13724590845E+03  0.20651955211E+03  0.25722994028E+03  0.00000000000E+00 0.  1.
          2    1    6    6  503    0 -0.12272533331E+03 -0.46553893372E+03  0.27657022245E+02  0.48223740743E+03  0.00000000000E+00 0. -1.
         -2    1    6    6    0  503 -0.84051972728E+01 -0.38652831982E+01 -0.93777677879E+01  0.13173089390E+02  0.00000000000E+00 0.  1.
<mgrwt>
<rscale>  0 0.94724853E+03</rscale>
<asrwt>0</asrwt>
<pdfrwt beam="1">  1        2 0.25063825E+00 0.94724853E+03</pdfrwt>
<pdfrwt beam="2">  1       -2 0.10230909E+00 0.94724853E+03</pdfrwt>
<totfact> 0.84194562E+00</totfact>
</mgrwt>
</event>
<event>
12    1  0.1418317E-007  0.7606697E+03  0.7818608E-02  0.9618758E-01
         -1   -1    0    0    0  501 -0.00000000000E+00  0.00000000000E+00  0.40877996351E+03  0.40877996351E+03  0.00000000000E+00 0.  1.
          1   -1    0    0  501    0  0.00000000000E+00 -0.00000000000E+00 -0.20572875476E+04  0.20572875476E+04  0.00000000000E+00 0. -1.
         23    2    1    2    0    0 -0.67792283954E+03  0.30126527560E+02 -0.13472713670E+04  0.15113664256E+04  0.92743474336E+02 0.  0.
    5000000    2    1    2    0    0  0.67792283954E+03 -0.30126527560E+02 -0.30123621705E+03  0.95470108548E+03  0.60018657110E+03 0.  0.
         23    2    4    4    0    0  0.67151214785E+03 -0.17163774354E+03 -0.34538341212E+03  0.77913405593E+03  0.85860910945E+02 0.  0.
         23    2    4    4    0    0  0.64106916877E+01  0.14151121598E+03  0.44147195066E+02  0.17556702955E+03  0.93852468354E+02 0.  0.
          4    1    3    3  502    0 -0.50371367023E+03  0.56958578681E+02 -0.10448204011E+04  0.11613016024E+04  0.00000000000E+00 0. -1.
         -4    1    3    3    0  502 -0.17420916931E+03 -0.26832051120E+02 -0.30245096597E+03  0.35006482322E+03  0.00000000000E+00 0.  1.
         11    1    5    5    0    0  0.55932401861E+03 -0.15280309592E+03 -0.25311331566E+03  0.63265985686E+03  0.00000000000E+00 0.  1.
        -11    1    5    5    0    0  0.11218812924E+03 -0.18834647623E+02 -0.92270096463E+02  0.14647419908E+03  0.00000000000E+00 0. -1.
          1    1    6    6  503    0  0.18521521170E+01 -0.92066343245E+00 -0.19418164308E+02  0.19528010491E+02  0.00000000000E+00 0. -1.
         -1    1    6    6    0  503  0.45585395707E+01  0.14243187941E+03  0.63565359375E+02  0.15603901906E+03  0.00000000000E+00 0.  1.
<mgrwt>
<rscale>  0 0.76066967E+03</rscale>
<asrwt>0</asrwt>
<pdfrwt beam="1">  1        1 0.31650577E+00 0.76066967E+03</pdfrwt>
<pdfrwt beam="2">  1       -1 0.62889226E-01 0.76066967E+03</pdfrwt>
<totfact> 0.73148637E+00</totfact>
</mgrwt>
</event>
<event>
12    1  0.1418317E-007  0.5835115E+03  0.7818608E-02  0.9940218E-01
          1   -1    0    0  501    0  0.00000000000E+00  0.00000000000E+00  0.73583343611E+03  0.73583343611E+03  0.00000000000E+00 0. -1.
         -1   -1    0    0    0  501 -0.00000000000E+00 -0.00000000000E+00 -0.85838998797E+03  0.85838998797E+03  0.00000000000E+00 0.  1.
         23    2    1    2    0    0 -0.53792383725E+03  0.97116815222E+02  0.34954597509E+03  0.65530778688E+03  0.91935718678E+02 0.  0.
    5000000    2    1    2    0    0  0.53792383725E+03 -0.97116815222E+02 -0.47210252694E+03  0.93891563720E+03  0.59990669887E+03 0.  0.
         23    2    4    4    0    0  0.44896679851E+03 -0.18506973525E+03 -0.56962320632E+03  0.75400831680E+03  0.90752143505E+02 0.  0.
         23    2    4    4    0    0  0.88957038735E+02  0.87952920029E+02  0.97520679379E+02  0.18490732040E+03  0.95033485400E+02 0.  0.
          4    1    3    3  502    0 -0.41927118351E+03  0.56309358133E+02  0.22777053080E+03  0.48045653689E+03  0.00000000000E+00 0.  1.
         -4    1    3    3    0  502 -0.11865265373E+03  0.40807457089E+02  0.12177544429E+03  0.17485124999E+03  0.00000000000E+00 0. -1.
         13    1    5    5    0    0  0.17508540475E+03 -0.70539737019E+02 -0.29108610937E+03  0.34693209210E+03  0.00000000000E+00 0.  1.
        -13    1    5    5    0    0  0.27388139376E+03 -0.11452999823E+03 -0.27853709695E+03  0.40707622470E+03  0.00000000000E+00 0. -1.
          2    1    6    6  503    0  0.35943843852E+02  0.66710778387E+02  0.46990290027E+01  0.75923439974E+02  0.00000000000E+00 0. -1.
         -2    1    6    6    0  503  0.53013194883E+02  0.21242141642E+02  0.92821650376E+02  0.10898388042E+03  0.00000000000E+00 0.  1.
<mgrwt>
<rscale>  0 0.58351147E+03</rscale>
<asrwt>0</asrwt>
<pdfrwt beam="1">  1        1 0.11320514E+00 0.58351147E+03</pdfrwt>
<pdfrwt beam="2">  1       -1 0.13206000E+00 0.58351147E+03</pdfrwt>
<totfact> 0.12961316E+01</totfact>
</mgrwt>
</event>
<event>
12    1  0.1418317E-007  0.7259243E+03  0.7818608E-02  0.9673897E-01
          2   -1    0    0  501    0  0.00000000000E+00  0.00000000000E+00  0.19732541049E+04  0.19732541049E+04  0.00000000000E+00 0.  1.
         -2   -1    0    0    0  501 -0.00000000000E+00 -0.00000000000E+00 -0.29660851873E+03  0.29660851873E+03  0.00000000000E+00 0. -1.
         23    2    1    2    0    0 -0.51136578111E+03 -0.34373378864E+03  0.98774466376E+03  0.11677697241E+04  0.91644574829E+02 0.  0.
    5000000    2    1    2    0    0  0.51136578111E+03  0.34373378864E+03  0.68890092237E+03  0.11020928995E+04  0.60031358372E+03 0.  0.
         23    2    4    4    0    0  0.17681190963E+03  0.44040146627E+03  0.49121033077E+03  0.68903070171E+03  0.90883529667E+02 0.  0.
         23    2    4    4    0    0  0.33455387148E+03 -0.96667677627E+02  0.19769059160E+03  0.41306219781E+03  0.10133053063E+03 0.  0.
          2    1    3    3  502    0 -0.33885486420E+03 -0.27420091886E+03  0.66082103594E+03  0.79163956725E+03  0.00000000000E+00 0. -1.
         -2    1    3    3    0  502 -0.17251091691E+03 -0.69532869784E+02  0.32692362782E+03  0.37613015681E+03  0.00000000000E+00 0.  1.
         11    1    5    5    0    0  0.11677052470E+03  0.32571996527E+03  0.40878183579E+03  0.53556646691E+03  0.00000000000E+00 0. -1.
        -11    1    5    5    0    0  0.60041384933E+02  0.11468150100E+03  0.82428494982E+02  0.15346423480E+03  0.00000000000E+00 0.  1.
          2    1    6    6  503    0  0.11407162737E+03 -0.83065270602E+00  0.10612072879E+03  0.15580319391E+03  0.00000000000E+00 0. -1.
         -2    1    6    6    0  503  0.22048224411E+03 -0.95837024921E+02  0.91569862806E+02  0.25725900390E+03  0.00000000000E+00 0.  1.
<mgrwt>
<rscale>  0 0.72592427E+03</rscale>
<asrwt>0</asrwt>
<pdfrwt beam="1">  1        2 0.30357755E+00 0.72592427E+03</pdfrwt>
<pdfrwt beam="2">  1       -2 0.45632081E-01 0.72592427E+03</pdfrwt>
<totfact> 0.32584394E+01</totfact>
</mgrwt>
</event>
<event>
12    1  0.1418317E-007  0.1174123E+04  0.7818608E-02  0.9135813E-01
         -2   -1    0    0    0  501 -0.00000000000E+00  0.00000000000E+00  0.93853234003E+03  0.93853234003E+03  0.00000000000E+00 0.  1.
          2   -1    0    0  501    0  0.00000000000E+00 -0.00000000000E+00 -0.34608291693E+04  0.34608291693E+04  0.00000000000E+00 0. -1.
         23    2    1    2    0    0 -0.35905588730E+03 -0.11045856914E+04 -0.28265206515E+04  0.30572025442E+04  0.90761905016E+02 0.  0.
    5000000    2    1    2    0    0  0.35905588730E+03  0.11045856914E+04  0.30422382218E+03  0.13421589651E+04  0.59983987340E+03 0.  0.
         23    2    4    4    0    0  0.19984244285E+02  0.26548134384E+03 -0.15665735482E+03  0.32236225079E+03  0.92174725216E+02 0.  0.
         23    2    4    4    0    0  0.33907164302E+03  0.83910434759E+03  0.46088117700E+03  0.10197967143E+04  0.92239871946E+02 0.  0.
          1    1    3    3  502    0 -0.23096890799E+03 -0.71176629388E+03 -0.19326118865E+04  0.20724252935E+04  0.00000000000E+00 0. -1.
         -1    1    3    3    0  502 -0.12808697931E+03 -0.39281939755E+03 -0.89390876501E+03  0.98477725072E+03  0.00000000000E+00 0.  1.
         13    1    5    5    0    0  0.36026345663E+02  0.26149292154E+03 -0.13958118869E+03  0.29859563599E+03  0.00000000000E+00 0. -1.
        -13    1    5    5    0    0 -0.16042101378E+02  0.39884222964E+01 -0.17076166137E+02  0.23766614798E+02  0.00000000000E+00 0.  1.
          1    1    6    6  503    0  0.27259836562E+03  0.61935290159E+03  0.30470647191E+03  0.74212796718E+03  0.00000000000E+00 0. -1.
         -1    1    6    6    0  503  0.66473277397E+02  0.21975144599E+03  0.15617470509E+03  0.27766874713E+03  0.00000000000E+00 0.  1.
<mgrwt>
<rscale>  0 0.11741228E+04</rscale>
<asrwt>0</asrwt>
<pdfrwt beam="1">  1        2 0.53243526E+00 0.11741228E+04</pdfrwt>
<pdfrwt beam="2">  1       -2 0.14438959E+00 0.11741228E+04</pdfrwt>
<totfact> 0.28642081E-01</totfact>
</mgrwt>
</event>
<event>
12    1  0.1724883E-007  0.5800443E+03  0.7818608E-02  0.9947695E-01
         -2   -1    0    0    0  501 -0.00000000000E+00  0.00000000000E+00  0.33903711523E+03  0.33903711523E+03  0.00000000000E+00 0.  1.
          2   -1    0    0  501    0  0.00000000000E+00 -0.00000000000E+00 -0.10699574879E+04  0.10699574879E+04  0.00000000000E+00 0. -1.
         23    2    1    2    0    0  0.59873915183E+02 -0.43990670584E+03 -0.33852382983E+03  0.56578951593E+03  0.91742015546E+02 0.  0.
    5000000    2    1    2    0    0 -0.59873915183E+02  0.43990670584E+03 -0.39239654285E+03  0.84320508722E+03  0.59993080994E+03 0.  0.
         23    2    4    4    0    0 -0.60373942038E+02 -0.11505631395E+03 -0.21859918205E+01  0.15995722049E+03  0.93266100860E+02 0.  0.
         23    2    4    4    0    0  0.50002685545E+00  0.55496301978E+03 -0.39021055103E+03  0.68324786673E+03  0.81112082355E+02 0.  0.
          1    1    3    3  502    0  0.32323134271E+02 -0.20333161702E+03 -0.21426648071E+03  0.29715089811E+03  0.00000000000E+00 0. -1.
         -1    1    3    3    0  502  0.27550780912E+02 -0.23657508881E+03 -0.12425734912E+03  0.26863861782E+03  0.00000000000E+00 0.  1.
         13    1    5    5    0    0 -0.84912246014E+02 -0.82029273064E+02  0.50948450688E+01  0.11817296056E+03  0.00000000000E+00 0.  1.
        -13    1    5    5    0    0  0.24538303975E+02 -0.33027040884E+02 -0.72808368893E+01  0.41784259923E+02  0.00000000000E+00 0. -1.
          2    1    6    6  503    0 -0.22433382671E+02  0.29225119753E+03 -0.16439692531E+03  0.33606601757E+03  0.00000000000E+00 0. -1.
         -2    1    6    6    0  503  0.22933409526E+02  0.26271182225E+03 -0.22581362572E+03  0.34718184916E+03  0.00000000000E+00 0.  1.
<mgrwt>
<rscale>  0 0.58004432E+03</rscale>
<asrwt>0</asrwt>
<pdfrwt beam="1">  1        2 0.16460884E+00 0.58004432E+03</pdfrwt>
<pdfrwt beam="2">  1       -2 0.52159557E-01 0.58004432E+03</pdfrwt>
<totfact> 0.81338621E+01</totfact>
</mgrwt>
</event>
<event>
12    1  0.1418317E-007  0.8966750E+03  0.7818608E-02  0.9429747E-01
         -2   -1    0    0    0  501 -0.00000000000E+00  0.00000000000E+00  0.46795313334E+03  0.46795313334E+03  0.00000000000E+00 0.  1.
          2   -1    0    0  501    0  0.00000000000E+00 -0.00000000000E+00 -0.23660779715E+04  0.23660779715E+04  0.00000000000E+00 0. -1.
         23    2    1    2    0    0  0.77189972169E+03  0.23843965328E+03 -0.15821566385E+04  0.17792324667E+04  0.98822533956E+02 0.  0.
    5000000    2    1    2    0    0 -0.77189972169E+03 -0.23843965328E+03 -0.31596819974E+03  0.10547986382E+04  0.60006800893E+03 0.  0.
         23    2    4    4    0    0 -0.10801148521E+03 -0.28571167758E+03 -0.15243820951E+02  0.31867009075E+03  0.89557852919E+02 0.  0.
         23    2    4    4    0    0 -0.66388823648E+03  0.47272024301E+02 -0.30072437879E+03  0.73612854747E+03  0.92020930147E+02 0.  0.
          4    1    3    3  502    0  0.20316711309E+03  0.90855658445E+02 -0.51452795399E+03  0.56059846767E+03  0.00000000000E+00 0. -1.
         -4    1    3    3    0  502  0.56873260860E+03  0.14758399483E+03 -0.10676286845E+04  0.12186339990E+04  0.00000000000E+00 0.  1.
         11    1    5    5    0    0 -0.48468400293E+02 -0.22776264109E+03 -0.28254332326E+02  0.23457048791E+03  0.00000000000E+00 0. -1.
        -11    1    5    5    0    0 -0.59543084921E+02 -0.57949036491E+02  0.13010511376E+02  0.84099602843E+02  0.00000000000E+00 0.  1.
          1    1    6    6  503    0 -0.56337049547E+03  0.57200927497E+02 -0.28487242595E+03  0.63388528957E+03  0.00000000000E+00 0. -1.
         -1    1    6    6    0  503 -0.10051774101E+03 -0.99289031954E+01 -0.15851952841E+02  0.10224325790E+03  0.00000000000E+00 0.  1.
<mgrwt>
<rscale>  0 0.89667503E+03</rscale>
<asrwt>0</asrwt>
<pdfrwt beam="1">  1        2 0.36401199E+00 0.89667503E+03</pdfrwt>
<pdfrwt beam="2">  1       -2 0.71992791E-01 0.89667503E+03</pdfrwt>
<totfact> 0.74280658E+00</totfact>
</mgrwt>
</event>
<event>
12    1  0.1418317E-007  0.9417156E+03  0.7818608E-02  0.9374887E-01
          1   -1    0    0  501    0  0.00000000000E+00  0.00000000000E+00  0.18149350496E+04  0.18149350496E+04  0.00000000000E+00 0. -1.
         -1   -1    0    0    0  501 -0.00000000000E+00 -0.00000000000E+00 -0.51269133527E+03  0.51269133527E+03  0.00000000000E+00 0.  1.
         23    2    1    2    0    0 -0.49642493937E+03  0.70853710768E+03  0.68473798980E+03  0.11070476947E+04  0.90696913954E+02 0.  0.
    5000000    2    1    2    0    0  0.49642493937E+03 -0.70853710768E+03  0.61750572455E+03  0.12205786902E+04  0.60003038740E+03 0.  0.
         23    2    4    4    0    0  0.52708765949E+03 -0.76879504540E+03  0.52015736070E+03  0.10704801938E+04  0.80603615422E+02 0.  0.
         23    2    4    4    0    0 -0.30662720117E+02  0.60257937716E+02  0.97348363842E+02  0.15009849643E+03  0.92095782878E+02 0.  0.
          4    1    3    3  502    0 -0.43574905559E+03  0.56100403463E+03  0.55996464754E+03  0.90452372706E+03  0.00000000000E+00 0. -1.
         -4    1    3    3    0  502 -0.60675883779E+02  0.14753307305E+03  0.12477334226E+03  0.20252396761E+03  0.00000000000E+00 0.  1.
         11    1    5    5    0    0  0.45227814279E+03 -0.60743589778E+03  0.40832216617E+03  0.86038414662E+03  0.00000000000E+00 0. -1.
        -11    1    5    5    0    0  0.74809516693E+02 -0.16135914761E+03  0.11183519453E+03  0.21009604718E+03  0.00000000000E+00 0.  1.
          1    1    6    6  503    0 -0.36386215635E+02  0.28806663068E+02  0.10706170339E+03  0.11668756942E+03  0.00000000000E+00 0. -1.
         -1    1    6    6    0  503  0.57234955176E+01  0.31451274648E+02 -0.97133395486E+01  0.33410927002E+02  0.00000000000E+00 0.  1.
<mgrwt>
<rscale>  0 0.94171556E+03</rscale>
<asrwt>0</asrwt>
<pdfrwt beam="1">  1        1 0.27922077E+00 0.94171556E+03</pdfrwt>
<pdfrwt beam="2">  1       -1 0.78875591E-01 0.94171556E+03</pdfrwt>
<totfact> 0.65036295E+00</totfact>
</mgrwt>
</event>
<event>
12    1  0.1418317E-007  0.1121517E+04  0.7818608E-02  0.9184470E-01
          2   -1    0    0  501    0  0.00000000000E+00  0.00000000000E+00  0.18195827351E+04  0.18195827351E+04  0.00000000000E+00 0. -1.
         -2   -1    0    0    0  501 -0.00000000000E+00 -0.00000000000E+00 -0.96504049047E+03  0.96504049047E+03  0.00000000000E+00 0.  1.
         23    2    1    2    0    0 -0.71629567571E+03  0.77319813277E+03 -0.31073762773E+03  0.11027031186E+04  0.92094771384E+02 0.  0.
    5000000    2    1    2    0    0  0.71629567571E+03 -0.77319813277E+03  0.11652798724E+04  0.16819201070E+04  0.60005267916E+03 0.  0.
         23    2    4    4    0    0  0.78475924845E+03 -0.65131308086E+03  0.87238734766E+03  0.13451274317E+04  0.90842257933E+02 0.  0.
         23    2    4    4    0    0 -0.68463572745E+02 -0.12188505191E+03  0.29289252472E+03  0.33679267529E+03  0.90000269002E+02 0.  0.
          1    1    3    3  502    0 -0.35745503302E+03  0.41986699909E+03 -0.20382092435E+03  0.58788210277E+03  0.00000000000E+00 0. -1.
         -1    1    3    3    0  502 -0.35884064269E+03  0.35333113367E+03 -0.10691670338E+03  0.51482101582E+03  0.00000000000E+00 0.  1.
         11    1    5    5    0    0  0.24365050755E+03 -0.16533465532E+03  0.21303064294E+03  0.36343248742E+03  0.00000000000E+00 0.  1.
        -11    1    5    5    0    0  0.54110874090E+03 -0.48597842553E+03  0.65935670473E+03  0.98169494428E+03  0.00000000000E+00 0. -1.
          3    1    6    6  503    0 -0.92669037424E+00 -0.92674936595E+02  0.16342672166E+03  0.18787707678E+03  0.00000000000E+00 0. -1.
         -3    1    6    6    0  503 -0.67536882370E+02 -0.29210115317E+02  0.12946580306E+03  0.14891559851E+03  0.00000000000E+00 0.  1.
<mgrwt>
<rscale>  0 0.11215170E+04</rscale>
<asrwt>0</asrwt>
<pdfrwt beam="1">  1        2 0.27993581E+00 0.11215170E+04</pdfrwt>
<pdfrwt beam="2">  1       -2 0.14846777E+00 0.11215170E+04</pdfrwt>
<totfact> 0.25418840E+00</totfact>
</mgrwt>
</event>
<event>
12    1  0.1418317E-007  0.7728614E+03  0.7818608E-02  0.9600152E-01
         -1   -1    0    0    0  501 -0.00000000000E+00  0.00000000000E+00  0.68047716647E+03  0.68047716647E+03  0.00000000000E+00 0.  1.
          1   -1    0    0  501    0  0.00000000000E+00 -0.00000000000E+00 -0.10664564004E+04  0.10664564004E+04  0.00000000000E+00 0. -1.
         23    2    1    2    0    0  0.60711242174E+03 -0.41678595623E+03 -0.68513415222E+02  0.74541095963E+03  0.92991315351E+02 0.  0.
    5000000    2    1    2    0    0 -0.60711242174E+03  0.41678595623E+03 -0.31746581868E+03  0.10015226072E+04  0.59997246668E+03 0.  0.
         23    2    4    4    0    0 -0.20049508096E+02  0.14002443831E+03  0.12505827941E+03  0.21067739435E+03  0.93469594751E+02 0.  0.
         23    2    4    4    0    0 -0.58706291364E+03  0.27676151793E+03 -0.44252409809E+03  0.79084521285E+03  0.91480986677E+02 0.  0.
          2    1    3    3  502    0  0.46425299356E+03 -0.36344149268E+03 -0.60833391888E+02  0.59272359680E+03  0.00000000000E+00 0.  1.
         -2    1    3    3    0  502  0.14285942817E+03 -0.53344463555E+02 -0.76800233337E+01  0.15268736283E+03  0.00000000000E+00 0. -1.
         11    1    5    5    0    0 -0.30450140692E+02  0.50026553472E+02  0.10131010540E+03  0.11701967603E+03  0.00000000000E+00 0. -1.
        -11    1    5    5    0    0  0.10400632595E+02  0.89997884833E+02  0.23748174010E+02  0.93657718324E+02  0.00000000000E+00 0.  1.
          4    1    6    6  503    0 -0.14529932182E+03  0.29654917846E+02 -0.11866401959E+03  0.18992750358E+03  0.00000000000E+00 0. -1.
         -4    1    6    6    0  503 -0.44176359182E+03  0.24710660008E+03 -0.32386007851E+03  0.60091770927E+03  0.00000000000E+00 0.  1.
<mgrwt>
<rscale>  0 0.77286141E+03</rscale>
<asrwt>0</asrwt>
<pdfrwt beam="1">  1        1 0.16407022E+00 0.77286141E+03</pdfrwt>
<pdfrwt beam="2">  1       -1 0.10468879E+00 0.77286141E+03</pdfrwt>
<totfact> 0.11861812E+01</totfact>
</mgrwt>
</event>
<event>
12    1  0.1418317E-007  0.1451248E+04  0.7818608E-02  0.8917536E-01
         -1   -1    0    0    0  501 -0.00000000000E+00  0.00000000000E+00  0.77416004275E+03  0.77416004275E+03  0.00000000000E+00 0.  1.
          1   -1    0    0  501    0  0.00000000000E+00 -0.00000000000E+00 -0.29225048023E+04  0.29225048023E+04  0.00000000000E+00 0. -1.
         23    2    1    2    0    0  0.94216551123E+03  0.10272369014E+04 -0.57424246437E+03  0.15102540292E+04  0.90671509341E+02 0.  0.
    5000000    2    1    2    0    0 -0.94216551123E+03 -0.10272369014E+04 -0.15741022952E+04  0.21864108159E+04  0.59975221368E+03 0.  0.
         23    2    4    4    0    0 -0.39918203382E+03 -0.74095200342E+02 -0.39186099493E+03  0.57099799254E+03  0.87448689533E+02 0.  0.
         23    2    4    4    0    0 -0.54298347741E+03 -0.95314170108E+03 -0.11822413003E+04  0.16154128233E+04  0.92487505340E+02 0.  0.
          4    1    3    3  502    0  0.33206094089E+03  0.30080014383E+03 -0.19369207988E+03  0.48812069901E+03  0.00000000000E+00 0. -1.
         -4    1    3    3    0  502  0.61010457033E+03  0.72643675760E+03 -0.38055038448E+03  0.10221333302E+04  0.00000000000E+00 0.  1.
         13    1    5    5    0    0 -0.38074840063E+03 -0.66304234737E+02 -0.39268413557E+03  0.55096862565E+03  0.00000000000E+00 0.  1.
        -13    1    5    5    0    0 -0.18433633182E+02 -0.77909656058E+01  0.82314063535E+00  0.20029366886E+02  0.00000000000E+00 0. -1.
          4    1    6    6  503    0 -0.24481096087E+03 -0.35874214381E+03 -0.50917009243E+03  0.66924025233E+03  0.00000000000E+00 0.  1.
         -4    1    6    6    0  503 -0.29817251654E+03 -0.59439955727E+03 -0.67307120786E+03  0.94617257102E+03  0.00000000000E+00 0. -1.
<mgrwt>
<rscale>  0 0.14512478E+04</rscale>
<asrwt>0</asrwt>
<pdfrwt beam="1">  1        1 0.44961612E+00 0.14512478E+04</pdfrwt>
<pdfrwt beam="2">  1       -1 0.11910155E+00 0.14512478E+04</pdfrwt>
<totfact> 0.41244449E-01</totfact>
</mgrwt>
</event>
<event>
12    1  0.1418317E-007  0.5443980E+03  0.7818608E-02  0.1002799E+00
          2   -1    0    0  501    0  0.00000000000E+00  0.00000000000E+00  0.76739807711E+03  0.76739807711E+03  0.00000000000E+00 0.  1.
         -2   -1    0    0    0  501 -0.00000000000E+00 -0.00000000000E+00 -0.67528848738E+03  0.67528848738E+03  0.00000000000E+00 0. -1.
         23    2    1    2    0    0  0.45319192506E+03 -0.28074365843E+03  0.29286191829E+03  0.61536783129E+03  0.93324926497E+02 0.  0.
    5000000    2    1    2    0    0 -0.45319192506E+03  0.28074365843E+03 -0.20075232856E+03  0.82731873320E+03  0.59996238732E+03 0.  0.
         23    2    4    4    0    0 -0.35490415302E+03  0.24034191492E+03  0.13887256299E+03  0.45969663990E+03  0.91182334291E+02 0.  0.
         23    2    4    4    0    0 -0.98287772043E+02  0.40401743513E+02 -0.33962489155E+03  0.36762209330E+03  0.92239630916E+02 0.  0.
          3    1    3    3  502    0  0.38295625518E+03 -0.24447479683E+03  0.20893903637E+03  0.50007893435E+03  0.00000000000E+00 0. -1.
         -3    1    3    3    0  502  0.70235669886E+02 -0.36268861601E+02  0.83922881923E+02  0.11528889693E+03  0.00000000000E+00 0.  1.
         13    1    5    5    0    0 -0.47594960193E+02  0.85276637747E+00  0.56265275496E+01  0.47933967691E+02  0.00000000000E+00 0.  1.
        -13    1    5    5    0    0 -0.30730919283E+03  0.23948914854E+03  0.13324603544E+03  0.41176267221E+03  0.00000000000E+00 0. -1.
          2    1    6    6  503    0 -0.83870968252E+01 -0.11621748068E+02 -0.21103052899E+01  0.14486607944E+02  0.00000000000E+00 0.  1.
         -2    1    6    6    0  503 -0.89900675218E+02  0.52023491581E+02 -0.33751458626E+03  0.35313548536E+03  0.00000000000E+00 0. -1.
<mgrwt>
<rscale>  0 0.54439800E+03</rscale>
<asrwt>0</asrwt>
<pdfrwt beam="1">  1        2 0.11806124E+00 0.54439800E+03</pdfrwt>
<pdfrwt beam="2">  1       -2 0.10389054E+00 0.54439800E+03</pdfrwt>
<totfact> 0.28430800E+01</totfact>
</mgrwt>
</event>
<event>
12    1  0.1418317E-007  0.5538781E+03  0.7818608E-02  0.1000600E+00
         -2   -1    0    0    0  501 -0.00000000000E+00  0.00000000000E+00  0.22171381197E+03  0.22171381197E+03  0.00000000000E+00 0.  1.
          2   -1    0    0  501    0  0.00000000000E+00 -0.00000000000E+00 -0.16372154126E+04  0.16372154126E+04  0.00000000000E+00 0. -1.
         23    2    1    2    0    0  0.27495036979E+03  0.35308625468E+03 -0.55917274729E+03  0.72164641133E+03  0.88497302635E+02 0.  0.
    5000000    2    1    2    0    0 -0.27495036979E+03 -0.35308625468E+03 -0.85632885338E+03  0.11372828133E+04  0.59987122215E+03 0.  0.
         23    2    4    4    0    0  0.18433771928E+02  0.98751002599E+02 -0.18918372795E+02  0.13721447346E+03  0.91533285950E+02 0.  0.
         23    2    4    4    0    0 -0.29338414172E+03 -0.45183725728E+03 -0.83741048058E+03  0.10000683398E+04  0.93001127084E+02 0.  0.
          1    1    3    3  502    0  0.10343090317E+03  0.70648156023E+02 -0.16879899995E+03  0.21019566138E+03  0.00000000000E+00 0. -1.
         -1    1    3    3    0  502  0.17151946662E+03  0.28243809866E+03 -0.39037374734E+03  0.51145074994E+03  0.00000000000E+00 0.  1.
         13    1    5    5    0    0  0.36933044300E+02  0.64734266534E+02 -0.48122113797E+02  0.88714783781E+02  0.00000000000E+00 0.  1.
        -13    1    5    5    0    0 -0.18499272372E+02  0.34016736065E+02  0.29203741002E+02  0.48499689683E+02  0.00000000000E+00 0. -1.
          3    1    6    6  503    0 -0.11060484428E+03 -0.17859714603E+03 -0.41175939220E+03  0.46225119709E+03  0.00000000000E+00 0. -1.
         -3    1    6    6    0  503 -0.18277929744E+03 -0.27324011126E+03 -0.42565108838E+03  0.53781714272E+03  0.00000000000E+00 0.  1.
<mgrwt>
<rscale>  0 0.55387808E+03</rscale>
<asrwt>0</asrwt>
<pdfrwt beam="1">  1        2 0.25187930E+00 0.55387808E+03</pdfrwt>
<pdfrwt beam="2">  1       -2 0.34109816E-01 0.55387808E+03</pdfrwt>
<totfact> 0.89280424E+01</totfact>
</mgrwt>
</event>
<event>
12    1  0.1418317E-007  0.8065482E+03  0.7818608E-02  0.9550587E-01
          2   -1    0    0  501    0  0.00000000000E+00  0.00000000000E+00  0.36495859215E+04  0.36495859215E+04  0.00000000000E+00 0. -1.
         -2   -1    0    0    0  501 -0.00000000000E+00 -0.00000000000E+00 -0.26407932301E+03  0.26407932301E+03  0.00000000000E+00 0.  1.
         23    2    1    2    0    0 -0.49998770940E+03  0.51417365354E+03  0.25805465679E+04  0.26798326161E+04  0.88994413359E+02 0.  0.
    5000000    2    1    2    0    0  0.49998770940E+03 -0.51417365354E+03  0.80496003056E+03  0.12338326284E+04  0.60001670687E+03 0.  0.
         23    2    4    4    0    0  0.53186189212E+03 -0.19437822037E+03  0.35894807096E+03  0.67693141623E+03  0.93447631253E+02 0.  0.
         23    2    4    4    0    0 -0.31874182720E+02 -0.31979543318E+03  0.44601195960E+03  0.55690121216E+03  0.89034877417E+02 0.  0.
          1    1    3    3  502    0 -0.15881176322E+03  0.13191205509E+03  0.87244624513E+03  0.89654024843E+03  0.00000000000E+00 0. -1.
         -1    1    3    3    0  502 -0.34117594618E+03  0.38226159845E+03  0.17081003228E+04  0.17832923677E+04  0.00000000000E+00 0.  1.
         11    1    5    5    0    0  0.39906573105E+03 -0.18461178770E+03  0.25766033851E+03  0.50963106253E+03  0.00000000000E+00 0. -1.
        -11    1    5    5    0    0  0.13279616107E+03 -0.97664326706E+01  0.10128773245E+03  0.16730035370E+03  0.00000000000E+00 0.  1.
          2    1    6    6  503    0 -0.39271632830E+01 -0.59303642424E+02  0.15141756479E+03  0.16266414338E+03  0.00000000000E+00 0.  1.
         -2    1    6    6    0  503 -0.27947019437E+02 -0.26049179075E+03  0.29459439481E+03  0.39423706878E+03  0.00000000000E+00 0. -1.
<mgrwt>
<rscale>  0 0.80654825E+03</rscale>
<asrwt>0</asrwt>
<pdfrwt beam="1">  1        2 0.56147472E+00 0.80654825E+03</pdfrwt>
<pdfrwt beam="2">  1       -2 0.40627591E-01 0.80654825E+03</pdfrwt>
<totfact> 0.39312806E+00</totfact>
</mgrwt>
</event>
<event>
12    1  0.1418317E-007  0.4610985E+03  0.7818608E-02  0.1024463E+00
         -2   -1    0    0    0  501 -0.00000000000E+00  0.00000000000E+00  0.70754107645E+03  0.70754107645E+03  0.00000000000E+00 0.  1.
          2   -1    0    0  501    0  0.00000000000E+00 -0.00000000000E+00 -0.38844320827E+03  0.38844320827E+03  0.00000000000E+00 0. -1.
         23    2    1    2    0    0 -0.11687115151E+03 -0.24203773576E+03  0.33433889703E+03  0.43827105999E+03  0.89765763922E+02 0.  0.
    5000000    2    1    2    0    0  0.11687115151E+03  0.24203773576E+03 -0.15241028855E+02  0.65771322473E+03  0.60009438045E+03 0.  0.
         23    2    4    4    0    0 -0.91464517710E+02  0.37323568099E+03 -0.19460593337E+02  0.39734290754E+03  0.99156643335E+02 0.  0.
         23    2    4    4    0    0  0.20833566922E+03 -0.13119794523E+03  0.42195644815E+01  0.26037031719E+03  0.84606414942E+02 0.  0.
          4    1    3    3  502    0 -0.62875807835E+02 -0.21054735242E+03  0.24329967175E+03  0.32783880963E+03  0.00000000000E+00 0.  1.
         -4    1    3    3    0  502 -0.53995343671E+02 -0.31490383332E+02  0.91039225284E+02  0.11043225037E+03  0.00000000000E+00 0. -1.
         11    1    5    5    0    0 -0.10676179968E+02  0.15429940624E+03  0.33007273386E+02  0.15815109130E+03  0.00000000000E+00 0.  1.
        -11    1    5    5    0    0 -0.80788337742E+02  0.21893627475E+03 -0.52467866723E+02  0.23919181624E+03  0.00000000000E+00 0. -1.
          4    1    6    6  503    0  0.76889380541E+02 -0.19248706716E+02 -0.29271045826E+02  0.84494281901E+02  0.00000000000E+00 0. -1.
         -4    1    6    6    0  503  0.13144628868E+03 -0.11194923852E+03  0.33490610307E+02  0.17587603529E+03  0.00000000000E+00 0.  1.
<mgrwt>
<rscale>  0 0.46109853E+03</rscale>
<asrwt>0</asrwt>
<pdfrwt beam="1">  1        2 0.59760494E-01 0.46109853E+03</pdfrwt>
<pdfrwt beam="2">  1       -2 0.10885247E+00 0.46109853E+03</pdfrwt>
<totfact> 0.57216702E+01</totfact>
</mgrwt>
</event>
<event>
12    1  0.1418317E-007  0.1023736E+04  0.7818608E-02  0.9282888E-01
          1   -1    0    0  501    0  0.00000000000E+00  0.00000000000E+00  0.22340726170E+04  0.22340726170E+04  0.00000000000E+00 0. -1.
         -1   -1    0    0    0  501 -0.00000000000E+00 -0.00000000000E+00 -0.78930431345E+03  0.78930431345E+03  0.00000000000E+00 0.  1.
         23    2    1    2    0    0  0.57189887013E+03 -0.77547489393E+03  0.16078439524E+04  0.18766221682E+04  0.90105262368E+02 0.  0.
    5000000    2    1    2    0    0 -0.57189887013E+03  0.77547489393E+03 -0.16307564889E+03  0.11467547622E+04  0.60001932345E+03 0.  0.
         23    2    4    4    0    0 -0.44503696693E+03  0.19646650446E+03  0.75783718730E+02  0.50083565241E+03  0.91848731000E+02 0.  0.
         23    2    4    4    0    0 -0.12686190320E+03  0.57900838947E+03 -0.23885936762E+03  0.64591910976E+03  0.93877799787E+02 0.  0.
          3    1    3    3  502    0  0.27211563787E+03 -0.42291476726E+03  0.77580634681E+03  0.92454275644E+03  0.00000000000E+00 0. -1.
         -3    1    3    3    0  502  0.29978323226E+03 -0.35256012667E+03  0.83203760560E+03  0.95207941181E+03  0.00000000000E+00 0.  1.
         13    1    5    5    0    0 -0.55039878583E+02  0.70983806566E+01  0.34471820861E+02  0.65330556984E+02  0.00000000000E+00 0.  1.
        -13    1    5    5    0    0 -0.38999708835E+03  0.18936812381E+03  0.41311897870E+02  0.43550509542E+03  0.00000000000E+00 0. -1.
          2    1    6    6  503    0 -0.10890963010E+03  0.49051756095E+03 -0.16375706740E+03  0.52847437237E+03  0.00000000000E+00 0. -1.
         -2    1    6    6    0  503 -0.17952273094E+02  0.88490828519E+02 -0.75102300225E+02  0.11744473739E+03  0.00000000000E+00 0.  1.
<mgrwt>
<rscale>  0 0.10237361E+04</rscale>
<asrwt>0</asrwt>
<pdfrwt beam="1">  1        1 0.34370348E+00 0.10237361E+04</pdfrwt>
<pdfrwt beam="2">  1       -1 0.12143143E+00 0.10237361E+04</pdfrwt>
<totfact> 0.12546594E+00</totfact>
</mgrwt>
</event>
<event>
12    1  0.1418317E-007  0.1241366E+04  0.7818608E-02  0.9077400E-01
         -2   -1    0    0    0  501 -0.00000000000E+00  0.00000000000E+00  0.87148565361E+03  0.87148565361E+03  0.00000000000E+00 0.  1.
          2   -1    0    0  501    0  0.00000000000E+00 -0.00000000000E+00 -0.22805998430E+04  0.22805998430E+04  0.00000000000E+00 0. -1.
         23    2    1    2    0    0  0.85524593584E+03 -0.88023838662E+03 -0.12854124417E+04  0.17796769279E+04  0.93271616366E+02 0.  0.
    5000000    2    1    2    0    0 -0.85524593584E+03  0.88023838662E+03 -0.12370174763E+03  0.13724085686E+04  0.60161277320E+03 0.  0.
         23    2    4    4    0    0 -0.77507502400E+03  0.73818405128E+03 -0.30015884861E+03  0.11152071814E+04  0.89077138907E+02 0.  0.
         23    2    4    4    0    0 -0.80170911843E+02  0.14205433534E+03  0.17645710098E+03  0.25720138724E+03  0.91698614048E+02 0.  0.
          4    1    3    3  502    0  0.23114605181E+03 -0.23777568092E+03 -0.40894164757E+03  0.52649695424E+03  0.00000000000E+00 0. -1.
         -4    1    3    3    0  502  0.62409988403E+03 -0.64246270570E+03 -0.87647079417E+03  0.12531799737E+04  0.00000000000E+00 0.  1.
         11    1    5    5    0    0 -0.41562742204E+03  0.35030037138E+03 -0.18320851670E+03  0.57360427538E+03  0.00000000000E+00 0. -1.
        -11    1    5    5    0    0 -0.35944760195E+03  0.38788367989E+03 -0.11695033190E+03  0.54160290602E+03  0.00000000000E+00 0.  1.
          1    1    6    6  503    0 -0.31186038172E+02 -0.16450476782E+01  0.12197369784E+02  0.33526869648E+02  0.00000000000E+00 0. -1.
         -1    1    6    6    0  503 -0.48984873671E+02  0.14369938302E+03  0.16425973120E+03  0.22367451760E+03  0.00000000000E+00 0.  1.
<mgrwt>
<rscale>  0 0.12413665E+04</rscale>
<asrwt>0</asrwt>
<pdfrwt beam="1">  1        2 0.35086151E+00 0.12413665E+04</pdfrwt>
<pdfrwt beam="2">  1       -2 0.13407472E+00 0.12413665E+04</pdfrwt>
<totfact> 0.18151041E+00</totfact>
</mgrwt>
</event>
<event>
12    1  0.1418317E-007  0.1256890E+04  0.7818608E-02  0.9064468E-01
         -2   -1    0    0    0  501 -0.00000000000E+00  0.00000000000E+00  0.11197609864E+04  0.11197609864E+04  0.00000000000E+00 0.  1.
          2   -1    0    0  501    0  0.00000000000E+00 -0.00000000000E+00 -0.28656845292E+04  0.28656845292E+04  0.00000000000E+00 0. -1.
         23    2    1    2    0    0  0.10171506958E+04  0.62328656529E+03  0.56024415089E+03  0.13203596661E+04  0.79965360796E+02 0.  0.
    5000000    2    1    2    0    0 -0.10171506958E+04 -0.62328656529E+03 -0.23061676937E+04  0.26650858495E+04  0.60099207436E+03 0.  0.
         23    2    4    4    0    0 -0.30630513096E+03 -0.50758554115E+03 -0.12061926300E+04  0.13471700321E+04  0.92198264133E+02 0.  0.
         23    2    4    4    0    0 -0.71084556484E+03 -0.11570102414E+03 -0.10999750637E+04  0.13179158174E+04  0.90933035831E+02 0.  0.
          1    1    3    3  502    0  0.22286010999E+03  0.12782619709E+03  0.15671190558E+03  0.30093983890E+03  0.00000000000E+00 0. -1.
         -1    1    3    3    0  502  0.79429058581E+03  0.49546036819E+03  0.40353224530E+03  0.10194198272E+04  0.00000000000E+00 0.  1.
         13    1    5    5    0    0 -0.81323462643E+02 -0.96154490371E+02 -0.33324528175E+03  0.35624655704E+03  0.00000000000E+00 0. -1.
        -13    1    5    5    0    0 -0.22498166832E+03 -0.41143105078E+03 -0.87294734822E+03  0.99092347504E+03  0.00000000000E+00 0.  1.
          4    1    6    6  503    0 -0.30228981170E+03 -0.40563300952E+01 -0.44943020769E+03  0.54164849824E+03  0.00000000000E+00 0.  1.
         -4    1    6    6    0  503 -0.40855575314E+03 -0.11164469404E+03 -0.65054485604E+03  0.77626731920E+03  0.00000000000E+00 0. -1.
<mgrwt>
<rscale>  0 0.12568900E+04</rscale>
<asrwt>0</asrwt>
<pdfrwt beam="1">  1        2 0.44087454E+00 0.12568900E+04</pdfrwt>
<pdfrwt beam="2">  1       -2 0.17227092E+00 0.12568900E+04</pdfrwt>
<totfact> 0.42159144E-01</totfact>
</mgrwt>
</event>
<event>
12    1  0.1418317E-007  0.9904731E+03  0.7818608E-02  0.9319056E-01
          2   -1    0    0  501    0  0.00000000000E+00  0.00000000000E+00  0.98046823046E+03  0.98046823046E+03  0.00000000000E+00 0. -1.
         -2   -1    0    0    0  501 -0.00000000000E+00 -0.00000000000E+00 -0.12484703454E+04  0.12484703454E+04  0.00000000000E+00 0.  1.
         23    2    1    2    0    0 -0.53425656075E+03 -0.76332483530E+03  0.30079546952E+03  0.98340412023E+03  0.92254389191E+02 0.  0.
    5000000    2    1    2    0    0  0.53425656075E+03  0.76332483530E+03 -0.56879758447E+03  0.12455344556E+04  0.59977538396E+03 0.  0.
         23    2    4    4    0    0  0.15660410411E+03  0.62102876312E+03 -0.51917827095E+03  0.82900019329E+03  0.86566005992E+02 0.  0.
         23    2    4    4    0    0  0.37765245663E+03  0.14229607218E+03 -0.49619313524E+02  0.41653426235E+03  0.90383434766E+02 0.  0.
          1    1    3    3  502    0 -0.32904389205E+03 -0.39070930375E+03  0.15780363160E+03  0.53462662585E+03  0.00000000000E+00 0. -1.
         -1    1    3    3    0  502 -0.20521266870E+03 -0.37261553155E+03  0.14299183792E+03  0.44877749438E+03  0.00000000000E+00 0.  1.
         13    1    5    5    0    0  0.14812946486E+03  0.57100169100E+03 -0.44409696720E+03  0.73838159901E+03  0.00000000000E+00 0. -1.
        -13    1    5    5    0    0  0.84746392501E+01  0.50027072129E+02 -0.75081303752E+02  0.90618594280E+02  0.00000000000E+00 0.  1.
          2    1    6    6  503    0  0.19565756187E+03  0.84844495223E+02  0.18099796512E+02  0.21402820497E+03  0.00000000000E+00 0. -1.
         -2    1    6    6    0  503  0.18199489476E+03  0.57451576954E+02 -0.67719110036E+02  0.20250605739E+03  0.00000000000E+00 0.  1.
<mgrwt>
<rscale>  0 0.99047307E+03</rscale>
<asrwt>0</asrwt>
<pdfrwt beam="1">  1        2 0.15084127E+00 0.99047307E+03</pdfrwt>
<pdfrwt beam="2">  1       -2 0.19207236E+00 0.99047307E+03</pdfrwt>
<totfact> 0.38649993E+00</totfact>
</mgrwt>
</event>
<event>
12    1  0.1418317E-007  0.8298780E+03  0.7818608E-02  0.9517749E-01
          1   -1    0    0  501    0  0.00000000000E+00  0.00000000000E+00  0.11136521137E+04  0.11136521137E+04  0.00000000000E+00 0. -1.
         -1   -1    0    0    0  501 -0.00000000000E+00 -0.00000000000E+00 -0.62860487176E+03  0.62860487176E+03  0.00000000000E+00 0.  1.
         23    2    1    2    0    0 -0.72232944908E+03  0.49709315633E+02  0.16096231656E+03  0.74766911094E+03  0.94177401865E+02 0.  0.
    5000000    2    1    2    0    0  0.72232944908E+03 -0.49709315633E+02  0.32408492542E+03  0.99458787456E+03  0.59995262501E+03 0.  0.
         23    2    4    4    0    0  0.66037358387E+02 -0.22901188417E+03  0.11791085989E+03  0.27778836628E+03  0.80349422915E+02 0.  0.
         23    2    4    4    0    0  0.65629209070E+03  0.17930256854E+03  0.20617406553E+03  0.71679950828E+03  0.91788182129E+02 0.  0.
          1    1    3    3  502    0 -0.34533264133E+03  0.70486881249E+02  0.71073183299E+02  0.35954753647E+03  0.00000000000E+00 0. -1.
         -1    1    3    3    0  502 -0.37699680775E+03 -0.20777565616E+02  0.89889133262E+02  0.38812157447E+03  0.00000000000E+00 0.  1.
         11    1    5    5    0    0  0.96267665564E+00 -0.98883204920E+02  0.80634799049E+02  0.12759618246E+03  0.00000000000E+00 0.  1.
        -11    1    5    5    0    0  0.65074681731E+02 -0.13012867925E+03  0.37276060844E+02  0.15019218381E+03  0.00000000000E+00 0. -1.
          3    1    6    6  503    0  0.15572929714E+03  0.67191456750E+01  0.64515359150E+02  0.16869793263E+03  0.00000000000E+00 0. -1.
         -3    1    6    6    0  503  0.50056279355E+03  0.17258342287E+03  0.14165870638E+03  0.54810157565E+03  0.00000000000E+00 0.  1.
<mgrwt>
<rscale>  0 0.82987797E+03</rscale>
<asrwt>0</asrwt>
<pdfrwt beam="1">  1        1 0.17133109E+00 0.82987797E+03</pdfrwt>
<pdfrwt beam="2">  1       -1 0.96708442E-01 0.82987797E+03</pdfrwt>
<totfact> 0.13015087E+01</totfact>
</mgrwt>
</event>
<event>
12    1  0.1418317E-007  0.3562863E+03  0.7818608E-02  0.1060064E+00
          1   -1    0    0  501    0  0.00000000000E+00  0.00000000000E+00  0.21709314794E+04  0.21709314794E+04  0.00000000000E+00 0. -1.
         -1   -1    0    0    0  501 -0.00000000000E+00 -0.00000000000E+00 -0.10645628195E+03  0.10645628195E+03  0.00000000000E+00 0.  1.
         23    2    1    2    0    0 -0.38395101690E+02  0.26949369349E+03  0.83216223333E+03  0.87999594702E+03  0.88305433215E+02 0.  0.
    5000000    2    1    2    0    0  0.38395101690E+02 -0.26949369349E+03  0.12323129641E+04  0.13973918143E+04  0.60000633876E+03 0.  0.
         23    2    4    4    0    0  0.84624340735E+02  0.21625524806E+02  0.10085285421E+04  0.10163982278E+04  0.91140523018E+02 0.  0.
         23    2    4    4    0    0 -0.46229239046E+02 -0.29111921829E+03  0.22378442198E+03  0.38099358646E+03  0.90493666097E+02 0.  0.
          3    1    3    3  502    0 -0.65773727790E+02  0.18568729362E+03  0.53937439374E+03  0.57422181333E+03  0.00000000000E+00 0. -1.
         -3    1    3    3    0  502  0.27378626100E+02  0.83806399863E+02  0.29278783959E+03  0.30577413369E+03  0.00000000000E+00 0.  1.
         13    1    5    5    0    0 -0.17888396332E+02 -0.22780971832E+01  0.85105680217E+02  0.86995179495E+02  0.00000000000E+00 0. -1.
        -13    1    5    5    0    0  0.10251273707E+03  0.23903621990E+02  0.92342286187E+03  0.92940304832E+03  0.00000000000E+00 0.  1.
          1    1    6    6  503    0 -0.25588306228E+02 -0.20697284158E+02  0.46548933728E+02  0.57008264474E+02  0.00000000000E+00 0. -1.
         -1    1    6    6    0  503 -0.20640932818E+02 -0.27042193414E+03  0.17723548825E+03  0.32398532199E+03  0.00000000000E+00 0.  1.
<mgrwt>
<rscale>  0 0.35628635E+03</rscale>
<asrwt>0</asrwt>
<pdfrwt beam="1">  1        1 0.33398943E+00 0.35628635E+03</pdfrwt>
<pdfrwt beam="2">  1       -1 0.16377891E-01 0.35628635E+03</pdfrwt>
<totfact> 0.71603548E+01</totfact>
</mgrwt>
</event>
<event>
12    1  0.1418317E-007  0.3865689E+04  0.7818608E-02  0.8032203E-01
         -1   -1    0    0    0  501 -0.00000000000E+00  0.00000000000E+00  0.36992998283E+04  0.36992998283E+04  0.00000000000E+00 0.  1.
          1   -1    0    0  501    0  0.00000000000E+00 -0.00000000000E+00 -0.40924591295E+04  0.40924591295E+04  0.00000000000E+00 0. -1.
         23    2    1    2    0    0  0.38108887040E+04 -0.58417115119E+03 -0.49719357255E+03  0.38884485021E+04  0.93282673064E+02 0.  0.
    5000000    2    1    2    0    0 -0.38108887040E+04  0.58417115119E+03  0.10403427139E+03  0.39033104556E+04  0.60073349800E+03 0.  0.
         23    2    4    4    0    0 -0.29996225727E+04  0.61902347465E+03 -0.81552502259E+02  0.30652500866E+04  0.90452430888E+02 0.  0.
         23    2    4    4    0    0 -0.81126613129E+03 -0.34852323452E+02  0.18558677365E+03  0.83806036902E+03  0.92386748726E+02 0.  0.
          1    1    3    3  502    0  0.65743284116E+03 -0.84336055213E+02 -0.11702935929E+03  0.67307234514E+03  0.00000000000E+00 0. -1.
         -1    1    3    3    0  502  0.31534558628E+04 -0.49983509598E+03 -0.38016421326E+03  0.32153761570E+04  0.00000000000E+00 0.  1.
         13    1    5    5    0    0 -0.12655776173E+04  0.23268087605E+03 -0.69121819408E+02  0.12886446063E+04  0.00000000000E+00 0.  1.
        -13    1    5    5    0    0 -0.17340449554E+04  0.38634259859E+03 -0.12430682851E+02  0.17766054803E+04  0.00000000000E+00 0. -1.
          1    1    6    6  503    0 -0.57026584049E+03 -0.13287370371E+02  0.88042328477E+02  0.57717513343E+03  0.00000000000E+00 0. -1.
         -1    1    6    6    0  503 -0.24100029080E+03 -0.21564953081E+02  0.97544445173E+02  0.26088523559E+03  0.00000000000E+00 0.  1.
<mgrwt>
<rscale>  0 0.38656892E+04</rscale>
<asrwt>0</asrwt>
<pdfrwt beam="1">  1        1 0.62960909E+00 0.38656892E+04</pdfrwt>
<pdfrwt beam="2">  1       -1 0.56912306E+00 0.38656892E+04</pdfrwt>
<totfact> 0.34266472E-05</totfact>
</mgrwt>
</event>
<event>
12    1  0.1418317E-007  0.4559684E+03  0.7818608E-02  0.1025957E+00
         -2   -1    0    0    0  501 -0.00000000000E+00  0.00000000000E+00  0.90361627317E+03  0.90361627317E+03  0.00000000000E+00 0.  1.
          2   -1    0    0  501    0  0.00000000000E+00 -0.00000000000E+00 -0.83403458158E+03  0.83403458158E+03  0.00000000000E+00 0. -1.
         23    2    1    2    0    0 -0.24709017004E+03  0.66207559989E+02  0.74855239373E+03  0.79628524850E+03  0.91118152358E+02 0.  0.
    5000000    2    1    2    0    0  0.24709017004E+03 -0.66207559989E+02 -0.67897070215E+03  0.94136560625E+03  0.59977578905E+03 0.  0.
         23    2    4    4    0    0  0.17283144547E+03 -0.31660342199E+03 -0.35592135334E+03  0.51502755316E+03  0.92005083499E+02 0.  0.
         23    2    4    4    0    0  0.74258724570E+02  0.25039586200E+03 -0.32304934880E+03  0.42633805309E+03  0.95868701229E+02 0.  0.
          2    1    3    3  502    0 -0.16835155261E+03  0.15514754299E+01  0.42760946317E+03  0.45955903356E+03  0.00000000000E+00 0. -1.
         -2    1    3    3    0  502 -0.78738617430E+02  0.64656084559E+02  0.32094293056E+03  0.33672621494E+03  0.00000000000E+00 0.  1.
         11    1    5    5    0    0  0.98126059154E+02 -0.23384706761E+03 -0.29106840049E+03  0.38604920448E+03  0.00000000000E+00 0.  1.
        -11    1    5    5    0    0  0.74705386313E+02 -0.82756354378E+02 -0.64852952851E+02  0.12897834868E+03  0.00000000000E+00 0. -1.
          2    1    6    6  503    0  0.60787168884E+02  0.58914574018E+02 -0.12069947605E+03  0.14742581338E+03  0.00000000000E+00 0. -1.
         -2    1    6    6    0  503  0.13471555686E+02  0.19148128798E+03 -0.20234987275E+03  0.27891223971E+03  0.00000000000E+00 0.  1.
<mgrwt>
<rscale>  0 0.45596843E+03</rscale>
<asrwt>0</asrwt>
<pdfrwt beam="1">  1        2 0.12831301E+00 0.45596843E+03</pdfrwt>
<pdfrwt beam="2">  1       -2 0.13901789E+00 0.45596843E+03</pdfrwt>
<totfact> 0.12609827E+01</totfact>
</mgrwt>
</event>
<event>
12    1  0.1418317E-007  0.6584582E+03  0.7818608E-02  0.9791036E-01
         -1   -1    0    0    0  501 -0.00000000000E+00  0.00000000000E+00  0.11279082233E+04  0.11279082233E+04  0.00000000000E+00 0.  1.
          1   -1    0    0  501    0  0.00000000000E+00 -0.00000000000E+00 -0.60180669116E+03  0.60180669116E+03  0.00000000000E+00 0. -1.
         23    2    1    2    0    0 -0.43413192878E+03 -0.44695366089E+03  0.58921355527E+03  0.86244555584E+03  0.91660332186E+02 0.  0.
    5000000    2    1    2    0    0  0.43413192878E+03  0.44695366089E+03 -0.63112023098E+02  0.86726935866E+03  0.59994575292E+03 0.  0.
         23    2    4    4    0    0  0.44863830634E+03  0.41074232410E+03  0.14955154930E+03  0.63311817818E+03  0.92126950020E+02 0.  0.
         23    2    4    4    0    0 -0.14506377558E+02  0.36211336785E+02 -0.21266357240E+03  0.23415118048E+03  0.89884839608E+02 0.  0.
          3    1    3    3  502    0 -0.23776283191E+03 -0.26460447806E+03  0.39446116615E+03  0.53117445877E+03  0.00000000000E+00 0. -1.
         -3    1    3    3    0  502 -0.19636909687E+03 -0.18234918283E+03  0.19475238912E+03  0.33127109707E+03  0.00000000000E+00 0.  1.
         11    1    5    5    0    0  0.36727030567E+02  0.33595138456E+02  0.40297867890E+02  0.64042378615E+02  0.00000000000E+00 0.  1.
        -11    1    5    5    0    0  0.41191127578E+03  0.37714718565E+03  0.10925368141E+03  0.56907579957E+03  0.00000000000E+00 0. -1.
          3    1    6    6  503    0  0.28575629070E+02  0.29967806660E+02 -0.45981987161E+02  0.61878745591E+02  0.00000000000E+00 0. -1.
         -3    1    6    6    0  503 -0.43082006628E+02  0.62435301256E+01 -0.16668158524E+03  0.17227243489E+03  0.00000000000E+00 0.  1.
<mgrwt>
<rscale>  0 0.65845818E+03</rscale>
<asrwt>0</asrwt>
<pdfrwt beam="1">  1        1 0.92585645E-01 0.65845818E+03</pdfrwt>
<pdfrwt beam="2">  1       -1 0.17352434E+00 0.65845818E+03</pdfrwt>
<totfact> 0.82667518E+00</totfact>
</mgrwt>
</event>
<event>
12    1  0.1418317E-007  0.2690128E+03  0.7818608E-02  0.1101846E+00
          2   -1    0    0  501    0  0.00000000000E+00  0.00000000000E+00  0.12892264110E+04  0.12892264110E+04  0.00000000000E+00 0. -1.
         -2   -1    0    0    0  501 -0.00000000000E+00 -0.00000000000E+00 -0.15680462109E+03  0.15680462109E+03  0.00000000000E+00 0.  1.
         23    2    1    2    0    0  0.75808017512E+02 -0.21331746465E+03  0.23030650380E+03  0.33924470864E+03  0.10389749950E+03 0.  0.
    5000000    2    1    2    0    0 -0.75808017512E+02  0.21331746465E+03  0.90211528614E+03  0.11067863235E+04  0.59992731237E+03 0.  0.
         23    2    4    4    0    0 -0.73268682677E+02  0.24418738698E+02 -0.51334243613E+02  0.13057300695E+03  0.91921330042E+02 0.  0.
         23    2    4    4    0    0 -0.25393348348E+01  0.18889872595E+03  0.95344952976E+03  0.97621331654E+03  0.90759333991E+02 0.  0.
          3    1    3    3  502    0  0.47517325147E+02 -0.17217991422E+03  0.22749839427E+03  0.28923924085E+03  0.00000000000E+00 0. -1.
         -3    1    3    3    0  502  0.28290692365E+02 -0.41137550431E+02  0.28081095300E+01  0.50005467791E+02  0.00000000000E+00 0.  1.
         11    1    5    5    0    0 -0.26711851259E+02  0.53093799509E+02 -0.46907292478E+02  0.75715048911E+02  0.00000000000E+00 0. -1.
        -11    1    5    5    0    0 -0.46556831418E+02 -0.28675060811E+02 -0.44269511353E+01  0.54857958042E+02  0.00000000000E+00 0.  1.
          2    1    6    6  503    0 -0.26199627080E+02  0.10032915117E+03  0.67862762616E+03  0.68650405244E+03  0.00000000000E+00 0. -1.
         -2    1    6    6    0  503  0.23660292245E+02  0.88569574783E+02  0.27482190360E+03  0.28970926410E+03  0.00000000000E+00 0.  1.
<mgrwt>
<rscale>  0 0.26901281E+03</rscale>
<asrwt>0</asrwt>
<pdfrwt beam="1">  1        2 0.19834252E+00 0.26901281E+03</pdfrwt>
<pdfrwt beam="2">  1       -2 0.24123789E-01 0.26901281E+03</pdfrwt>
<totfact> 0.27169686E+02</totfact>
</mgrwt>
</event>
<event>
12    1  0.1418317E-007  0.6074010E+03  0.7818608E-02  0.9890169E-01
         -1   -1    0    0    0  501 -0.00000000000E+00  0.00000000000E+00  0.63154911885E+03  0.63154911885E+03  0.00000000000E+00 0.  1.
          1   -1    0    0  501    0  0.00000000000E+00 -0.00000000000E+00 -0.76675060956E+03  0.76675060956E+03  0.00000000000E+00 0. -1.
         23    2    1    2    0    0 -0.50236768421E+03  0.44621798360E+02 -0.30413285881E+03  0.59646462655E+03  0.94386756952E+02 0.  0.
    5000000    2    1    2    0    0  0.50236768421E+03 -0.44621798360E+02  0.16893136810E+03  0.80183510187E+03  0.60003110622E+03 0.  0.
         23    2    4    4    0    0  0.53218970627E+03 -0.15904215588E+03 -0.18961147453E+02  0.56164064510E+03  0.80996285792E+02 0.  0.
         23    2    4    4    0    0 -0.29822022062E+02  0.11442035752E+03  0.18789251556E+03  0.24019445676E+03  0.91697374240E+02 0.  0.
          2    1    3    3  502    0 -0.36713523394E+03 -0.97901734118E+01 -0.22205857189E+03  0.42917844406E+03  0.00000000000E+00 0. -1.
         -2    1    3    3    0  502 -0.13523245027E+03  0.54411971772E+02 -0.82074286916E+02  0.16728618249E+03  0.00000000000E+00 0.  1.
         13    1    5    5    0    0  0.28794291537E+03 -0.96010125660E+02  0.28867527274E+02  0.30489736121E+03  0.00000000000E+00 0.  1.
        -13    1    5    5    0    0  0.24424679090E+03 -0.63032030218E+02 -0.47828674727E+02  0.25674328389E+03  0.00000000000E+00 0. -1.
          2    1    6    6  503    0  0.67726760287E+01  0.10874879838E+03  0.11491656478E+03  0.15836030800E+03  0.00000000000E+00 0. -1.
         -2    1    6    6    0  503 -0.36594698091E+02  0.56715591372E+01  0.72975950777E+02  0.81834148760E+02  0.00000000000E+00 0.  1.
<mgrwt>
<rscale>  0 0.60740103E+03</rscale>
<asrwt>0</asrwt>
<pdfrwt beam="1">  1        1 0.11796163E+00 0.60740103E+03</pdfrwt>
<pdfrwt beam="2">  1       -1 0.97161403E-01 0.60740103E+03</pdfrwt>
<totfact> 0.25141077E+01</totfact>
</mgrwt>
</event>
<event>
12    1  0.1418317E-007  0.6505781E+03  0.7818608E-02  0.9805695E-01
         -2   -1    0    0    0  501 -0.00000000000E+00  0.00000000000E+00  0.76211136738E+03  0.76211136738E+03  0.00000000000E+00 0.  1.
          2   -1    0    0  501    0  0.00000000000E+00 -0.00000000000E+00 -0.10300912896E+04  0.10300912896E+04  0.00000000000E+00 0. -1.
         23    2    1    2    0    0 -0.61591647120E+03 -0.11496819567E+03 -0.59171394532E+03  0.86614028473E+03  0.86618786926E+02 0.  0.
    5000000    2    1    2    0    0  0.61591647120E+03  0.11496819567E+03  0.32373402311E+03  0.92606237223E+03  0.60018081778E+03 0.  0.
         23    2    4    4    0    0  0.12993197977E+03 -0.24069719815E+02  0.37679735427E+03  0.40939348117E+03  0.90360973086E+02 0.  0.
         23    2    4    4    0    0  0.48598449143E+03  0.13903791548E+03 -0.53063331163E+02  0.51666889106E+03  0.92836189205E+02 0.  0.
          4    1    3    3  502    0 -0.27858085075E+03 -0.95623615107E+02 -0.26835853299E+03  0.39845635696E+03  0.00000000000E+00 0. -1.
         -4    1    3    3    0  502 -0.33733562045E+03 -0.19344580560E+02 -0.32335541232E+03  0.46768392777E+03  0.00000000000E+00 0.  1.
         13    1    5    5    0    0  0.21439481716E+02  0.31555987672E+02  0.87675037882E+02  0.95615605431E+02  0.00000000000E+00 0. -1.
        -13    1    5    5    0    0  0.10849249805E+03 -0.55625707487E+02  0.28912231639E+03  0.31377787574E+03  0.00000000000E+00 0.  1.
          1    1    6    6  503    0  0.26314988985E+03  0.10461192055E+03 -0.66173171854E+02  0.29080991579E+03  0.00000000000E+00 0. -1.
         -1    1    6    6    0  503  0.22283460158E+03  0.34425994935E+02  0.13109840691E+02  0.22585897527E+03  0.00000000000E+00 0.  1.
<mgrwt>
<rscale>  0 0.65057808E+03</rscale>
<asrwt>0</asrwt>
<pdfrwt beam="1">  1        2 0.15847558E+00 0.65057808E+03</pdfrwt>
<pdfrwt beam="2">  1       -2 0.11724790E+00 0.65057808E+03</pdfrwt>
<totfact> 0.13952885E+01</totfact>
</mgrwt>
</event>
<event>
12    1  0.1418317E-007  0.4877535E+03  0.7818608E-02  0.1017026E+00
         -1   -1    0    0    0  501 -0.00000000000E+00  0.00000000000E+00  0.44830773137E+03  0.44830773137E+03  0.00000000000E+00 0.  1.
          1   -1    0    0  501    0  0.00000000000E+00 -0.00000000000E+00 -0.68560765773E+03  0.68560765773E+03  0.00000000000E+00 0. -1.
         23    2    1    2    0    0 -0.15993760999E+03 -0.34916669930E+03 -0.11541118628E+03  0.41111273080E+03  0.90534592915E+02 0.  0.
    5000000    2    1    2    0    0  0.15993760999E+03  0.34916669930E+03 -0.12188874008E+03  0.72280265831E+03  0.60007449114E+03 0.  0.
         23    2    4    4    0    0  0.29081909719E+03  0.28841366835E+03 -0.26672030968E+03  0.49690763571E+03  0.89550451989E+02 0.  0.
         23    2    4    4    0    0 -0.13088148721E+03  0.60753030952E+02  0.14483156960E+03  0.22589502260E+03  0.96080607920E+02 0.  0.
          2    1    3    3  502    0 -0.11262364725E+03 -0.19078586170E+03 -0.25680152571E+02  0.22303094221E+03  0.00000000000E+00 0. -1.
         -2    1    3    3    0  502 -0.47313962739E+02 -0.15838083760E+03 -0.89731033710E+02  0.18808178859E+03  0.00000000000E+00 0.  1.
         13    1    5    5    0    0  0.49418471609E+02  0.91032567592E+02 -0.96901248686E+02  0.14184133987E+03  0.00000000000E+00 0. -1.
        -13    1    5    5    0    0  0.24140062558E+03  0.19738110076E+03 -0.16981906099E+03  0.35506629584E+03  0.00000000000E+00 0.  1.
          4    1    6    6  503    0  0.93514417550E+01 -0.12050170130E+02  0.10661930230E+02  0.18610019325E+02  0.00000000000E+00 0.  1.
         -4    1    6    6    0  503 -0.14023292896E+03  0.72803201082E+02  0.13416963937E+03  0.20728500327E+03  0.00000000000E+00 0. -1.
<mgrwt>
<rscale>  0 0.48775353E+03</rscale>
<asrwt>0</asrwt>
<pdfrwt beam="1">  1        1 0.10547810E+00 0.48775353E+03</pdfrwt>
<pdfrwt beam="2">  1       -1 0.68970420E-01 0.48775353E+03</pdfrwt>
<totfact> 0.62759446E+01</totfact>
</mgrwt>
</event>
<event>
12    1  0.1418317E-007  0.6767384E+03  0.7818608E-02  0.9757861E-01
          1   -1    0    0  501    0  0.00000000000E+00  0.00000000000E+00  0.76270968382E+03  0.76270968382E+03  0.00000000000E+00 0. -1.
         -1   -1    0    0    0  501 -0.00000000000E+00 -0.00000000000E+00 -0.63678305941E+03  0.63678305941E+03  0.00000000000E+00 0.  1.
         23    2    1    2    0    0 -0.20042261811E+03  0.50463133295E+03 -0.10013759661E+03  0.55910009066E+03  0.87996392360E+02 0.  0.
    5000000    2    1    2    0    0  0.20042261811E+03 -0.50463133295E+03  0.22606422102E+03  0.84039265257E+03  0.60027724463E+03 0.  0.
         23    2    4    4    0    0 -0.18843025931E+03 -0.28036307080E+03  0.12299290020E+03  0.37067942124E+03  0.90369052993E+02 0.  0.
         23    2    4    4    0    0  0.38885287742E+03 -0.22426826215E+03  0.10307132082E+03  0.46971323133E+03  0.92217182887E+02 0.  0.
          3    1    3    3  502    0 -0.12462205772E+03  0.40909434524E+03 -0.87263609030E+02  0.43646738485E+03  0.00000000000E+00 0. -1.
         -3    1    3    3    0  502 -0.75800560391E+02  0.95536987712E+02 -0.12873987580E+02  0.12263270580E+03  0.00000000000E+00 0.  1.
         11    1    5    5    0    0 -0.18246786003E+03 -0.22337354762E+03  0.80833034624E+02  0.29954004942E+03  0.00000000000E+00 0.  1.
        -11    1    5    5    0    0 -0.59623992803E+01 -0.56989523187E+02  0.42159865576E+02  0.71139371825E+02  0.00000000000E+00 0. -1.
          1    1    6    6  503    0  0.43920791223E+02 -0.64421518085E+02  0.21702088267E+02  0.80932987893E+02  0.00000000000E+00 0. -1.
         -1    1    6    6    0  503  0.34493208620E+03 -0.15984674407E+03  0.81369232549E+02  0.38878024343E+03  0.00000000000E+00 0.  1.
<mgrwt>
<rscale>  0 0.67673840E+03</rscale>
<asrwt>0</asrwt>
<pdfrwt beam="1">  1        1 0.11733995E+00 0.67673840E+03</pdfrwt>
<pdfrwt beam="2">  1       -1 0.97966623E-01 0.67673840E+03</pdfrwt>
<totfact> 0.24661646E+01</totfact>
</mgrwt>
</event>
<event>
12    1  0.1418317E-007  0.6374149E+03  0.7818608E-02  0.9830685E-01
         -2   -1    0    0    0  501 -0.00000000000E+00  0.00000000000E+00  0.33151025020E+03  0.33151025020E+03  0.00000000000E+00 0.  1.
          2   -1    0    0  501    0  0.00000000000E+00 -0.00000000000E+00 -0.20532924740E+04  0.20532924740E+04  0.00000000000E+00 0. -1.
         23    2    1    2    0    0 -0.60662189003E+03 -0.82779849677E+02 -0.12794237146E+04  0.14211464043E+04  0.88822518661E+02 0.  0.
    5000000    2    1    2    0    0  0.60662189003E+03  0.82779849677E+02 -0.44235850913E+03  0.96365631990E+03  0.59842278641E+03 0.  0.
         23    2    4    4    0    0  0.16285210060E+03 -0.79418106255E+02 -0.43770915140E+03  0.48276654670E+03  0.92984918769E+02 0.  0.
         23    2    4    4    0    0  0.44376978943E+03  0.16219795593E+03 -0.46493577290E+01  0.48088977320E+03  0.89406680495E+02 0.  0.
          2    1    3    3  502    0 -0.29912720453E+03 -0.73607119347E+02 -0.70970386625E+03  0.77367607581E+03  0.00000000000E+00 0. -1.
         -2    1    3    3    0  502 -0.30749468551E+03 -0.91727303304E+01 -0.56971984838E+03  0.64747032845E+03  0.00000000000E+00 0.  1.
         11    1    5    5    0    0  0.57373888027E+02 -0.38873092064E+02 -0.28189541869E+03  0.29028935115E+03  0.00000000000E+00 0.  1.
        -11    1    5    5    0    0  0.10547821258E+03 -0.40545014191E+02 -0.15581373272E+03  0.19247719555E+03  0.00000000000E+00 0. -1.
          4    1    6    6  503    0  0.23919028867E+03  0.12139966531E+03 -0.33414384717E+02  0.27030796148E+03  0.00000000000E+00 0. -1.
         -4    1    6    6    0  503  0.20457950076E+03  0.40798290618E+02  0.28765026988E+02  0.21058181172E+03  0.00000000000E+00 0.  1.
<mgrwt>
<rscale>  0 0.63741494E+03</rscale>
<asrwt>0</asrwt>
<pdfrwt beam="1">  1        2 0.31589115E+00 0.63741494E+03</pdfrwt>
<pdfrwt beam="2">  1       -2 0.51001577E-01 0.63741494E+03</pdfrwt>
<totfact> 0.23854874E+01</totfact>
</mgrwt>
</event>
<event>
12    1  0.1418317E-007  0.5830219E+03  0.7818608E-02  0.9941270E-01
          1   -1    0    0  501    0  0.00000000000E+00  0.00000000000E+00  0.15377528524E+04  0.15377528524E+04  0.00000000000E+00 0. -1.
         -1   -1    0    0    0  501 -0.00000000000E+00 -0.00000000000E+00 -0.25690740894E+03  0.25690740894E+03  0.00000000000E+00 0.  1.
         23    2    1    2    0    0 -0.44970108300E+03 -0.21493598033E+01  0.25858107331E+03  0.52690634988E+03  0.92360415072E+02 0.  0.
    5000000    2    1    2    0    0  0.44970108300E+03  0.21493598033E+01  0.10222643702E+04  0.12677539115E+04  0.59994987605E+03 0.  0.
         23    2    4    4    0    0  0.20994295792E+03  0.27065437656E+03  0.65930219544E+03  0.74886895653E+03  0.93784284472E+02 0.  0.
         23    2    4    4    0    0  0.23975812508E+03 -0.26850501676E+03  0.36296217475E+03  0.51888495497E+03  0.89000863066E+02 0.  0.
          4    1    3    3  502    0 -0.24721676583E+03  0.21027648478E+02  0.18775697388E+03  0.31114461678E+03  0.00000000000E+00 0. -1.
         -4    1    3    3    0  502 -0.20248431717E+03 -0.23177008281E+02  0.70824099428E+02  0.21576173310E+03  0.00000000000E+00 0.  1.
         11    1    5    5    0    0  0.91784046762E+02  0.70436107019E+02  0.15370113833E+03  0.19237878348E+03  0.00000000000E+00 0. -1.
        -11    1    5    5    0    0  0.11815891116E+03  0.20021826954E+03  0.50560105711E+03  0.55649017305E+03  0.00000000000E+00 0.  1.
          4    1    6    6  503    0  0.18573799633E+03 -0.16171829970E+03  0.20327034947E+03  0.31932780448E+03  0.00000000000E+00 0. -1.
         -4    1    6    6    0  503  0.54020128748E+02 -0.10678671706E+03  0.15969182528E+03  0.19955715049E+03  0.00000000000E+00 0.  1.
<mgrwt>
<rscale>  0 0.58302194E+03</rscale>
<asrwt>0</asrwt>
<pdfrwt beam="1">  1        1 0.23657736E+00 0.58302194E+03</pdfrwt>
<pdfrwt beam="2">  1       -1 0.39524218E-01 0.58302194E+03</pdfrwt>
<totfact> 0.40381329E+01</totfact>
</mgrwt>
</event>
<event>
12    1  0.1418317E-007  0.1201710E+04  0.7818608E-02  0.9111361E-01
          2   -1    0    0  501    0  0.00000000000E+00  0.00000000000E+00  0.23895880109E+04  0.23895880109E+04  0.00000000000E+00 0. -1.
         -2   -1    0    0    0  501 -0.00000000000E+00 -0.00000000000E+00 -0.63748558565E+03  0.63748558565E+03  0.00000000000E+00 0.  1.
         23    2    1    2    0    0 -0.87961055688E+03 -0.71519997436E+03  0.52798722163E+03  0.12540189724E+04  0.92559936631E+02 0.  0.
    5000000    2    1    2    0    0  0.87961055688E+03  0.71519997436E+03  0.12241152036E+04  0.17730546241E+04  0.60003244357E+03 0.  0.
         23    2    4    4    0    0  0.42209905315E+03  0.82998581767E+01  0.34965759819E+03  0.55573020565E+03  0.91318821651E+02 0.  0.
         23    2    4    4    0    0  0.45751150373E+03  0.70690011618E+03  0.87445760542E+03  0.12173244185E+04  0.90432769724E+02 0.  0.
          1    1    3    3  502    0 -0.38502147192E+03 -0.28497478534E+03  0.26744322071E+03  0.54861465385E+03  0.00000000000E+00 0. -1.
         -1    1    3    3    0  502 -0.49458908496E+03 -0.43022518902E+03  0.26054400092E+03  0.70540431856E+03  0.00000000000E+00 0.  1.
         13    1    5    5    0    0  0.27776093078E+03  0.24041592017E+02  0.27837494280E+03  0.39398190516E+03  0.00000000000E+00 0. -1.
        -13    1    5    5    0    0  0.14433812237E+03 -0.15741733840E+02  0.71282655396E+02  0.16174830050E+03  0.00000000000E+00 0.  1.
          1    1    6    6  503    0  0.17596213878E+03  0.33539077054E+03  0.43366954908E+03  0.57577679794E+03  0.00000000000E+00 0. -1.
         -1    1    6    6    0  503  0.28154936496E+03  0.37150934564E+03  0.44078805634E+03  0.64154762053E+03  0.00000000000E+00 0.  1.
<mgrwt>
<rscale>  0 0.12017099E+04</rscale>
<asrwt>0</asrwt>
<pdfrwt beam="1">  1        2 0.36762892E+00 0.12017099E+04</pdfrwt>
<pdfrwt beam="2">  1       -2 0.98074707E-01 0.12017099E+04</pdfrwt>
<totfact> 0.34237887E+00</totfact>
</mgrwt>
</event>
<event>
12    1  0.1418317E-007  0.1084948E+04  0.7818608E-02  0.9219988E-01
         -2   -1    0    0    0  501 -0.00000000000E+00  0.00000000000E+00  0.83367082043E+03  0.83367082043E+03  0.00000000000E+00 0.  1.
          2   -1    0    0  501    0  0.00000000000E+00 -0.00000000000E+00 -0.15363124255E+04  0.15363124255E+04  0.00000000000E+00 0. -1.
         23    2    1    2    0    0 -0.95226363154E+03 -0.43905260529E+03 -0.38510842345E+03  0.11208279971E+04  0.91507852217E+02 0.  0.
    5000000    2    1    2    0    0  0.95226363154E+03  0.43905260529E+03 -0.31753318159E+03  0.12491552488E+04  0.59999025002E+03 0.  0.
         23    2    4    4    0    0  0.94892878783E+03  0.40617705770E+03 -0.13958847361E+03  0.10453388803E+04  0.88333381182E+02 0.  0.
         23    2    4    4    0    0  0.33348437094E+01  0.32875547589E+02 -0.17794470798E+03  0.20381636848E+03  0.93727638153E+02 0.  0.
          4    1    3    3  502    0 -0.57117186632E+03 -0.23302957834E+03 -0.26404337939E+03  0.67101340632E+03  0.00000000000E+00 0. -1.
         -4    1    3    3    0  502 -0.38109176521E+03 -0.20602302695E+03 -0.12106504405E+03  0.44981459074E+03  0.00000000000E+00 0.  1.
         13    1    5    5    0    0  0.64220459954E+03  0.28433899983E+03 -0.54135977021E+02  0.70441899358E+03  0.00000000000E+00 0.  1.
        -13    1    5    5    0    0  0.30672418828E+03  0.12183805786E+03 -0.85452496592E+02  0.34091988677E+03  0.00000000000E+00 0. -1.
          3    1    6    6  503    0 -0.18814926719E+02 -0.21585999494E+02 -0.19048683787E+02  0.34391993191E+02  0.00000000000E+00 0. -1.
         -3    1    6    6    0  503  0.22149770428E+02  0.54461547084E+02 -0.15889602419E+03  0.16942437529E+03  0.00000000000E+00 0.  1.
<mgrwt>
<rscale>  0 0.10849482E+04</rscale>
<asrwt>0</asrwt>
<pdfrwt beam="1">  1        2 0.23635576E+00 0.10849482E+04</pdfrwt>
<pdfrwt beam="2">  1       -2 0.12825705E+00 0.10849482E+04</pdfrwt>
<totfact> 0.53594593E+00</totfact>
</mgrwt>
</event>
<event>
12    1  0.1418317E-007  0.9904578E+03  0.7818608E-02  0.9319073E-01
         -2   -1    0    0    0  501 -0.00000000000E+00  0.00000000000E+00  0.58193256627E+03  0.58193256627E+03  0.00000000000E+00 0.  1.
          2   -1    0    0  501    0  0.00000000000E+00 -0.00000000000E+00 -0.30990042244E+04  0.30990042244E+04  0.00000000000E+00 0. -1.
         23    2    1    2    0    0  0.94753352910E+03  0.19145002027E+03 -0.23351408042E+04  0.25289641790E+04  0.91128172143E+02 0.  0.
    5000000    2    1    2    0    0 -0.94753352910E+03 -0.19145002027E+03 -0.18193085385E+03  0.11519726117E+04  0.59955747302E+03 0.  0.
         23    2    4    4    0    0 -0.79749398556E+03 -0.65176018126E+02  0.85545908537E+02  0.80981650739E+03  0.90775012219E+02 0.  0.
         23    2    4    4    0    0 -0.15003954355E+03 -0.12627400214E+03 -0.26747676239E+03  0.34215610429E+03  0.84083250665E+02 0.  0.
          3    1    3    3  502    0  0.30217842187E+03  0.52228208563E+02 -0.63603606547E+03  0.70610301019E+03  0.00000000000E+00 0. -1.
         -3    1    3    3    0  502  0.64535510723E+03  0.13922181170E+03 -0.16991047388E+04  0.18228611688E+04  0.00000000000E+00 0.  1.
         13    1    5    5    0    0 -0.35948577899E+02 -0.95362513857E+01  0.22897890096E+02  0.43675550532E+02  0.00000000000E+00 0. -1.
        -13    1    5    5    0    0 -0.76154540766E+03 -0.55639766740E+02  0.62648018441E+02  0.76614095686E+03  0.00000000000E+00 0.  1.
          3    1    6    6  503    0 -0.16080499809E+03 -0.11496478709E+03 -0.25028545425E+03  0.31893252937E+03  0.00000000000E+00 0. -1.
         -3    1    6    6    0  503  0.10765454544E+02 -0.11309215055E+02 -0.17191308137E+02  0.23223574922E+02  0.00000000000E+00 0.  1.
<mgrwt>
<rscale>  0 0.99045781E+03</rscale>
<asrwt>0</asrwt>
<pdfrwt beam="1">  1        2 0.47676988E+00 0.99045781E+03</pdfrwt>
<pdfrwt beam="2">  1       -2 0.89528087E-01 0.99045781E+03</pdfrwt>
<totfact> 0.16516432E+00</totfact>
</mgrwt>
</event>
<event>
12    1  0.1418317E-007  0.4869422E+03  0.7818608E-02  0.1017245E+00
          1   -1    0    0  501    0  0.00000000000E+00  0.00000000000E+00  0.38814479629E+03  0.38814479629E+03  0.00000000000E+00 0. -1.
         -1   -1    0    0    0  501 -0.00000000000E+00 -0.00000000000E+00 -0.78946544155E+03  0.78946544155E+03  0.00000000000E+00 0.  1.
         23    2    1    2    0    0 -0.20740393605E+03  0.27432260873E+03 -0.32522510716E+03  0.48179113245E+03  0.89900159222E+02 0.  0.
    5000000    2    1    2    0    0  0.20740393605E+03 -0.27432260873E+03 -0.76095538095E+02  0.69581910540E+03  0.60008700216E+03 0.  0.
         23    2    4    4    0    0  0.74603912645E+02  0.14538738342E+03 -0.15346861610E+03  0.23968543828E+03  0.84813077738E+02 0.  0.
         23    2    4    4    0    0  0.13280002341E+03 -0.41970999215E+03  0.77373078005E+02  0.45613366712E+03  0.90989039744E+02 0.  0.
          4    1    3    3  502    0 -0.10636745924E+03  0.11923889395E+03 -0.93194403001E+02  0.18497877437E+03  0.00000000000E+00 0. -1.
         -4    1    3    3    0  502 -0.10103647681E+03  0.15508371478E+03 -0.23203070416E+03  0.29681235808E+03  0.00000000000E+00 0.  1.
         11    1    5    5    0    0 -0.77496686701E+01  0.74494702728E+02 -0.71795346916E+02  0.10375013223E+03  0.00000000000E+00 0. -1.
        -11    1    5    5    0    0  0.82353581315E+02  0.70892680688E+02 -0.81673269184E+02  0.13593530605E+03  0.00000000000E+00 0.  1.
          3    1    6    6  503    0  0.43179829280E+02 -0.24822065329E+03  0.13274106269E+02  0.25229782456E+03  0.00000000000E+00 0. -1.
         -3    1    6    6    0  503  0.89620194126E+02 -0.17148933886E+03  0.64098971736E+02  0.20383584257E+03  0.00000000000E+00 0.  1.
<mgrwt>
<rscale>  0 0.48694215E+03</rscale>
<asrwt>0</asrwt>
<pdfrwt beam="1">  1        1 0.59714586E-01 0.48694215E+03</pdfrwt>
<pdfrwt beam="2">  1       -1 0.12145622E+00 0.48694215E+03</pdfrwt>
<totfact> 0.39459490E+01</totfact>
</mgrwt>
</event>
<event>
12    1  0.1418317E-007  0.6212353E+03  0.7818608E-02  0.9862303E-01
         -2   -1    0    0    0  501 -0.00000000000E+00  0.00000000000E+00  0.26506254394E+03  0.26506254394E+03  0.00000000000E+00 0.  1.
          2   -1    0    0  501    0  0.00000000000E+00 -0.00000000000E+00 -0.22046700084E+04  0.22046700084E+04  0.00000000000E+00 0. -1.
         23    2    1    2    0    0 -0.47265431487E+03 -0.38464651327E+03 -0.49244401632E+03  0.78875777919E+03  0.91009249439E+02 0.  0.
    5000000    2    1    2    0    0  0.47265431487E+03  0.38464651327E+03 -0.14471634481E+04  0.16809747732E+04  0.60003258314E+03 0.  0.
         23    2    4    4    0    0  0.24033619947E+03  0.23581719606E+03 -0.20325673006E+03  0.40376706262E+03  0.91341687099E+02 0.  0.
         23    2    4    4    0    0  0.23231811540E+03  0.14882931721E+03 -0.12439067181E+04  0.12772077105E+04  0.88508418790E+02 0.  0.
          3    1    3    3  502    0 -0.37736074971E+03 -0.26604585685E+03 -0.34009961941E+03  0.57345382072E+03  0.00000000000E+00 0. -1.
         -3    1    3    3    0  502 -0.95293565156E+02 -0.11860065642E+03 -0.15234439691E+03  0.21530395847E+03  0.00000000000E+00 0.  1.
         13    1    5    5    0    0  0.19432305712E+03  0.21083543361E+03 -0.20316412136E+03  0.35140957699E+03  0.00000000000E+00 0. -1.
        -13    1    5    5    0    0  0.46013142357E+02  0.24981762447E+02 -0.92608705200E-01  0.52357485624E+02  0.00000000000E+00 0.  1.
          1    1    6    6  503    0  0.44849311035E+00  0.28112581929E+02 -0.13642842004E+03  0.13929548522E+03  0.00000000000E+00 0. -1.
         -1    1    6    6    0  503  0.23186962229E+03  0.12071673528E+03 -0.11074782980E+04  0.11379122253E+04  0.00000000000E+00 0.  1.
<mgrwt>
<rscale>  0 0.62123527E+03</rscale>
<asrwt>0</asrwt>
<pdfrwt beam="1">  1        2 0.33917999E+00 0.62123527E+03</pdfrwt>
<pdfrwt beam="2">  1       -2 0.40778855E-01 0.62123527E+03</pdfrwt>
<totfact> 0.30891155E+01</totfact>
</mgrwt>
</event>
<event>
12    1  0.1418317E-007  0.1191561E+04  0.7818608E-02  0.9120276E-01
          2   -1    0    0  501    0  0.00000000000E+00  0.00000000000E+00  0.15861337586E+04  0.15861337586E+04  0.00000000000E+00 0. -1.
         -2   -1    0    0    0  501 -0.00000000000E+00 -0.00000000000E+00 -0.10593416855E+04  0.10593416855E+04  0.00000000000E+00 0.  1.
         23    2    1    2    0    0 -0.12959793269E+03 -0.11417692328E+04 -0.18373829097E+03  0.11672185992E+04  0.90591906533E+02 0.  0.
    5000000    2    1    2    0    0  0.12959793269E+03  0.11417692328E+04  0.71053036408E+03  0.14782568449E+04  0.59996441234E+03 0.  0.
         23    2    4    4    0    0  0.18795037386E+03  0.18782110011E+03  0.36279800727E+03  0.45713813314E+03  0.82163069629E+02 0.  0.
         23    2    4    4    0    0 -0.58352441177E+02  0.95394813272E+03  0.34773235681E+03  0.10211187118E+04  0.91343222302E+02 0.  0.
          3    1    3    3  502    0 -0.10152674418E+03 -0.62600546848E+03 -0.67438776183E+02  0.63776054667E+03  0.00000000000E+00 0. -1.
         -3    1    3    3    0  502 -0.28071188503E+02 -0.51576376435E+03 -0.11629951479E+03  0.52945805252E+03  0.00000000000E+00 0.  1.
         13    1    5    5    0    0 -0.49882653187E+01  0.49315038072E+01 -0.41843126702E+00  0.70269200519E+01  0.00000000000E+00 0. -1.
        -13    1    5    5    0    0  0.19293863918E+03  0.18288959630E+03  0.36321643854E+03  0.45011121309E+03  0.00000000000E+00 0.  1.
          4    1    6    6  503    0 -0.46722722087E+02  0.94094305404E+03  0.34581941806E+03  0.10035675929E+04  0.00000000000E+00 0.  1.
         -4    1    6    6    0  503 -0.11629719090E+02  0.13005078679E+02  0.19129387495E+01  0.17551118830E+02  0.00000000000E+00 0. -1.
<mgrwt>
<rscale>  0 0.11915605E+04</rscale>
<asrwt>0</asrwt>
<pdfrwt beam="1">  1        2 0.24402058E+00 0.11915605E+04</pdfrwt>
<pdfrwt beam="2">  1       -2 0.16297564E+00 0.11915605E+04</pdfrwt>
<totfact> 0.26430685E+00</totfact>
</mgrwt>
</event>
<event>
12    1  0.1418317E-007  0.1301552E+04  0.7818608E-02  0.9028336E-01
         -2   -1    0    0    0  501 -0.00000000000E+00  0.00000000000E+00  0.14848548258E+04  0.14848548258E+04  0.00000000000E+00 0.  1.
          2   -1    0    0  501    0  0.00000000000E+00 -0.00000000000E+00 -0.18055946951E+04  0.18055946951E+04  0.00000000000E+00 0. -1.
         23    2    1    2    0    0  0.46186759014E+03 -0.11462062006E+04  0.83606745837E+03  0.14945296956E+04  0.86601911076E+02 0.  0.
    5000000    2    1    2    0    0 -0.46186759014E+03  0.11462062006E+04 -0.11568073277E+04  0.17959198253E+04  0.60001208364E+03 0.  0.
         23    2    4    4    0    0 -0.53748758570E+03  0.58657305046E+03 -0.68115016564E+03  0.10516348985E+04  0.94918718755E+02 0.  0.
         23    2    4    4    0    0  0.75619995556E+02  0.55963315011E+03 -0.47565716207E+03  0.74428492689E+03  0.93822545948E+02 0.  0.
          4    1    3    3  502    0  0.18779664819E+03 -0.54391208061E+03  0.35043885370E+03  0.67373238210E+03  0.00000000000E+00 0. -1.
         -4    1    3    3    0  502  0.27407094195E+03 -0.60229411997E+03  0.48562860466E+03  0.82079731349E+03  0.00000000000E+00 0.  1.
         13    1    5    5    0    0 -0.47103694847E+03  0.46061509968E+03 -0.56033710021E+03  0.86488134605E+03  0.00000000000E+00 0. -1.
        -13    1    5    5    0    0 -0.66450637233E+02  0.12595795079E+03 -0.12081306543E+03  0.18675355240E+03  0.00000000000E+00 0.  1.
          4    1    6    6  503    0  0.19637359958E+02  0.13269398331E+03 -0.16845825376E+03  0.21534043367E+03  0.00000000000E+00 0. -1.
         -4    1    6    6    0  503  0.55982635598E+02  0.42693916680E+03 -0.30719890831E+03  0.52894449322E+03  0.00000000000E+00 0.  1.
<mgrwt>
<rscale>  0 0.13015515E+04</rscale>
<asrwt>0</asrwt>
<pdfrwt beam="1">  1        2 0.27778380E+00 0.13015515E+04</pdfrwt>
<pdfrwt beam="2">  1       -2 0.22843920E+00 0.13015515E+04</pdfrwt>
<totfact> 0.71851492E-01</totfact>
</mgrwt>
</event>
<event>
12    1  0.1418317E-007  0.7746072E+03  0.7818608E-02  0.9597517E-01
          1   -1    0    0  501    0  0.00000000000E+00  0.00000000000E+00  0.11491959239E+04  0.11491959239E+04  0.00000000000E+00 0. -1.
         -1   -1    0    0    0  501 -0.00000000000E+00 -0.00000000000E+00 -0.63541123102E+03  0.63541123102E+03  0.00000000000E+00 0.  1.
         23    2    1    2    0    0 -0.55395296769E+03  0.49741612706E+03  0.17742084498E+03  0.77079535528E+03  0.91436478587E+02 0.  0.
    5000000    2    1    2    0    0  0.55395296769E+03 -0.49741612706E+03  0.33636384788E+03  0.10138117996E+04  0.60032244086E+03 0.  0.
         23    2    4    4    0    0  0.46171755376E+03 -0.52481444458E+03  0.60282213727E+02  0.70752053614E+03  0.91312995144E+02 0.  0.
         23    2    4    4    0    0  0.92235413929E+02  0.27398317516E+02  0.27608163415E+03  0.30629126347E+03  0.91297480674E+02 0.  0.
          4    1    3    3  502    0 -0.87365575178E+02  0.40574997565E+02  0.11231925527E+02  0.96980566634E+02  0.00000000000E+00 0. -1.
         -4    1    3    3    0  502 -0.46658739251E+03  0.45684112950E+03  0.16618891945E+03  0.67381478865E+03  0.00000000000E+00 0.  1.
         13    1    5    5    0    0  0.43386378592E+03 -0.51558350242E+03  0.67754401285E+02  0.67724057144E+03  0.00000000000E+00 0.  1.
        -13    1    5    5    0    0  0.27853767834E+02 -0.92309421589E+01 -0.74721875577E+01  0.30279964706E+02  0.00000000000E+00 0. -1.
          4    1    6    6  503    0  0.32665595608E+02  0.14560204917E+02  0.16023832322E+02  0.39189334084E+02  0.00000000000E+00 0. -1.
         -4    1    6    6    0  503  0.59569818321E+02  0.12838112598E+02  0.26005780183E+03  0.26710192939E+03  0.00000000000E+00 0.  1.
<mgrwt>
<rscale>  0 0.77460721E+03</rscale>
<asrwt>0</asrwt>
<pdfrwt beam="1">  1        1 0.17679937E+00 0.77460721E+03</pdfrwt>
<pdfrwt beam="2">  1       -1 0.97755574E-01 0.77460721E+03</pdfrwt>
<totfact> 0.12039598E+01</totfact>
</mgrwt>
</event>
<event>
12    1  0.1418317E-007  0.7554943E+03  0.7818608E-02  0.9626770E-01
         -2   -1    0    0    0  501 -0.00000000000E+00  0.00000000000E+00  0.15412827108E+04  0.15412827108E+04  0.00000000000E+00 0. -1.
          2   -1    0    0  501    0  0.00000000000E+00 -0.00000000000E+00 -0.11673776702E+04  0.11673776702E+04  0.00000000000E+00 0.  1.
         23    2    1    2    0    0 -0.54189304366E+03 -0.44180239167E+03 -0.89587344934E+03  0.11399930779E+04  0.90319191612E+02 0.  0.
    5000000    2    1    2    0    0  0.54189304366E+03  0.44180239167E+03  0.12697784899E+04  0.15686673030E+04  0.59961843702E+03 0.  0.
         23    2    4    4    0    0  0.35619279925E+03  0.31603607963E+02  0.92018552539E+03  0.99142683569E+03  0.91179334917E+02 0.  0.
         23    2    4    4    0    0  0.18570024441E+03  0.41019878370E+03  0.34959296455E+03  0.57724046734E+03  0.90794786967E+02 0.  0.
          1    1    3    3  502    0 -0.27391695577E+03 -0.20181970806E+03 -0.50348281869E+03  0.60766490925E+03  0.00000000000E+00 0. -1.
         -1    1    3    3    0  502 -0.26797608788E+03 -0.23998268361E+03 -0.39239063064E+03  0.53232816864E+03  0.00000000000E+00 0.  1.
         11    1    5    5    0    0  0.12015626007E+03  0.17394555047E+02  0.43594677789E+03  0.45253694935E+03  0.00000000000E+00 0. -1.
        -11    1    5    5    0    0  0.23603653919E+03  0.14209052916E+02  0.48423874750E+03  0.53888988634E+03  0.00000000000E+00 0.  1.
          4    1    6    6  503    0  0.11137323065E+03  0.30201217875E+03  0.28931326477E+03  0.43280193829E+03  0.00000000000E+00 0. -1.
         -4    1    6    6    0  503  0.74327013760E+02  0.10818660496E+03  0.60279699779E+02  0.14443852904E+03  0.00000000000E+00 0.  1.
<mgrwt>
<rscale>  0 0.75549427E+03</rscale>
<asrwt>0</asrwt>
<pdfrwt beam="1">  1        2 0.17959657E+00 0.75549427E+03</pdfrwt>
<pdfrwt beam="2">  1       -2 0.23712042E+00 0.75549427E+03</pdfrwt>
<totfact> 0.15793443E+00</totfact>
</mgrwt>
</event>
<event>
12    1  0.1418317E-007  0.3484585E+03  0.7818608E-02  0.1063250E+00
          1   -1    0    0  501    0  0.00000000000E+00  0.00000000000E+00  0.40741391488E+03  0.40741391488E+03  0.00000000000E+00 0. -1.
         -1   -1    0    0    0  501 -0.00000000000E+00 -0.00000000000E+00 -0.64312577082E+03  0.64312577082E+03  0.00000000000E+00 0.  1.
         23    2    1    2    0    0  0.31579301529E+03 -0.57198834447E+01 -0.16736132464E+03  0.36926175029E+03  0.92663270359E+02 0.  0.
    5000000    2    1    2    0    0 -0.31579301529E+03  0.57198834447E+01 -0.68350531298E+02  0.68127793541E+03  0.59975818842E+03 0.  0.
         23    2    4    4    0    0 -0.18024033767E+03  0.59905182519E+02 -0.31682180555E+03  0.37991490527E+03  0.88792277584E+02 0.  0.
         23    2    4    4    0    0 -0.13555267761E+03 -0.54185299074E+02  0.24847127425E+03  0.30136303014E+03  0.88153994586E+02 0.  0.
          3    1    3    3  502    0  0.77737713751E+02  0.23745402965E+02 -0.88865153447E+01  0.81767759271E+02  0.00000000000E+00 0. -1.
         -3    1    3    3    0  502  0.23805530154E+03 -0.29465286410E+02 -0.15847480930E+03  0.28749399102E+03  0.00000000000E+00 0.  1.
         11    1    5    5    0    0 -0.64567554832E+02  0.67267439335E+02 -0.15458006498E+03  0.18052388767E+03  0.00000000000E+00 0. -1.
        -11    1    5    5    0    0 -0.11567278284E+03 -0.73622568161E+01 -0.16224174058E+03  0.19939101760E+03  0.00000000000E+00 0.  1.
          4    1    6    6  503    0 -0.65158870057E+02  0.16121367643E+02  0.69661126518E+02  0.96738045202E+02  0.00000000000E+00 0. -1.
         -4    1    6    6    0  503 -0.70393807557E+02 -0.70306666717E+02  0.17881014773E+03  0.20462498494E+03  0.00000000000E+00 0.  1.
<mgrwt>
<rscale>  0 0.34845851E+03</rscale>
<asrwt>0</asrwt>
<pdfrwt beam="1">  1        1 0.62679064E-01 0.34845851E+03</pdfrwt>
<pdfrwt beam="2">  1       -1 0.98942427E-01 0.34845851E+03</pdfrwt>
<totfact> 0.60958373E+01</totfact>
</mgrwt>
</event>
<event>
12    1  0.1418317E-007  0.5558956E+03  0.7818608E-02  0.1000138E+00
         -1   -1    0    0    0  501 -0.00000000000E+00  0.00000000000E+00  0.20875666464E+03  0.20875666464E+03  0.00000000000E+00 0.  1.
          1   -1    0    0  501    0  0.00000000000E+00 -0.00000000000E+00 -0.19971377741E+04  0.19971377741E+04  0.00000000000E+00 0. -1.
         23    2    1    2    0    0  0.30054584775E+03 -0.29301123553E+03 -0.23679784529E+03  0.49020061084E+03  0.89666206522E+02 0.  0.
    5000000    2    1    2    0    0 -0.30054584775E+03  0.29301123553E+03 -0.15515832642E+04  0.17156938279E+04  0.60000941219E+03 0.  0.
         23    2    4    4    0    0  0.12012081971E+03 -0.60365074978E+02 -0.21246720154E+03  0.26606055505E+03  0.87022718984E+02 0.  0.
         23    2    4    4    0    0 -0.42066666746E+03  0.35337631050E+03 -0.13391160626E+04  0.14496332728E+04  0.79809364308E+02 0.  0.
          2    1    3    3  502    0  0.49214584814E+02 -0.98196488938E+02 -0.78334917204E+02  0.13491102643E+03  0.00000000000E+00 0. -1.
         -2    1    3    3    0  502  0.25133126293E+03 -0.19481474659E+03 -0.15846292809E+03  0.35528958442E+03  0.00000000000E+00 0.  1.
         13    1    5    5    0    0  0.97530132413E+02 -0.48596512521E+02 -0.91047885139E+02  0.14199811670E+03  0.00000000000E+00 0.  1.
        -13    1    5    5    0    0  0.22590687298E+02 -0.11768562457E+02 -0.12141931640E+03  0.12406243835E+03  0.00000000000E+00 0. -1.
          3    1    6    6  503    0 -0.81405114812E+02  0.62448301950E+02 -0.17764866759E+03  0.20514783019E+03  0.00000000000E+00 0. -1.
         -3    1    6    6    0  503 -0.33926155264E+03  0.29092800855E+03 -0.11614673950E+04  0.12444854427E+04  0.00000000000E+00 0.  1.
<mgrwt>
<rscale>  0 0.55589565E+03</rscale>
<asrwt>0</asrwt>
<pdfrwt beam="1">  1        1 0.30725196E+00 0.55589565E+03</pdfrwt>
<pdfrwt beam="2">  1       -1 0.32116411E-01 0.55589565E+03</pdfrwt>
<totfact> 0.28957795E+01</totfact>
</mgrwt>
</event>
<event>
12    1  0.1418317E-007  0.5157912E+03  0.7818608E-02  0.1009737E+00
         -1   -1    0    0    0  501 -0.00000000000E+00  0.00000000000E+00  0.19299276288E+04  0.19299276288E+04  0.00000000000E+00 0.  1.
          1   -1    0    0  501    0  0.00000000000E+00 -0.00000000000E+00 -0.37110134291E+03  0.37110134291E+03  0.00000000000E+00 0. -1.
         23    2    1    2    0    0 -0.33643602175E+03  0.21153547628E+03 -0.15967515355E+03  0.43790621252E+03  0.91264680169E+02 0.  0.
    5000000    2    1    2    0    0  0.33643602175E+03 -0.21153547628E+03  0.17185014394E+04  0.18631227592E+04  0.60003563564E+03 0.  0.
         23    2    4    4    0    0  0.96207010933E+01 -0.28048711488E+03  0.12272136165E+04  0.12623280739E+04  0.93023255833E+02 0.  0.
         23    2    4    4    0    0  0.32681532065E+03  0.68951638601E+02  0.49128782291E+03  0.60079468527E+03  0.89598809316E+02 0.  0.
          3    1    3    3  502    0 -0.19472147859E+03  0.83600088280E+02 -0.50005208202E+02  0.21772907438E+03  0.00000000000E+00 0. -1.
         -3    1    3    3    0  502 -0.14171454316E+03  0.12793538800E+03 -0.10966994535E+03  0.22017713814E+03  0.00000000000E+00 0.  1.
         11    1    5    5    0    0 -0.32390970762E+02 -0.16064893808E+03  0.57659156831E+03  0.59942897239E+03  0.00000000000E+00 0.  1.
        -11    1    5    5    0    0  0.42011671855E+02 -0.11983817680E+03  0.65062204822E+03  0.66289910154E+03  0.00000000000E+00 0. -1.
          3    1    6    6  503    0  0.83518242510E+02  0.40834006112E+02  0.19766446880E+03  0.21843524238E+03  0.00000000000E+00 0. -1.
         -3    1    6    6    0  503  0.24329707815E+03  0.28117632490E+02  0.29362335411E+03  0.38235944289E+03  0.00000000000E+00 0.  1.
<mgrwt>
<rscale>  0 0.51579121E+03</rscale>
<asrwt>0</asrwt>
<pdfrwt beam="1">  1        1 0.57092515E-01 0.51579121E+03</pdfrwt>
<pdfrwt beam="2">  1       -1 0.29691194E+00 0.51579121E+03</pdfrwt>
<totfact> 0.25191157E+00</totfact>
</mgrwt>
</event>
<event>
12    1  0.1418317E-007  0.1052481E+04  0.7818608E-02  0.9252786E-01
          1   -1    0    0  501    0  0.00000000000E+00  0.00000000000E+00  0.16502082493E+04  0.16502082493E+04  0.00000000000E+00 0. -1.
         -1   -1    0    0    0  501 -0.00000000000E+00 -0.00000000000E+00 -0.13315778560E+04  0.13315778560E+04  0.00000000000E+00 0.  1.
         23    2    1    2    0    0 -0.10040888070E+04  0.82050761790E+02  0.11604722948E+04  0.15383195243E+04  0.69313431633E+02 0.  0.
    5000000    2    1    2    0    0  0.10040888070E+04 -0.82050761790E+02 -0.84184190150E+03  0.14434665811E+04  0.59997610259E+03 0.  0.
         23    2    4    4    0    0  0.24222840846E+03 -0.19754356516E+03 -0.49970695820E+03  0.59644996849E+03  0.91364428742E+02 0.  0.
         23    2    4    4    0    0  0.76186039853E+03  0.11549280337E+03 -0.34213494330E+03  0.84701661257E+03  0.81307859740E+02 0.  0.
          1    1    3    3  502    0 -0.56124586102E+03  0.12453552600E+02  0.65859720307E+03  0.86539140473E+03  0.00000000000E+00 0. -1.
         -1    1    3    3    0  502 -0.44284294597E+03  0.69597209190E+02  0.50187509176E+03  0.67292811953E+03  0.00000000000E+00 0.  1.
         11    1    5    5    0    0  0.11203153305E+02 -0.41721526888E+02 -0.10260426365E+03  0.11132758584E+03  0.00000000000E+00 0. -1.
        -11    1    5    5    0    0  0.23102525516E+03 -0.15582203828E+03 -0.39710269455E+03  0.48512238265E+03  0.00000000000E+00 0.  1.
          2    1    6    6  503    0  0.11288441812E+03  0.41434961224E+02 -0.72130957805E+02  0.14022347499E+03  0.00000000000E+00 0. -1.
         -2    1    6    6    0  503  0.64897598041E+03  0.74057842151E+02 -0.27000398550E+03  0.70679313757E+03  0.00000000000E+00 0.  1.
<mgrwt>
<rscale>  0 0.10524809E+04</rscale>
<asrwt>0</asrwt>
<pdfrwt beam="1">  1        1 0.25387819E+00 0.10524809E+04</pdfrwt>
<pdfrwt beam="2">  1       -1 0.20485813E+00 0.10524809E+04</pdfrwt>
<totfact> 0.71885696E-01</totfact>
</mgrwt>
</event>
<event>
12    1  0.1418317E-007  0.1567809E+04  0.7818608E-02  0.8840572E-01
         -2   -1    0    0    0  501 -0.00000000000E+00  0.00000000000E+00  0.89738255956E+03  0.89738255956E+03  0.00000000000E+00 0.  1.
          2   -1    0    0  501    0  0.00000000000E+00 -0.00000000000E+00 -0.28795062267E+04  0.28795062267E+04  0.00000000000E+00 0. -1.
         23    2    1    2    0    0 -0.15481285423E+04  0.75471881941E+02 -0.92406293037E+03  0.18066874032E+04  0.88482118236E+02 0.  0.
    5000000    2    1    2    0    0  0.15481285423E+04 -0.75471881941E+02 -0.10580607368E+04  0.19702013831E+04  0.59983579294E+03 0.  0.
         23    2    4    4    0    0  0.82570346818E+03 -0.20712649585E+03 -0.28965856746E+03  0.90341156101E+03  0.86964131725E+02 0.  0.
         23    2    4    4    0    0  0.72242507414E+03  0.13165461391E+03 -0.76840216935E+03  0.10667898220E+04  0.91475163045E+02 0.  0.
          1    1    3    3  502    0 -0.90879045716E+03  0.40487246366E+02 -0.49156723607E+03  0.10340104737E+04  0.00000000000E+00 0. -1.
         -1    1    3    3    0  502 -0.63933808516E+03  0.34984635575E+02 -0.43249569430E+03  0.77267692954E+03  0.00000000000E+00 0.  1.
         11    1    5    5    0    0  0.29460113927E+03 -0.74553783333E+02 -0.14783130185E+03  0.33793814770E+03  0.00000000000E+00 0.  1.
        -11    1    5    5    0    0  0.53110232891E+03 -0.13257271252E+03 -0.14182726561E+03  0.56547341330E+03  0.00000000000E+00 0. -1.
          3    1    6    6  503    0  0.47022180417E+03  0.88390132909E+02 -0.56164055254E+03  0.73780855983E+03  0.00000000000E+00 0. -1.
         -3    1    6    6    0  503  0.25220326997E+03  0.43264480998E+02 -0.20676161681E+03  0.32898126221E+03  0.00000000000E+00 0.  1.
<mgrwt>
<rscale>  0 0.15678089E+04</rscale>
<asrwt>0</asrwt>
<pdfrwt beam="1">  1        2 0.44300096E+00 0.15678089E+04</pdfrwt>
<pdfrwt beam="2">  1       -2 0.13805885E+00 0.15678089E+04</pdfrwt>
<totfact> 0.72545275E-01</totfact>
</mgrwt>
</event>
<event>
12    1  0.1418317E-007  0.3254337E+03  0.7818608E-02  0.1073175E+00
         -1   -1    0    0    0  501 -0.00000000000E+00  0.00000000000E+00  0.36221953803E+03  0.36221953803E+03  0.00000000000E+00 0.  1.
          1   -1    0    0  501    0  0.00000000000E+00 -0.00000000000E+00 -0.67595632843E+03  0.67595632843E+03  0.00000000000E+00 0. -1.
         23    2    1    2    0    0 -0.12443934456E+03 -0.56021617335E+02 -0.38540639571E+03  0.41878310277E+03  0.90651118166E+02 0.  0.
    5000000    2    1    2    0    0  0.12443934456E+03  0.56021617335E+02  0.71669605320E+02  0.61939276369E+03  0.59990606873E+03 0.  0.
         23    2    4    4    0    0 -0.17095427955E+03  0.14654344972E+02 -0.14239660935E+03  0.24079323634E+03  0.90909145783E+02 0.  0.
         23    2    4    4    0    0  0.29539362411E+03  0.41367272363E+02  0.21406621467E+03  0.37859952735E+03  0.92437078388E+02 0.  0.
          1    1    3    3  502    0 -0.15787931216E+02 -0.37518332521E+02 -0.43605368689E+02  0.59651590304E+02  0.00000000000E+00 0. -1.
         -1    1    3    3    0  502 -0.10865141334E+03 -0.18503284813E+02 -0.34180102703E+03  0.35913151247E+03  0.00000000000E+00 0.  1.
         13    1    5    5    0    0 -0.16883805127E+03  0.31515900776E+02 -0.14343132839E+03  0.22376792783E+03  0.00000000000E+00 0.  1.
        -13    1    5    5    0    0 -0.21162282766E+01 -0.16861555804E+02  0.10347190440E+01  0.17025308506E+02  0.00000000000E+00 0. -1.
          2    1    6    6  503    0  0.46387144325E+02 -0.26084571169E+02  0.48924968606E+02  0.72289864883E+02  0.00000000000E+00 0. -1.
         -2    1    6    6    0  503  0.24900647978E+03  0.67451843531E+02  0.16514124606E+03  0.30630966247E+03  0.00000000000E+00 0.  1.
<mgrwt>
<rscale>  0 0.32543371E+03</rscale>
<asrwt>0</asrwt>
<pdfrwt beam="1">  1        1 0.10399328E+00 0.32543371E+03</pdfrwt>
<pdfrwt beam="2">  1       -1 0.55726083E-01 0.32543371E+03</pdfrwt>
<totfact> 0.99711190E+01</totfact>
</mgrwt>
</event>
<event>
12    1  0.1418317E-007  0.8747031E+03  0.7818608E-02  0.9457768E-01
         -1   -1    0    0    0  501 -0.00000000000E+00  0.00000000000E+00  0.76358105068E+03  0.76358105068E+03  0.00000000000E+00 0.  1.
          1   -1    0    0  501    0  0.00000000000E+00 -0.00000000000E+00 -0.10995610200E+04  0.10995610200E+04  0.00000000000E+00 0. -1.
         23    2    1    2    0    0 -0.77856131670E+03  0.14040905795E+03  0.43733247851E+02  0.80015807340E+03  0.11165983182E+03 0.  0.
    5000000    2    1    2    0    0  0.77856131670E+03 -0.14040905795E+03 -0.37971321717E+03  0.10629839973E+04  0.59990034485E+03 0.  0.
         23    2    4    4    0    0  0.25880248125E+03  0.19297924593E+03 -0.54909401338E+01  0.33549402471E+03  0.91139324823E+02 0.  0.
         23    2    4    4    0    0  0.51975883545E+03 -0.33338830388E+03 -0.37422227704E+03  0.72748997257E+03  0.88895103142E+02 0.  0.
          1    1    3    3  502    0 -0.38628000785E+03  0.88742451736E+02  0.74541474368E+02  0.40329133218E+03  0.00000000000E+00 0. -1.
         -1    1    3    3    0  502 -0.39228130885E+03  0.51666606209E+02 -0.30808226517E+02  0.39686674122E+03  0.00000000000E+00 0.  1.
         13    1    5    5    0    0  0.24596778316E+03  0.14493431538E+03 -0.28816841454E+00  0.28549288812E+03  0.00000000000E+00 0.  1.
        -13    1    5    5    0    0  0.12834698097E+02  0.48044930548E+02 -0.52027717192E+01  0.50001136589E+02  0.00000000000E+00 0. -1.
          1    1    6    6  503    0  0.40244886172E+03 -0.29410134086E+03 -0.27783499565E+03  0.57066011759E+03  0.00000000000E+00 0. -1.
         -1    1    6    6    0  503  0.11730997373E+03 -0.39286963013E+02 -0.96387281384E+02  0.15682985497E+03  0.00000000000E+00 0.  1.
<mgrwt>
<rscale>  0 0.87470314E+03</rscale>
<asrwt>0</asrwt>
<pdfrwt beam="1">  1        1 0.16916323E+00 0.87470314E+03</pdfrwt>
<pdfrwt beam="2">  1       -1 0.11747401E+00 0.87470314E+03</pdfrwt>
<totfact> 0.84166469E+00</totfact>
</mgrwt>
</event>
<event>
12    1  0.1418317E-007  0.4110348E+03  0.7818608E-02  0.1040024E+00
          1   -1    0    0  501    0  0.00000000000E+00  0.00000000000E+00  0.48362012221E+03  0.48362012221E+03  0.00000000000E+00 0. -1.
         -1   -1    0    0    0  501 -0.00000000000E+00 -0.00000000000E+00 -0.82068308625E+03  0.82068308625E+03  0.00000000000E+00 0.  1.
         23    2    1    2    0    0 -0.23788755929E+03 -0.15943186266E+03 -0.53260113490E+03  0.61149388499E+03  0.90839379079E+02 0.  0.
    5000000    2    1    2    0    0  0.23788755929E+03  0.15943186266E+03  0.19553817086E+03  0.69280932347E+03  0.59978377165E+03 0.  0.
         23    2    4    4    0    0  0.36075113634E+03  0.13920104656E+03  0.30831042563E+03  0.50300766472E+03  0.91886225759E+02 0.  0.
         23    2    4    4    0    0 -0.12286357705E+03  0.20230816097E+02 -0.11277225477E+03  0.18980165875E+03  0.88330876441E+02 0.  0.
          3    1    3    3  502    0 -0.85009168453E+02 -0.83042298442E+02 -0.30142438099E+03  0.32400499920E+03  0.00000000000E+00 0.  1.
         -3    1    3    3    0  502 -0.15287839083E+03 -0.76389564216E+02 -0.23117675391E+03  0.28748888579E+03  0.00000000000E+00 0. -1.
         13    1    5    5    0    0  0.30834548252E+03  0.99254587999E+02  0.21503290539E+03  0.38880272662E+03  0.00000000000E+00 0.  1.
        -13    1    5    5    0    0  0.52405653818E+02  0.39946458562E+02  0.93277520244E+02  0.11420493810E+03  0.00000000000E+00 0. -1.
          4    1    6    6  503    0 -0.51949979776E+02 -0.25761617408E+02 -0.80756890790E+02  0.99418995872E+02  0.00000000000E+00 0. -1.
         -4    1    6    6    0  503 -0.70913597275E+02  0.45992433506E+02 -0.32015363982E+02  0.90382662879E+02  0.00000000000E+00 0.  1.
<mgrwt>
<rscale>  0 0.41103482E+03</rscale>
<asrwt>0</asrwt>
<pdfrwt beam="1">  1        1 0.74403096E-01 0.41103482E+03</pdfrwt>
<pdfrwt beam="2">  1       -1 0.12625894E+00 0.41103482E+03</pdfrwt>
<totfact> 0.27152346E+01</totfact>
</mgrwt>
</event>
<event>
12    1  0.1418317E-007  0.4851617E+03  0.7818608E-02  0.1017726E+00
          2   -1    0    0  501    0  0.00000000000E+00  0.00000000000E+00  0.93789135360E+03  0.93789135360E+03  0.00000000000E+00 0.  1.
         -2   -1    0    0    0  501 -0.00000000000E+00 -0.00000000000E+00 -0.33698436116E+03  0.33698436116E+03  0.00000000000E+00 0. -1.
         23    2    1    2    0    0  0.29240406292E+03 -0.23300844693E+03  0.72909124604E+02  0.39186176463E+03  0.91906636162E+02 0.  0.
    5000000    2    1    2    0    0 -0.29240406292E+03  0.23300844693E+03  0.52799786783E+03  0.88301395014E+03  0.60094826346E+03 0.  0.
         23    2    4    4    0    0 -0.16508423406E+03 -0.11501222476E+03 -0.11950874287E+02  0.22152066144E+03  0.91912805798E+02 0.  0.
         23    2    4    4    0    0 -0.12731982886E+03  0.34802067169E+03  0.53994874212E+03  0.66149328870E+03  0.93273791242E+02 0.  0.
          4    1    3    3  502    0  0.65022120956E+02 -0.89648428508E+02 -0.83091901910E+01  0.11105746075E+03  0.00000000000E+00 0. -1.
         -4    1    3    3    0  502  0.22738194197E+03 -0.14336001842E+03  0.81218314795E+02  0.28080430387E+03  0.00000000000E+00 0.  1.
         13    1    5    5    0    0 -0.62722564012E+02  0.33739678552E+01  0.95936292096E+01  0.63541651038E+02  0.00000000000E+00 0. -1.
        -13    1    5    5    0    0 -0.10236167005E+03 -0.11838619261E+03 -0.21544503497E+02  0.15797901040E+03  0.00000000000E+00 0.  1.
          3    1    6    6  503    0  0.55140954254E+00  0.10707291291E+02 -0.15552212678E+01  0.10833690621E+02  0.00000000000E+00 0. -1.
         -3    1    6    6    0  503 -0.12787123840E+03  0.33731338040E+03  0.54150396339E+03  0.65065959808E+03  0.00000000000E+00 0.  1.
<mgrwt>
<rscale>  0 0.48516172E+03</rscale>
<asrwt>0</asrwt>
<pdfrwt beam="1">  1        2 0.14429098E+00 0.48516172E+03</pdfrwt>
<pdfrwt beam="2">  1       -2 0.51843748E-01 0.48516172E+03</pdfrwt>
<totfact> 0.10075341E+02</totfact>
</mgrwt>
</event>
<event>
12    1  0.1418317E-007  0.6100695E+03  0.7818608E-02  0.9884732E-01
         -1   -1    0    0    0  501 -0.00000000000E+00  0.00000000000E+00  0.12100673809E+04  0.12100673809E+04  0.00000000000E+00 0.  1.
          1   -1    0    0  501    0  0.00000000000E+00 -0.00000000000E+00 -0.42863651230E+03  0.42863651230E+03  0.00000000000E+00 0. -1.
         23    2    1    2    0    0 -0.18012169393E+03 -0.55225018534E+03  0.19954178590E+03  0.62063089089E+03  0.89116140963E+02 0.  0.
    5000000    2    1    2    0    0  0.18012169393E+03  0.55225018534E+03  0.58188908270E+03  0.10180730023E+04  0.60037791569E+03 0.  0.
         23    2    4    4    0    0  0.20331588288E+03  0.47378925091E+03  0.68233526709E+03  0.86002788222E+03  0.90845687686E+02 0.  0.
         23    2    4    4    0    0 -0.23194188949E+02  0.78460934432E+02 -0.10044618438E+03  0.15804512010E+03  0.90524777808E+02 0.  0.
          2    1    3    3  502    0 -0.16898834557E+03 -0.44495817333E+03  0.18947358408E+03  0.51229393517E+03  0.00000000000E+00 0. -1.
         -2    1    3    3    0  502 -0.11133348357E+02 -0.10729201201E+03  0.10068201822E+02  0.10833695572E+03  0.00000000000E+00 0.  1.
         11    1    5    5    0    0  0.79568072620E+02  0.20546481281E+03  0.36560811632E+03  0.42686785099E+03  0.00000000000E+00 0. -1.
        -11    1    5    5    0    0  0.12374781025E+03  0.26832443810E+03  0.31672715076E+03  0.43316003123E+03  0.00000000000E+00 0.  1.
          2    1    6    6  503    0 -0.56804135735E+02  0.40384068501E+02 -0.45564125386E+02  0.83268675668E+02  0.00000000000E+00 0. -1.
         -2    1    6    6    0  503  0.33609946786E+02  0.38076865930E+02 -0.54882058999E+02  0.74776444432E+02  0.00000000000E+00 0.  1.
<mgrwt>
<rscale>  0 0.61006952E+03</rscale>
<asrwt>0</asrwt>
<pdfrwt beam="1">  1        1 0.65944080E-01 0.61006952E+03</pdfrwt>
<pdfrwt beam="2">  1       -1 0.18616421E+00 0.61006952E+03</pdfrwt>
<totfact> 0.10799641E+01</totfact>
</mgrwt>
</event>
<event>
12    1  0.1418317E-007  0.1040643E+04  0.7818608E-02  0.9265058E-01
         -1   -1    0    0    0  501 -0.00000000000E+00  0.00000000000E+00  0.14472696397E+04  0.14472696397E+04  0.00000000000E+00 0.  1.
          1   -1    0    0  501    0  0.00000000000E+00 -0.00000000000E+00 -0.78552202503E+03  0.78552202503E+03  0.00000000000E+00 0. -1.
         23    2    1    2    0    0 -0.52115185368E+03 -0.82664762765E+03  0.37216755545E+03  0.10499594387E+04  0.94660332800E+02 0.  0.
    5000000    2    1    2    0    0  0.52115185368E+03  0.82664762765E+03  0.28958005923E+03  0.11828322261E+04  0.60024154261E+03 0.  0.
         23    2    4    4    0    0  0.39163589723E+02  0.53475582943E+03  0.28066330694E+03  0.61177901288E+03  0.89465551338E+02 0.  0.
         23    2    4    4    0    0  0.48198826396E+03  0.29189179822E+03  0.89167522962E+01  0.57105321321E+03  0.92242915058E+02 0.  0.
          3    1    3    3  502    0 -0.42451249253E+03 -0.73025787000E+03  0.33307448906E+03  0.90797909022E+03  0.00000000000E+00 0. -1.
         -3    1    3    3    0  502 -0.96639361155E+02 -0.96389757651E+02  0.39093066390E+02  0.14198034844E+03  0.00000000000E+00 0.  1.
         11    1    5    5    0    0  0.20064656423E+02  0.38267263159E+03  0.15417891632E+03  0.41305214155E+03  0.00000000000E+00 0. -1.
        -11    1    5    5    0    0  0.19098933300E+02  0.15208319784E+03  0.12648439062E+03  0.19872687133E+03  0.00000000000E+00 0.  1.
          1    1    6    6  503    0  0.30423664676E+02  0.22247314082E+02 -0.22976760559E+02  0.44141521065E+02  0.00000000000E+00 0. -1.
         -1    1    6    6    0  503  0.45156459928E+03  0.26964448414E+03  0.31893512855E+02  0.52691169214E+03  0.00000000000E+00 0.  1.
<mgrwt>
<rscale>  0 0.10406429E+04</rscale>
<asrwt>0</asrwt>
<pdfrwt beam="1">  1        1 0.12084954E+00 0.10406429E+04</pdfrwt>
<pdfrwt beam="2">  1       -1 0.22265687E+00 0.10406429E+04</pdfrwt>
<totfact> 0.24061869E+00</totfact>
</mgrwt>
</event>
<event>
12    1  0.1418317E-007  0.4163899E+03  0.7818608E-02  0.1038248E+00
          2   -1    0    0  501    0  0.00000000000E+00  0.00000000000E+00  0.16988016610E+03  0.16988016610E+03  0.00000000000E+00 0. -1.
         -2   -1    0    0    0  501 -0.00000000000E+00 -0.00000000000E+00 -0.14393492399E+04  0.14393492399E+04  0.00000000000E+00 0.  1.
         23    2    1    2    0    0  0.65379040977E+02  0.23914196090E+03 -0.68501580519E+03  0.73568864641E+03  0.10260523690E+03 0.  0.
    5000000    2    1    2    0    0 -0.65379040977E+02 -0.23914196090E+03 -0.58445326860E+03  0.87354075957E+03  0.60002044881E+03 0.  0.
         23    2    4    4    0    0 -0.13128977513E+03 -0.37814410343E+03 -0.21480993716E+03  0.46293438319E+03  0.89078426274E+02 0.  0.
         23    2    4    4    0    0  0.65910734157E+02  0.13900214253E+03 -0.36964333143E+03  0.41060637637E+03  0.91080092991E+02 0.  0.
          2    1    3    3  502    0  0.36434146601E+02  0.21247430556E+03 -0.46973910536E+03  0.51684388810E+03  0.00000000000E+00 0. -1.
         -2    1    3    3    0  502  0.28944894376E+02  0.26667655341E+02 -0.21527669983E+03  0.21884475832E+03  0.00000000000E+00 0.  1.
         13    1    5    5    0    0 -0.11288651563E+03 -0.34317178508E+03 -0.15937500505E+03  0.39485520349E+03  0.00000000000E+00 0. -1.
        -13    1    5    5    0    0 -0.18403259502E+02 -0.34972318345E+02 -0.55434932114E+02  0.68079179705E+02  0.00000000000E+00 0.  1.
          4    1    6    6  503    0 -0.21058766694E+02  0.16113164766E+02 -0.37414046765E+02  0.45857568937E+02  0.00000000000E+00 0. -1.
         -4    1    6    6    0  503  0.86969500851E+02  0.12288897776E+03 -0.33222928467E+03  0.36474880743E+03  0.00000000000E+00 0.  1.
<mgrwt>
<rscale>  0 0.41638989E+03</rscale>
<asrwt>0</asrwt>
<pdfrwt beam="1">  1        2 0.26135409E-01 0.41638989E+03</pdfrwt>
<pdfrwt beam="2">  1       -2 0.22143835E+00 0.41638989E+03</pdfrwt>
<totfact> 0.21298795E+01</totfact>
</mgrwt>
</event>
<event>
12    1  0.1418317E-007  0.1279416E+04  0.7818608E-02  0.9046049E-01
         -1   -1    0    0    0  501 -0.00000000000E+00  0.00000000000E+00  0.11204808844E+04  0.11204808844E+04  0.00000000000E+00 0.  1.
          1   -1    0    0  501    0  0.00000000000E+00 -0.00000000000E+00 -0.16889156262E+04  0.16889156262E+04  0.00000000000E+00 0. -1.
         23    2    1    2    0    0  0.89779567598E+03  0.85381994604E+03  0.15888026842E+03  0.12523843241E+04  0.90432181222E+02 0.  0.
    5000000    2    1    2    0    0 -0.89779567598E+03 -0.85381994604E+03 -0.72731501018E+03  0.15570121865E+04  0.60021183660E+03 0.  0.
         23    2    4    4    0    0 -0.79821822926E+03 -0.88391013710E+03 -0.51160958595E+03  0.12995647825E+04  0.93138517308E+02 0.  0.
         23    2    4    4    0    0 -0.99577446720E+02  0.30090191061E+02 -0.21570542423E+03  0.25744740403E+03  0.94494699868E+02 0.  0.
          4    1    3    3  502    0  0.58545087814E+03  0.50075507464E+03  0.81753174898E+02  0.77472056711E+03  0.00000000000E+00 0. -1.
         -4    1    3    3    0  502  0.31234479785E+03  0.35306487140E+03  0.77127093524E+02  0.47766375696E+03  0.00000000000E+00 0.  1.
         13    1    5    5    0    0 -0.56720900048E+03 -0.58433871428E+03 -0.31430435757E+03  0.87290607308E+03  0.00000000000E+00 0. -1.
        -13    1    5    5    0    0 -0.23100922878E+03 -0.29957142282E+03 -0.19730522837E+03  0.42665870939E+03  0.00000000000E+00 0.  1.
          4    1    6    6  503    0 -0.27426420801E+02  0.43086951495E+02 -0.33593560248E+02  0.61132816369E+02  0.00000000000E+00 0. -1.
         -4    1    6    6    0  503 -0.72151025920E+02 -0.12996760434E+02 -0.18211186398E+03  0.19631458766E+03  0.00000000000E+00 0.  1.
<mgrwt>
<rscale>  0 0.12794162E+04</rscale>
<asrwt>0</asrwt>
<pdfrwt beam="1">  1        1 0.25983317E+00 0.12794162E+04</pdfrwt>
<pdfrwt beam="2">  1       -1 0.17238168E+00 0.12794162E+04</pdfrwt>
<totfact> 0.11133535E+00</totfact>
</mgrwt>
</event>
<event>
12    1  0.1418317E-007  0.8438824E+03  0.7818608E-02  0.9498585E-01
         -1   -1    0    0    0  501 -0.00000000000E+00  0.00000000000E+00  0.39738838116E+03  0.39738838116E+03  0.00000000000E+00 0.  1.
          1   -1    0    0  501    0  0.00000000000E+00 -0.00000000000E+00 -0.20313595430E+04  0.20313595430E+04  0.00000000000E+00 0. -1.
         23    2    1    2    0    0 -0.58692245582E+03  0.46427808308E+03 -0.36394910131E+03  0.83726362112E+03  0.92300137199E+02 0.  0.
    5000000    2    1    2    0    0  0.58692245582E+03 -0.46427808308E+03 -0.12700220605E+04  0.15914843030E+04  0.59986177158E+03 0.  0.
         23    2    4    4    0    0  0.68087169399E+03 -0.37879877515E+03 -0.11593018369E+04  0.13996823500E+04  0.89750522459E+02 0.  0.
         23    2    4    4    0    0 -0.93949238173E+02 -0.85479307929E+02 -0.11072022366E+03  0.19180195301E+03  0.91628869970E+02 0.  0.
          1    1    3    3  502    0 -0.55019108617E+03  0.40626315566E+03 -0.34506887621E+03  0.76604994111E+03  0.00000000000E+00 0. -1.
         -1    1    3    3    0  502 -0.36731369646E+02  0.58014927424E+02 -0.18880225102E+02  0.71213680006E+02  0.00000000000E+00 0.  1.
         11    1    5    5    0    0  0.28601851421E+03 -0.20960538814E+03 -0.53676040787E+03  0.64331387725E+03  0.00000000000E+00 0. -1.
        -11    1    5    5    0    0  0.39485317978E+03 -0.16919338701E+03 -0.62254142900E+03  0.75636847278E+03  0.00000000000E+00 0.  1.
          2    1    6    6  503    0 -0.82553902784E+02 -0.10181407751E+03 -0.75301295000E+02  0.15116725265E+03  0.00000000000E+00 0. -1.
         -2    1    6    6    0  503 -0.11395335389E+02  0.16334769580E+02 -0.35418928662E+02  0.40634700361E+02  0.00000000000E+00 0.  1.
<mgrwt>
<rscale>  0 0.84388243E+03</rscale>
<asrwt>0</asrwt>
<pdfrwt beam="1">  1        1 0.31251686E+00 0.84388243E+03</pdfrwt>
<pdfrwt beam="2">  1       -1 0.61136673E-01 0.84388243E+03</pdfrwt>
<totfact> 0.79510742E+00</totfact>
</mgrwt>
</event>
<event>
12    1  0.1418317E-007  0.8857837E+03  0.7818608E-02  0.9443529E-01
         -2   -1    0    0    0  501 -0.00000000000E+00  0.00000000000E+00  0.29712069378E+03  0.29712069378E+03  0.00000000000E+00 0. -1.
          2   -1    0    0  501    0  0.00000000000E+00 -0.00000000000E+00 -0.30133733974E+04  0.30133733974E+04  0.00000000000E+00 0.  1.
         23    2    1    2    0    0 -0.70588981061E+03  0.46863889310E+03 -0.12839152771E+04  0.15411105185E+04  0.93168420075E+02 0.  0.
    5000000    2    1    2    0    0  0.70588981061E+03 -0.46863889310E+03 -0.14323374265E+04  0.17693835727E+04  0.60101987253E+03 0.  0.
         23    2    4    4    0    0  0.65407903839E+03 -0.26469913778E+03 -0.13487589690E+04  0.15248631420E+04  0.90398138694E+02 0.  0.
         23    2    4    4    0    0  0.51810772221E+02 -0.20393975532E+03 -0.83578457514E+02  0.24452043069E+03  0.92353140411E+02 0.  0.
          4    1    3    3  502    0 -0.16877709970E+03  0.11139492446E+03 -0.38239850317E+03  0.43257733852E+03  0.00000000000E+00 0. -1.
         -4    1    3    3    0  502 -0.53711271091E+03  0.35724396864E+03 -0.90151677398E+03  0.11085331800E+04  0.00000000000E+00 0.  1.
         11    1    5    5    0    0  0.39624720341E+02 -0.37352994893E+02 -0.13500630562E+03  0.14557495405E+03  0.00000000000E+00 0.  1.
        -11    1    5    5    0    0  0.61445431805E+03 -0.22734614289E+03 -0.12137526634E+04  0.13792881880E+04  0.00000000000E+00 0. -1.
          3    1    6    6  503    0  0.59326484141E+02 -0.17643106011E+03 -0.36809596053E+02  0.18974323981E+03  0.00000000000E+00 0. -1.
         -3    1    6    6    0  503 -0.75157119198E+01 -0.27508695211E+02 -0.46768861460E+02  0.54777190875E+02  0.00000000000E+00 0.  1.
<mgrwt>
<rscale>  0 0.88578371E+03</rscale>
<asrwt>0</asrwt>
<pdfrwt beam="1">  1        2 0.46359593E+00 0.88578371E+03</pdfrwt>
<pdfrwt beam="2">  1       -2 0.45710874E-01 0.88578371E+03</pdfrwt>
<totfact> 0.80643060E+00</totfact>
</mgrwt>
</event>
<event>
12    1  0.1418317E-007  0.2375890E+04  0.7818608E-02  0.8448586E-01
          2   -1    0    0  501    0  0.00000000000E+00  0.00000000000E+00  0.24679658067E+04  0.24679658067E+04  0.00000000000E+00 0. -1.
         -2   -1    0    0    0  501 -0.00000000000E+00 -0.00000000000E+00 -0.30604259808E+04  0.30604259808E+04  0.00000000000E+00 0.  1.
         23    2    1    2    0    0  0.15806924162E+04 -0.17454841471E+04  0.10658710557E+04  0.25863882029E+04  0.89551137857E+02 0.  0.
    5000000    2    1    2    0    0 -0.15806924162E+04  0.17454841471E+04 -0.16583312299E+04  0.29420035846E+04  0.60001600112E+03 0.  0.
         23    2    4    4    0    0 -0.56878377214E+03  0.93332739985E+03 -0.51758650382E+03  0.12119557418E+04  0.79535629543E+02 0.  0.
         23    2    4    4    0    0 -0.10119086440E+04  0.81215674724E+03 -0.11407447260E+04  0.17300478428E+04  0.90605311427E+02 0.  0.
          1    1    3    3  502    0  0.10539661445E+04 -0.12228348242E+04  0.74416508615E+03  0.17776251901E+04  0.00000000000E+00 0. -1.
         -1    1    3    3    0  502  0.52672627168E+03 -0.52264932289E+03  0.32170596957E+03  0.80876301279E+03  0.00000000000E+00 0.  1.
         13    1    5    5    0    0 -0.21488987293E+03  0.41098153405E+03 -0.24694053496E+03  0.52541707873E+03  0.00000000000E+00 0. -1.
        -13    1    5    5    0    0 -0.35389389920E+03  0.52234586580E+03 -0.27064596886E+03  0.68653866306E+03  0.00000000000E+00 0.  1.
          1    1    6    6  503    0 -0.74346336341E+03  0.54392492039E+03 -0.80879402803E+03  0.12258629090E+04  0.00000000000E+00 0.  1.
         -1    1    6    6    0  503 -0.26844528064E+03  0.26823182684E+03 -0.33195069801E+03  0.50418493387E+03  0.00000000000E+00 0. -1.
<mgrwt>
<rscale>  0 0.23758900E+04</rscale>
<asrwt>0</asrwt>
<pdfrwt beam="1">  1        2 0.37968705E+00 0.23758900E+04</pdfrwt>
<pdfrwt beam="2">  1       -2 0.47083477E+00 0.23758900E+04</pdfrwt>
<totfact> 0.77553173E-03</totfact>
</mgrwt>
</event>
<event>
12    1  0.1418317E-007  0.1089925E+04  0.7818608E-02  0.9215068E-01
          2   -1    0    0  501    0  0.00000000000E+00  0.00000000000E+00  0.36463252481E+04  0.36463252481E+04  0.00000000000E+00 0. -1.
         -2   -1    0    0    0  501 -0.00000000000E+00 -0.00000000000E+00 -0.33010620257E+03  0.33010620257E+03  0.00000000000E+00 0.  1.
         23    2    1    2    0    0 -0.54585182371E+02 -0.10089322124E+04  0.14097868109E+04  0.17369140480E+04  0.91911949633E+02 0.  0.
    5000000    2    1    2    0    0  0.54585182371E+02  0.10089322124E+04  0.19064322346E+04  0.22395174027E+04  0.60002548320E+03 0.  0.
         23    2    4    4    0    0 -0.23277929578E+03  0.70273712640E+03  0.12104997982E+04  0.14216303784E+04  0.87735408427E+02 0.  0.
         23    2    4    4    0    0  0.28736447815E+03  0.30619508599E+03  0.69593243641E+03  0.81788702433E+03  0.91013485425E+02 0.  0.
          2    1    3    3  502    0 -0.16744665632E+01 -0.75351677779E+03  0.10630179236E+04  0.13029955656E+04  0.00000000000E+00 0.  1.
         -2    1    3    3    0  502 -0.52910715808E+02 -0.25541543459E+03  0.34676888734E+03  0.43391848232E+03  0.00000000000E+00 0. -1.
         11    1    5    5    0    0 -0.16499300448E+03  0.37338181405E+03  0.62699024221E+03  0.74816671566E+03  0.00000000000E+00 0. -1.
        -11    1    5    5    0    0 -0.67786291307E+02  0.32935531235E+03  0.58350955599E+03  0.67346366271E+03  0.00000000000E+00 0.  1.
          2    1    6    6  503    0  0.26905420576E+03  0.27418232120E+03  0.57545993653E+03  0.69189612620E+03  0.00000000000E+00 0. -1.
         -2    1    6    6    0  503  0.18310272398E+02  0.32012764782E+02  0.12047249988E+03  0.12599089813E+03  0.00000000000E+00 0.  1.
<mgrwt>
<rscale>  0 0.10899249E+04</rscale>
<asrwt>0</asrwt>
<pdfrwt beam="1">  1        2 0.56097309E+00 0.10899249E+04</pdfrwt>
<pdfrwt beam="2">  1       -2 0.50785572E-01 0.10899249E+04</pdfrwt>
<totfact> 0.24064923E+00</totfact>
</mgrwt>
</event>
<event>
12    1  0.1418317E-007  0.3959424E+03  0.7818608E-02  0.1045194E+00
          1   -1    0    0  501    0  0.00000000000E+00  0.00000000000E+00  0.17340294634E+03  0.17340294634E+03  0.00000000000E+00 0. -1.
         -1   -1    0    0    0  501 -0.00000000000E+00 -0.00000000000E+00 -0.20807372879E+04  0.20807372879E+04  0.00000000000E+00 0.  1.
         23    2    1    2    0    0 -0.98862939596E+02 -0.12857363611E+03 -0.14990112837E+04  0.15104993327E+04  0.90930438110E+02 0.  0.
    5000000    2    1    2    0    0  0.98862939596E+02  0.12857363611E+03 -0.40832305783E+03  0.74364090156E+03  0.59997417460E+03 0.  0.
         23    2    4    4    0    0 -0.11609646676E+03 -0.17764049933E+03 -0.19940048147E+03  0.30544339482E+03  0.92198583692E+02 0.  0.
         23    2    4    4    0    0  0.21495940635E+03  0.30621413544E+03 -0.20892257636E+03  0.43819750673E+03  0.91617514013E+02 0.  0.
          4    1    3    3  502    0 -0.52837820924E+02 -0.40283855518E+01 -0.39896333978E+03  0.40246715357E+03  0.00000000000E+00 0. -1.
         -4    1    3    3    0  502 -0.46025118672E+02 -0.12454525056E+03 -0.11000479439E+04  0.11080321791E+04  0.00000000000E+00 0.  1.
         11    1    5    5    0    0 -0.47798483618E+02 -0.83393580790E+01 -0.48332330486E+02  0.68485429835E+02  0.00000000000E+00 0. -1.
        -11    1    5    5    0    0 -0.68297983137E+02 -0.16930114125E+03 -0.15106815098E+03  0.23695796499E+03  0.00000000000E+00 0.  1.
          3    1    6    6  503    0  0.48103227829E+02  0.88610436671E+02 -0.10329278751E+03  0.14434379088E+03  0.00000000000E+00 0. -1.
         -3    1    6    6    0  503  0.16685617852E+03  0.21760369877E+03 -0.10562978885E+03  0.29385371586E+03  0.00000000000E+00 0.  1.
<mgrwt>
<rscale>  0 0.39594236E+03</rscale>
<asrwt>0</asrwt>
<pdfrwt beam="1">  1        1 0.26677377E-01 0.39594236E+03</pdfrwt>
<pdfrwt beam="2">  1       -1 0.32011342E+00 0.39594236E+03</pdfrwt>
<totfact> 0.49157786E+00</totfact>
</mgrwt>
</event>
<event>
12    1  0.1418317E-007  0.8290812E+03  0.7818608E-02  0.9518852E-01
         -3   -1    0    0    0  501 -0.00000000000E+00  0.00000000000E+00  0.13720333244E+04  0.13720333244E+04  0.00000000000E+00 0.  1.
          3   -1    0    0  501    0  0.00000000000E+00 -0.00000000000E+00 -0.71105807172E+03  0.71105807172E+03  0.00000000000E+00 0. -1.
         23    2    1    2    0    0 -0.56361140097E+03  0.50669834923E+03 -0.20047764349E+03  0.78821647820E+03  0.81810161638E+02 0.  0.
    5000000    2    1    2    0    0  0.56361140097E+03 -0.50669834923E+03  0.86145289615E+03  0.12948749179E+04  0.60016575401E+03 0.  0.
         23    2    4    4    0    0 -0.53931031760E+02 -0.15604206055E+03  0.40174135720E+03  0.44425984672E+03  0.93343518629E+02 0.  0.
         23    2    4    4    0    0  0.61754243273E+03 -0.35065628868E+03  0.45971153895E+03  0.85061507118E+03  0.88841495160E+02 0.  0.
          4    1    3    3  502    0 -0.29669169998E+03  0.31280641932E+03 -0.13593161727E+03  0.45205223745E+03  0.00000000000E+00 0. -1.
         -4    1    3    3    0  502 -0.26691970099E+03  0.19389192991E+03 -0.64546026223E+02  0.33616424075E+03  0.00000000000E+00 0.  1.
         11    1    5    5    0    0  0.24114146973E+02 -0.27486482681E+02  0.11192383110E+03  0.11774524526E+03  0.00000000000E+00 0.  1.
        -11    1    5    5    0    0 -0.78045178733E+02 -0.12855557787E+03  0.28981752611E+03  0.32651460146E+03  0.00000000000E+00 0. -1.
          2    1    6    6  503    0  0.43155975929E+03 -0.24720572263E+03  0.27213964883E+03  0.56693428509E+03  0.00000000000E+00 0. -1.
         -2    1    6    6    0  503  0.18598267343E+03 -0.10345056605E+03  0.18757189012E+03  0.28368078609E+03  0.00000000000E+00 0.  1.
<mgrwt>
<rscale>  0 0.82908116E+03</rscale>
<asrwt>0</asrwt>
<pdfrwt beam="1">  1        3 0.10939355E+00 0.82908116E+03</pdfrwt>
<pdfrwt beam="2">  1       -3 0.21108205E+00 0.82908116E+03</pdfrwt>
<totfact> 0.22806126E-01</totfact>
</mgrwt>
</event>
<event>
12    1  0.1418317E-007  0.9147946E+03  0.7818608E-02  0.9407274E-01
         -1   -1    0    0    0  501 -0.00000000000E+00  0.00000000000E+00  0.16364155663E+04  0.16364155663E+04  0.00000000000E+00 0.  1.
          1   -1    0    0  501    0  0.00000000000E+00 -0.00000000000E+00 -0.18002683309E+04  0.18002683309E+04  0.00000000000E+00 0. -1.
         23    2    1    2    0    0  0.46108976480E+03 -0.78643571506E+03  0.13125714645E+04  0.16007285536E+04  0.91668686217E+02 0.  0.
    5000000    2    1    2    0    0 -0.46108976480E+03  0.78643571506E+03 -0.14764242291E+04  0.18359553436E+04  0.59984882636E+03 0.  0.
         23    2    4    4    0    0 -0.37403367442E+03  0.67663086305E+03 -0.14751883369E+04  0.16681460006E+04  0.93807972757E+02 0.  0.
         23    2    4    4    0    0 -0.87056090382E+02  0.10980485201E+03 -0.12358921930E+01  0.16780934299E+03  0.92317819346E+02 0.  0.
          4    1    3    3  502    0  0.43098656650E+03 -0.68988396037E+03  0.11958410187E+04  0.14462797244E+04  0.00000000000E+00 0. -1.
         -4    1    3    3    0  502  0.30103198302E+02 -0.96551754686E+02  0.11673044575E+03  0.15444882921E+03  0.00000000000E+00 0.  1.
         11    1    5    5    0    0 -0.24725106051E+03  0.39655381778E+03 -0.97131701365E+03  0.10778890288E+04  0.00000000000E+00 0.  1.
        -11    1    5    5    0    0 -0.12678261391E+03  0.28007704527E+03 -0.50387132322E+03  0.59025697187E+03  0.00000000000E+00 0. -1.
          1    1    6    6  503    0 -0.32238696529E+01  0.61349118606E+01  0.30070693320E+02  0.30858986954E+02  0.00000000000E+00 0. -1.
         -1    1    6    6    0  503 -0.83832220730E+02  0.10366994015E+03 -0.31306585513E+02  0.13695035604E+03  0.00000000000E+00 0.  1.
<mgrwt>
<rscale>  0 0.91479463E+03</rscale>
<asrwt>0</asrwt>
<pdfrwt beam="1">  1        1 0.27696436E+00 0.91479463E+03</pdfrwt>
<pdfrwt beam="2">  1       -1 0.25175624E+00 0.91479463E+03</pdfrwt>
<totfact> 0.28506662E-01</totfact>
</mgrwt>
</event>
<event>
12    1  0.1418317E-007  0.6850948E+03  0.7818608E-02  0.9743067E-01
         -2   -1    0    0    0  501 -0.00000000000E+00  0.00000000000E+00  0.11497176962E+04  0.11497176962E+04  0.00000000000E+00 0.  1.
          2   -1    0    0  501    0  0.00000000000E+00 -0.00000000000E+00 -0.59641689714E+03  0.59641689714E+03  0.00000000000E+00 0. -1.
         23    2    1    2    0    0  0.66695464312E+03  0.27882873758E+02 -0.31850905185E+02  0.67462154946E+03  0.92161837046E+02 0.  0.
    5000000    2    1    2    0    0 -0.66695464312E+03 -0.27882873758E+02  0.58515170421E+03  0.10715130438E+04  0.60010976959E+03 0.  0.
         23    2    4    4    0    0 -0.33560311176E+02 -0.10799037283E+02  0.38905445973E+03  0.40084038191E+03  0.89814951083E+02 0.  0.
         23    2    4    4    0    0 -0.63339433195E+03 -0.17083836475E+02  0.19609724447E+03  0.67067266193E+03  0.99335054041E+02 0.  0.
          1    1    3    3  502    0  0.56926441896E+03  0.33624248703E+02  0.43734384959E+01  0.57027335178E+03  0.00000000000E+00 0. -1.
         -1    1    3    3    0  502  0.97690224166E+02 -0.57413749448E+01 -0.36224343681E+02  0.10434819768E+03  0.00000000000E+00 0.  1.
         11    1    5    5    0    0  0.33305904596E+01  0.17460471884E+02  0.13241708546E+02  0.22165372914E+02  0.00000000000E+00 0. -1.
        -11    1    5    5    0    0 -0.36890901636E+02 -0.28259509167E+02  0.37581275119E+03  0.37867500900E+03  0.00000000000E+00 0.  1.
          4    1    6    6  503    0 -0.79027544679E+02 -0.26586597220E+02  0.25680003377E+01  0.83419389805E+02  0.00000000000E+00 0. -1.
         -4    1    6    6    0  503 -0.55436678727E+03  0.95027607450E+01  0.19352924414E+03  0.58725327213E+03  0.00000000000E+00 0.  1.
<mgrwt>
<rscale>  0 0.68509479E+03</rscale>
<asrwt>0</asrwt>
<pdfrwt beam="1">  1        2 0.91756446E-01 0.68509479E+03</pdfrwt>
<pdfrwt beam="2">  1       -2 0.17687965E+00 0.68509479E+03</pdfrwt>
<totfact> 0.97553443E+00</totfact>
</mgrwt>
</event>
<event>
12    1  0.1418317E-007  0.4534486E+03  0.7818608E-02  0.1026699E+00
         -1   -1    0    0    0  501 -0.00000000000E+00  0.00000000000E+00  0.39819122160E+03  0.39819122160E+03  0.00000000000E+00 0.  1.
          1   -1    0    0  501    0  0.00000000000E+00 -0.00000000000E+00 -0.71528825151E+03  0.71528825151E+03  0.00000000000E+00 0. -1.
         23    2    1    2    0    0 -0.21156669089E+03 -0.18806003887E+03 -0.33968882457E+03  0.44972746950E+03  0.82092973961E+02 0.  0.
    5000000    2    1    2    0    0  0.21156669089E+03  0.18806003887E+03  0.22591794665E+02  0.66375200361E+03  0.59994107227E+03 0.  0.
         23    2    4    4    0    0 -0.14801387849E+03  0.17688955426E+03  0.12133817217E+03  0.27835264691E+03  0.97771270759E+02 0.  0.
         23    2    4    4    0    0  0.35958056938E+03  0.11170484615E+02 -0.98746377502E+02  0.38539935670E+03  0.96741157091E+02 0.  0.
          3    1    3    3  502    0 -0.63624415490E+02 -0.71376087707E+02 -0.17527495476E+03  0.19965951495E+03  0.00000000000E+00 0. -1.
         -3    1    3    3    0  502 -0.14794227540E+03 -0.11668395116E+03 -0.16441386981E+03  0.25006795455E+03  0.00000000000E+00 0.  1.
         11    1    5    5    0    0  0.92002577795E+01  0.42644885460E+02  0.24925486775E+02  0.50244511044E+02  0.00000000000E+00 0. -1.
        -11    1    5    5    0    0 -0.15721413627E+03  0.13424466880E+03  0.96412685393E+02  0.22810813586E+03  0.00000000000E+00 0.  1.
          4    1    6    6  503    0  0.11669178512E+03 -0.41713696239E+02 -0.30489385727E+02  0.12761899471E+03  0.00000000000E+00 0.  1.
         -4    1    6    6    0  503  0.24288878425E+03  0.52884180854E+02 -0.68256991775E+02  0.25778036199E+03  0.00000000000E+00 0. -1.
<mgrwt>
<rscale>  0 0.45344860E+03</rscale>
<asrwt>0</asrwt>
<pdfrwt beam="1">  1        1 0.11004435E+00 0.45344860E+03</pdfrwt>
<pdfrwt beam="2">  1       -1 0.61260188E-01 0.45344860E+03</pdfrwt>
<totfact> 0.74936430E+01</totfact>
</mgrwt>
</event>
<event>
12    1  0.1418317E-007  0.6622951E+03  0.7818608E-02  0.9783978E-01
         -1   -1    0    0    0  501 -0.00000000000E+00  0.00000000000E+00  0.13315416570E+04  0.13315416570E+04  0.00000000000E+00 0.  1.
          1   -1    0    0  501    0  0.00000000000E+00 -0.00000000000E+00 -0.44724982525E+03  0.44724982525E+03  0.00000000000E+00 0. -1.
         23    2    1    2    0    0 -0.25740129649E+03 -0.46895115146E+03 -0.51129520985E+02  0.54553060302E+03  0.93908471543E+02 0.  0.
    5000000    2    1    2    0    0  0.25740129649E+03  0.46895115146E+03  0.93542135271E+03  0.12332608792E+04  0.59979052941E+03 0.  0.
         23    2    4    4    0    0  0.36615650030E+03  0.51691112583E+03  0.65392452237E+03  0.91500779110E+03  0.91401762001E+02 0.  0.
         23    2    4    4    0    0 -0.10875520381E+03 -0.47959974365E+02  0.28149683034E+03  0.31825308810E+03  0.88975890536E+02 0.  0.
          3    1    3    3  502    0 -0.13802354267E+02 -0.92815823540E+02 -0.22460140137E+02  0.96486993827E+02  0.00000000000E+00 0. -1.
         -3    1    3    3    0  502 -0.24359894222E+03 -0.37613532792E+03 -0.28669380847E+02  0.44904360920E+03  0.00000000000E+00 0.  1.
         13    1    5    5    0    0  0.29501468910E+02  0.25683487797E+02  0.74373469531E+02  0.84032084249E+02  0.00000000000E+00 0. -1.
        -13    1    5    5    0    0  0.33665503139E+03  0.49122763803E+03  0.57955105284E+03  0.83097570685E+03  0.00000000000E+00 0.  1.
          4    1    6    6  503    0 -0.11466348857E+03 -0.16334548606E+02  0.23035511675E+03  0.25783330448E+03  0.00000000000E+00 0.  1.
         -4    1    6    6    0  503  0.59082847562E+01 -0.31625425759E+02  0.51141713593E+02  0.60419783618E+02  0.00000000000E+00 0. -1.
<mgrwt>
<rscale>  0 0.66229509E+03</rscale>
<asrwt>0</asrwt>
<pdfrwt beam="1">  1        1 0.68807666E-01 0.66229509E+03</pdfrwt>
<pdfrwt beam="2">  1       -1 0.20485256E+00 0.66229509E+03</pdfrwt>
<totfact> 0.75304406E+00</totfact>
</mgrwt>
</event>
<event>
12    1  0.1418317E-007  0.6833448E+03  0.7818608E-02  0.9746146E-01
          3   -1    0    0  501    0  0.00000000000E+00  0.00000000000E+00  0.13151373438E+04  0.13151373438E+04  0.00000000000E+00 0. -1.
         -3   -1    0    0    0  501 -0.00000000000E+00 -0.00000000000E+00 -0.58883108144E+03  0.58883108144E+03  0.00000000000E+00 0.  1.
         23    2    1    2    0    0 -0.52433910909E+03 -0.41733158640E+03  0.74248086536E+03  0.10043137590E+04  0.90945790191E+02 0.  0.
    5000000    2    1    2    0    0  0.52433910909E+03  0.41733158640E+03 -0.16174603009E+02  0.89965466623E+03  0.60001645508E+03 0.  0.
         23    2    4    4    0    0  0.31987344269E+03  0.34871233413E+03 -0.27264976696E+03  0.55313780500E+03  0.87773712395E+02 0.  0.
         23    2    4    4    0    0  0.20446566640E+03  0.68619252266E+02  0.25647516395E+03  0.34651686123E+03  0.88202125118E+02 0.  0.
          4    1    3    3  502    0 -0.48139106527E+03 -0.37301462493E+03  0.63136846866E+03  0.87721343546E+03  0.00000000000E+00 0. -1.
         -4    1    3    3    0  502 -0.42948043816E+02 -0.44316961462E+02  0.11111239670E+03  0.12710032353E+03  0.00000000000E+00 0.  1.
         11    1    5    5    0    0  0.68233179168E+02  0.10123697329E+03 -0.11075716545E+03  0.16483883402E+03  0.00000000000E+00 0. -1.
        -11    1    5    5    0    0  0.25164026352E+03  0.24747536084E+03 -0.16189260151E+03  0.38829897099E+03  0.00000000000E+00 0.  1.
          3    1    6    6  503    0  0.12802390745E+03  0.18027082527E+02  0.93580100792E+02  0.15960053837E+03  0.00000000000E+00 0. -1.
         -3    1    6    6    0  503  0.76441758945E+02  0.50592169740E+02  0.16289506316E+03  0.18691632286E+03  0.00000000000E+00 0.  1.
<mgrwt>
<rscale>  0 0.68334479E+03</rscale>
<asrwt>0</asrwt>
<pdfrwt beam="1">  1        3 0.20232882E+00 0.68334479E+03</pdfrwt>
<pdfrwt beam="2">  1       -3 0.90589398E-01 0.68334479E+03</pdfrwt>
<totfact> 0.40890301E-01</totfact>
</mgrwt>
</event>
<event>
12    1  0.1418317E-007  0.5664553E+03  0.7818608E-02  0.9977553E-01
          2   -1    0    0  501    0  0.00000000000E+00  0.00000000000E+00  0.75584623268E+03  0.75584623268E+03  0.00000000000E+00 0.  1.
         -2   -1    0    0    0  501 -0.00000000000E+00 -0.00000000000E+00 -0.66645694064E+03  0.66645694064E+03  0.00000000000E+00 0. -1.
         23    2    1    2    0    0 -0.40576734874E+03 -0.11261845825E+03  0.43550683612E+03  0.61163389921E+03  0.84260096828E+02 0.  0.
    5000000    2    1    2    0    0  0.40576734874E+03  0.11261845825E+03 -0.34611754408E+03  0.81066927411E+03  0.60004771413E+03 0.  0.
         23    2    4    4    0    0  0.26004225741E+03  0.33382071404E+03 -0.11587986150E+03  0.44804645676E+03  0.90880362839E+02 0.  0.
         23    2    4    4    0    0  0.14572509133E+03 -0.22120225580E+03 -0.23023768258E+03  0.36262281736E+03  0.91212263277E+02 0.  0.
          4    1    3    3  502    0 -0.83720475721E+02  0.52100737775E+01  0.11424618599E+03  0.14173374311E+03  0.00000000000E+00 0. -1.
         -4    1    3    3    0  502 -0.32204687302E+03 -0.11782853202E+03  0.32126065013E+03  0.46990015610E+03  0.00000000000E+00 0.  1.
         11    1    5    5    0    0  0.15419597124E+03  0.26483162804E+03 -0.80938316916E+02  0.31695930323E+03  0.00000000000E+00 0. -1.
        -11    1    5    5    0    0  0.10584628617E+03  0.68989086003E+02 -0.34941544584E+02  0.13108715353E+03  0.00000000000E+00 0.  1.
          4    1    6    6  503    0  0.20176802038E+02 -0.87917622101E+02 -0.11546056991E+03  0.14651878658E+03  0.00000000000E+00 0. -1.
         -4    1    6    6    0  503  0.12554828930E+03 -0.13328463370E+03 -0.11477711267E+03  0.21610403078E+03  0.00000000000E+00 0.  1.
<mgrwt>
<rscale>  0 0.56645529E+03</rscale>
<asrwt>0</asrwt>
<pdfrwt beam="1">  1        2 0.11628404E+00 0.56645529E+03</pdfrwt>
<pdfrwt beam="2">  1       -2 0.10253184E+00 0.56645529E+03</pdfrwt>
<totfact> 0.29835592E+01</totfact>
</mgrwt>
</event>
<event>
12    1  0.1418317E-007  0.3760664E+03  0.7818608E-02  0.1052397E+00
          1   -1    0    0  501    0  0.00000000000E+00  0.00000000000E+00  0.75471334126E+03  0.75471334126E+03  0.00000000000E+00 0. -1.
         -1   -1    0    0    0  501 -0.00000000000E+00 -0.00000000000E+00 -0.33658025229E+03  0.33658025229E+03  0.00000000000E+00 0.  1.
         23    2    1    2    0    0  0.88758663751E+02  0.22539123839E+03  0.35773728205E+03  0.44148452548E+03  0.90847743712E+02 0.  0.
    5000000    2    1    2    0    0 -0.88758663751E+02 -0.22539123839E+03  0.60395806914E+02  0.64980906807E+03  0.59993738066E+03 0.  0.
         23    2    4    4    0    0 -0.87242996832E+02  0.11229447849E+03 -0.16206505980E+03  0.23546144785E+03  0.94634134539E+02 0.  0.
         23    2    4    4    0    0 -0.15156669192E+01 -0.33768571688E+03  0.22246086672E+03  0.41434762022E+03  0.90339208136E+02 0.  0.
          3    1    3    3  502    0  0.12878178890E+02  0.13421211816E+03  0.23405019587E+03  0.27010781984E+03  0.00000000000E+00 0. -1.
         -3    1    3    3    0  502  0.75880484862E+02  0.91179120232E+02  0.12368708618E+03  0.17137670565E+03  0.00000000000E+00 0.  1.
         13    1    5    5    0    0 -0.31060390278E+02  0.84720857940E+02 -0.14467037998E+03  0.17050481066E+03  0.00000000000E+00 0.  1.
        -13    1    5    5    0    0 -0.56182606555E+02  0.27573620554E+02 -0.17394679825E+02  0.64956637197E+02  0.00000000000E+00 0. -1.
          1    1    6    6  503    0 -0.33986782243E+02 -0.25106066614E+03  0.18856826918E+03  0.31582360835E+03  0.00000000000E+00 0. -1.
         -1    1    6    6    0  503  0.32471115324E+02 -0.86625050745E+02  0.33892597537E+02  0.98524011869E+02  0.00000000000E+00 0.  1.
<mgrwt>
<rscale>  0 0.37606639E+03</rscale>
<asrwt>0</asrwt>
<pdfrwt beam="1">  1        1 0.11610974E+00 0.37606639E+03</pdfrwt>
<pdfrwt beam="2">  1       -1 0.51781578E-01 0.37606639E+03</pdfrwt>
<totfact> 0.96468181E+01</totfact>
</mgrwt>
</event>
<event>
12    1  0.1418317E-007  0.4373870E+03  0.7818608E-02  0.1031552E+00
          2   -1    0    0  501    0  0.00000000000E+00  0.00000000000E+00  0.60657144819E+03  0.60657144819E+03  0.00000000000E+00 0. -1.
         -2   -1    0    0    0  501 -0.00000000000E+00 -0.00000000000E+00 -0.11403591624E+04  0.11403591624E+04  0.00000000000E+00 0.  1.
         23    2    1    2    0    0 -0.10861825526E+03 -0.23983882473E+03  0.47078289285E+03  0.54746718385E+03  0.93611954161E+02 0.  0.
    5000000    2    1    2    0    0  0.10861825526E+03  0.23983882473E+03 -0.10045706071E+04  0.11994634268E+04  0.60019148638E+03 0.  0.
         23    2    4    4    0    0  0.31087645200E+03  0.40713616134E+02 -0.70352643411E+03  0.77565942045E+03  0.91631468883E+02 0.  0.
         23    2    4    4    0    0 -0.20225819674E+03  0.19912520860E+03 -0.30104417298E+03  0.42380400633E+03  0.91776984300E+02 0.  0.
          4    1    3    3  502    0 -0.85729716881E+02 -0.15540643491E+03  0.22497168109E+03  0.28655366280E+03  0.00000000000E+00 0. -1.
         -4    1    3    3    0  502 -0.22888538382E+02 -0.84432389819E+02  0.24581121176E+03  0.26091352105E+03  0.00000000000E+00 0.  1.
         11    1    5    5    0    0  0.24862366697E+03  0.49227298687E+02 -0.47181951047E+03  0.53558445195E+03  0.00000000000E+00 0. -1.
        -11    1    5    5    0    0  0.62252785030E+02 -0.85136825531E+01 -0.23170692364E+03  0.24007496849E+03  0.00000000000E+00 0.  1.
          3    1    6    6  503    0 -0.11413010663E+03  0.16137245088E+03 -0.23654335565E+03  0.30825234508E+03  0.00000000000E+00 0. -1.
         -3    1    6    6    0  503 -0.88128090109E+02  0.37752757715E+02 -0.64500817323E+02  0.11555166125E+03  0.00000000000E+00 0.  1.
<mgrwt>
<rscale>  0 0.43738699E+03</rscale>
<asrwt>0</asrwt>
<pdfrwt beam="1">  1        2 0.93318685E-01 0.43738699E+03</pdfrwt>
<pdfrwt beam="2">  1       -2 0.17543987E+00 0.43738699E+03</pdfrwt>
<totfact> 0.10146837E+01</totfact>
</mgrwt>
</event>
<event>
12    1  0.1418317E-007  0.7761598E+03  0.7818608E-02  0.9595181E-01
         -2   -1    0    0    0  501 -0.00000000000E+00  0.00000000000E+00  0.74623240815E+03  0.74623240815E+03  0.00000000000E+00 0.  1.
          2   -1    0    0  501    0  0.00000000000E+00 -0.00000000000E+00 -0.91980456465E+03  0.91980456465E+03  0.00000000000E+00 0. -1.
         23    2    1    2    0    0 -0.23084408076E+02 -0.68982553753E+03  0.11809632852E+03  0.70610703825E+03  0.90819846564E+02 0.  0.
    5000000    2    1    2    0    0  0.23084408076E+02  0.68982553753E+03 -0.29166848503E+03  0.95992993455E+03  0.60000234331E+03 0.  0.
         23    2    4    4    0    0 -0.29913288080E+02 -0.56310360952E+02  0.61764721904E+02  0.12784479322E+03  0.91998634379E+02 0.  0.
         23    2    4    4    0    0  0.52997696156E+02  0.74613589848E+03 -0.35343320693E+03  0.83208514133E+03  0.89011886104E+02 0.  0.
          4    1    3    3  502    0 -0.53012788622E+02 -0.40552929596E+03  0.48128241428E+02  0.41180176452E+03  0.00000000000E+00 0. -1.
         -4    1    3    3    0  502  0.29928380545E+02 -0.28429624156E+03  0.69968087094E+02  0.29430527372E+03  0.00000000000E+00 0.  1.
         13    1    5    5    0    0 -0.27253867662E+02 -0.80417470880E+02  0.35322597074E+02  0.91964279965E+02  0.00000000000E+00 0.  1.
        -13    1    5    5    0    0 -0.26594204175E+01  0.24107109928E+02  0.26442124830E+02  0.35880513257E+02  0.00000000000E+00 0. -1.
          1    1    6    6  503    0  0.44801716621E+02  0.49047159500E+03 -0.18652223251E+03  0.52664990510E+03  0.00000000000E+00 0. -1.
         -1    1    6    6    0  503  0.81959795357E+01  0.25566430348E+03 -0.16691097442E+03  0.30543523624E+03  0.00000000000E+00 0.  1.
<mgrwt>
<rscale>  0 0.77615980E+03</rscale>
<asrwt>0</asrwt>
<pdfrwt beam="1">  1        2 0.14150839E+00 0.77615980E+03</pdfrwt>
<pdfrwt beam="2">  1       -2 0.11480499E+00 0.77615980E+03</pdfrwt>
<totfact> 0.17056328E+01</totfact>
</mgrwt>
</event>
<event>
12    1  0.1418317E-007  0.4788271E+03  0.7818608E-02  0.1019458E+00
          2   -1    0    0  501    0  0.00000000000E+00  0.00000000000E+00  0.25097877245E+04  0.25097877245E+04  0.00000000000E+00 0. -1.
         -2   -1    0    0    0  501 -0.00000000000E+00 -0.00000000000E+00 -0.22055004567E+03  0.22055004567E+03  0.00000000000E+00 0.  1.
         23    2    1    2    0    0 -0.31853560043E+03  0.12519900292E+03  0.19109059126E+04  0.19428456807E+04  0.77124659051E+02 0.  0.
    5000000    2    1    2    0    0  0.31853560043E+03 -0.12519900292E+03  0.37833176615E+03  0.78749208942E+03  0.59989094555E+03 0.  0.
         23    2    4    4    0    0  0.34346422453E+03  0.11667835228E+03  0.37246324245E+03  0.52770057866E+03  0.90319003140E+02 0.  0.
         23    2    4    4    0    0 -0.24928624098E+02 -0.24187735520E+03  0.58685237064E+01  0.25979151076E+03  0.91274849957E+02 0.  0.
          1    1    3    3  502    0 -0.13402766605E+03  0.77035073703E+02  0.10300226008E+04  0.10415586282E+04  0.00000000000E+00 0. -1.
         -1    1    3    3    0  502 -0.18450793438E+03  0.48163929218E+02  0.88088331184E+03  0.90128705250E+03  0.00000000000E+00 0.  1.
         13    1    5    5    0    0  0.10163913644E+03  0.42788694311E+01  0.65086004019E+02  0.12076841764E+03  0.00000000000E+00 0.  1.
        -13    1    5    5    0    0  0.24182508808E+03  0.11239948285E+03  0.30737723843E+03  0.40693216102E+03  0.00000000000E+00 0. -1.
          3    1    6    6  503    0 -0.28229474263E+02 -0.20230478186E+03  0.39145356050E+02  0.20798193883E+03  0.00000000000E+00 0. -1.
         -3    1    6    6    0  503  0.33008501657E+01 -0.39572573345E+02 -0.33276832343E+02  0.51809571932E+02  0.00000000000E+00 0.  1.
<mgrwt>
<rscale>  0 0.47882707E+03</rscale>
<asrwt>0</asrwt>
<pdfrwt beam="1">  1        2 0.38612117E+00 0.47882707E+03</pdfrwt>
<pdfrwt beam="2">  1       -2 0.33930778E-01 0.47882707E+03</pdfrwt>
<totfact> 0.30624088E+01</totfact>
</mgrwt>
</event>
<event>
12    1  0.1418317E-007  0.5369699E+03  0.7818608E-02  0.1004556E+00
          1   -1    0    0  501    0  0.00000000000E+00  0.00000000000E+00  0.10229154235E+04  0.10229154235E+04  0.00000000000E+00 0. -1.
         -1   -1    0    0    0  501 -0.00000000000E+00 -0.00000000000E+00 -0.32341097406E+03  0.32341097406E+03  0.00000000000E+00 0.  1.
         23    2    1    2    0    0  0.85897786120E+02  0.36401243098E+03  0.46124795692E+03  0.60009248073E+03  0.86474436109E+02 0.  0.
    5000000    2    1    2    0    0 -0.85897786120E+02 -0.36401243098E+03  0.23825649247E+03  0.74623391678E+03  0.60017949214E+03 0.  0.
         23    2    4    4    0    0 -0.32753239177E+03 -0.25146560648E+03  0.11012310076E+03  0.43674897250E+03  0.90056364356E+02 0.  0.
         23    2    4    4    0    0  0.24163460565E+03 -0.11254682450E+03  0.12813339171E+03  0.30948494428E+03  0.91152039532E+02 0.  0.
          4    1    3    3  502    0  0.40039429361E+02  0.28613750394E+03  0.38802365398E+03  0.48377699730E+03  0.00000000000E+00 0. -1.
         -4    1    3    3    0  502  0.45858356758E+02  0.77874927039E+02  0.73224302940E+02  0.11631548344E+03  0.00000000000E+00 0.  1.
         11    1    5    5    0    0 -0.28524169725E+03 -0.18875958442E+03  0.11526041759E+03  0.36094039733E+03  0.00000000000E+00 0. -1.
        -11    1    5    5    0    0 -0.42290694515E+02 -0.62706022055E+02 -0.51373168370E+01  0.75808575166E+02  0.00000000000E+00 0.  1.
          4    1    6    6  503    0  0.14459412801E+03 -0.25953416704E+02  0.96079913418E+02  0.17553458763E+03  0.00000000000E+00 0. -1.
         -4    1    6    6    0  503  0.97040477642E+02 -0.86593407799E+02  0.32053478295E+02  0.13395035665E+03  0.00000000000E+00 0.  1.
<mgrwt>
<rscale>  0 0.53696990E+03</rscale>
<asrwt>0</asrwt>
<pdfrwt beam="1">  1        1 0.15737160E+00 0.53696990E+03</pdfrwt>
<pdfrwt beam="2">  1       -1 0.49755535E-01 0.53696990E+03</pdfrwt>
<totfact> 0.61624151E+01</totfact>
</mgrwt>
</event>
<event>
12    1  0.1418317E-007  0.1255606E+04  0.7818608E-02  0.9065531E-01
          2   -1    0    0  501    0  0.00000000000E+00  0.00000000000E+00  0.35549319925E+04  0.35549319925E+04  0.00000000000E+00 0. -1.
         -2   -1    0    0    0  501 -0.00000000000E+00 -0.00000000000E+00 -0.53464504247E+03  0.53464504247E+03  0.00000000000E+00 0.  1.
         23    2    1    2    0    0 -0.12431666939E+04  0.12206636476E+03  0.84673021269E+03  0.15118111033E+04  0.90868766797E+02 0.  0.
    5000000    2    1    2    0    0  0.12431666939E+04 -0.12206636476E+03  0.21735567373E+04  0.25777659316E+04  0.60013721895E+03 0.  0.
         23    2    4    4    0    0  0.49009510765E+03 -0.74584837971E+02  0.14263382920E+04  0.15128296119E+04  0.91958680678E+02 0.  0.
         23    2    4    4    0    0  0.75307158627E+03 -0.47481526785E+02  0.74721844534E+03  0.10649363197E+04  0.79891492089E+02 0.  0.
          2    1    3    3  502    0 -0.10333862174E+04  0.13477977970E+03  0.71307514849E+03  0.12627465426E+04  0.00000000000E+00 0. -1.
         -2    1    3    3    0  502 -0.20978047648E+03 -0.12713414941E+02  0.13365506419E+03  0.24906456074E+03  0.00000000000E+00 0.  1.
         11    1    5    5    0    0  0.43718320492E+03 -0.87155233551E+02  0.12022518691E+04  0.12822381784E+04  0.00000000000E+00 0.  1.
        -11    1    5    5    0    0  0.52911902731E+02  0.12570395580E+02  0.22408642283E+03  0.23059143348E+03  0.00000000000E+00 0. -1.
          2    1    6    6  503    0  0.25526506536E+03  0.21520624276E+02  0.24664105087E+03  0.35560539765E+03  0.00000000000E+00 0. -1.
         -2    1    6    6    0  503  0.49780652091E+03 -0.69002151062E+02  0.50057739447E+03  0.70933092205E+03  0.00000000000E+00 0.  1.
<mgrwt>
<rscale>  0 0.12556056E+04</rscale>
<asrwt>0</asrwt>
<pdfrwt beam="1">  1        2 0.54691260E+00 0.12556056E+04</pdfrwt>
<pdfrwt beam="2">  1       -2 0.82253086E-01 0.12556056E+04</pdfrwt>
<totfact> 0.96194618E-01</totfact>
</mgrwt>
</event>
<event>
12    1  0.1418317E-007  0.9567249E+03  0.7818608E-02  0.9357325E-01
         -2   -1    0    0    0  501 -0.00000000000E+00  0.00000000000E+00  0.14851687801E+04  0.14851687801E+04  0.00000000000E+00 0.  1.
          2   -1    0    0  501    0  0.00000000000E+00 -0.00000000000E+00 -0.89837299591E+03  0.89837299591E+03  0.00000000000E+00 0. -1.
         23    2    1    2    0    0 -0.58248133099E+03 -0.68487661602E+03 -0.33417393095E+03  0.96331415826E+03  0.89227076926E+02 0.  0.
    5000000    2    1    2    0    0  0.58248133099E+03  0.68487661602E+03  0.92096971516E+03  0.14202276178E+04  0.60043383476E+03 0.  0.
         23    2    4    4    0    0  0.63449959056E+02  0.41744082241E+03  0.16863733261E+03  0.46356235654E+03  0.90381253202E+02 0.  0.
         23    2    4    4    0    0  0.51903137193E+03  0.26743579361E+03  0.75233238255E+03  0.95666526124E+03  0.91043613006E+02 0.  0.
          3    1    3    3  502    0 -0.30091159733E+03 -0.32576722696E+03 -0.12127948725E+03  0.45976166608E+03  0.00000000000E+00 0. -1.
         -3    1    3    3    0  502 -0.28156973366E+03 -0.35910938906E+03 -0.21289444370E+03  0.50355249218E+03  0.00000000000E+00 0.  1.
         13    1    5    5    0    0  0.44519431026E+02  0.16576526148E+03  0.25822805917E+02  0.17357107754E+03  0.00000000000E+00 0.  1.
        -13    1    5    5    0    0  0.18930528030E+02  0.25167556093E+03  0.14281452670E+03  0.28999127900E+03  0.00000000000E+00 0. -1.
          4    1    6    6  503    0  0.30717256308E+03  0.20292726478E+03  0.50032088863E+03  0.62117264098E+03  0.00000000000E+00 0. -1.
         -4    1    6    6    0  503  0.21185880886E+03  0.64508528838E+02  0.25201149391E+03  0.33549262026E+03  0.00000000000E+00 0.  1.
<mgrwt>
<rscale>  0 0.95672493E+03</rscale>
<asrwt>0</asrwt>
<pdfrwt beam="1">  1        2 0.13821123E+00 0.95672493E+03</pdfrwt>
<pdfrwt beam="2">  1       -2 0.22848750E+00 0.95672493E+03</pdfrwt>
<totfact> 0.25681358E+00</totfact>
</mgrwt>
</event>
<event>
12    1  0.1418317E-007  0.5794973E+03  0.7818608E-02  0.9948880E-01
          1   -1    0    0  501    0  0.00000000000E+00  0.00000000000E+00  0.14071601503E+04  0.14071601503E+04  0.00000000000E+00 0. -1.
         -1   -1    0    0    0  501 -0.00000000000E+00 -0.00000000000E+00 -0.24772321618E+03  0.24772321618E+03  0.00000000000E+00 0.  1.
         23    2    1    2    0    0 -0.41927910361E+03 -0.10483690350E+03  0.44195687596E+03  0.62463188336E+03  0.89740550709E+02 0.  0.
    5000000    2    1    2    0    0  0.41927910361E+03  0.10483690350E+03  0.71748005817E+03  0.10302514831E+04  0.59987893908E+03 0.  0.
         23    2    4    4    0    0  0.12070595866E+03  0.31136768917E+03  0.46175508469E+03  0.57706273142E+03  0.90905838299E+02 0.  0.
         23    2    4    4    0    0  0.29857314494E+03 -0.20653078568E+03  0.25572497348E+03  0.45318875171E+03  0.90464878818E+02 0.  0.
          2    1    3    3  502    0 -0.17674996255E+03  0.92092153541E+00  0.17161447680E+03  0.24635934325E+03  0.00000000000E+00 0. -1.
         -2    1    3    3    0  502 -0.24252914106E+03 -0.10575782503E+03  0.27034239917E+03  0.37827254012E+03  0.00000000000E+00 0.  1.
         13    1    5    5    0    0  0.60751783814E+02  0.25247181971E+03  0.31815228204E+03  0.41067465658E+03  0.00000000000E+00 0. -1.
        -13    1    5    5    0    0  0.59954174848E+02  0.58895869462E+02  0.14360280265E+03  0.16638807484E+03  0.00000000000E+00 0.  1.
          1    1    6    6  503    0  0.42441669789E+02 -0.74588130116E+02  0.52391070768E+02  0.10054605305E+03  0.00000000000E+00 0. -1.
         -1    1    6    6    0  503  0.25613147516E+03 -0.13194265556E+03  0.20333390271E+03  0.35264269865E+03  0.00000000000E+00 0.  1.
<mgrwt>
<rscale>  0 0.57949726E+03</rscale>
<asrwt>0</asrwt>
<pdfrwt beam="1">  1        1 0.21648617E+00 0.57949726E+03</pdfrwt>
<pdfrwt beam="2">  1       -1 0.38111265E-01 0.57949726E+03</pdfrwt>
<totfact> 0.52964037E+01</totfact>
</mgrwt>
</event>
<event>
12    1  0.1418317E-007  0.1288543E+04  0.7818608E-02  0.9038700E-01
          2   -1    0    0  501    0  0.00000000000E+00  0.00000000000E+00  0.89132439818E+03  0.89132439818E+03  0.00000000000E+00 0. -1.
         -2   -1    0    0    0  501 -0.00000000000E+00 -0.00000000000E+00 -0.20273074115E+04  0.20273074115E+04  0.00000000000E+00 0.  1.
         23    2    1    2    0    0  0.77223851553E+03  0.94240711484E+03 -0.95039199984E+03  0.15479021816E+04  0.90954469709E+02 0.  0.
    5000000    2    1    2    0    0 -0.77223851553E+03 -0.94240711484E+03 -0.18559101353E+03  0.13707296281E+04  0.59997682794E+03 0.  0.
         23    2    4    4    0    0 -0.31706847970E+03 -0.26260616589E+02 -0.60654120062E+02  0.33615863115E+03  0.90009234024E+02 0.  0.
         23    2    4    4    0    0 -0.45517003583E+03 -0.91614649825E+03 -0.12493689347E+03  0.10345709969E+04  0.90684908367E+02 0.  0.
          1    1    3    3  502    0  0.56708330863E+03  0.63203642937E+03 -0.63855157133E+03  0.10624507689E+04  0.00000000000E+00 0. -1.
         -1    1    3    3    0  502  0.20515520690E+03  0.31037068546E+03 -0.31184042851E+03  0.48545141277E+03  0.00000000000E+00 0.  1.
         11    1    5    5    0    0 -0.28501049098E+03 -0.49558284114E+02 -0.64348107913E+02  0.29635735605E+03  0.00000000000E+00 0. -1.
        -11    1    5    5    0    0 -0.32057988720E+02  0.23297667525E+02  0.36939878513E+01  0.39801275094E+02  0.00000000000E+00 0.  1.
          3    1    6    6  503    0 -0.82479645741E+02 -0.25514609402E+03 -0.35817977782E+02  0.27052790759E+03  0.00000000000E+00 0. -1.
         -3    1    6    6    0  503 -0.37269039009E+03 -0.66100040423E+03 -0.89118915684E+02  0.76404308935E+03  0.00000000000E+00 0.  1.
<mgrwt>
<rscale>  0 0.12885429E+04</rscale>
<asrwt>0</asrwt>
<pdfrwt beam="1">  1        2 0.13712683E+00 0.12885429E+04</pdfrwt>
<pdfrwt beam="2">  1       -2 0.31189345E+00 0.12885429E+04</pdfrwt>
<totfact> 0.77513013E-01</totfact>
</mgrwt>
</event>
<event>
12    1  0.1418317E-007  0.9793487E+03  0.7818608E-02  0.9331489E-01
          2   -1    0    0  501    0  0.00000000000E+00  0.00000000000E+00  0.21794850907E+04  0.21794850907E+04  0.00000000000E+00 0. -1.
         -2   -1    0    0    0  501 -0.00000000000E+00 -0.00000000000E+00 -0.48371195133E+03  0.48371195133E+03  0.00000000000E+00 0.  1.
         23    2    1    2    0    0  0.63513558865E+03  0.62988452030E+03  0.11374207083E+04  0.14500068973E+04  0.92964561579E+02 0.  0.
    5000000    2    1    2    0    0 -0.63513558865E+03 -0.62988452030E+03  0.55835243105E+03  0.12131901447E+04  0.59993430063E+03 0.  0.
         23    2    4    4    0    0 -0.41156598279E+03 -0.70797711297E+03  0.43436054880E+03  0.93119719423E+03  0.88549294242E+02 0.  0.
         23    2    4    4    0    0 -0.22356960587E+03  0.78092592675E+02  0.12399188225E+03  0.28199295048E+03  0.89800977480E+02 0.  0.
          4    1    3    3  502    0  0.32441709188E+03  0.37643093187E+03  0.58890501947E+03  0.77055552554E+03  0.00000000000E+00 0. -1.
         -4    1    3    3    0  502  0.31071849678E+03  0.25345358842E+03  0.54851568886E+03  0.67945137181E+03  0.00000000000E+00 0.  1.
         11    1    5    5    0    0 -0.22756522658E+03 -0.47459677347E+03  0.26875836547E+03  0.59098146227E+03  0.00000000000E+00 0.  1.
        -11    1    5    5    0    0 -0.18400075620E+03 -0.23338033950E+03  0.16560218333E+03  0.34021573196E+03  0.00000000000E+00 0. -1.
          1    1    6    6  503    0 -0.10060956794E+03  0.42756224691E+02  0.10693677297E+03  0.15292433856E+03  0.00000000000E+00 0. -1.
         -1    1    6    6    0  503 -0.12296003793E+03  0.35336367984E+02  0.17055109280E+02  0.12906861192E+03  0.00000000000E+00 0.  1.
<mgrwt>
<rscale>  0 0.97934871E+03</rscale>
<asrwt>0</asrwt>
<pdfrwt beam="1">  1        2 0.33530539E+00 0.97934871E+03</pdfrwt>
<pdfrwt beam="2">  1       -2 0.74417224E-01 0.97934871E+03</pdfrwt>
<totfact> 0.86815181E+00</totfact>
</mgrwt>
</event>
<event>
12    1  0.1418317E-007  0.3163233E+03  0.7818608E-02  0.1077354E+00
          2   -1    0    0  501    0  0.00000000000E+00  0.00000000000E+00  0.63823719395E+03  0.63823719395E+03  0.00000000000E+00 0. -1.
         -2   -1    0    0    0  501 -0.00000000000E+00 -0.00000000000E+00 -0.28804093271E+03  0.28804093271E+03  0.00000000000E+00 0.  1.
         23    2    1    2    0    0  0.77344606399E+02  0.15143632116E+03  0.21327612775E+03  0.28776720965E+03  0.91695762047E+02 0.  0.
    5000000    2    1    2    0    0 -0.77344606399E+02 -0.15143632116E+03  0.13692013349E+03  0.63851091701E+03  0.60002826657E+03 0.  0.
         23    2    4    4    0    0 -0.20737612242E+03 -0.19540478239E+03 -0.12883244481E+03  0.32590175309E+03  0.91794709574E+02 0.  0.
         23    2    4    4    0    0  0.13003151602E+03  0.43968461224E+02  0.26575257830E+03  0.31260916392E+03  0.90877036431E+02 0.  0.
          1    1    3    3  502    0 -0.18783536284E+02  0.22952242958E+02  0.54383413526E+02  0.61944994623E+02  0.00000000000E+00 0. -1.
         -1    1    3    3    0  502  0.96128142683E+02  0.12848407820E+03  0.15889271422E+03  0.22582221503E+03  0.00000000000E+00 0.  1.
         11    1    5    5    0    0 -0.10496358669E+03 -0.14146794708E+03 -0.41698121215E+02  0.18102283804E+03  0.00000000000E+00 0.  1.
        -11    1    5    5    0    0 -0.10241253573E+03 -0.53936835309E+02 -0.87134323598E+02  0.14487891505E+03  0.00000000000E+00 0. -1.
          4    1    6    6  503    0  0.69461456753E+02 -0.91466333331E+01  0.62174352051E+02  0.93670726103E+02  0.00000000000E+00 0. -1.
         -4    1    6    6    0  503  0.60570059264E+02  0.53115094557E+02  0.20357822625E+03  0.21893843782E+03  0.00000000000E+00 0.  1.
<mgrwt>
<rscale>  0 0.31632325E+03</rscale>
<asrwt>0</asrwt>
<pdfrwt beam="1">  1        2 0.98190337E-01 0.31632325E+03</pdfrwt>
<pdfrwt beam="2">  1       -2 0.44313990E-01 0.31632325E+03</pdfrwt>
<totfact> 0.23007825E+02</totfact>
</mgrwt>
</event>
<event>
12    1  0.1418317E-007  0.6827105E+03  0.7818608E-02  0.9747265E-01
          2   -1    0    0  501    0  0.00000000000E+00  0.00000000000E+00  0.10208154029E+04  0.10208154029E+04  0.00000000000E+00 0. -1.
         -2   -1    0    0    0  501 -0.00000000000E+00 -0.00000000000E+00 -0.48542908428E+03  0.48542908428E+03  0.00000000000E+00 0.  1.
         23    2    1    2    0    0  0.62443178366E+02 -0.56685926203E+03  0.17400508157E+03  0.60301342982E+03  0.90104687222E+02 0.  0.
    5000000    2    1    2    0    0 -0.62443178366E+02  0.56685926203E+03  0.36138123704E+03  0.90323105734E+03  0.60000114248E+03 0.  0.
         23    2    4    4    0    0 -0.43947447454E+02  0.66356149870E+03  0.37431402727E+03  0.76865206131E+03  0.92031297097E+02 0.  0.
         23    2    4    4    0    0 -0.18495730912E+02 -0.96702236671E+02 -0.12932790228E+02  0.13457899603E+03  0.90834104117E+02 0.  0.
          3    1    3    3  502    0  0.22707287746E+02 -0.29666745176E+03  0.13649961112E+03  0.32735201494E+03  0.00000000000E+00 0. -1.
         -3    1    3    3    0  502  0.39735890620E+02 -0.27019181028E+03  0.37505470454E+02  0.27566141489E+03  0.00000000000E+00 0.  1.
         13    1    5    5    0    0 -0.64506217119E+02  0.44039769739E+03  0.27756992912E+03  0.52455338095E+03  0.00000000000E+00 0. -1.
        -13    1    5    5    0    0  0.20558769665E+02  0.22316380131E+03  0.96744098146E+02  0.24409868036E+03  0.00000000000E+00 0.  1.
          4    1    6    6  503    0 -0.48115266292E+02 -0.44377360990E+02 -0.30107106426E+02  0.72047670858E+02  0.00000000000E+00 0. -1.
         -4    1    6    6    0  503  0.29619535380E+02 -0.52324875680E+02  0.17174316198E+02  0.62531325174E+02  0.00000000000E+00 0.  1.
<mgrwt>
<rscale>  0 0.68271052E+03</rscale>
<asrwt>0</asrwt>
<pdfrwt beam="1">  1        2 0.15704852E+00 0.68271052E+03</pdfrwt>
<pdfrwt beam="2">  1       -2 0.74681398E-01 0.68271052E+03</pdfrwt>
<totfact> 0.40267002E+01</totfact>
</mgrwt>
</event>
<event>
12    1  0.1418317E-007  0.4599227E+03  0.7818608E-02  0.1024804E+00
          2   -1    0    0  501    0  0.00000000000E+00  0.00000000000E+00  0.38343595761E+03  0.38343595761E+03  0.00000000000E+00 0. -1.
         -2   -1    0    0    0  501 -0.00000000000E+00 -0.00000000000E+00 -0.93471179201E+03  0.93471179201E+03  0.00000000000E+00 0.  1.
         23    2    1    2    0    0 -0.34739248469E+03  0.25507303068E+03 -0.31781763138E+03  0.54339839385E+03  0.92357881197E+02 0.  0.
    5000000    2    1    2    0    0  0.34739248469E+03 -0.25507303068E+03 -0.23345820301E+03  0.77474935577E+03  0.59999170188E+03 0.  0.
         23    2    4    4    0    0  0.25834986893E+03 -0.60337036503E+02 -0.40067758567E+03  0.48933452117E+03  0.92306734348E+02 0.  0.
         23    2    4    4    0    0  0.89042615762E+02 -0.19473599418E+03  0.16721938266E+03  0.28541483460E+03  0.87456337820E+02 0.  0.
          3    1    3    3  502    0 -0.24434901072E+03  0.20060484903E+03 -0.27567945861E+03  0.41946145042E+03  0.00000000000E+00 0. -1.
         -3    1    3    3    0  502 -0.10304347397E+03  0.54468181652E+02 -0.42138172773E+02  0.12393694342E+03  0.00000000000E+00 0.  1.
         13    1    5    5    0    0  0.22994828986E+03 -0.39833038093E+02 -0.28439605962E+03  0.36789129598E+03  0.00000000000E+00 0. -1.
        -13    1    5    5    0    0  0.28401579067E+02 -0.20503998411E+02 -0.11628152605E+03  0.12144322519E+03  0.00000000000E+00 0.  1.
          3    1    6    6  503    0  0.25437202694E+02 -0.18708500572E+02  0.64738426761E+02  0.72028627462E+02  0.00000000000E+00 0. -1.
         -3    1    6    6    0  503  0.63605413068E+02 -0.17602749360E+03  0.10248095590E+03  0.21338620714E+03  0.00000000000E+00 0.  1.
<mgrwt>
<rscale>  0 0.45992272E+03</rscale>
<asrwt>0</asrwt>
<pdfrwt beam="1">  1        2 0.58990148E-01 0.45992272E+03</pdfrwt>
<pdfrwt beam="2">  1       -2 0.14380181E+00 0.45992272E+03</pdfrwt>
<totfact> 0.29053578E+01</totfact>
</mgrwt>
</event>
<event>
12    1  0.1855535E-007  0.1408425E+04  0.7818608E-02  0.8947743E-01
         -2   -1    0    0    0  501 -0.00000000000E+00  0.00000000000E+00  0.12353645036E+04  0.12353645036E+04  0.00000000000E+00 0.  1.
          2   -1    0    0  501    0  0.00000000000E+00 -0.00000000000E+00 -0.16703394523E+04  0.16703394523E+04  0.00000000000E+00 0. -1.
         23    2    1    2    0    0 -0.89299033877E+02 -0.13494644735E+04 -0.44361899628E+03  0.14261751543E+04  0.90272222322E+02 0.  0.
    5000000    2    1    2    0    0  0.89299033877E+02  0.13494644735E+04  0.86440476233E+01  0.14795288016E+04  0.59991838829E+03 0.  0.
         23    2    4    4    0    0 -0.22474797481E+03  0.66164208802E+03 -0.93367916385E+02  0.71109418260E+03  0.93034745711E+02 0.  0.
         23    2    4    4    0    0  0.31404700868E+03  0.68782238547E+03  0.10201196401E+03  0.76843461902E+03  0.91433939461E+02 0.  0.
          1    1    3    3  502    0 -0.84770353731E+02 -0.60118715705E+03 -0.19857771209E+03  0.63878409374E+03  0.00000000000E+00 0. -1.
         -1    1    3    3    0  502 -0.45286801452E+01 -0.74827731644E+03 -0.24504128418E+03  0.78739106053E+03  0.00000000000E+00 0.  1.
         13    1    5    5    0    0 -0.93214681141E+02  0.21636408314E+03  0.85352971259E+01  0.23574402336E+03  0.00000000000E+00 0. -1.
        -13    1    5    5    0    0 -0.13153329366E+03  0.44527800488E+03 -0.10190321351E+03  0.47535015924E+03  0.00000000000E+00 0.  1.
          1    1    6    6  503    0  0.66323361516E+02  0.24834909527E+03  0.40237306792E+02  0.26018282469E+03  0.00000000000E+00 0. -1.
         -1    1    6    6    0  503  0.24772364717E+03  0.43947329020E+03  0.61774657217E+02  0.50825179433E+03  0.00000000000E+00 0.  1.
<mgrwt>
<rscale>  0 0.14084250E+04</rscale>
<asrwt>0</asrwt>
<pdfrwt beam="1">  1        2 0.25697530E+00 0.14084250E+04</pdfrwt>
<pdfrwt beam="2">  1       -2 0.19005608E+00 0.14084250E+04</pdfrwt>
<totfact> 0.14982123E+00</totfact>
</mgrwt>
</event>
<event>
12    1  0.1418317E-007  0.8414175E+03  0.7818608E-02  0.9501929E-01
          2   -1    0    0  501    0  0.00000000000E+00  0.00000000000E+00  0.43801632983E+03  0.43801632983E+03  0.00000000000E+00 0. -1.
         -2   -1    0    0    0  501 -0.00000000000E+00 -0.00000000000E+00 -0.17301948380E+04  0.17301948380E+04  0.00000000000E+00 0.  1.
         23    2    1    2    0    0 -0.31359548057E+03 -0.68129167653E+03 -0.38962492015E+03  0.85038990050E+03  0.94100640446E+02 0.  0.
    5000000    2    1    2    0    0  0.31359548057E+03  0.68129167653E+03 -0.90255358804E+03  0.13178212673E+04  0.59962441530E+03 0.  0.
         23    2    4    4    0    0  0.44846718885E+03  0.35258827367E+03 -0.66450910242E+03  0.88038621591E+03  0.89812202788E+02 0.  0.
         23    2    4    4    0    0 -0.13487170828E+03  0.32870340286E+03 -0.23804448563E+03  0.43743505143E+03  0.91912688650E+02 0.  0.
          4    1    3    3  502    0 -0.66383204882E+02 -0.24875167834E+03 -0.14255122193E+03  0.29428723765E+03  0.00000000000E+00 0. -1.
         -4    1    3    3    0  502 -0.24721227569E+03 -0.43253999819E+03 -0.24707369822E+03  0.55610266286E+03  0.00000000000E+00 0.  1.
         11    1    5    5    0    0  0.17309654477E+03  0.11954169495E+03 -0.30973550160E+03  0.37441783023E+03  0.00000000000E+00 0.  1.
        -11    1    5    5    0    0  0.27537064408E+03  0.23304657872E+03 -0.35477360081E+03  0.50596838568E+03  0.00000000000E+00 0. -1.
          4    1    6    6  503    0 -0.98223512163E+02  0.21006785792E+03 -0.20356538857E+03  0.30856965291E+03  0.00000000000E+00 0. -1.
         -4    1    6    6    0  503 -0.36648196117E+02  0.11863554494E+03 -0.34479097060E+02  0.12886539853E+03  0.00000000000E+00 0.  1.
<mgrwt>
<rscale>  0 0.84141746E+03</rscale>
<asrwt>0</asrwt>
<pdfrwt beam="1">  1        2 0.67387128E-01 0.84141746E+03</pdfrwt>
<pdfrwt beam="2">  1       -2 0.26618382E+00 0.84141746E+03</pdfrwt>
<totfact> 0.37435055E+00</totfact>
</mgrwt>
</event>
<event>
12    1  0.1418317E-007  0.1007192E+04  0.7818608E-02  0.9300691E-01
         -2   -1    0    0    0  501 -0.00000000000E+00  0.00000000000E+00  0.10114704785E+04  0.10114704785E+04  0.00000000000E+00 0.  1.
          2   -1    0    0  501    0  0.00000000000E+00 -0.00000000000E+00 -0.20859448231E+04  0.20859448231E+04  0.00000000000E+00 0. -1.
         23    2    1    2    0    0  0.12671453437E+03 -0.95027637869E+03  0.55678309987E+03  0.11124469807E+04  0.91918961033E+02 0.  0.
    5000000    2    1    2    0    0 -0.12671453437E+03  0.95027637869E+03 -0.16312574445E+04  0.19849683210E+04  0.60001384645E+03 0.  0.
         23    2    4    4    0    0  0.13754253591E+03  0.55880656043E+03 -0.54615290469E+03  0.79858470359E+03  0.90949504338E+02 0.  0.
         23    2    4    4    0    0 -0.26425707028E+03  0.39146981827E+03 -0.10851045398E+04  0.11863836174E+04  0.83509325861E+02 0.  0.
          2    1    3    3  502    0  0.56581346602E+02 -0.29547727406E+03  0.22057896054E+03  0.37304603751E+03  0.00000000000E+00 0. -1.
         -2    1    3    3    0  502  0.70133187770E+02 -0.65479910463E+03  0.33620413933E+03  0.73940094317E+03  0.00000000000E+00 0.  1.
         13    1    5    5    0    0  0.47553584421E+02  0.64536101259E+02 -0.79397594245E+02  0.11282831971E+03  0.00000000000E+00 0.  1.
        -13    1    5    5    0    0  0.89988951486E+02  0.49427045917E+03 -0.46675531045E+03  0.68575638388E+03  0.00000000000E+00 0. -1.
          1    1    6    6  503    0 -0.13795635318E+03  0.19481356925E+03 -0.44569089454E+03  0.50559336984E+03  0.00000000000E+00 0. -1.
         -1    1    6    6    0  503 -0.12630071710E+03  0.19665624902E+03 -0.63941364524E+03  0.68079024753E+03  0.00000000000E+00 0.  1.
<mgrwt>
<rscale>  0 0.10071923E+04</rscale>
<asrwt>0</asrwt>
<pdfrwt beam="1">  1        2 0.32091459E+00 0.10071923E+04</pdfrwt>
<pdfrwt beam="2">  1       -2 0.15561084E+00 0.10071923E+04</pdfrwt>
<totfact> 0.16215903E+00</totfact>
</mgrwt>
</event>
<event>
12    1  0.1418317E-007  0.6389879E+03  0.7818608E-02  0.9827665E-01
          1   -1    0    0  501    0  0.00000000000E+00  0.00000000000E+00  0.13644645541E+04  0.13644645541E+04  0.00000000000E+00 0. -1.
         -1   -1    0    0    0  501 -0.00000000000E+00 -0.00000000000E+00 -0.42876103380E+03  0.42876103380E+03  0.00000000000E+00 0.  1.
         23    2    1    2    0    0 -0.50713936382E+03  0.49243583311E+02 -0.63302522460E+02  0.52135473875E+03  0.90489167492E+02 0.  0.
    5000000    2    1    2    0    0  0.50713936382E+03 -0.49243583311E+02  0.99900604277E+03  0.12718708492E+04  0.60002259843E+03 0.  0.
         23    2    4    4    0    0  0.27427878987E+03  0.25437995007E+03  0.58723797413E+03  0.70240472822E+03  0.92660403619E+02 0.  0.
         23    2    4    4    0    0  0.23286057395E+03 -0.30362353338E+03  0.41176806864E+03  0.56946612094E+03  0.91254718392E+02 0.  0.
          1    1    3    3  502    0 -0.99408123669E+02 -0.21547505198E+02 -0.30665959354E+02  0.10623874573E+03  0.00000000000E+00 0. -1.
         -1    1    3    3    0  502 -0.40773124015E+03  0.70791088508E+02 -0.32636563106E+02  0.41511599301E+03  0.00000000000E+00 0.  1.
         11    1    5    5    0    0  0.50740161115E+02  0.20234077066E+02  0.44502685273E+02  0.70459000995E+02  0.00000000000E+00 0.  1.
        -11    1    5    5    0    0  0.22353862875E+03  0.23414587300E+03  0.54273528885E+03  0.63194572722E+03  0.00000000000E+00 0. -1.
          4    1    6    6  503    0  0.15094206713E+03 -0.16992007355E+03  0.30240341672E+03  0.37829111207E+03  0.00000000000E+00 0. -1.
         -4    1    6    6    0  503  0.81918506818E+02 -0.13370345983E+03  0.10936465192E+03  0.19117500888E+03  0.00000000000E+00 0.  1.
<mgrwt>
<rscale>  0 0.63898789E+03</rscale>
<asrwt>0</asrwt>
<pdfrwt beam="1">  1        1 0.20991762E+00 0.63898789E+03</pdfrwt>
<pdfrwt beam="2">  1       -1 0.65963237E-01 0.63898789E+03</pdfrwt>
<totfact> 0.19894986E+01</totfact>
</mgrwt>
</event>
<event>
12    1  0.1418317E-007  0.7617702E+03  0.7818608E-02  0.9617064E-01
          2   -1    0    0  501    0  0.00000000000E+00  0.00000000000E+00  0.24391269219E+04  0.24391269219E+04  0.00000000000E+00 0. -1.
         -2   -1    0    0    0  501 -0.00000000000E+00 -0.00000000000E+00 -0.42223741189E+03  0.42223741189E+03  0.00000000000E+00 0.  1.
         23    2    1    2    0    0 -0.71449331570E+03  0.21042469670E+03  0.16925635374E+04  0.18514569652E+04  0.91336271592E+02 0.  0.
    5000000    2    1    2    0    0  0.71449331570E+03 -0.21042469670E+03  0.32432597257E+03  0.10099073686E+04  0.59995525291E+03 0.  0.
         23    2    4    4    0    0  0.57929160698E+03 -0.24546164714E+03 -0.10289738488E+02  0.63614702363E+03  0.93525241652E+02 0.  0.
         23    2    4    4    0    0  0.13520170872E+03  0.35036950440E+02  0.33461571106E+03  0.37376034496E+03  0.90675418060E+02 0.  0.
          3    1    3    3  502    0 -0.39481331012E+03  0.83576332415E+02  0.83187744159E+03  0.92459863239E+03  0.00000000000E+00 0. -1.
         -3    1    3    3    0  502 -0.31968000558E+03  0.12684836428E+03  0.86068609585E+03  0.92685833280E+03  0.00000000000E+00 0.  1.
         11    1    5    5    0    0  0.48918943764E+03 -0.22406737879E+03  0.20785440349E+02  0.53846497627E+03  0.00000000000E+00 0. -1.
        -11    1    5    5    0    0  0.90102169338E+02 -0.21394268352E+02 -0.31075178837E+02  0.97682047365E+02  0.00000000000E+00 0.  1.
          3    1    6    6  503    0  0.53569942051E+02 -0.61936828277E+01  0.22317634567E+03  0.22959917610E+03  0.00000000000E+00 0. -1.
         -3    1    6    6    0  503  0.81631766672E+02  0.41230633268E+02  0.11143936539E+03  0.14416116886E+03  0.00000000000E+00 0.  1.
<mgrwt>
<rscale>  0 0.76177024E+03</rscale>
<asrwt>0</asrwt>
<pdfrwt beam="1">  1        2 0.37525029E+00 0.76177024E+03</pdfrwt>
<pdfrwt beam="2">  1       -2 0.64959603E-01 0.76177024E+03</pdfrwt>
<totfact> 0.86248084E+00</totfact>
</mgrwt>
</event>
<event>
12    1  0.1418317E-007  0.5098806E+03  0.7818608E-02  0.1011232E+00
          2   -1    0    0  501    0  0.00000000000E+00  0.00000000000E+00  0.16304196382E+04  0.16304196382E+04  0.00000000000E+00 0. -1.
         -2   -1    0    0    0  501 -0.00000000000E+00 -0.00000000000E+00 -0.19557851294E+03  0.19557851294E+03  0.00000000000E+00 0.  1.
         23    2    1    2    0    0 -0.69933926866E+02 -0.32893352464E+03  0.86589884462E+03  0.93338392310E+03  0.91305646244E+02 0.  0.
    5000000    2    1    2    0    0  0.69933926866E+02  0.32893352464E+03  0.56894228064E+03  0.89261422803E+03  0.59998068604E+03 0.  0.
         23    2    4    4    0    0  0.31304236276E+03  0.12642481800E+03  0.36572164005E+03  0.50624566974E+03  0.92485699658E+02 0.  0.
         23    2    4    4    0    0 -0.24310843589E+03  0.20250870664E+03  0.20322064059E+03  0.38636855829E+03  0.88716098907E+02 0.  0.
          3    1    3    3  502    0  0.18401712193E+02 -0.11535030026E+03  0.26700392186E+03  0.29143680116E+03  0.00000000000E+00 0. -1.
         -3    1    3    3    0  502 -0.88335639059E+02 -0.21358322437E+03  0.59889492276E+03  0.64194712194E+03  0.00000000000E+00 0.  1.
         13    1    5    5    0    0  0.21108453211E+02 -0.14490674350E+02  0.32286156381E+02  0.41206095835E+02  0.00000000000E+00 0. -1.
        -13    1    5    5    0    0  0.29193390955E+03  0.14091549235E+03  0.33343548367E+03  0.46503957391E+03  0.00000000000E+00 0.  1.
          1    1    6    6  503    0 -0.14255704768E+03  0.79667594357E+02  0.64612304921E+02  0.17562513311E+03  0.00000000000E+00 0. -1.
         -1    1    6    6    0  503 -0.10055138822E+03  0.12284111228E+03  0.13860833567E+03  0.21074342518E+03  0.00000000000E+00 0.  1.
<mgrwt>
<rscale>  0 0.50988063E+03</rscale>
<asrwt>0</asrwt>
<pdfrwt beam="1">  1        2 0.25083378E+00 0.50988063E+03</pdfrwt>
<pdfrwt beam="2">  1       -2 0.30089003E-01 0.50988063E+03</pdfrwt>
<totfact> 0.11445271E+02</totfact>
</mgrwt>
</event>
<event>
12    1  0.1418317E-007  0.8666120E+03  0.7818608E-02  0.9468308E-01
          2   -1    0    0  501    0  0.00000000000E+00  0.00000000000E+00  0.31419905396E+04  0.31419905396E+04  0.00000000000E+00 0.  1.
         -2   -1    0    0    0  501 -0.00000000000E+00 -0.00000000000E+00 -0.57131328830E+03  0.57131328830E+03  0.00000000000E+00 0. -1.
         23    2    1    2    0    0 -0.79615425419E+03  0.18227642812E+02  0.25947844158E+04  0.27157295710E+04  0.89928276335E+02 0.  0.
    5000000    2    1    2    0    0  0.79615425419E+03 -0.18227642812E+02 -0.24107164569E+02  0.99757425684E+03  0.60031608265E+03 0.  0.
         23    2    4    4    0    0 -0.23786232432E+02 -0.87785515439E+02  0.97284904448E+02  0.16078034567E+03  0.90077107775E+02 0.  0.
         23    2    4    4    0    0  0.81994048662E+03  0.69557872627E+02 -0.12139206902E+03  0.83679391117E+03  0.91363647606E+02 0.  0.
          4    1    3    3  502    0 -0.47469985735E+03  0.16662630694E+02  0.13961494481E+04  0.14747375629E+04  0.00000000000E+00 0. -1.
         -4    1    3    3    0  502 -0.32145439684E+03  0.15650121179E+01  0.11986349677E+04  0.12409920082E+04  0.00000000000E+00 0.  1.
         11    1    5    5    0    0 -0.15688830072E+02  0.77666787008E+01 -0.72282789001E+01  0.18939606725E+02  0.00000000000E+00 0.  1.
        -11    1    5    5    0    0 -0.80974023606E+01 -0.95552194139E+02  0.10451318335E+03  0.14184073894E+03  0.00000000000E+00 0. -1.
          2    1    6    6  503    0  0.13492959227E+03  0.92872376617E+00  0.12301463492E+02  0.13549237396E+03  0.00000000000E+00 0. -1.
         -2    1    6    6    0  503  0.68501089436E+03  0.68629148861E+02 -0.13369353251E+03  0.70130153721E+03  0.00000000000E+00 0.  1.
<mgrwt>
<rscale>  0 0.86661204E+03</rscale>
<asrwt>0</asrwt>
<pdfrwt beam="1">  1        2 0.48338315E+00 0.86661204E+03</pdfrwt>
<pdfrwt beam="2">  1       -2 0.87894353E-01 0.86661204E+03</pdfrwt>
<totfact> 0.16541283E+00</totfact>
</mgrwt>
</event>
<event>
12    1  0.1418317E-007  0.9282753E+03  0.7818608E-02  0.9390910E-01
          1   -1    0    0  501    0  0.00000000000E+00  0.00000000000E+00  0.26035319472E+04  0.26035319472E+04  0.00000000000E+00 0.  1.
         -1   -1    0    0    0  501 -0.00000000000E+00 -0.00000000000E+00 -0.35792405341E+03  0.35792405341E+03  0.00000000000E+00 0. -1.
         23    2    1    2    0    0  0.17603249991E+03  0.85000515537E+03  0.10983474030E+04  0.14028075164E+04  0.89474605473E+02 0.  0.
    5000000    2    1    2    0    0 -0.17603249991E+03 -0.85000515537E+03  0.11472604908E+04  0.15586484843E+04  0.59973515710E+03 0.  0.
         23    2    4    4    0    0 -0.31726731919E+03 -0.49218056948E+03  0.40971692851E+03  0.72076397509E+03  0.93447747373E+02 0.  0.
         23    2    4    4    0    0  0.14123481928E+03 -0.35782458589E+03  0.73754356229E+03  0.83788450920E+03  0.10047007532E+03 0.  0.
          3    1    3    3  502    0  0.10412904770E+03  0.57321030896E+03  0.79858359449E+03  0.98850830763E+03  0.00000000000E+00 0. -1.
         -3    1    3    3    0  502  0.71903452205E+02  0.27679484641E+03  0.29976380854E+03  0.41429920872E+03  0.00000000000E+00 0.  1.
         11    1    5    5    0    0 -0.28677422021E+03 -0.37719460355E+03  0.32000284399E+03  0.57176659791E+03  0.00000000000E+00 0. -1.
        -11    1    5    5    0    0 -0.30493098972E+02 -0.11498596594E+03  0.89714084511E+02  0.14899737718E+03  0.00000000000E+00 0.  1.
          3    1    6    6  503    0  0.59461088881E+02 -0.26451361191E+03  0.54708736543E+03  0.61057977152E+03  0.00000000000E+00 0. -1.
         -3    1    6    6    0  503  0.81773730397E+02 -0.93310973974E+02  0.19045619686E+03  0.22730473768E+03  0.00000000000E+00 0.  1.
<mgrwt>
<rscale>  0 0.92827532E+03</rscale>
<asrwt>0</asrwt>
<pdfrwt beam="1">  1        1 0.40054336E+00 0.92827532E+03</pdfrwt>
<pdfrwt beam="2">  1       -1 0.55065241E-01 0.92827532E+03</pdfrwt>
<totfact> 0.39428221E+00</totfact>
</mgrwt>
</event>
<event>
12    1  0.1418317E-007  0.1317426E+04  0.7818608E-02  0.9015859E-01
         -1   -1    0    0    0  501 -0.00000000000E+00  0.00000000000E+00  0.14233869979E+04  0.14233869979E+04  0.00000000000E+00 0.  1.
          1   -1    0    0  501    0  0.00000000000E+00 -0.00000000000E+00 -0.12383073812E+04  0.12383073812E+04  0.00000000000E+00 0. -1.
         23    2    1    2    0    0  0.28991383379E+03 -0.12204062019E+04 -0.81460072400E+01  0.12578592245E+04  0.93285275447E+02 0.  0.
    5000000    2    1    2    0    0 -0.28991383379E+03  0.12204062019E+04  0.19322562387E+03  0.14038351546E+04  0.59997972540E+03 0.  0.
         23    2    4    4    0    0 -0.45693798492E+03  0.76095642497E+03  0.14955626264E+03  0.90468073005E+03  0.90736678765E+02 0.  0.
         23    2    4    4    0    0  0.16702415112E+03  0.45944977692E+03  0.43669361233E+02  0.49915442453E+03  0.90867826248E+02 0.  0.
          3    1    3    3  502    0  0.12754298270E+03 -0.62019599650E+03 -0.46592644378E+02  0.63488673086E+03  0.00000000000E+00 0. -1.
         -3    1    3    3    0  502  0.16237085109E+03 -0.60021020539E+03  0.38446637138E+02  0.62297249365E+03  0.00000000000E+00 0.  1.
         13    1    5    5    0    0 -0.29143096751E+03  0.42734603900E+03  0.53060168032E+02  0.51997310248E+03  0.00000000000E+00 0.  1.
        -13    1    5    5    0    0 -0.16550701740E+03  0.33361038597E+03  0.96496094603E+02  0.38470762757E+03  0.00000000000E+00 0. -1.
          1    1    6    6  503    0  0.76423321939E+02  0.15902236511E+03 -0.24263484187E+02  0.17809366470E+03  0.00000000000E+00 0. -1.
         -1    1    6    6    0  503  0.90600829186E+02  0.30042741182E+03  0.67932845419E+02  0.32106075984E+03  0.00000000000E+00 0.  1.
<mgrwt>
<rscale>  0 0.13174261E+04</rscale>
<asrwt>0</asrwt>
<pdfrwt beam="1">  1        1 0.19050883E+00 0.13174261E+04</pdfrwt>
<pdfrwt beam="2">  1       -1 0.21898261E+00 0.13174261E+04</pdfrwt>
<totfact> 0.10833885E+00</totfact>
</mgrwt>
</event>
<event>
12    1  0.1418317E-007  0.6459603E+03  0.7818608E-02  0.9814389E-01
          2   -1    0    0  501    0  0.00000000000E+00  0.00000000000E+00  0.29269772879E+04  0.29269772879E+04  0.00000000000E+00 0. -1.
         -2   -1    0    0    0  501 -0.00000000000E+00 -0.00000000000E+00 -0.15511617043E+03  0.15511617043E+03  0.00000000000E+00 0.  1.
         23    2    1    2    0    0  0.40930564716E+03 -0.31348061382E+03  0.77660566640E+03  0.93587844038E+03  0.83371974086E+02 0.  0.
    5000000    2    1    2    0    0 -0.40930564716E+03  0.31348061382E+03  0.19952554511E+04  0.21462150180E+04  0.59949427034E+03 0.  0.
         23    2    4    4    0    0 -0.52971032623E+03  0.13271462859E+03  0.14676891559E+04  0.15686106465E+04  0.90673587903E+02 0.  0.
         23    2    4    4    0    0  0.12040467908E+03  0.18076598522E+03  0.52756629520E+03  0.57760437148E+03  0.90149797406E+02 0.  0.
          2    1    3    3  502    0  0.22655831569E+03 -0.20805586977E+03  0.51415563505E+03  0.59914266449E+03  0.00000000000E+00 0. -1.
         -2    1    3    3    0  502  0.18274733147E+03 -0.10542474405E+03  0.26245003135E+03  0.33673577590E+03  0.00000000000E+00 0.  1.
         11    1    5    5    0    0 -0.45313694391E+03  0.12878727497E+03  0.11717544982E+04  0.12629045317E+04  0.00000000000E+00 0. -1.
        -11    1    5    5    0    0 -0.76573382323E+02  0.39273536239E+01  0.29593465772E+03  0.30570611480E+03  0.00000000000E+00 0.  1.
          1    1    6    6  503    0  0.37524977313E+02  0.11127822463E+03  0.19227992007E+03  0.22530542573E+03  0.00000000000E+00 0. -1.
         -1    1    6    6    0  503  0.82879701762E+02  0.69487760590E+02  0.33528637512E+03  0.35229894575E+03  0.00000000000E+00 0.  1.
<mgrwt>
<rscale>  0 0.64596034E+03</rscale>
<asrwt>0</asrwt>
<pdfrwt beam="1">  1        2 0.45030416E+00 0.64596034E+03</pdfrwt>
<pdfrwt beam="2">  1       -2 0.23864028E-01 0.64596034E+03</pdfrwt>
<totfact> 0.32346479E+01</totfact>
</mgrwt>
</event>
<event>
12    1  0.1418317E-007  0.1799683E+04  0.7818608E-02  0.8706468E-01
         -2   -1    0    0    0  501 -0.00000000000E+00  0.00000000000E+00  0.12176823594E+04  0.12176823594E+04  0.00000000000E+00 0. -1.
          2   -1    0    0  501    0  0.00000000000E+00 -0.00000000000E+00 -0.30402573208E+04  0.30402573208E+04  0.00000000000E+00 0.  1.
         23    2    1    2    0    0  0.36955740359E+03  0.17564081019E+04 -0.14929005012E+04  0.23369594406E+04  0.10528734810E+03 0.  0.
    5000000    2    1    2    0    0 -0.36955740359E+03 -0.17564081019E+04 -0.32967446021E+03  0.19209802396E+04  0.59994811140E+03 0.  0.
         23    2    4    4    0    0 -0.17787724449E+03 -0.65815978703E+03 -0.40653378684E+03  0.79874420879E+03  0.88926778141E+02 0.  0.
         23    2    4    4    0    0 -0.19168015910E+03 -0.10982483148E+04  0.76859326629E+02  0.11222360308E+04  0.10303255952E+03 0.  0.
          4    1    3    3  502    0  0.14699000174E+03  0.91398714639E+03 -0.73221244443E+03  0.11803023461E+04  0.00000000000E+00 0. -1.
         -4    1    3    3    0  502  0.22256740185E+03  0.84242095546E+03 -0.76068805680E+03  0.11566570945E+04  0.00000000000E+00 0.  1.
         11    1    5    5    0    0 -0.15237551159E+03 -0.47807845042E+03 -0.33488563172E+03  0.60326253624E+03  0.00000000000E+00 0. -1.
        -11    1    5    5    0    0 -0.25501732903E+02 -0.18008133660E+03 -0.71648155114E+02  0.19548167255E+03  0.00000000000E+00 0.  1.
          2    1    6    6  503    0 -0.52866994677E+02 -0.12737961591E+03  0.24689569783E+02  0.14010731791E+03  0.00000000000E+00 0. -1.
         -2    1    6    6    0  503 -0.13881316442E+03 -0.97086869892E+03  0.52169756846E+02  0.98212871289E+03  0.00000000000E+00 0.  1.
<mgrwt>
<rscale>  0 0.17996833E+04</rscale>
<asrwt>0</asrwt>
<pdfrwt beam="1">  1        2 0.46773190E+00 0.17996833E+04</pdfrwt>
<pdfrwt beam="2">  1       -2 0.18733575E+00 0.17996833E+04</pdfrwt>
<totfact> 0.24223906E-01</totfact>
</mgrwt>
</event>
<event>
12    1  0.1418317E-007  0.5074784E+03  0.7818608E-02  0.1011845E+00
         -2   -1    0    0    0  501 -0.00000000000E+00  0.00000000000E+00  0.11431998965E+03  0.11431998965E+03  0.00000000000E+00 0.  1.
          2   -1    0    0  501    0  0.00000000000E+00 -0.00000000000E+00 -0.35280827601E+04  0.35280827601E+04  0.00000000000E+00 0. -1.
         23    2    1    2    0    0 -0.10422429136E+03  0.46456953064E+03 -0.10296638947E+04  0.11381468935E+04  0.92103547878E+02 0.  0.
    5000000    2    1    2    0    0  0.10422429136E+03 -0.46456953064E+03 -0.23840988758E+04  0.25042558562E+04  0.60056839101E+03 0.  0.
         23    2    4    4    0    0  0.15197304772E+03 -0.33042794000E+03 -0.57234171539E+03  0.68466399455E+03  0.94399764292E+02 0.  0.
         23    2    4    4    0    0 -0.47748756368E+02 -0.13414159064E+03 -0.18117571604E+04  0.18195918617E+04  0.90424691287E+02 0.  0.
          3    1    3    3  502    0 -0.59443956120E+02  0.16391000419E+03 -0.46934260574E+03  0.50068208971E+03  0.00000000000E+00 0. -1.
         -3    1    3    3    0  502 -0.44780335235E+02  0.30065952645E+03 -0.56032128895E+03  0.63746480383E+03  0.00000000000E+00 0.  1.
         13    1    5    5    0    0 -0.10310358265E+02 -0.33022664296E+02 -0.33471004215E+02  0.48136347679E+02  0.00000000000E+00 0.  1.
        -13    1    5    5    0    0  0.16228340599E+03 -0.29740527570E+03 -0.53887071117E+03  0.63652764687E+03  0.00000000000E+00 0. -1.
          3    1    6    6  503    0 -0.38328291885E+02 -0.14434209056E+03 -0.14732878442E+04  0.14808378605E+04  0.00000000000E+00 0. -1.
         -3    1    6    6    0  503 -0.94204644822E+01  0.10200499917E+02 -0.33846931616E+03  0.33875400120E+03  0.00000000000E+00 0.  1.
<mgrwt>
<rscale>  0 0.50747842E+03</rscale>
<asrwt>0</asrwt>
<pdfrwt beam="1">  1        2 0.54278198E+00 0.50747842E+03</pdfrwt>
<pdfrwt beam="2">  1       -2 0.17587690E-01 0.50747842E+03</pdfrwt>
<totfact> 0.23525993E+01</totfact>
</mgrwt>
</event>
<event>
12    1  0.1418317E-007  0.3157041E+03  0.7818608E-02  0.1077644E+00
          2   -1    0    0  501    0  0.00000000000E+00  0.00000000000E+00  0.10313996810E+04  0.10313996810E+04  0.00000000000E+00 0. -1.
         -2   -1    0    0    0  501 -0.00000000000E+00 -0.00000000000E+00 -0.26189648192E+03  0.26189648192E+03  0.00000000000E+00 0.  1.
         23    2    1    2    0    0 -0.22024425904E+03  0.12277756225E+03  0.54030515487E+03  0.60319516614E+03  0.91284635310E+02 0.  0.
    5000000    2    1    2    0    0  0.22024425904E+03 -0.12277756225E+03  0.22919804424E+03  0.69010099680E+03  0.60010480657E+03 0.  0.
         23    2    4    4    0    0  0.44654877644E+02  0.61100044692E+02  0.36744775667E+03  0.38617677291E+03  0.91582599290E+02 0.  0.
         23    2    4    4    0    0  0.17558938140E+03 -0.18387760694E+03 -0.13824971244E+03  0.30392422388E+03  0.92813499459E+02 0.  0.
          4    1    3    3  502    0 -0.14558612008E+03  0.60695461708E+02  0.23669083446E+03  0.28443243231E+03  0.00000000000E+00 0. -1.
         -4    1    3    3    0  502 -0.74658138957E+02  0.62082100539E+02  0.30361432041E+03  0.31876273383E+03  0.00000000000E+00 0.  1.
         11    1    5    5    0    0  0.53694611738E+02  0.80373070465E+02  0.28152742420E+03  0.29765858355E+03  0.00000000000E+00 0. -1.
        -11    1    5    5    0    0 -0.90397340938E+01 -0.19273025773E+02  0.85920332472E+02  0.88518189357E+02  0.00000000000E+00 0.  1.
          3    1    6    6  503    0  0.28638711972E+02 -0.85971934941E+01 -0.50996904450E+02  0.59116595156E+02  0.00000000000E+00 0. -1.
         -3    1    6    6    0  503  0.14695066942E+03 -0.17528041344E+03 -0.87252807988E+02  0.24480762873E+03  0.00000000000E+00 0.  1.
<mgrwt>
<rscale>  0 0.31570409E+03</rscale>
<asrwt>0</asrwt>
<pdfrwt beam="1">  1        2 0.15867687E+00 0.31570409E+03</pdfrwt>
<pdfrwt beam="2">  1       -2 0.40291767E-01 0.31570409E+03</pdfrwt>
<totfact> 0.14814771E+02</totfact>
</mgrwt>
</event>
<event>
12    1  0.1418317E-007  0.8351157E+03  0.7818608E-02  0.9510535E-01
          2   -1    0    0  501    0  0.00000000000E+00  0.00000000000E+00  0.62606901506E+03  0.62606901506E+03  0.00000000000E+00 0. -1.
         -2   -1    0    0    0  501 -0.00000000000E+00 -0.00000000000E+00 -0.25053017474E+04  0.25053017474E+04  0.00000000000E+00 0.  1.
         23    2    1    2    0    0  0.66159553541E+03 -0.35014903134E+03  0.25122610711E+03  0.79488249181E+03  0.91709444870E+02 0.  0.
    5000000    2    1    2    0    0 -0.66159553541E+03  0.35014903134E+03 -0.21304588395E+04  0.23364882706E+04  0.60000797964E+03 0.  0.
         23    2    4    4    0    0  0.71155944723E+02 -0.11811864377E+02 -0.14417533966E+03  0.18668827954E+03  0.94145082411E+02 0.  0.
         23    2    4    4    0    0 -0.73275148013E+03  0.36196089572E+03 -0.19862834998E+04  0.21497999911E+04  0.91528348254E+02 0.  0.
          1    1    3    3  502    0  0.60317590057E+03 -0.30883799510E+03  0.19887301806E+03  0.70622415107E+03  0.00000000000E+00 0. -1.
         -1    1    3    3    0  502  0.58419634844E+02 -0.41311036238E+02  0.52353089055E+02  0.88658340746E+02  0.00000000000E+00 0.  1.
         13    1    5    5    0    0  0.61244762327E+02  0.24445358344E+02 -0.13134839234E+03  0.14697243493E+03  0.00000000000E+00 0. -1.
        -13    1    5    5    0    0  0.99111823955E+01 -0.36257222722E+02 -0.12826947318E+02  0.39715844615E+02  0.00000000000E+00 0.  1.
          3    1    6    6  503    0 -0.45844599242E+03  0.23688907596E+03 -0.13635832265E+04  0.14579603485E+04  0.00000000000E+00 0. -1.
         -3    1    6    6    0  503 -0.27430548771E+03  0.12507181975E+03 -0.62270027330E+03  0.69183964258E+03  0.00000000000E+00 0.  1.
<mgrwt>
<rscale>  0 0.83511571E+03</rscale>
<asrwt>0</asrwt>
<pdfrwt beam="1">  1        2 0.96318313E-01 0.83511571E+03</pdfrwt>
<pdfrwt beam="2">  1       -2 0.38543103E+00 0.83511571E+03</pdfrwt>
<totfact> 0.45458488E-01</totfact>
</mgrwt>
</event>
<event>
12    1  0.1418317E-007  0.7147773E+03  0.7818608E-02  0.9692289E-01
          2   -1    0    0  501    0  0.00000000000E+00  0.00000000000E+00  0.19351379883E+04  0.19351379883E+04  0.00000000000E+00 0.  1.
         -2   -1    0    0    0  501 -0.00000000000E+00 -0.00000000000E+00 -0.36960867582E+03  0.36960867582E+03  0.00000000000E+00 0. -1.
         23    2    1    2    0    0  0.70317957194E+03  0.84097894641E+01  0.98199225375E+03  0.12113975526E+04  0.92967785406E+02 0.  0.
    5000000    2    1    2    0    0 -0.70317957194E+03 -0.84097894641E+01  0.58353705874E+03  0.10933491115E+04  0.60030371129E+03 0.  0.
         23    2    4    4    0    0 -0.53351506703E+03  0.37645525867E+02  0.68237735306E+03  0.87177178614E+03  0.91058677654E+02 0.  0.
         23    2    4    4    0    0 -0.16966450491E+03 -0.46055315331E+02 -0.98840294320E+02  0.22157732538E+03  0.91760400196E+02 0.  0.
          1    1    3    3  502    0  0.46140184631E+03 -0.35867607426E+02  0.66765221789E+03  0.81236545538E+03  0.00000000000E+00 0. -1.
         -1    1    3    3    0  502  0.24177772562E+03  0.44277396890E+02  0.31434003586E+03  0.39903209724E+03  0.00000000000E+00 0.  1.
         13    1    5    5    0    0 -0.45407225367E+03  0.52775867112E+02  0.53529766195E+03  0.70392506035E+03  0.00000000000E+00 0.  1.
        -13    1    5    5    0    0 -0.79442813356E+02 -0.15130341246E+02  0.14707969111E+03  0.16784672579E+03  0.00000000000E+00 0. -1.
          1    1    6    6  503    0 -0.11230974212E+03 -0.54763961508E+02 -0.24582383652E+02  0.12734544845E+03  0.00000000000E+00 0. -1.
         -1    1    6    6    0  503 -0.57354762796E+02  0.87086461769E+01 -0.74257910667E+02  0.94231876933E+02  0.00000000000E+00 0.  1.
<mgrwt>
<rscale>  0 0.71477733E+03</rscale>
<asrwt>0</asrwt>
<pdfrwt beam="1">  1        2 0.29771353E+00 0.71477733E+03</pdfrwt>
<pdfrwt beam="2">  1       -2 0.56862874E-01 0.71477733E+03</pdfrwt>
<totfact> 0.21840638E+01</totfact>
</mgrwt>
</event>
<event>
12    1  0.1418317E-007  0.1878357E+04  0.7818608E-02  0.8665705E-01
          1   -1    0    0  501    0  0.00000000000E+00  0.00000000000E+00  0.30104033384E+04  0.30104033384E+04  0.00000000000E+00 0. -1.
         -1   -1    0    0    0  501 -0.00000000000E+00 -0.00000000000E+00 -0.12373220570E+04  0.12373220570E+04  0.00000000000E+00 0.  1.
         23    2    1    2    0    0  0.16145932243E+04 -0.87555837643E+03  0.13171245260E+04  0.22624283624E+04  0.10124883954E+03 0.  0.
    5000000    2    1    2    0    0 -0.16145932243E+04  0.87555837643E+03  0.45595675536E+03  0.19852970331E+04  0.59999499693E+03 0.  0.
         23    2    4    4    0    0 -0.83412132444E+03  0.14635062725E+03  0.10782964527E+03  0.85837542271E+03  0.89466440220E+02 0.  0.
         23    2    4    4    0    0 -0.78047189983E+03  0.72920774918E+03  0.34812711008E+03  0.11269216104E+04  0.88766565921E+02 0.  0.
          2    1    3    3  502    0  0.38065526141E+03 -0.21065564207E+03  0.26024601475E+03  0.50695385960E+03  0.00000000000E+00 0. -1.
         -2    1    3    3    0  502  0.12339379629E+04 -0.66490273436E+03  0.10568785113E+04  0.17554745028E+04  0.00000000000E+00 0.  1.
         11    1    5    5    0    0 -0.58235460089E+03  0.12455454964E+03  0.40763471843E+02  0.59691907128E+03  0.00000000000E+00 0. -1.
        -11    1    5    5    0    0 -0.25176672355E+03  0.21796077614E+02  0.67066173431E+02  0.26145635143E+03  0.00000000000E+00 0.  1.
          1    1    6    6  503    0 -0.50748360662E+03  0.53012682408E+03  0.23299402641E+03  0.76997420537E+03  0.00000000000E+00 0. -1.
         -1    1    6    6    0  503 -0.27298829321E+03  0.19908092510E+03  0.11513308368E+03  0.35694740498E+03  0.00000000000E+00 0.  1.
<mgrwt>
<rscale>  0 0.18783566E+04</rscale>
<asrwt>0</asrwt>
<pdfrwt beam="1">  1        1 0.46313897E+00 0.18783566E+04</pdfrwt>
<pdfrwt beam="2">  1       -1 0.19035724E+00 0.18783566E+04</pdfrwt>
<totfact> 0.93616518E-02</totfact>
</mgrwt>
</event>
<event>
12    1  0.1418317E-007  0.7148526E+03  0.7818608E-02  0.9692164E-01
         -2   -1    0    0    0  501 -0.00000000000E+00  0.00000000000E+00  0.74156448985E+03  0.74156448985E+03  0.00000000000E+00 0. -1.
          2   -1    0    0  501    0  0.00000000000E+00 -0.00000000000E+00 -0.83842008580E+03  0.83842008580E+03  0.00000000000E+00 0.  1.
         23    2    1    2    0    0  0.62492427654E+03  0.21248816375E+03  0.78496622127E+02  0.67092128152E+03  0.91060832301E+02 0.  0.
    5000000    2    1    2    0    0 -0.62492427654E+03 -0.21248816375E+03 -0.17535221808E+03  0.90906329413E+03  0.59997175035E+03 0.  0.
         23    2    4    4    0    0 -0.22851031199E+03  0.95162733658E+02 -0.28535526863E+03  0.38857900854E+03  0.91066503071E+02 0.  0.
         23    2    4    4    0    0 -0.39641396455E+03 -0.30765089741E+03  0.11000305055E+03  0.52048428559E+03  0.83726426260E+02 0.  0.
          3    1    3    3  502    0  0.32403615123E+03  0.66376234920E+02  0.57949453236E+02  0.33580257742E+03  0.00000000000E+00 0. -1.
         -3    1    3    3    0  502  0.30088812530E+03  0.14611192883E+03  0.20547168892E+02  0.33511870411E+03  0.00000000000E+00 0.  1.
         13    1    5    5    0    0 -0.21203946487E+03  0.64211282929E+02 -0.27258648699E+03  0.35126516538E+03  0.00000000000E+00 0.  1.
        -13    1    5    5    0    0 -0.16470847115E+02  0.30951450729E+02 -0.12768781639E+02  0.37313843161E+02  0.00000000000E+00 0. -1.
          3    1    6    6  503    0 -0.14442879382E+03 -0.66296491783E+02  0.20265803162E+02  0.16020488159E+03  0.00000000000E+00 0.  1.
         -3    1    6    6    0  503 -0.25198517073E+03 -0.24135440562E+03  0.89737247387E+02  0.36027940401E+03  0.00000000000E+00 0. -1.
<mgrwt>
<rscale>  0 0.71485264E+03</rscale>
<asrwt>0</asrwt>
<pdfrwt beam="1">  1        2 0.12898770E+00 0.71485264E+03</pdfrwt>
<pdfrwt beam="2">  1       -2 0.11408685E+00 0.71485264E+03</pdfrwt>
<totfact> 0.19803362E+01</totfact>
</mgrwt>
</event>
<event>
12    1  0.1418317E-007  0.3860031E+03  0.7818608E-02  0.1048737E+00
         -2   -1    0    0    0  501 -0.00000000000E+00  0.00000000000E+00  0.59785677003E+03  0.59785677003E+03  0.00000000000E+00 0.  1.
          2   -1    0    0  501    0  0.00000000000E+00 -0.00000000000E+00 -0.32777223770E+03  0.32777223770E+03  0.00000000000E+00 0. -1.
         23    2    1    2    0    0 -0.12746794448E+03  0.18081010795E+03  0.27274561703E+02  0.24233248124E+03  0.95082899294E+02 0.  0.
    5000000    2    1    2    0    0  0.12746794448E+03 -0.18081010795E+03  0.24280997063E+03  0.68329652650E+03  0.59916365818E+03 0.  0.
         23    2    4    4    0    0  0.30837978347E+03 -0.62801129467E+02 -0.23462961947E+02  0.32768990333E+03  0.88250152659E+02 0.  0.
         23    2    4    4    0    0 -0.18091183899E+03 -0.11800897849E+03  0.26627293258E+03  0.35560662317E+03  0.94337602963E+02 0.  0.
          1    1    3    3  502    0 -0.43737404311E+02  0.27466533017E+02 -0.28427994081E+02  0.58953556460E+02  0.00000000000E+00 0. -1.
         -1    1    3    3    0  502 -0.83730540171E+02  0.15334357494E+03  0.55702555784E+02  0.18337892478E+03  0.00000000000E+00 0.  1.
         13    1    5    5    0    0  0.13172260801E+03 -0.64976176438E+02 -0.33805645145E+02  0.15071685575E+03  0.00000000000E+00 0. -1.
        -13    1    5    5    0    0  0.17665717546E+03  0.21750469716E+01  0.10342683198E+02  0.17697304757E+03  0.00000000000E+00 0.  1.
          4    1    6    6  503    0 -0.13747796096E+03 -0.11378795921E+03  0.15606764921E+03  0.23707593834E+03  0.00000000000E+00 0. -1.
         -4    1    6    6    0  503 -0.43433878024E+02 -0.42210192733E+01  0.11020528337E+03  0.11853068483E+03  0.00000000000E+00 0.  1.
<mgrwt>
<rscale>  0 0.38600314E+03</rscale>
<asrwt>0</asrwt>
<pdfrwt beam="1">  1        2 0.50426498E-01 0.38600314E+03</pdfrwt>
<pdfrwt beam="2">  1       -2 0.91977964E-01 0.38600314E+03</pdfrwt>
<totfact> 0.10314354E+02</totfact>
</mgrwt>
</event>
<event>
12    1  0.1418317E-007  0.3433202E+03  0.7818608E-02  0.1065391E+00
          1   -1    0    0  501    0  0.00000000000E+00  0.00000000000E+00  0.73649098885E+03  0.73649098885E+03  0.00000000000E+00 0. -1.
         -1   -1    0    0    0  501 -0.00000000000E+00 -0.00000000000E+00 -0.24836060426E+03  0.24836060426E+03  0.00000000000E+00 0.  1.
         23    2    1    2    0    0 -0.95711110533E+02  0.16025027141E+03  0.21847618843E+03  0.30141006547E+03  0.90969316210E+02 0.  0.
    5000000    2    1    2    0    0  0.95711110533E+02 -0.16025027141E+03  0.26965419617E+03  0.68344152764E+03  0.59961501817E+03 0.  0.
         23    2    4    4    0    0 -0.16871442218E+03 -0.76130922243E+02 -0.85426297943E+02  0.22331292047E+03  0.91162133011E+02 0.  0.
         23    2    4    4    0    0  0.26442553271E+03 -0.84119349165E+02  0.35508049411E+03  0.46012860716E+03  0.92947568977E+02 0.  0.
          2    1    3    3  502    0 -0.46499082581E+02  0.57544801163E+02  0.27255894173E+02  0.78844483567E+02  0.00000000000E+00 0.  1.
         -2    1    3    3    0  502 -0.49212027951E+02  0.10270547025E+03  0.19122029426E+03  0.22256558191E+03  0.00000000000E+00 0. -1.
         13    1    5    5    0    0 -0.89824962341E+02 -0.88901058053E+02 -0.54216449412E+02  0.13751852737E+03  0.00000000000E+00 0.  1.
        -13    1    5    5    0    0 -0.78889459842E+02  0.12770135810E+02 -0.31209848531E+02  0.85794393104E+02  0.00000000000E+00 0. -1.
          3    1    6    6  503    0  0.78140526505E+02 -0.71245325421E+02  0.13581365267E+03  0.17212549645E+03  0.00000000000E+00 0. -1.
         -3    1    6    6    0  503  0.18628500621E+03 -0.12874023744E+02  0.21926684144E+03  0.28800311071E+03  0.00000000000E+00 0.  1.
<mgrwt>
<rscale>  0 0.34332024E+03</rscale>
<asrwt>0</asrwt>
<pdfrwt beam="1">  1        1 0.11330630E+00 0.34332024E+03</pdfrwt>
<pdfrwt beam="2">  1       -1 0.38209324E-01 0.34332024E+03</pdfrwt>
<totfact> 0.17523953E+02</totfact>
</mgrwt>
</event>
<event>
12    1  0.1418317E-007  0.1659427E+04  0.7818608E-02  0.8784849E-01
         -2   -1    0    0    0  501 -0.00000000000E+00  0.00000000000E+00  0.17097189775E+04  0.17097189775E+04  0.00000000000E+00 0. -1.
          2   -1    0    0  501    0  0.00000000000E+00 -0.00000000000E+00 -0.16265009932E+04  0.16265009932E+04  0.00000000000E+00 0.  1.
         23    2    1    2    0    0 -0.29208406158E+03  0.15823163383E+04  0.14162734761E+03  0.16179797972E+04  0.93606758699E+02 0.  0.
    5000000    2    1    2    0    0  0.29208406158E+03 -0.15823163383E+04 -0.58409363365E+02  0.17182401735E+04  0.59991628309E+03 0.  0.
         23    2    4    4    0    0  0.45888370133E+03 -0.10870772400E+04  0.91345282021E+01  0.11835671090E+04  0.91850338487E+02 0.  0.
         23    2    4    4    0    0 -0.16679963975E+03 -0.49523909822E+03 -0.67543891567E+02  0.53467306452E+03  0.90715072651E+02 0.  0.
          2    1    3    3  502    0 -0.86050568150E+02  0.69816423874E+03  0.42225254326E+02  0.70471340035E+03  0.00000000000E+00 0. -1.
         -2    1    3    3    0  502 -0.20603349343E+03  0.88415209952E+03  0.99402093282E+02  0.91326639687E+03  0.00000000000E+00 0.  1.
         13    1    5    5    0    0  0.42329570565E+03 -0.10489769078E+04  0.13545887209E+02  0.11312450215E+04  0.00000000000E+00 0.  1.
        -13    1    5    5    0    0  0.35587995685E+02 -0.38100332240E+02 -0.44113590065E+01  0.52322087516E+02  0.00000000000E+00 0. -1.
          2    1    6    6  503    0 -0.10078944052E+03 -0.35896278643E+03 -0.84515400386E+02  0.38230308168E+03  0.00000000000E+00 0.  1.
         -2    1    6    6    0  503 -0.66010199229E+02 -0.13627631180E+03  0.16971508819E+02  0.15236998284E+03  0.00000000000E+00 0. -1.
<mgrwt>
<rscale>  0 0.16594268E+04</rscale>
<asrwt>0</asrwt>
<pdfrwt beam="1">  1        2 0.25023092E+00 0.16594268E+04</pdfrwt>
<pdfrwt beam="2">  1       -2 0.26303369E+00 0.16594268E+04</pdfrwt>
<totfact> 0.53289129E-01</totfact>
</mgrwt>
</event>
<event>
12    1  0.1418317E-007  0.1208947E+04  0.7818608E-02  0.9105061E-01
          1   -1    0    0  501    0  0.00000000000E+00  0.00000000000E+00  0.20026599706E+04  0.20026599706E+04  0.00000000000E+00 0. -1.
         -1   -1    0    0    0  501 -0.00000000000E+00 -0.00000000000E+00 -0.99584400079E+03  0.99584400079E+03  0.00000000000E+00 0.  1.
         23    2    1    2    0    0  0.35049978088E+03  0.10793803604E+04 -0.28844754787E+03  0.11748611851E+04  0.95837140085E+02 0.  0.
    5000000    2    1    2    0    0 -0.35049978088E+03 -0.10793803604E+04  0.12952635176E+04  0.18236427863E+04  0.60004447578E+03 0.  0.
         23    2    4    4    0    0  0.94920818620E+02 -0.63318225661E+03  0.63566219239E+03  0.90666888751E+03  0.89734702604E+02 0.  0.
         23    2    4    4    0    0 -0.44542059950E+03 -0.44619810383E+03  0.65960132526E+03  0.91697389877E+03  0.90966831459E+02 0.  0.
          2    1    3    3  502    0  0.11698551631E+03  0.47434033541E+03 -0.91222922488E+02  0.49699696821E+03  0.00000000000E+00 0. -1.
         -2    1    3    3    0  502  0.23351426457E+03  0.60504002503E+03 -0.19722462538E+03  0.67786421686E+03  0.00000000000E+00 0.  1.
         11    1    5    5    0    0  0.10693002652E+03 -0.55875901363E+03  0.53530158946E+03  0.78114880629E+03  0.00000000000E+00 0.  1.
        -11    1    5    5    0    0 -0.12009207900E+02 -0.74423242982E+02  0.10036060293E+03  0.12552008122E+03  0.00000000000E+00 0. -1.
          2    1    6    6  503    0 -0.61428330480E+02 -0.24363018345E+02  0.79760483712E+02  0.10357958877E+03  0.00000000000E+00 0. -1.
         -2    1    6    6    0  503 -0.38399226902E+03 -0.42183508548E+03  0.57984084155E+03  0.81339431000E+03  0.00000000000E+00 0.  1.
<mgrwt>
<rscale>  0 0.12089469E+04</rscale>
<asrwt>0</asrwt>
<pdfrwt beam="1">  1        1 0.30810153E+00 0.12089469E+04</pdfrwt>
<pdfrwt beam="2">  1       -1 0.15320677E+00 0.12089469E+04</pdfrwt>
<totfact> 0.95967173E-01</totfact>
</mgrwt>
</event>
<event>
12    1  0.1418317E-007  0.1591184E+04  0.7818608E-02  0.8825982E-01
          2   -1    0    0  501    0  0.00000000000E+00  0.00000000000E+00  0.24959624807E+04  0.24959624807E+04  0.00000000000E+00 0. -1.
         -2   -1    0    0    0  501 -0.00000000000E+00 -0.00000000000E+00 -0.11947418190E+04  0.11947418190E+04  0.00000000000E+00 0.  1.
         23    2    1    2    0    0 -0.11080398387E+04 -0.10876639455E+04 -0.35814096349E+02  0.15556717026E+04  0.89814554992E+02 0.  0.
    5000000    2    1    2    0    0  0.11080398387E+04  0.10876639455E+04  0.13370347581E+04  0.21350325971E+04  0.59994758417E+03 0.  0.
         23    2    4    4    0    0 -0.12465729649E+02  0.10352971117E+03  0.16430515999E+02  0.14093798321E+03  0.93379643103E+02 0.  0.
         23    2    4    4    0    0  0.11205055684E+04  0.98413423434E+03  0.13206042421E+04  0.19940946139E+04  0.91459526166E+02 0.  0.
          1    1    3    3  502    0 -0.83502792386E+03 -0.86058691440E+03 -0.51479008141E+02  0.12002214625E+04  0.00000000000E+00 0. -1.
         -1    1    3    3    0  502 -0.27301191485E+03 -0.22707703111E+03  0.15664911792E+02  0.35545024007E+03  0.00000000000E+00 0.  1.
         13    1    5    5    0    0  0.29853757225E+02  0.82335299344E+02  0.28485908822E+02  0.92096663023E+02  0.00000000000E+00 0.  1.
        -13    1    5    5    0    0 -0.42319486873E+02  0.21194411822E+02 -0.12055392823E+02  0.48841320189E+02  0.00000000000E+00 0. -1.
          2    1    6    6  503    0  0.75067475857E+03  0.61133472074E+03  0.88884841477E+03  0.13142656651E+04  0.00000000000E+00 0. -1.
         -2    1    6    6    0  503  0.36983080979E+03  0.37279951360E+03  0.43175582734E+03  0.67982894882E+03  0.00000000000E+00 0.  1.
<mgrwt>
<rscale>  0 0.15911843E+04</rscale>
<asrwt>0</asrwt>
<pdfrwt beam="1">  1        2 0.38399423E+00 0.15911843E+04</pdfrwt>
<pdfrwt beam="2">  1       -2 0.18380643E+00 0.15911843E+04</pdfrwt>
<totfact> 0.55690423E-01</totfact>
</mgrwt>
</event>
<event>
12    1  0.1418317E-007  0.1328394E+04  0.7818608E-02  0.9007346E-01
         -2   -1    0    0    0  501 -0.00000000000E+00  0.00000000000E+00  0.56125224986E+03  0.56125224986E+03  0.00000000000E+00 0.  1.
          2   -1    0    0  501    0  0.00000000000E+00 -0.00000000000E+00 -0.32126719812E+04  0.32126719812E+04  0.00000000000E+00 0. -1.
         23    2    1    2    0    0 -0.96342121764E+03  0.81214976576E+03 -0.15255495556E+04  0.19807605782E+04  0.91341868812E+02 0.  0.
    5000000    2    1    2    0    0  0.96342121764E+03 -0.81214976576E+03 -0.11258701758E+04  0.17931636529E+04  0.60007045313E+03 0.  0.
         23    2    4    4    0    0  0.98670920015E+03 -0.58730061479E+03 -0.95003454839E+03  0.14935067273E+04  0.97363461381E+02 0.  0.
         23    2    4    4    0    0 -0.23287982517E+02 -0.22484915097E+03 -0.17583562740E+03  0.29965692558E+03  0.88185227580E+02 0.  0.
          1    1    3    3  502    0 -0.44688115811E+03  0.33366711903E+03 -0.72343938992E+03  0.91345556361E+03  0.00000000000E+00 0. -1.
         -1    1    3    3    0  502 -0.51654005953E+03  0.47848264673E+03 -0.80211016566E+03  0.10673050146E+04  0.00000000000E+00 0.  1.
         13    1    5    5    0    0  0.78098642001E+03 -0.50915008332E+03 -0.76466051208E+03  0.12057691712E+04  0.00000000000E+00 0. -1.
        -13    1    5    5    0    0  0.20572278015E+03 -0.78150531475E+02 -0.18537403632E+03  0.28773755609E+03  0.00000000000E+00 0.  1.
          1    1    6    6  503    0  0.27504173422E+02 -0.27713174228E+02 -0.26729067490E+02  0.47317466440E+02  0.00000000000E+00 0. -1.
         -1    1    6    6    0  503 -0.50792155940E+02 -0.19713597674E+03 -0.14910655991E+03  0.25233945914E+03  0.00000000000E+00 0.  1.
<mgrwt>
<rscale>  0 0.13283944E+04</rscale>
<asrwt>0</asrwt>
<pdfrwt beam="1">  1        2 0.49425724E+00 0.13283944E+04</pdfrwt>
<pdfrwt beam="2">  1       -2 0.86346498E-01 0.13283944E+04</pdfrwt>
<totfact> 0.14498044E+00</totfact>
</mgrwt>
</event>
<event>
12    1  0.1418317E-007  0.5457054E+03  0.7818608E-02  0.1002493E+00
          1   -1    0    0  501    0  0.00000000000E+00  0.00000000000E+00  0.25013214670E+04  0.25013214670E+04  0.00000000000E+00 0. -1.
         -1   -1    0    0    0  501 -0.00000000000E+00 -0.00000000000E+00 -0.16821710398E+03  0.16821710398E+03  0.00000000000E+00 0.  1.
         23    2    1    2    0    0  0.31973099933E+03 -0.38170893621E+03  0.10975957212E+04  0.12086602052E+04  0.90628365194E+02 0.  0.
    5000000    2    1    2    0    0 -0.31973099933E+03  0.38170893621E+03  0.12355086419E+04  0.14608783658E+04  0.59979527475E+03 0.  0.
         23    2    4    4    0    0  0.26329331279E+02  0.21949099161E+02  0.75795175686E+03  0.76404021715E+03  0.89953271477E+02 0.  0.
         23    2    4    4    0    0 -0.34606033061E+03  0.35975983705E+03  0.47755688502E+03  0.69683814866E+03  0.91312289552E+02 0.  0.
          1    1    3    3  502    0  0.17002144507E+03 -0.21784100318E+03  0.71200137690E+03  0.76374600173E+03  0.00000000000E+00 0. -1.
         -1    1    3    3    0  502  0.14970955427E+03 -0.16386793303E+03  0.38559434426E+03  0.44491420346E+03  0.00000000000E+00 0.  1.
         11    1    5    5    0    0  0.18177265580E+02 -0.33144030340E+02  0.39994414455E+03  0.40172659669E+03  0.00000000000E+00 0. -1.
        -11    1    5    5    0    0  0.81520656989E+01  0.55093129501E+02  0.35800761231E+03  0.36231362045E+03  0.00000000000E+00 0.  1.
          1    1    6    6  503    0 -0.19002622645E+03  0.21246418414E+03  0.21098436761E+03  0.35463417723E+03  0.00000000000E+00 0. -1.
         -1    1    6    6    0  503 -0.15603410416E+03  0.14729565290E+03  0.26657251741E+03  0.34220397143E+03  0.00000000000E+00 0.  1.
<mgrwt>
<rscale>  0 0.54570542E+03</rscale>
<asrwt>0</asrwt>
<pdfrwt beam="1">  1        1 0.38481866E+00 0.54570542E+03</pdfrwt>
<pdfrwt beam="2">  1       -1 0.25879556E-01 0.54570542E+03</pdfrwt>
<totfact> 0.19378839E+01</totfact>
</mgrwt>
</event>
<event>
12    1  0.1418317E-007  0.3451513E+03  0.7818608E-02  0.1064623E+00
          1   -1    0    0  501    0  0.00000000000E+00  0.00000000000E+00  0.39945171054E+03  0.39945171054E+03  0.00000000000E+00 0. -1.
         -1   -1    0    0    0  501 -0.00000000000E+00 -0.00000000000E+00 -0.46252069935E+03  0.46252069935E+03  0.00000000000E+00 0.  1.
         23    2    1    2    0    0  0.51865304571E+02 -0.61702643875E+02  0.17343248021E+03  0.21213117598E+03  0.91780088003E+02 0.  0.
    5000000    2    1    2    0    0 -0.51865304571E+02  0.61702643875E+02 -0.23650146902E+03  0.64984123390E+03  0.59988620450E+03 0.  0.
         23    2    4    4    0    0  0.11393034425E+03 -0.22030289179E+03 -0.12712083185E+03  0.29245309919E+03  0.88631946071E+02 0.  0.
         23    2    4    4    0    0 -0.16579564882E+03  0.28200553566E+03 -0.10938063717E+03  0.35738813471E+03  0.93524519429E+02 0.  0.
          4    1    3    3  502    0  0.56926523681E+02 -0.47191688334E+02  0.18061655855E+03  0.19516666152E+03  0.00000000000E+00 0. -1.
         -4    1    3    3    0  502 -0.50612191098E+01 -0.14510955540E+02 -0.71840783379E+01  0.16964514468E+02  0.00000000000E+00 0.  1.
         11    1    5    5    0    0  0.10232661026E+03 -0.10613833536E+03 -0.57600136851E+02  0.15828410269E+03  0.00000000000E+00 0. -1.
        -11    1    5    5    0    0  0.11603733985E+02 -0.11416455643E+03 -0.69520694997E+02  0.13416899649E+03  0.00000000000E+00 0.  1.
          1    1    6    6  503    0 -0.33631852153E+02  0.14339203939E+03 -0.63849231458E+02  0.16052757644E+03  0.00000000000E+00 0. -1.
         -1    1    6    6    0  503 -0.13216379667E+03  0.13861349627E+03 -0.45531405714E+02  0.19686055828E+03  0.00000000000E+00 0.  1.
<mgrwt>
<rscale>  0 0.34515126E+03</rscale>
<asrwt>0</asrwt>
<pdfrwt beam="1">  1        1 0.61454110E-01 0.34515126E+03</pdfrwt>
<pdfrwt beam="2">  1       -1 0.71157030E-01 0.34515126E+03</pdfrwt>
<totfact> 0.12599768E+02</totfact>
</mgrwt>
</event>
<event>
12    1  0.1418317E-007  0.5749366E+03  0.7818608E-02  0.9958814E-01
          2   -1    0    0  501    0  0.00000000000E+00  0.00000000000E+00  0.23916104960E+04  0.23916104960E+04  0.00000000000E+00 0. -1.
         -2   -1    0    0    0  501 -0.00000000000E+00 -0.00000000000E+00 -0.18698247520E+03  0.18698247520E+03  0.00000000000E+00 0.  1.
         23    2    1    2    0    0  0.17550189380E+03 -0.47980649975E+03  0.61810539148E+03  0.80712160233E+03  0.91519473590E+02 0.  0.
    5000000    2    1    2    0    0 -0.17550189380E+03  0.47980649975E+03  0.15865226293E+04  0.17714713689E+04  0.60003463686E+03 0.  0.
         23    2    4    4    0    0 -0.16213995684E+03  0.44254248126E+02  0.10801666803E+04  0.10971370041E+04  0.93283141283E+02 0.  0.
         23    2    4    4    0    0 -0.13361936961E+02  0.43555225162E+03  0.50635594897E+03  0.67433436471E+03  0.91903118164E+02 0.  0.
          1    1    3    3  502    0  0.17293391096E+03 -0.36686173654E+03  0.49740541869E+03  0.64179889517E+03  0.00000000000E+00 0. -1.
         -1    1    3    3    0  502  0.25679828358E+01 -0.11294476321E+03  0.12069997279E+03  0.16532270717E+03  0.00000000000E+00 0.  1.
         13    1    5    5    0    0 -0.65103132523E+02 -0.24563261940E+02  0.30078889440E+03  0.30873245812E+03  0.00000000000E+00 0. -1.
        -13    1    5    5    0    0 -0.97036824315E+02  0.68817510066E+02  0.77937778594E+03  0.78840454602E+03  0.00000000000E+00 0.  1.
          1    1    6    6  503    0  0.24369027878E+02  0.32597894168E+03  0.34060667376E+03  0.47209006148E+03  0.00000000000E+00 0. -1.
         -1    1    6    6    0  503 -0.37730964839E+02  0.10957330995E+03  0.16574927521E+03  0.20224430324E+03  0.00000000000E+00 0.  1.
<mgrwt>
<rscale>  0 0.57493664E+03</rscale>
<asrwt>0</asrwt>
<pdfrwt beam="1">  1        2 0.36794006E+00 0.57493664E+03</pdfrwt>
<pdfrwt beam="2">  1       -2 0.28766536E-01 0.57493664E+03</pdfrwt>
<totfact> 0.47510099E+01</totfact>
</mgrwt>
</event>
<event>
12    1  0.1418317E-007  0.5937555E+03  0.7818608E-02  0.9918447E-01
          2   -1    0    0  501    0  0.00000000000E+00  0.00000000000E+00  0.11923336120E+04  0.11923336120E+04  0.00000000000E+00 0. -1.
         -2   -1    0    0    0  501 -0.00000000000E+00 -0.00000000000E+00 -0.33072696575E+03  0.33072696575E+03  0.00000000000E+00 0.  1.
         23    2    1    2    0    0 -0.23116083809E+03 -0.37958480587E+03  0.11555249274E+03  0.46762330228E+03  0.88313171966E+02 0.  0.
    5000000    2    1    2    0    0  0.23116083809E+03  0.37958480587E+03  0.74605415351E+03  0.10554372755E+04  0.59985922062E+03 0.  0.
         23    2    4    4    0    0  0.38016830359E+03  0.79954532604E+02  0.41337701574E+03  0.57500214600E+03  0.93948094254E+02 0.  0.
         23    2    4    4    0    0 -0.14900746550E+03  0.29963027327E+03  0.33267713776E+03  0.48043512947E+03  0.90345504627E+02 0.  0.
          4    1    3    3  502    0 -0.16341729369E+03 -0.32668969466E+03  0.11004580796E+03  0.38149894931E+03  0.00000000000E+00 0. -1.
         -4    1    3    3    0  502 -0.67743544396E+02 -0.52895111210E+02  0.55066847835E+01  0.86124352970E+02  0.00000000000E+00 0.  1.
         11    1    5    5    0    0  0.87347869438E+02 -0.15845383874E+02  0.12255587948E+03  0.15132967350E+03  0.00000000000E+00 0. -1.
        -11    1    5    5    0    0  0.29282043415E+03  0.95799916478E+02  0.29082113626E+03  0.42367247250E+03  0.00000000000E+00 0.  1.
          4    1    6    6  503    0 -0.97902478510E+02  0.13317002147E+03  0.21088815703E+03  0.26794209205E+03  0.00000000000E+00 0. -1.
         -4    1    6    6    0  503 -0.51104986993E+02  0.16646025180E+03  0.12178898073E+03  0.21249303742E+03  0.00000000000E+00 0.  1.
<mgrwt>
<rscale>  0 0.59375547E+03</rscale>
<asrwt>0</asrwt>
<pdfrwt beam="1">  1        2 0.18343594E+00 0.59375547E+03</pdfrwt>
<pdfrwt beam="2">  1       -2 0.50881072E-01 0.59375547E+03</pdfrwt>
<totfact> 0.72141575E+01</totfact>
</mgrwt>
</event>
<event>
12    1  0.1418317E-007  0.1245701E+04  0.7818608E-02  0.9073769E-01
          2   -1    0    0  501    0  0.00000000000E+00  0.00000000000E+00  0.30277568746E+04  0.30277568746E+04  0.00000000000E+00 0. -1.
         -2   -1    0    0    0  501 -0.00000000000E+00 -0.00000000000E+00 -0.55100055211E+03  0.55100055211E+03  0.00000000000E+00 0.  1.
         23    2    1    2    0    0  0.11754247075E+04  0.31836885347E+03  0.12777408552E+04  0.17674627854E+04  0.91219706228E+02 0.  0.
    5000000    2    1    2    0    0 -0.11754247075E+04 -0.31836885347E+03  0.11990154672E+04  0.18112946412E+04  0.60014016427E+03 0.  0.
         23    2    4    4    0    0 -0.10304584964E+04 -0.39263661904E+03  0.11895768206E+04  0.16246665275E+04  0.91869941302E+02 0.  0.
         23    2    4    4    0    0 -0.14496621113E+03  0.74267765564E+02  0.94386465981E+01  0.18662811369E+03  0.90609389134E+02 0.  0.
          2    1    3    3  502    0  0.39566803700E+03  0.10489531953E+03  0.49296067976E+03  0.64075459839E+03  0.00000000000E+00 0.  1.
         -2    1    3    3    0  502  0.77975667054E+03  0.21347353394E+03  0.78478017546E+03  0.11267081870E+04  0.00000000000E+00 0. -1.
         13    1    5    5    0    0 -0.98015230374E+03 -0.35167949546E+03  0.11099768065E+04  0.15219807873E+04  0.00000000000E+00 0. -1.
        -13    1    5    5    0    0 -0.50306192669E+02 -0.40957123582E+02  0.79600014124E+02  0.10268574021E+03  0.00000000000E+00 0.  1.
          2    1    6    6  503    0 -0.57219917264E+02  0.87085188240E+01  0.42960856261E+02  0.72080457840E+02  0.00000000000E+00 0. -1.
         -2    1    6    6    0  503 -0.87746293867E+02  0.65559246740E+02 -0.33522209663E+02  0.11454765585E+03  0.00000000000E+00 0.  1.
<mgrwt>
<rscale>  0 0.12457014E+04</rscale>
<asrwt>0</asrwt>
<pdfrwt beam="1">  1        2 0.46580874E+00 0.12457014E+04</pdfrwt>
<pdfrwt beam="2">  1       -2 0.84769318E-01 0.12457014E+04</pdfrwt>
<totfact> 0.20025258E+00</totfact>
</mgrwt>
</event>
<event>
12    1  0.1418317E-007  0.6819694E+03  0.7818608E-02  0.9748574E-01
         -1   -1    0    0    0  501 -0.00000000000E+00  0.00000000000E+00  0.94854622261E+03  0.94854622261E+03  0.00000000000E+00 0.  1.
          1   -1    0    0  501    0  0.00000000000E+00 -0.00000000000E+00 -0.55060458778E+03  0.55060458778E+03  0.00000000000E+00 0. -1.
         23    2    1    2    0    0  0.27303161757E+03 -0.52704541919E+03  0.13574240760E+03  0.61533339410E+03  0.88803415467E+02 0.  0.
    5000000    2    1    2    0    0 -0.27303161757E+03  0.52704541919E+03  0.26219922724E+03  0.88381741629E+03  0.60005137487E+03 0.  0.
         23    2    4    4    0    0 -0.38269332676E+03  0.48694291461E+03  0.53179252997E+02  0.62834223996E+03  0.91751583840E+02 0.  0.
         23    2    4    4    0    0  0.10966170919E+03  0.40102504577E+02  0.20901997424E+03  0.25547517632E+03  0.89130885496E+02 0.  0.
          3    1    3    3  502    0  0.11797143038E+03 -0.16907746032E+03  0.80535614995E+02  0.22133782157E+03  0.00000000000E+00 0. -1.
         -3    1    3    3    0  502  0.15506018719E+03 -0.35796795887E+03  0.55206792600E+02  0.39399557254E+03  0.00000000000E+00 0.  1.
         11    1    5    5    0    0 -0.23486513412E+03  0.33137937137E+03 -0.42449562093E+01  0.40619199727E+03  0.00000000000E+00 0. -1.
        -11    1    5    5    0    0 -0.14782819264E+03  0.15556354324E+03  0.57424209207E+02  0.22215024269E+03  0.00000000000E+00 0.  1.
          4    1    6    6  503    0  0.44797875018E+02 -0.28013193171E+02  0.75617701220E+02  0.92247630514E+02  0.00000000000E+00 0. -1.
         -4    1    6    6    0  503  0.64863834169E+02  0.68115697748E+02  0.13340227302E+03  0.16322754581E+03  0.00000000000E+00 0.  1.
<mgrwt>
<rscale>  0 0.68196944E+03</rscale>
<asrwt>0</asrwt>
<pdfrwt beam="1">  1        1 0.84708398E-01 0.68196944E+03</pdfrwt>
<pdfrwt beam="2">  1       -1 0.14593019E+00 0.68196944E+03</pdfrwt>
<totfact> 0.15078098E+01</totfact>
</mgrwt>
</event>
<event>
12    1  0.1418317E-007  0.6160499E+03  0.7818608E-02  0.9872656E-01
         -1   -1    0    0    0  501 -0.00000000000E+00  0.00000000000E+00  0.12440119334E+04  0.12440119334E+04  0.00000000000E+00 0.  1.
          1   -1    0    0  501    0  0.00000000000E+00 -0.00000000000E+00 -0.48994300033E+03  0.48994300033E+03  0.00000000000E+00 0. -1.
         23    2    1    2    0    0 -0.38256501055E+03 -0.34456447977E+03  0.78432089089E+03  0.94273573066E+03  0.92253617636E+02 0.  0.
    5000000    2    1    2    0    0  0.38256501055E+03  0.34456447977E+03 -0.30251957823E+02  0.79121920307E+03  0.60002664803E+03 0.  0.
         23    2    4    4    0    0  0.38098563868E+03  0.25836077194E+02 -0.17599467595E+03  0.43015151445E+03  0.90766952463E+02 0.  0.
         23    2    4    4    0    0  0.15793718702E+01  0.31872840258E+03  0.14574271812E+03  0.36106768862E+03  0.86825381411E+02 0.  0.
          2    1    3    3  502    0 -0.14192347496E+03 -0.71107117691E+02  0.23170812178E+03  0.28086856113E+03  0.00000000000E+00 0.  1.
         -2    1    3    3    0  502 -0.24064153559E+03 -0.27345736208E+03  0.55261276911E+03  0.66186716953E+03  0.00000000000E+00 0. -1.
         11    1    5    5    0    0  0.73904554602E+02 -0.43279625125E+01  0.17637956007E+01  0.74052180423E+02  0.00000000000E+00 0. -1.
        -11    1    5    5    0    0  0.30708108408E+03  0.30164039707E+02 -0.17775847155E+03  0.35609933403E+03  0.00000000000E+00 0.  1.
          2    1    6    6  503    0 -0.34592955048E+02  0.14816194411E+03  0.95413144803E+02  0.17958926032E+03  0.00000000000E+00 0. -1.
         -2    1    6    6    0  503  0.36172326918E+02  0.17056645846E+03  0.50329573320E+02  0.18147842830E+03  0.00000000000E+00 0.  1.
<mgrwt>
<rscale>  0 0.61604988E+03</rscale>
<asrwt>0</asrwt>
<pdfrwt beam="1">  1        1 0.75375847E-01 0.61604988E+03</pdfrwt>
<pdfrwt beam="2">  1       -1 0.19138645E+00 0.61604988E+03</pdfrwt>
<totfact> 0.82899722E+00</totfact>
</mgrwt>
</event>
<event>
12    1  0.1418317E-007  0.1695576E+04  0.7818608E-02  0.8763892E-01
          1   -1    0    0  501    0  0.00000000000E+00  0.00000000000E+00  0.16109900692E+04  0.16109900692E+04  0.00000000000E+00 0. -1.
         -1   -1    0    0    0  501 -0.00000000000E+00 -0.00000000000E+00 -0.20668571918E+04  0.20668571918E+04  0.00000000000E+00 0.  1.
         23    2    1    2    0    0  0.16503922860E+04  0.58755415055E+02  0.43171042702E+03  0.17093190236E+04  0.90281420827E+02 0.  0.
    5000000    2    1    2    0    0 -0.16503922860E+04 -0.58755415055E+02 -0.88757754953E+03  0.19685282374E+04  0.60005217990E+03 0.  0.
         23    2    4    4    0    0 -0.14438669969E+04  0.13705511850E+03 -0.79028767834E+03  0.16541528201E+04  0.90171654646E+02 0.  0.
         23    2    4    4    0    0 -0.20652528909E+03 -0.19581053355E+03 -0.97289871190E+02  0.31437541736E+03  0.91499311031E+02 0.  0.
          2    1    3    3  502    0  0.24796950822E+03 -0.87740973744E+01  0.93112931646E+02  0.26502052719E+03  0.00000000000E+00 0.  1.
         -2    1    3    3    0  502  0.14024227778E+04  0.67529512430E+02  0.33859749537E+03  0.14442984964E+04  0.00000000000E+00 0. -1.
         13    1    5    5    0    0 -0.41360958734E+03  0.78593847389E+02 -0.21563571908E+03  0.47302076797E+03  0.00000000000E+00 0. -1.
        -13    1    5    5    0    0 -0.10302574096E+04  0.58461271110E+02 -0.57465195926E+03  0.11811320521E+04  0.00000000000E+00 0.  1.
          4    1    6    6  503    0 -0.22956263993E+02 -0.35843194484E+02 -0.51165926003E+02  0.66555815907E+02  0.00000000000E+00 0. -1.
         -4    1    6    6    0  503 -0.18356902509E+03 -0.15996733907E+03 -0.46123945187E+02  0.24781960145E+03  0.00000000000E+00 0.  1.
<mgrwt>
<rscale>  0 0.16955758E+04</rscale>
<asrwt>0</asrwt>
<pdfrwt beam="1">  1        1 0.24784463E+00 0.16955758E+04</pdfrwt>
<pdfrwt beam="2">  1       -1 0.31797803E+00 0.16955758E+04</pdfrwt>
<totfact> 0.12784931E-01</totfact>
</mgrwt>
</event>
<event>
12    1  0.1418317E-007  0.1069586E+04  0.7818608E-02  0.9235354E-01
          1   -1    0    0  501    0  0.00000000000E+00  0.00000000000E+00  0.91016425336E+03  0.91016425336E+03  0.00000000000E+00 0.  1.
         -1   -1    0    0    0  501 -0.00000000000E+00 -0.00000000000E+00 -0.16408356716E+04  0.16408356716E+04  0.00000000000E+00 0. -1.
         23    2    1    2    0    0 -0.75966056741E+03 -0.68050921701E+03 -0.89050811419E+03  0.13569590684E+04  0.90311903293E+02 0.  0.
    5000000    2    1    2    0    0  0.75966056741E+03  0.68050921701E+03  0.15983669600E+03  0.11940408565E+04  0.60000735449E+03 0.  0.
         23    2    4    4    0    0 -0.20474901232E+02  0.81648967365E+01 -0.90345463116E+02  0.13046446321E+03  0.91502930744E+02 0.  0.
         23    2    4    4    0    0  0.78013546864E+03  0.67234432027E+03  0.25018215911E+03  0.10635763933E+04  0.89136957282E+02 0.  0.
          3    1    3    3  502    0 -0.51466840998E+03 -0.49063391094E+03 -0.66585533824E+03  0.97415016207E+03  0.00000000000E+00 0. -1.
         -3    1    3    3    0  502 -0.24499215743E+03 -0.18987530607E+03 -0.22465277596E+03  0.38280890638E+03  0.00000000000E+00 0.  1.
         13    1    5    5    0    0 -0.12003327737E+02  0.45918144553E+02 -0.22872916009E+02  0.52685160745E+02  0.00000000000E+00 0.  1.
        -13    1    5    5    0    0 -0.84715734950E+01 -0.37753247817E+02 -0.67472547107E+02  0.77779302461E+02  0.00000000000E+00 0. -1.
          4    1    6    6  503    0  0.55004828206E+03  0.43331279425E+03  0.14085203512E+03  0.71424952647E+03  0.00000000000E+00 0. -1.
         -4    1    6    6    0  503  0.23008718658E+03  0.23903152602E+03  0.10933012399E+03  0.34932686680E+03  0.00000000000E+00 0.  1.
<mgrwt>
<rscale>  0 0.10695855E+04</rscale>
<asrwt>0</asrwt>
<pdfrwt beam="1">  1        1 0.14002527E+00 0.10695855E+04</pdfrwt>
<pdfrwt beam="2">  1       -1 0.25243626E+00 0.10695855E+04</pdfrwt>
<totfact> 0.11983701E+00</totfact>
</mgrwt>
</event>
<event>
12    1  0.1418317E-007  0.1150910E+04  0.7818608E-02  0.9156944E-01
          2   -1    0    0  501    0  0.00000000000E+00  0.00000000000E+00  0.34222279814E+04  0.34222279814E+04  0.00000000000E+00 0. -1.
         -2   -1    0    0    0  501 -0.00000000000E+00 -0.00000000000E+00 -0.45251187557E+03  0.45251187557E+03  0.00000000000E+00 0.  1.
         23    2    1    2    0    0  0.95482394803E+03  0.54802734797E+03  0.20182603020E+04  0.23008098763E+04  0.91261679596E+02 0.  0.
    5000000    2    1    2    0    0 -0.95482394803E+03 -0.54802734797E+03  0.95145580385E+03  0.15739299807E+04  0.59997057573E+03 0.  0.
         23    2    4    4    0    0 -0.71917038942E+03 -0.62453482398E+03  0.87907251012E+03  0.13000283564E+04  0.10027688635E+03 0.  0.
         23    2    4    4    0    0 -0.23565355861E+03  0.76507476005E+02  0.72383293729E+02  0.27390162437E+03  0.91633864116E+02 0.  0.
          3    1    3    3  502    0  0.45943631487E+03  0.24839113615E+03  0.10483182780E+04  0.11712177833E+04  0.00000000000E+00 0. -1.
         -3    1    3    3    0  502  0.49538763316E+03  0.29963621183E+03  0.96994202400E+03  0.11295920929E+04  0.00000000000E+00 0.  1.
         13    1    5    5    0    0 -0.49726415562E+03 -0.41654196914E+03  0.65836665547E+03  0.92424320693E+03  0.00000000000E+00 0.  1.
        -13    1    5    5    0    0 -0.22190623380E+03 -0.20799285484E+03  0.22070585465E+03  0.37578514944E+03  0.00000000000E+00 0. -1.
          1    1    6    6  503    0 -0.71319666523E+02  0.23284106055E+02  0.67771840252E+02  0.10110225892E+03  0.00000000000E+00 0.  1.
         -1    1    6    6    0  503 -0.16433389209E+03  0.53223369951E+02  0.46114534764E+01  0.17279936545E+03  0.00000000000E+00 0. -1.
<mgrwt>
<rscale>  0 0.11509102E+04</rscale>
<asrwt>0</asrwt>
<pdfrwt beam="1">  1        2 0.52649660E+00 0.11509102E+04</pdfrwt>
<pdfrwt beam="2">  1       -2 0.69617214E-01 0.11509102E+04</pdfrwt>
<totfact> 0.17495110E+00</totfact>
</mgrwt>
</event>
<event>
12    1  0.1418317E-007  0.4575730E+03  0.7818608E-02  0.1025487E+00
         -2   -1    0    0    0  501 -0.00000000000E+00  0.00000000000E+00  0.29459583122E+03  0.29459583122E+03  0.00000000000E+00 0.  1.
          2   -1    0    0  501    0  0.00000000000E+00 -0.00000000000E+00 -0.12193578450E+04  0.12193578450E+04  0.00000000000E+00 0. -1.
         23    2    1    2    0    0  0.20982450294E+03 -0.23823337458E+03 -0.74017120082E+03  0.81049760010E+03  0.90947734650E+02 0.  0.
    5000000    2    1    2    0    0 -0.20982450294E+03  0.23823337458E+03 -0.18459081292E+03  0.70345607608E+03  0.59999601662E+03 0.  0.
         23    2    4    4    0    0 -0.21502049764E+03  0.37672077713E+03  0.17360595850E+02  0.44426101268E+03  0.94414505077E+02 0.  0.
         23    2    4    4    0    0  0.51959947006E+01 -0.13848740255E+03 -0.20195140877E+03  0.25919506341E+03  0.84805367541E+02 0.  0.
          3    1    3    3  502    0  0.72548915236E+02 -0.12190567728E+03 -0.41891205346E+03  0.44228005583E+03  0.00000000000E+00 0. -1.
         -3    1    3    3    0  502  0.13727558770E+03 -0.11632769730E+03 -0.32125914737E+03  0.36821754427E+03  0.00000000000E+00 0.  1.
         11    1    5    5    0    0 -0.10560190563E+03  0.97610895398E+02  0.13604562078E+02  0.14444629965E+03  0.00000000000E+00 0.  1.
        -11    1    5    5    0    0 -0.10941859201E+03  0.27910988173E+03  0.37560337721E+01  0.29981471303E+03  0.00000000000E+00 0. -1.
          1    1    6    6  503    0 -0.19331050330E+02 -0.16771219207E+02 -0.84468873435E+02  0.88260715383E+02  0.00000000000E+00 0. -1.
         -1    1    6    6    0  503  0.24527045031E+02 -0.12171618334E+03 -0.11748253534E+03  0.17093434802E+03  0.00000000000E+00 0.  1.
<mgrwt>
<rscale>  0 0.45757303E+03</rscale>
<asrwt>0</asrwt>
<pdfrwt beam="1">  1        2 0.18759352E+00 0.45757303E+03</pdfrwt>
<pdfrwt beam="2">  1       -2 0.45322435E-01 0.45757303E+03</pdfrwt>
<totfact> 0.89240619E+01</totfact>
</mgrwt>
</event>
<event>
12    1  0.1418317E-007  0.3215016E+03  0.7818608E-02  0.1074960E+00
          2   -1    0    0  501    0  0.00000000000E+00  0.00000000000E+00  0.46341260911E+04  0.46341260911E+04  0.00000000000E+00 0. -1.
         -2   -1    0    0    0  501 -0.00000000000E+00 -0.00000000000E+00 -0.18925617480E+03  0.18925617480E+03  0.00000000000E+00 0.  1.
         23    2    1    2    0    0  0.64071640605E+02 -0.18126046496E+03 -0.99907556539E+02  0.23516605818E+03  0.91438633957E+02 0.  0.
    5000000    2    1    2    0    0 -0.64071640605E+02  0.18126046496E+03  0.45447774729E+04  0.45882162078E+04  0.59980426796E+03 0.  0.
         23    2    4    4    0    0 -0.23070315691E+03  0.80532024239E+02  0.38965118964E+04  0.39051640640E+04  0.88272614849E+02 0.  0.
         23    2    4    4    0    0  0.16663151631E+03  0.10072844072E+03  0.64826557646E+03  0.68305214372E+03  0.91649835946E+02 0.  0.
          2    1    3    3  502    0  0.44920777856E+02 -0.12300535882E+03 -0.11241154947E+03  0.17258201250E+03  0.00000000000E+00 0.  1.
         -2    1    3    3    0  502  0.19150862748E+02 -0.58255106142E+02  0.12503992933E+02  0.62584045689E+02  0.00000000000E+00 0. -1.
         11    1    5    5    0    0 -0.98800919816E+02  0.60399348683E+01  0.20769105897E+04  0.20792680683E+04  0.00000000000E+00 0.  1.
        -11    1    5    5    0    0 -0.13190223710E+03  0.74492089371E+02  0.18196013068E+04  0.18258959957E+04  0.00000000000E+00 0. -1.
          4    1    6    6  503    0  0.13286655046E+03  0.10033267663E+03  0.60858611820E+03  0.63094946668E+03  0.00000000000E+00 0. -1.
         -4    1    6    6    0  503  0.33764965851E+02  0.39576409027E+00  0.39679458255E+02  0.52102677048E+02  0.00000000000E+00 0.  1.
<mgrwt>
<rscale>  0 0.32150164E+03</rscale>
<asrwt>0</asrwt>
<pdfrwt beam="1">  1        2 0.71294239E+00 0.32150164E+03</pdfrwt>
<pdfrwt beam="2">  1       -2 0.29116338E-01 0.32150164E+03</pdfrwt>
<totfact> 0.13317229E+00</totfact>
</mgrwt>
</event>
<event>
12    1  0.1418317E-007  0.5840552E+03  0.7818608E-02  0.9939050E-01
         -2   -1    0    0    0  501 -0.00000000000E+00  0.00000000000E+00  0.11946425865E+03  0.11946425865E+03  0.00000000000E+00 0.  1.
          2   -1    0    0  501    0  0.00000000000E+00 -0.00000000000E+00 -0.31087166716E+04  0.31087166716E+04  0.00000000000E+00 0. -1.
         23    2    1    2    0    0 -0.39185069759E+03  0.21563989855E+03 -0.90121753195E+03  0.10101091051E+04  0.89887870459E+02 0.  0.
    5000000    2    1    2    0    0  0.39185069759E+03 -0.21563989855E+03 -0.20880348810E+04  0.22180718252E+04  0.59992118005E+03 0.  0.
         23    2    4    4    0    0  0.36109181789E+02  0.17933315194E+03 -0.67601373597E+03  0.70647377419E+03  0.92985859216E+02 0.  0.
         23    2    4    4    0    0  0.35574151580E+03 -0.39497305048E+03 -0.14120211451E+04  0.15115980510E+04  0.92570065382E+02 0.  0.
          4    1    3    3  502    0 -0.65346931620E+02  0.60018215853E+02 -0.24867459622E+03  0.26402928344E+03  0.00000000000E+00 0. -1.
         -4    1    3    3    0  502 -0.32650376597E+03  0.15562168269E+03 -0.65254293573E+03  0.74607982165E+03  0.00000000000E+00 0.  1.
         13    1    5    5    0    0  0.33532928918E+02  0.12740314126E+03 -0.60056368128E+03  0.61484368175E+03  0.00000000000E+00 0.  1.
        -13    1    5    5    0    0  0.25762528706E+01  0.51930010675E+02 -0.75450054689E+02  0.91630092437E+02  0.00000000000E+00 0. -1.
          3    1    6    6  503    0  0.30510368592E+03 -0.30946820355E+03 -0.10549084620E+04  0.11409166014E+04  0.00000000000E+00 0. -1.
         -3    1    6    6    0  503  0.50637829879E+02 -0.85504846932E+02 -0.35711268311E+03  0.37068144963E+03  0.00000000000E+00 0.  1.
<mgrwt>
<rscale>  0 0.58405519E+03</rscale>
<asrwt>0</asrwt>
<pdfrwt beam="1">  1        2 0.47826405E+00 0.58405519E+03</pdfrwt>
<pdfrwt beam="2">  1       -2 0.18379119E-01 0.58405519E+03</pdfrwt>
<totfact> 0.40085784E+01</totfact>
</mgrwt>
</event>
<event>
12    1  0.1418317E-007  0.1072920E+04  0.7818608E-02  0.9231995E-01
         -2   -1    0    0    0  501 -0.00000000000E+00  0.00000000000E+00  0.21482770291E+04  0.21482770291E+04  0.00000000000E+00 0.  1.
          2   -1    0    0  501    0  0.00000000000E+00 -0.00000000000E+00 -0.59324994019E+03  0.59324994019E+03  0.00000000000E+00 0. -1.
         23    2    1    2    0    0  0.86285364945E+03 -0.48812994240E+03  0.11324638656E+04  0.15077906521E+04  0.90393488096E+02 0.  0.
    5000000    2    1    2    0    0 -0.86285364945E+03  0.48812994240E+03  0.42256322327E+03  0.12337363171E+04  0.60063163546E+03 0.  0.
         23    2    4    4    0    0 -0.13976166285E+03  0.38752927394E+03  0.12237786185E+03  0.43927366987E+03  0.90954688725E+02 0.  0.
         23    2    4    4    0    0 -0.72309198660E+03  0.10060066846E+03  0.30018536142E+03  0.79446264727E+03  0.89872860822E+02 0.  0.
          3    1    3    3  502    0  0.20468198860E+03 -0.11039399907E+03  0.21041212103E+03  0.31361570777E+03  0.00000000000E+00 0. -1.
         -3    1    3    3    0  502  0.65817166085E+03 -0.37773594333E+03  0.92205174459E+03  0.11941749444E+04  0.00000000000E+00 0.  1.
         13    1    5    5    0    0 -0.54619193695E+02  0.26766673288E+03  0.60754107646E+02  0.27985674515E+03  0.00000000000E+00 0. -1.
        -13    1    5    5    0    0 -0.85142469154E+02  0.11986254107E+03  0.61623754202E+02  0.15941692472E+03  0.00000000000E+00 0.  1.
          4    1    6    6  503    0 -0.35119333399E+03  0.95055001208E+01  0.11960455950E+03  0.37112311034E+03  0.00000000000E+00 0. -1.
         -4    1    6    6    0  503 -0.37189865261E+03  0.91095168339E+02  0.18058080192E+03  0.42333953693E+03  0.00000000000E+00 0.  1.
<mgrwt>
<rscale>  0 0.10729202E+04</rscale>
<asrwt>0</asrwt>
<pdfrwt beam="1">  1        2 0.91269222E-01 0.10729202E+04</pdfrwt>
<pdfrwt beam="2">  1       -2 0.33050416E+00 0.10729202E+04</pdfrwt>
<totfact> 0.10377884E+00</totfact>
</mgrwt>
</event>
<event>
12    1  0.1418317E-007  0.8582306E+03  0.7818608E-02  0.9479356E-01
         -1   -1    0    0    0  501 -0.00000000000E+00  0.00000000000E+00  0.65843252440E+03  0.65843252440E+03  0.00000000000E+00 0.  1.
          1   -1    0    0  501    0  0.00000000000E+00 -0.00000000000E+00 -0.18062587344E+04  0.18062587344E+04  0.00000000000E+00 0. -1.
         23    2    1    2    0    0  0.76199994248E+03  0.26291342565E+03  0.14825345619E+03  0.82465979375E+03  0.91199267660E+02 0.  0.
    5000000    2    1    2    0    0 -0.76199994248E+03 -0.26291342565E+03 -0.12960796662E+04  0.16400314651E+04  0.60009442886E+03 0.  0.
         23    2    4    4    0    0 -0.45340132885E+03 -0.35280230180E+03 -0.46651994965E+03  0.74565693155E+03  0.91220430742E+02 0.  0.
         23    2    4    4    0    0 -0.30859861363E+03  0.89888876155E+02 -0.82955971655E+03  0.89437453352E+03  0.91778910927E+02 0.  0.
          4    1    3    3  502    0  0.15713019617E+03  0.23102093947E+02  0.78721110236E+01  0.15901438748E+03  0.00000000000E+00 0. -1.
         -4    1    3    3    0  502  0.60486974631E+03  0.23981133170E+03  0.14038134517E+03  0.66564540627E+03  0.00000000000E+00 0.  1.
         11    1    5    5    0    0 -0.20982292182E+03 -0.20153490476E+03 -0.27874619521E+03  0.40291614227E+03  0.00000000000E+00 0.  1.
        -11    1    5    5    0    0 -0.24357840703E+03 -0.15126739704E+03 -0.18777375444E+03  0.34274078928E+03  0.00000000000E+00 0. -1.
          1    1    6    6  503    0 -0.10267119198E+03  0.65869607185E+02 -0.38468208416E+03  0.40355976595E+03  0.00000000000E+00 0. -1.
         -1    1    6    6    0  503 -0.20592742165E+03  0.24019268970E+02 -0.44487763239E+03  0.49081476757E+03  0.00000000000E+00 0.  1.
<mgrwt>
<rscale>  0 0.85823058E+03</rscale>
<asrwt>0</asrwt>
<pdfrwt beam="1">  1        1 0.27788596E+00 0.85823058E+03</pdfrwt>
<pdfrwt beam="2">  1       -1 0.10129731E+00 0.85823058E+03</pdfrwt>
<totfact> 0.38418692E+00</totfact>
</mgrwt>
</event>
<event>
12    1  0.1418317E-007  0.4570295E+03  0.7818608E-02  0.1025646E+00
         -2   -1    0    0    0  501 -0.00000000000E+00  0.00000000000E+00  0.43802052449E+03  0.43802052449E+03  0.00000000000E+00 0.  1.
          2   -1    0    0  501    0  0.00000000000E+00 -0.00000000000E+00 -0.12432054934E+04  0.12432054934E+04  0.00000000000E+00 0. -1.
         23    2    1    2    0    0  0.39754146918E+03 -0.18031857463E+03  0.15137063410E+03  0.47019694418E+03  0.87281666848E+02 0.  0.
    5000000    2    1    2    0    0 -0.39754146918E+03  0.18031857463E+03 -0.95655560299E+03  0.12110290737E+04  0.60086503280E+03 0.  0.
         23    2    4    4    0    0 -0.10938639343E+03  0.10742456137E+03  0.26030852475E+02  0.18049416912E+03  0.91624889375E+02 0.  0.
         23    2    4    4    0    0 -0.28815507575E+03  0.72894013256E+02 -0.98258645547E+03  0.10305349046E+04  0.90438720843E+02 0.  0.
          2    1    3    3  502    0  0.20195292056E+03 -0.13535499877E+03  0.64612269623E+02  0.25155656064E+03  0.00000000000E+00 0. -1.
         -2    1    3    3    0  502  0.19558854862E+03 -0.44963575859E+02  0.86758364480E+02  0.21864038354E+03  0.00000000000E+00 0.  1.
         13    1    5    5    0    0 -0.22205428753E+02  0.73434021238E+02 -0.15251967475E+02  0.78219301027E+02  0.00000000000E+00 0.  1.
        -13    1    5    5    0    0 -0.87180964682E+02  0.33990540132E+02  0.41282819949E+02  0.10227486810E+03  0.00000000000E+00 0. -1.
          1    1    6    6  503    0 -0.14698731099E+03  0.16365598154E+02 -0.35071910606E+03  0.38062710591E+03  0.00000000000E+00 0. -1.
         -1    1    6    6    0  503 -0.14116776476E+03  0.56528415102E+02 -0.63186734941E+03  0.64990779867E+03  0.00000000000E+00 0.  1.
<mgrwt>
<rscale>  0 0.45702946E+03</rscale>
<asrwt>0</asrwt>
<pdfrwt beam="1">  1        2 0.19126238E+00 0.45702946E+03</pdfrwt>
<pdfrwt beam="2">  1       -2 0.67387774E-01 0.45702946E+03</pdfrwt>
<totfact> 0.38154069E+01</totfact>
</mgrwt>
</event>
<event>
12    1  0.1418317E-007  0.5812613E+03  0.7818608E-02  0.9945064E-01
          1   -1    0    0  501    0  0.00000000000E+00  0.00000000000E+00  0.12228156096E+04  0.12228156096E+04  0.00000000000E+00 0. -1.
         -1   -1    0    0    0  501 -0.00000000000E+00 -0.00000000000E+00 -0.30381832069E+03  0.30381832069E+03  0.00000000000E+00 0.  1.
         23    2    1    2    0    0 -0.42641137501E+03 -0.12421489670E+03  0.48167218059E+03  0.66152479456E+03  0.91383603412E+02 0.  0.
    5000000    2    1    2    0    0  0.42641137501E+03  0.12421489670E+03  0.43732510828E+03  0.86510913568E+03  0.59992046556E+03 0.  0.
         23    2    4    4    0    0  0.34935601042E+03 -0.17733795896E+03  0.34095103675E+03  0.52746311204E+03  0.92039944556E+02 0.  0.
         23    2    4    4    0    0  0.77055364585E+02  0.30155285566E+03  0.96374071531E+02  0.33764602364E+03  0.88573255824E+02 0.  0.
          3    1    3    3  502    0 -0.11734634441E+03 -0.84038348409E+01  0.17580707321E+03  0.21153939580E+03  0.00000000000E+00 0. -1.
         -3    1    3    3    0  502 -0.30906503060E+03 -0.11581106186E+03  0.30586510738E+03  0.44998539876E+03  0.00000000000E+00 0.  1.
         13    1    5    5    0    0  0.22451725032E+03 -0.94356423482E+02  0.26323160066E+03  0.35861121835E+03  0.00000000000E+00 0. -1.
        -13    1    5    5    0    0  0.12483876011E+03 -0.82981535481E+02  0.77719436088E+02  0.16885189369E+03  0.00000000000E+00 0.  1.
          3    1    6    6  503    0  0.88128100777E+02  0.19184077970E+03  0.81840908065E+02  0.22642301370E+03  0.00000000000E+00 0. -1.
         -3    1    6    6    0  503 -0.11072736192E+02  0.10971207596E+03  0.14533163466E+02  0.11122300993E+03  0.00000000000E+00 0.  1.
<mgrwt>
<rscale>  0 0.58126129E+03</rscale>
<asrwt>0</asrwt>
<pdfrwt beam="1">  1        1 0.18812548E+00 0.58126129E+03</pdfrwt>
<pdfrwt beam="2">  1       -1 0.46741281E-01 0.58126129E+03</pdfrwt>
<totfact> 0.49087121E+01</totfact>
</mgrwt>
</event>
<event>
12    1  0.1418317E-007  0.1283665E+04  0.7818608E-02  0.9042620E-01
         -2   -1    0    0    0  501 -0.00000000000E+00  0.00000000000E+00  0.26850773477E+04  0.26850773477E+04  0.00000000000E+00 0.  1.
          2   -1    0    0  501    0  0.00000000000E+00 -0.00000000000E+00 -0.81835044775E+03  0.81835044775E+03  0.00000000000E+00 0. -1.
         23    2    1    2    0    0  0.75726900388E+03 -0.10270415065E+04  0.16328720410E+04  0.20742787979E+04  0.89949034903E+02 0.  0.
    5000000    2    1    2    0    0 -0.75726900388E+03  0.10270415065E+04  0.23385485896E+03  0.14291489976E+04  0.59958999482E+03 0.  0.
         23    2    4    4    0    0 -0.11034582453E+03  0.21955219017E+03  0.28868752582E+03  0.38890975534E+03  0.86781017695E+02 0.  0.
         23    2    4    4    0    0 -0.64692317935E+03  0.80748931631E+03 -0.54832666867E+02  0.10402392422E+04  0.92425449760E+02 0.  0.
          3    1    3    3  502    0  0.11019077811E+03 -0.16517387742E+03  0.30733679783E+03  0.36589660379E+03  0.00000000000E+00 0. -1.
         -3    1    3    3    0  502  0.64707822577E+03 -0.86186762906E+03  0.13255352432E+04  0.17083821941E+04  0.00000000000E+00 0.  1.
         11    1    5    5    0    0  0.81189604671E+01  0.24621379873E+01  0.29365289058E+02  0.30566318783E+02  0.00000000000E+00 0. -1.
        -11    1    5    5    0    0 -0.11846478500E+03  0.21709005219E+03  0.25932223677E+03  0.35834343656E+03  0.00000000000E+00 0.  1.
          1    1    6    6  503    0 -0.19879328025E+03  0.22333018473E+03 -0.54909434788E+02  0.30399043688E+03  0.00000000000E+00 0. -1.
         -1    1    6    6    0  503 -0.44812989910E+03  0.58415913158E+03  0.76767921220E-01  0.73624880534E+03  0.00000000000E+00 0.  1.
<mgrwt>
<rscale>  0 0.12836648E+04</rscale>
<asrwt>0</asrwt>
<pdfrwt beam="1">  1        2 0.12590007E+00 0.12836648E+04</pdfrwt>
<pdfrwt beam="2">  1       -2 0.41308882E+00 0.12836648E+04</pdfrwt>
<totfact> 0.19895030E-01</totfact>
</mgrwt>
</event>
<event>
12    1  0.1418317E-007  0.8218242E+03  0.7818608E-02  0.9528954E-01
          2   -1    0    0  501    0  0.00000000000E+00  0.00000000000E+00  0.20053546970E+04  0.20053546970E+04  0.00000000000E+00 0.  1.
         -2   -1    0    0    0  501 -0.00000000000E+00 -0.00000000000E+00 -0.41115418050E+03  0.41115418050E+03  0.00000000000E+00 0. -1.
         23    2    1    2    0    0 -0.70534495784E+03 -0.16422173696E+03  0.11775536189E+04  0.13878999421E+04  0.12309929158E+03 0.  0.
    5000000    2    1    2    0    0  0.70534495784E+03  0.16422173696E+03  0.41664689763E+03  0.10286089354E+04  0.59996784596E+03 0.  0.
         23    2    4    4    0    0 -0.72899156571E+02 -0.80222608603E+01 -0.14009833511E+02  0.11815387659E+03  0.91571935773E+02 0.  0.
         23    2    4    4    0    0  0.77824411441E+03  0.17224399782E+03  0.43065673115E+03  0.91045505878E+03  0.90173707816E+02 0.  0.
          1    1    3    3  502    0 -0.25913464821E+03 -0.10304940936E+03  0.53353212859E+03  0.60201866990E+03  0.00000000000E+00 0. -1.
         -1    1    3    3    0  502 -0.44621030963E+03 -0.61172327601E+02  0.64402149029E+03  0.78588127223E+03  0.00000000000E+00 0.  1.
         11    1    5    5    0    0 -0.38086776438E+02 -0.49951543241E+02 -0.81751766904E+01  0.63345029209E+02  0.00000000000E+00 0. -1.
        -11    1    5    5    0    0 -0.34812380133E+02  0.41929282381E+02 -0.58346568206E+01  0.54808847385E+02  0.00000000000E+00 0.  1.
          1    1    6    6  503    0  0.24567652716E+03  0.53507237161E+02  0.18445089496E+03  0.31183667693E+03  0.00000000000E+00 0. -1.
         -1    1    6    6    0  503  0.53256758725E+03  0.11873676066E+03  0.24620583618E+03  0.59861838185E+03  0.00000000000E+00 0.  1.
<mgrwt>
<rscale>  0 0.82182422E+03</rscale>
<asrwt>0</asrwt>
<pdfrwt beam="1">  1        2 0.30851610E+00 0.82182422E+03</pdfrwt>
<pdfrwt beam="2">  1       -2 0.63254490E-01 0.82182422E+03</pdfrwt>
<totfact> 0.15736874E+01</totfact>
</mgrwt>
</event>
<event>
12    1  0.1418317E-007  0.4905075E+03  0.7818608E-02  0.1016287E+00
         -1   -1    0    0    0  501 -0.00000000000E+00  0.00000000000E+00  0.25987839834E+03  0.25987839834E+03  0.00000000000E+00 0.  1.
          1   -1    0    0  501    0  0.00000000000E+00 -0.00000000000E+00 -0.13579188910E+04  0.13579188910E+04  0.00000000000E+00 0. -1.
         23    2    1    2    0    0  0.35319447602E+03 -0.15000497393E+03 -0.69753604674E+03  0.80151264390E+03  0.92834001043E+02 0.  0.
    5000000    2    1    2    0    0 -0.35319447602E+03  0.15000497393E+03 -0.40050444589E+03  0.81628464540E+03  0.59888979040E+03 0.  0.
         23    2    4    4    0    0  0.50140777116E+02 -0.66363434705E+02 -0.31855783921E+03  0.34222248037E+03  0.93375190240E+02 0.  0.
         23    2    4    4    0    0 -0.40333525313E+03  0.21636840863E+03 -0.81946606678E+02  0.47406216503E+03  0.92331334265E+02 0.  0.
          4    1    3    3  502    0  0.30357463755E+03 -0.94046589812E+02 -0.52895621372E+03  0.61708751215E+03  0.00000000000E+00 0.  1.
         -4    1    3    3    0  502  0.49619838465E+02 -0.55958384118E+02 -0.16857983301E+03  0.18442513175E+03  0.00000000000E+00 0. -1.
         11    1    5    5    0    0 -0.19778059876E+02  0.92087996292E+01 -0.64808978018E+02  0.68382580200E+02  0.00000000000E+00 0. -1.
        -11    1    5    5    0    0  0.69918836992E+02 -0.75572234334E+02 -0.25374886119E+03  0.27383990017E+03  0.00000000000E+00 0.  1.
          3    1    6    6  503    0 -0.29222062310E+03  0.19269956837E+03 -0.37385856577E+02  0.35202800810E+03  0.00000000000E+00 0. -1.
         -3    1    6    6    0  503 -0.11111463004E+03  0.23668840266E+02 -0.44560750101E+02  0.12203415693E+03  0.00000000000E+00 0.  1.
<mgrwt>
<rscale>  0 0.49050751E+03</rscale>
<asrwt>0</asrwt>
<pdfrwt beam="1">  1        1 0.20891060E+00 0.49050751E+03</pdfrwt>
<pdfrwt beam="2">  1       -1 0.39981293E-01 0.49050751E+03</pdfrwt>
<totfact> 0.53245015E+01</totfact>
</mgrwt>
</event>
<event>
12    1  0.1418317E-007  0.7052042E+03  0.7818608E-02  0.9708373E-01
         -2   -1    0    0    0  501 -0.00000000000E+00  0.00000000000E+00  0.22092497637E+04  0.22092497637E+04  0.00000000000E+00 0.  1.
          2   -1    0    0  501    0  0.00000000000E+00 -0.00000000000E+00 -0.29404391594E+03  0.29404391594E+03  0.00000000000E+00 0. -1.
         23    2    1    2    0    0 -0.64154456679E+03 -0.25497853820E+03  0.78140200221E+03  0.10465994271E+04  0.90486383351E+02 0.  0.
    5000000    2    1    2    0    0  0.64154456679E+03  0.25497853820E+03  0.11338038456E+04  0.14566942526E+04  0.59987790356E+03 0.  0.
         23    2    4    4    0    0  0.41948298608E+03  0.15037003785E+03  0.11010484330E+04  0.11915176969E+04  0.93966197406E+02 0.  0.
         23    2    4    4    0    0  0.22206158070E+03  0.10460850035E+03  0.32755412590E+02  0.26517655573E+03  0.94823017695E+02 0.  0.
          3    1    3    3  502    0 -0.14429540924E+03 -0.18207953494E+02  0.16976332291E+03  0.22354480648E+03  0.00000000000E+00 0. -1.
         -3    1    3    3    0  502 -0.49724915754E+03 -0.23677058471E+03  0.61163867931E+03  0.82305462060E+03  0.00000000000E+00 0.  1.
         13    1    5    5    0    0  0.20576201436E+03  0.12147612409E+03  0.61407589310E+03  0.65892613984E+03  0.00000000000E+00 0. -1.
        -13    1    5    5    0    0  0.21372097172E+03  0.28893913753E+02  0.48697253990E+03  0.53259155703E+03  0.00000000000E+00 0.  1.
          4    1    6    6  503    0  0.15472626816E+03  0.27336028078E+02  0.40902004289E+02  0.16235901713E+03  0.00000000000E+00 0.  1.
         -4    1    6    6    0  503  0.67335312544E+02  0.77272472276E+02 -0.81465916993E+01  0.10281753860E+03  0.00000000000E+00 0. -1.
<mgrwt>
<rscale>  0 0.70520422E+03</rscale>
<asrwt>0</asrwt>
<pdfrwt beam="1">  1        2 0.45237527E-01 0.70520422E+03</pdfrwt>
<pdfrwt beam="2">  1       -2 0.33988457E+00 0.70520422E+03</pdfrwt>
<totfact> 0.21374882E+00</totfact>
</mgrwt>
</event>
<event>
12    1  0.1418317E-007  0.7626923E+03  0.7818608E-02  0.9615646E-01
         -1   -1    0    0    0  501 -0.00000000000E+00  0.00000000000E+00  0.13092395199E+04  0.13092395199E+04  0.00000000000E+00 0.  1.
          1   -1    0    0  501    0  0.00000000000E+00 -0.00000000000E+00 -0.49537555038E+03  0.49537555038E+03  0.00000000000E+00 0. -1.
         23    2    1    2    0    0  0.34900919798E+03 -0.59138525243E+03  0.42932172599E+03  0.81498948390E+03  0.91360699350E+02 0.  0.
    5000000    2    1    2    0    0 -0.34900919798E+03  0.59138525243E+03  0.38454224354E+03  0.98962558639E+03  0.59995177065E+03 0.  0.
         23    2    4    4    0    0 -0.35240854296E+03  0.13843606522E+03  0.35449411296E+03  0.52645089445E+03  0.90156213534E+02 0.  0.
         23    2    4    4    0    0  0.33993449873E+01  0.45294918721E+03  0.30048130585E+02  0.46317469194E+03  0.91942282757E+02 0.  0.
          1    1    3    3  502    0  0.25009757586E+03 -0.49491809877E+03  0.34783451944E+03  0.65458504020E+03  0.00000000000E+00 0. -1.
         -1    1    3    3    0  502  0.98911622119E+02 -0.96467153667E+02  0.81487206552E+02  0.16040444370E+03  0.00000000000E+00 0.  1.
         13    1    5    5    0    0 -0.27385491939E+03  0.10098889334E+03  0.21690956611E+03  0.36365510215E+03  0.00000000000E+00 0. -1.
        -13    1    5    5    0    0 -0.78553623576E+02  0.37447171881E+02  0.13758454685E+03  0.16279579230E+03  0.00000000000E+00 0.  1.
          4    1    6    6  503    0 -0.10173966409E+02  0.31843683940E+03  0.61230451291E+02  0.32442980511E+03  0.00000000000E+00 0.  1.
         -4    1    6    6    0  503  0.13573311396E+02  0.13451234781E+03 -0.31182320705E+02  0.13874488683E+03  0.00000000000E+00 0. -1.
<mgrwt>
<rscale>  0 0.76269228E+03</rscale>
<asrwt>0</asrwt>
<pdfrwt beam="1">  1        1 0.76211624E-01 0.76269228E+03</pdfrwt>
<pdfrwt beam="2">  1       -1 0.20142146E+00 0.76269228E+03</pdfrwt>
<totfact> 0.68197335E+00</totfact>
</mgrwt>
</event>
<event>
12    1  0.1418317E-007  0.7892249E+03  0.7818608E-02  0.9575746E-01
         -2   -1    0    0    0  501 -0.00000000000E+00  0.00000000000E+00  0.10524505432E+04  0.10524505432E+04  0.00000000000E+00 0.  1.
          2   -1    0    0  501    0  0.00000000000E+00 -0.00000000000E+00 -0.79508132561E+03  0.79508132561E+03  0.00000000000E+00 0. -1.
         23    2    1    2    0    0 -0.22252775949E+03  0.63946478087E+03 -0.34072152968E+03  0.76302690170E+03  0.87664600621E+02 0.  0.
    5000000    2    1    2    0    0  0.22252775949E+03 -0.63946478087E+03  0.59809074722E+03  0.10845049671E+04  0.60000389328E+03 0.  0.
         23    2    4    4    0    0  0.40593313271E+03 -0.52634903086E+03  0.44546426222E+03  0.80518785317E+03  0.89800108324E+02 0.  0.
         23    2    4    4    0    0 -0.18340537322E+03 -0.11311575001E+03  0.15262648500E+03  0.27931711390E+03  0.91052195837E+02 0.  0.
          3    1    3    3  502    0 -0.18149713298E+03  0.39329361102E+03 -0.21809627197E+03  0.48496088255E+03  0.00000000000E+00 0. -1.
         -3    1    3    3    0  502 -0.41030626508E+02  0.24617116985E+03 -0.12262525771E+03  0.27806601915E+03  0.00000000000E+00 0.  1.
         13    1    5    5    0    0  0.23108268973E+03 -0.22781820522E+03  0.22702938972E+03  0.39603369544E+03  0.00000000000E+00 0. -1.
        -13    1    5    5    0    0  0.17485044298E+03 -0.29853082564E+03  0.21843487250E+03  0.40915415773E+03  0.00000000000E+00 0.  1.
          3    1    6    6  503    0 -0.13130494678E+03 -0.43527080242E+02  0.55716955302E+02  0.14913073081E+03  0.00000000000E+00 0. -1.
         -3    1    6    6    0  503 -0.52100426436E+02 -0.69588669772E+02  0.96909529698E+02  0.13018638309E+03  0.00000000000E+00 0.  1.
<mgrwt>
<rscale>  0 0.78922485E+03</rscale>
<asrwt>0</asrwt>
<pdfrwt beam="1">  1        2 0.12232020E+00 0.78922485E+03</pdfrwt>
<pdfrwt beam="2">  1       -2 0.16191547E+00 0.78922485E+03</pdfrwt>
<totfact> 0.85749713E+00</totfact>
</mgrwt>
</event>
<event>
12    1  0.1418317E-007  0.2484149E+03  0.7818608E-02  0.1114311E+00
          1   -1    0    0  501    0  0.00000000000E+00  0.00000000000E+00  0.10627127054E+04  0.10627127054E+04  0.00000000000E+00 0. -1.
         -1   -1    0    0    0  501 -0.00000000000E+00 -0.00000000000E+00 -0.14393850184E+03  0.14393850184E+03  0.00000000000E+00 0.  1.
         23    2    1    2    0    0  0.13168158580E+03  0.10650197593E+02  0.26553844756E+03  0.30986310390E+03  0.89727416559E+02 0.  0.
    5000000    2    1    2    0    0 -0.13168158580E+03 -0.10650197593E+02  0.65323575598E+03  0.89678810332E+03  0.60004873353E+03 0.  0.
         23    2    4    4    0    0 -0.23319791186E+03 -0.36491447049E+02  0.24466926048E+02  0.25305894865E+03  0.87905114880E+02 0.  0.
         23    2    4    4    0    0  0.10151632606E+03  0.25841249456E+02  0.62876882993E+03  0.64372915466E+03  0.89797819789E+02 0.  0.
          1    1    3    3  502    0  0.64472008089E+02  0.38690081095E+02  0.19276338498E+03  0.20690888041E+03  0.00000000000E+00 0. -1.
         -1    1    3    3    0  502  0.67209577709E+02 -0.28039883502E+02  0.72775062578E+02  0.10295422350E+03  0.00000000000E+00 0.  1.
         13    1    5    5    0    0 -0.14934541953E+03  0.66543752834E+01 -0.16187103169E+02  0.15036740789E+03  0.00000000000E+00 0. -1.
        -13    1    5    5    0    0 -0.83852492324E+02 -0.43145822332E+02  0.40654029216E+02  0.10269154077E+03  0.00000000000E+00 0.  1.
          2    1    6    6  503    0  0.58948759238E+02  0.18800827020E+02  0.14004660451E+03  0.15310610290E+03  0.00000000000E+00 0. -1.
         -2    1    6    6    0  503  0.42567566820E+02  0.70404224364E+01  0.48872222542E+03  0.49062305176E+03  0.00000000000E+00 0.  1.
<mgrwt>
<rscale>  0 0.24841488E+03</rscale>
<asrwt>0</asrwt>
<pdfrwt beam="1">  1        1 0.16349426E+00 0.24841488E+03</pdfrwt>
<pdfrwt beam="2">  1       -1 0.22144386E-01 0.24841488E+03</pdfrwt>
<totfact> 0.24775709E+02</totfact>
</mgrwt>
</event>
<event>
12    1  0.1418317E-007  0.7174607E+03  0.7818608E-02  0.9687829E-01
          1   -1    0    0  501    0  0.00000000000E+00  0.00000000000E+00  0.25019191294E+04  0.25019191294E+04  0.00000000000E+00 0. -1.
         -1   -1    0    0    0  501 -0.00000000000E+00 -0.00000000000E+00 -0.21985988289E+03  0.21985988289E+03  0.00000000000E+00 0.  1.
         23    2    1    2    0    0 -0.24989117540E+03  0.54265110705E+03  0.67408174889E+03  0.90454449453E+03  0.83058502715E+02 0.  0.
    5000000    2    1    2    0    0  0.24989117540E+03 -0.54265110705E+03  0.16079774976E+04  0.18172345177E+04  0.59986151418E+03 0.  0.
         23    2    4    4    0    0  0.42510971399E+03 -0.27487949174E+03  0.99462696645E+03  0.11199107973E+04  0.92953685455E+02 0.  0.
         23    2    4    4    0    0 -0.17521853860E+03 -0.26777161530E+03  0.61335053114E+03  0.69732372043E+03  0.87511843718E+02 0.  0.
          2    1    3    3  502    0 -0.24643790133E+02  0.11801971252E+03  0.16546699410E+03  0.20473225216E+03  0.00000000000E+00 0. -1.
         -2    1    3    3    0  502 -0.22524738526E+03  0.42463139453E+03  0.50861475479E+03  0.69981224237E+03  0.00000000000E+00 0.  1.
         13    1    5    5    0    0  0.24866931320E+03 -0.10966287539E+03  0.48803380456E+03  0.55860484062E+03  0.00000000000E+00 0.  1.
        -13    1    5    5    0    0  0.17644040079E+03 -0.16521661635E+03  0.50659316189E+03  0.56130595670E+03  0.00000000000E+00 0. -1.
          2    1    6    6  503    0 -0.11947842877E+03 -0.19157381065E+03  0.50768752656E+03  0.55562779313E+03  0.00000000000E+00 0. -1.
         -2    1    6    6    0  503 -0.55740109822E+02 -0.76197804651E+02  0.10566300458E+03  0.14169592730E+03  0.00000000000E+00 0.  1.
<mgrwt>
<rscale>  0 0.71746072E+03</rscale>
<asrwt>0</asrwt>
<pdfrwt beam="1">  1        1 0.38491062E+00 0.71746072E+03</pdfrwt>
<pdfrwt beam="2">  1       -1 0.33824599E-01 0.71746072E+03</pdfrwt>
<totfact> 0.11784748E+01</totfact>
</mgrwt>
</event>
<event>
12    1  0.1418317E-007  0.8145017E+03  0.7818608E-02  0.9539260E-01
         -1   -1    0    0    0  501 -0.00000000000E+00  0.00000000000E+00  0.11002501353E+04  0.11002501353E+04  0.00000000000E+00 0.  1.
          1   -1    0    0  501    0  0.00000000000E+00 -0.00000000000E+00 -0.10591224657E+04  0.10591224657E+04  0.00000000000E+00 0. -1.
         23    2    1    2    0    0 -0.69361238195E+03  0.28545072864E+03  0.67112149615E+03  0.10104529627E+04  0.89615135199E+02 0.  0.
    5000000    2    1    2    0    0  0.69361238195E+03 -0.28545072864E+03 -0.62999382649E+03  0.11489196383E+04  0.60045304476E+03 0.  0.
         23    2    4    4    0    0  0.68562379466E+03 -0.34092856414E+03 -0.68188782894E+03  0.10285627714E+04  0.81597118246E+02 0.  0.
         23    2    4    4    0    0  0.79885872828E+01  0.55477835499E+02  0.51894002450E+02  0.12035686693E+03  0.93011720601E+02 0.  0.
          4    1    3    3  502    0 -0.45580982100E+03  0.14955438195E+03  0.46009561343E+03  0.66469322215E+03  0.00000000000E+00 0.  1.
         -4    1    3    3    0  502 -0.23780256094E+03  0.13589634669E+03  0.21102588272E+03  0.34575974059E+03  0.00000000000E+00 0. -1.
         11    1    5    5    0    0  0.47910228615E+03 -0.26267407829E+03 -0.44476997142E+03  0.70452608148E+03  0.00000000000E+00 0.  1.
        -11    1    5    5    0    0  0.20652150851E+03 -0.78254485848E+02 -0.23711785752E+03  0.32403668988E+03  0.00000000000E+00 0. -1.
          2    1    6    6  503    0  0.49886929419E+02  0.21985428540E+02  0.31556851011E+02  0.62991266384E+02  0.00000000000E+00 0.  1.
         -2    1    6    6    0  503 -0.41898342136E+02  0.33492406959E+02  0.20337151439E+02  0.57365600549E+02  0.00000000000E+00 0. -1.
<mgrwt>
<rscale>  0 0.81450172E+03</rscale>
<asrwt>0</asrwt>
<pdfrwt beam="1">  1        1 0.16294192E+00 0.81450172E+03</pdfrwt>
<pdfrwt beam="2">  1       -1 0.16926925E+00 0.81450172E+03</pdfrwt>
<totfact> 0.34906345E+00</totfact>
</mgrwt>
</event>
<event>
12    1  0.1418317E-007  0.8467670E+03  0.7818608E-02  0.9494686E-01
          1   -1    0    0  501    0  0.00000000000E+00  0.00000000000E+00  0.88100064190E+03  0.88100064190E+03  0.00000000000E+00 0. -1.
         -1   -1    0    0    0  501 -0.00000000000E+00 -0.00000000000E+00 -0.12822898915E+04  0.12822898915E+04  0.00000000000E+00 0.  1.
         23    2    1    2    0    0 -0.25262667078E+02  0.74061843908E+03 -0.83120745223E+03  0.11175031182E+04  0.93560226433E+02 0.  0.
    5000000    2    1    2    0    0  0.25262667078E+02 -0.74061843908E+03  0.42991820262E+03  0.10457874152E+04  0.59973976202E+03 0.  0.
         23    2    4    4    0    0 -0.13847821844E+03  0.24255016166E+02  0.53281214135E+02  0.17286396520E+03  0.85314359247E+02 0.  0.
         23    2    4    4    0    0  0.16374088551E+03 -0.76487345525E+03  0.37663698849E+03  0.87292344998E+03  0.91090330408E+02 0.  0.
          4    1    3    3  502    0 -0.36033762281E+02  0.30649769618E+03 -0.28866002366E+03  0.42256819455E+03  0.00000000000E+00 0. -1.
         -4    1    3    3    0  502  0.10771095203E+02  0.43412074291E+03 -0.54254742857E+03  0.69493492369E+03  0.00000000000E+00 0.  1.
         11    1    5    5    0    0 -0.10325249038E+03 -0.22047878925E+02  0.26722538540E+02  0.10890950280E+03  0.00000000000E+00 0.  1.
        -11    1    5    5    0    0 -0.35225728059E+02  0.46302895092E+02  0.26558675595E+02  0.63954462397E+02  0.00000000000E+00 0. -1.
          4    1    6    6  503    0  0.17331770950E+03 -0.69028176028E+03  0.33057499000E+03  0.78473419768E+03  0.00000000000E+00 0. -1.
         -4    1    6    6    0  503 -0.95768239812E+01 -0.74591694974E+02  0.46061998490E+02  0.88189252302E+02  0.00000000000E+00 0.  1.
<mgrwt>
<rscale>  0 0.84676701E+03</rscale>
<asrwt>0</asrwt>
<pdfrwt beam="1">  1        1 0.13553856E+00 0.84676701E+03</pdfrwt>
<pdfrwt beam="2">  1       -1 0.19727537E+00 0.84676701E+03</pdfrwt>
<totfact> 0.30382684E+00</totfact>
</mgrwt>
</event>
<event>
12    1  0.1418317E-007  0.5822676E+03  0.7818608E-02  0.9942894E-01
         -1   -1    0    0    0  501 -0.00000000000E+00  0.00000000000E+00  0.56987486245E+03  0.56987486245E+03  0.00000000000E+00 0.  1.
          1   -1    0    0  501    0  0.00000000000E+00 -0.00000000000E+00 -0.10225081000E+04  0.10225081000E+04  0.00000000000E+00 0. -1.
         23    2    1    2    0    0 -0.41620679921E+03 -0.34763384929E+03 -0.54990666060E+03  0.77784162044E+03  0.92535713263E+02 0.  0.
    5000000    2    1    2    0    0  0.41620679921E+03  0.34763384929E+03  0.97273423071E+02  0.81454134199E+03  0.59994840285E+03 0.  0.
         23    2    4    4    0    0  0.33185411770E+03  0.35288308892E+03 -0.16677978949E+03  0.52021493231E+03  0.90301980799E+02 0.  0.
         23    2    4    4    0    0  0.84352681511E+02 -0.52492396240E+01  0.26405321256E+03  0.29432640968E+03  0.98797808562E+02 0.  0.
          4    1    3    3  502    0 -0.25054535289E+03 -0.17896703781E+03 -0.25439492586E+03  0.39939823833E+03  0.00000000000E+00 0. -1.
         -4    1    3    3    0  502 -0.16566144632E+03 -0.16866681148E+03 -0.29551173474E+03  0.37844338210E+03  0.00000000000E+00 0.  1.
         11    1    5    5    0    0  0.18134276228E+03  0.13511725462E+03 -0.99588511424E+02  0.24710269431E+03  0.00000000000E+00 0. -1.
        -11    1    5    5    0    0  0.15051135542E+03  0.21776583429E+03 -0.67191278065E+02  0.27311223800E+03  0.00000000000E+00 0.  1.
          3    1    6    6  503    0  0.52726723185E+02 -0.51251861694E+02  0.16457242167E+03  0.18025244142E+03  0.00000000000E+00 0. -1.
         -3    1    6    6    0  503  0.31625958326E+02  0.46002622070E+02  0.99480790891E+02  0.11407396826E+03  0.00000000000E+00 0.  1.
<mgrwt>
<rscale>  0 0.58226755E+03</rscale>
<asrwt>0</asrwt>
<pdfrwt beam="1">  1        1 0.15730894E+00 0.58226755E+03</pdfrwt>
<pdfrwt beam="2">  1       -1 0.87673056E-01 0.58226755E+03</pdfrwt>
<totfact> 0.19598021E+01</totfact>
</mgrwt>
</event>
<event>
12    1  0.1418317E-007  0.6595660E+03  0.7818608E-02  0.9788993E-01
         -1   -1    0    0    0  501 -0.00000000000E+00  0.00000000000E+00  0.54430130411E+03  0.54430130411E+03  0.00000000000E+00 0.  1.
          1   -1    0    0  501    0  0.00000000000E+00 -0.00000000000E+00 -0.92664880339E+03  0.92664880339E+03  0.00000000000E+00 0. -1.
         23    2    1    2    0    0  0.17813801878E+03 -0.54199636026E+03 -0.54899811034E+02  0.58052097645E+03  0.92181378672E+02 0.  0.
    5000000    2    1    2    0    0 -0.17813801878E+03  0.54199636026E+03 -0.32744768825E+03  0.89042913105E+03  0.60012402102E+03 0.  0.
         23    2    4    4    0    0  0.15365498675E+03  0.16248909577E+03  0.60773681518E+02  0.24769306740E+03  0.87440574540E+02 0.  0.
         23    2    4    4    0    0 -0.33179300553E+03  0.37950726449E+03 -0.38822136977E+03  0.64273606365E+03  0.91002490289E+02 0.  0.
          1    1    3    3  502    0  0.61825120449E+02 -0.83106772282E+02  0.27842110284E+01  0.10361869015E+03  0.00000000000E+00 0. -1.
         -1    1    3    3    0  502  0.11631289833E+03 -0.45888958798E+03 -0.57684022062E+02  0.47690228630E+03  0.00000000000E+00 0.  1.
         13    1    5    5    0    0  0.11798670626E+03  0.66094653557E+02  0.18258630125E+02  0.13646517379E+03  0.00000000000E+00 0. -1.
        -13    1    5    5    0    0  0.35668280491E+02  0.96394442211E+02  0.42515051393E+02  0.11122789361E+03  0.00000000000E+00 0.  1.
          4    1    6    6  503    0 -0.10488414347E+03  0.11584405983E+03 -0.17549848479E+03  0.23498988896E+03  0.00000000000E+00 0. -1.
         -4    1    6    6    0  503 -0.22690886207E+03  0.26366320466E+03 -0.21272288498E+03  0.40774617468E+03  0.00000000000E+00 0.  1.
<mgrwt>
<rscale>  0 0.65956595E+03</rscale>
<asrwt>0</asrwt>
<pdfrwt beam="1">  1        1 0.14256135E+00 0.65956595E+03</pdfrwt>
<pdfrwt beam="2">  1       -1 0.83738664E-01 0.65956595E+03</pdfrwt>
<totfact> 0.25423074E+01</totfact>
</mgrwt>
</event>
<event>
12    1  0.1418317E-007  0.6261729E+03  0.7818608E-02  0.9852546E-01
          2   -1    0    0  501    0  0.00000000000E+00  0.00000000000E+00  0.63063308023E+03  0.63063308023E+03  0.00000000000E+00 0. -1.
         -2   -1    0    0    0  501 -0.00000000000E+00 -0.00000000000E+00 -0.10095359229E+04  0.10095359229E+04  0.00000000000E+00 0.  1.
         23    2    1    2    0    0  0.39556015584E+02 -0.51826848006E+03  0.29021960005E+03  0.60196415106E+03  0.89255403857E+02 0.  0.
    5000000    2    1    2    0    0 -0.39556015584E+02  0.51826848006E+03 -0.66912244268E+03  0.10382048520E+04  0.59998131279E+03 0.  0.
         23    2    4    4    0    0  0.28430546080E+02  0.61058849259E+03 -0.64019334478E+03  0.88977907571E+03  0.90734126060E+02 0.  0.
         23    2    4    4    0    0 -0.67986561664E+02 -0.92320012534E+02 -0.28929097899E+02  0.14842577632E+03  0.89711543801E+02 0.  0.
          4    1    3    3  502    0 -0.16453457364E+02 -0.12485264748E+03  0.10298839441E+03  0.16268223389E+03  0.00000000000E+00 0. -1.
         -4    1    3    3    0  502  0.56009472948E+02 -0.39341583258E+03  0.18723120565E+03  0.43928191717E+03  0.00000000000E+00 0.  1.
         11    1    5    5    0    0  0.37927445464E+02  0.29249912996E+03 -0.36325331514E+03  0.46791794485E+03  0.00000000000E+00 0. -1.
        -11    1    5    5    0    0 -0.94968993838E+01  0.31808936263E+03 -0.27694002964E+03  0.42186113086E+03  0.00000000000E+00 0.  1.
          2    1    6    6  503    0 -0.38635785865E+02 -0.38468075168E+02  0.30965133479E+02  0.62700528291E+02  0.00000000000E+00 0.  1.
         -2    1    6    6    0  503 -0.29350775798E+02 -0.53851937366E+02 -0.59894231378E+02  0.85725248034E+02  0.00000000000E+00 0. -1.
<mgrwt>
<rscale>  0 0.62617286E+03</rscale>
<asrwt>0</asrwt>
<pdfrwt beam="1">  1        2 0.97020475E-01 0.62617286E+03</pdfrwt>
<pdfrwt beam="2">  1       -2 0.15531322E+00 0.62617286E+03</pdfrwt>
<totfact> 0.13114708E+01</totfact>
</mgrwt>
</event>
<event>
12    1  0.1418317E-007  0.1962971E+04  0.7818608E-02  0.8624131E-01
          2   -1    0    0  501    0  0.00000000000E+00  0.00000000000E+00  0.39316236932E+04  0.39316236932E+04  0.00000000000E+00 0. -1.
         -2   -1    0    0    0  501 -0.00000000000E+00 -0.00000000000E+00 -0.10298367471E+04  0.10298367471E+04  0.00000000000E+00 0.  1.
         23    2    1    2    0    0  0.28417295651E+03  0.19314327989E+04  0.11285573440E+04  0.22567379541E+04  0.89652601824E+02 0.  0.
    5000000    2    1    2    0    0 -0.28417295651E+03 -0.19314327989E+04  0.17732296020E+04  0.27047224862E+04  0.59999465014E+03 0.  0.
         23    2    4    4    0    0 -0.72458970243E+02 -0.13062858558E+04  0.14772086684E+04  0.19754191456E+04  0.92207978829E+02 0.  0.
         23    2    4    4    0    0 -0.21171398627E+03 -0.62514694310E+03  0.29602093362E+03  0.72930334064E+03  0.92862570910E+02 0.  0.
          1    1    3    3  502    0  0.13841048767E+03  0.12330894267E+04  0.70826636609E+03  0.14287435889E+04  0.00000000000E+00 0. -1.
         -1    1    3    3    0  502  0.14576246884E+03  0.69834337214E+03  0.42029097792E+03  0.82799436524E+03  0.00000000000E+00 0.  1.
         13    1    5    5    0    0 -0.73894656627E+02 -0.55811356366E+03  0.61076169889E+03  0.83065096344E+03  0.00000000000E+00 0. -1.
        -13    1    5    5    0    0  0.14356863834E+01 -0.74817229210E+03  0.86644696953E+03  0.11447681822E+04  0.00000000000E+00 0.  1.
          3    1    6    6  503    0 -0.13350820880E+03 -0.35326708680E+03  0.21705204636E+03  0.43558428261E+03  0.00000000000E+00 0. -1.
         -3    1    6    6    0  503 -0.78205777467E+02 -0.27187985630E+03  0.78968887268E+02  0.29371905802E+03  0.00000000000E+00 0.  1.
<mgrwt>
<rscale>  0 0.19629710E+04</rscale>
<asrwt>0</asrwt>
<pdfrwt beam="1">  1        2 0.60486517E+00 0.19629710E+04</pdfrwt>
<pdfrwt beam="2">  1       -2 0.15843643E+00 0.19629710E+04</pdfrwt>
<totfact> 0.91032119E-02</totfact>
</mgrwt>
</event>
<event>
12    1  0.1418317E-007  0.1113680E+04  0.7818608E-02  0.9191960E-01
         -2   -1    0    0    0  501 -0.00000000000E+00  0.00000000000E+00  0.11508140383E+04  0.11508140383E+04  0.00000000000E+00 0.  1.
          2   -1    0    0  501    0  0.00000000000E+00 -0.00000000000E+00 -0.14460839150E+04  0.14460839150E+04  0.00000000000E+00 0. -1.
         23    2    1    2    0    0  0.93708187707E+03  0.58971200263E+03  0.37219021659E+03  0.11715921888E+04  0.90664266582E+02 0.  0.
    5000000    2    1    2    0    0 -0.93708187707E+03 -0.58971200263E+03 -0.66746009338E+03  0.14253057645E+04  0.60009237252E+03 0.  0.
         23    2    4    4    0    0 -0.66416254379E+03 -0.36257818587E+03 -0.72766955391E+03  0.10536736312E+04  0.90279100601E+02 0.  0.
         23    2    4    4    0    0 -0.27291933328E+03 -0.22713381677E+03  0.60209460537E+02  0.37163213323E+03  0.91708942386E+02 0.  0.
          4    1    3    3  502    0  0.46116729030E+03  0.24258660315E+03  0.15304315424E+03  0.54308906887E+03  0.00000000000E+00 0. -1.
         -4    1    3    3    0  502  0.47591458677E+03  0.34712539948E+03  0.21914706235E+03  0.62850311997E+03  0.00000000000E+00 0.  1.
         13    1    5    5    0    0 -0.12943361550E+03 -0.51038143974E+02 -0.17819244194E+03  0.22607631306E+03  0.00000000000E+00 0. -1.
        -13    1    5    5    0    0 -0.53472892829E+03 -0.31154004189E+03 -0.54947711197E+03  0.82759731817E+03  0.00000000000E+00 0.  1.
          2    1    6    6  503    0 -0.20580067706E+02 -0.40289082252E+02  0.33928678287E+02  0.56550018088E+02  0.00000000000E+00 0. -1.
         -2    1    6    6    0  503 -0.25233926557E+03 -0.18684473451E+03  0.26280782250E+02  0.31508211514E+03  0.00000000000E+00 0.  1.
<mgrwt>
<rscale>  0 0.11136800E+04</rscale>
<asrwt>0</asrwt>
<pdfrwt beam="1">  1        2 0.22247445E+00 0.11136800E+04</pdfrwt>
<pdfrwt beam="2">  1       -2 0.17704832E+00 0.11136800E+04</pdfrwt>
<totfact> 0.25357810E+00</totfact>
</mgrwt>
</event>
<event>
12    1  0.1418317E-007  0.6427454E+03  0.7818608E-02  0.9820488E-01
         -2   -1    0    0    0  501 -0.00000000000E+00  0.00000000000E+00  0.85215489342E+03  0.85215489342E+03  0.00000000000E+00 0.  1.
          2   -1    0    0  501    0  0.00000000000E+00 -0.00000000000E+00 -0.10289510820E+04  0.10289510820E+04  0.00000000000E+00 0. -1.
         23    2    1    2    0    0 -0.19976065597E+03 -0.46202651377E+03  0.59283523562E+03  0.78322166875E+03  0.92788720781E+02 0.  0.
    5000000    2    1    2    0    0  0.19976065597E+03  0.46202651377E+03 -0.76963142422E+03  0.10978843067E+04  0.59970376241E+03 0.  0.
         23    2    4    4    0    0 -0.12480877178E+03 -0.57638740486E+02 -0.15619463407E+03  0.22606356528E+03  0.88365818722E+02 0.  0.
         23    2    4    4    0    0  0.32456942775E+03  0.51966525426E+03 -0.61343679015E+03  0.87182074142E+03  0.91484532822E+02 0.  0.
          1    1    3    3  502    0 -0.71066923746E+02 -0.26196606589E+03  0.27695631128E+03  0.38779056936E+03  0.00000000000E+00 0. -1.
         -1    1    3    3    0  502 -0.12869373223E+03 -0.20006044788E+03  0.31587892434E+03  0.39543109938E+03  0.00000000000E+00 0.  1.
         11    1    5    5    0    0 -0.49224575378E+02 -0.68691067941E+02 -0.62128972913E+02  0.10488818290E+03  0.00000000000E+00 0.  1.
        -11    1    5    5    0    0 -0.75584196397E+02  0.11052327454E+02 -0.94065661160E+02  0.12117538239E+03  0.00000000000E+00 0. -1.
          3    1    6    6  503    0  0.13936344213E+03  0.27631490736E+03 -0.35923235150E+03  0.47415185267E+03  0.00000000000E+00 0. -1.
         -3    1    6    6    0  503  0.18520598562E+03  0.24335034690E+03 -0.25420443865E+03  0.39766888874E+03  0.00000000000E+00 0.  1.
<mgrwt>
<rscale>  0 0.64274544E+03</rscale>
<asrwt>0</asrwt>
<pdfrwt beam="1">  1        2 0.15830017E+00 0.64274544E+03</pdfrwt>
<pdfrwt beam="2">  1       -2 0.13110075E+00 0.64274544E+03</pdfrwt>
<totfact> 0.10588799E+01</totfact>
</mgrwt>
</event>
<event>
12    1  0.1418317E-007  0.9078743E+03  0.7818608E-02  0.9415791E-01
          2   -1    0    0  501    0  0.00000000000E+00  0.00000000000E+00  0.38504671950E+04  0.38504671950E+04  0.00000000000E+00 0. -1.
         -2   -1    0    0    0  501 -0.00000000000E+00 -0.00000000000E+00 -0.27295466882E+03  0.27295466882E+03  0.00000000000E+00 0.  1.
         23    2    1    2    0    0 -0.63903659796E+03 -0.61480893699E+03  0.10438580836E+04  0.13728050033E+04  0.92715023972E+02 0.  0.
    5000000    2    1    2    0    0  0.63903659796E+03  0.61480893699E+03  0.25336544426E+04  0.27506168606E+04  0.60010872086E+03 0.  0.
         23    2    4    4    0    0  0.59192296350E+03  0.59883349396E+03  0.15941350094E+04  0.18052020999E+04  0.92270498936E+02 0.  0.
         23    2    4    4    0    0  0.47113634468E+02  0.15975443033E+02  0.93951943318E+03  0.94541476073E+03  0.92937587376E+02 0.  0.
          2    1    3    3  502    0 -0.18040979217E+03 -0.13388838718E+03  0.22142494842E+03  0.31544064595E+03  0.00000000000E+00 0.  1.
         -2    1    3    3    0  502 -0.45862680580E+03 -0.48092054980E+03  0.82243313522E+03  0.10573643573E+04  0.00000000000E+00 0. -1.
         13    1    5    5    0    0  0.16198671968E+03  0.12144719859E+03  0.43885094993E+03  0.48330039898E+03  0.00000000000E+00 0.  1.
        -13    1    5    5    0    0  0.42993624382E+03  0.47738629536E+03  0.11552840595E+04  0.13219017009E+04  0.00000000000E+00 0. -1.
          4    1    6    6  503    0 -0.15736478956E+02 -0.29094644442E+01  0.56241234502E+03  0.56263998044E+03  0.00000000000E+00 0. -1.
         -4    1    6    6    0  503  0.62850113425E+02  0.18884907477E+02  0.37710708816E+03  0.38277478029E+03  0.00000000000E+00 0.  1.
<mgrwt>
<rscale>  0 0.90787431E+03</rscale>
<asrwt>0</asrwt>
<pdfrwt beam="1">  1        2 0.59237953E+00 0.90787431E+03</pdfrwt>
<pdfrwt beam="2">  1       -2 0.41993029E-01 0.90787431E+03</pdfrwt>
<totfact> 0.25743590E+00</totfact>
</mgrwt>
</event>
<event>
12    1  0.1418317E-007  0.6314344E+03  0.7818608E-02  0.9842254E-01
         -2   -1    0    0    0  501 -0.00000000000E+00  0.00000000000E+00  0.18795182993E+03  0.18795182993E+03  0.00000000000E+00 0. -1.
          2   -1    0    0  501    0  0.00000000000E+00 -0.00000000000E+00 -0.22832751083E+04  0.22832751083E+04  0.00000000000E+00 0.  1.
         23    2    1    2    0    0  0.29777028652E+03 -0.39869536391E+03 -0.59518509659E+03  0.78066955147E+03  0.87031676152E+02 0.  0.
    5000000    2    1    2    0    0 -0.29777028652E+03  0.39869536391E+03 -0.15001381818E+04  0.16905573868E+04  0.59995381218E+03 0.  0.
         23    2    4    4    0    0  0.15423016207E+03  0.19957984549E+02 -0.28339244561E+03  0.33501269152E+03  0.87959997780E+02 0.  0.
         23    2    4    4    0    0 -0.45200044859E+03  0.37873737936E+03 -0.12167457362E+04  0.13555446953E+04  0.96357803313E+02 0.  0.
          4    1    3    3  502    0  0.24000174574E+03 -0.25706946361E+03 -0.43095778212E+03  0.55624648948E+03  0.00000000000E+00 0. -1.
         -4    1    3    3    0  502  0.57768540779E+02 -0.14162590030E+03 -0.16422731447E+03  0.22442306199E+03  0.00000000000E+00 0.  1.
         11    1    5    5    0    0  0.19053882502E+02 -0.19597156411E+02 -0.13287430559E+02  0.30391689467E+02  0.00000000000E+00 0. -1.
        -11    1    5    5    0    0  0.13517627957E+03  0.39555140960E+02 -0.27010501506E+03  0.30462100205E+03  0.00000000000E+00 0.  1.
          3    1    6    6  503    0 -0.26355267954E+03  0.20776925442E+03 -0.79584379597E+03  0.86371026714E+03  0.00000000000E+00 0. -1.
         -3    1    6    6    0  503 -0.18844776905E+03  0.17096812494E+03 -0.42090194023E+03  0.49183442813E+03  0.00000000000E+00 0.  1.
<mgrwt>
<rscale>  0 0.63143441E+03</rscale>
<asrwt>0</asrwt>
<pdfrwt beam="1">  1        2 0.35127308E+00 0.63143441E+03</pdfrwt>
<pdfrwt beam="2">  1       -2 0.28915667E-01 0.63143441E+03</pdfrwt>
<totfact> 0.53537402E+01</totfact>
</mgrwt>
</event>
<event>
12    1  0.1418317E-007  0.1808157E+04  0.7818608E-02  0.8701974E-01
         -2   -1    0    0    0  501 -0.00000000000E+00  0.00000000000E+00  0.11076173260E+04  0.11076173260E+04  0.00000000000E+00 0.  1.
          2   -1    0    0  501    0  0.00000000000E+00 -0.00000000000E+00 -0.29884284786E+04  0.29884284786E+04  0.00000000000E+00 0. -1.
         23    2    1    2    0    0  0.17092294814E+04 -0.43968249223E+03 -0.78521344284E+03  0.19340116576E+04  0.95156852767E+02 0.  0.
    5000000    2    1    2    0    0 -0.17092294814E+04  0.43968249223E+03 -0.10955977098E+04  0.21620341470E+04  0.59939235634E+03 0.  0.
         23    2    4    4    0    0 -0.12199379074E+04  0.45366150823E+02 -0.79351296337E+03  0.14589516015E+04  0.92576276681E+02 0.  0.
         23    2    4    4    0    0 -0.48929157404E+03  0.39431634140E+03 -0.30208474647E+03  0.70308254548E+03  0.90433678413E+02 0.  0.
          2    1    3    3  502    0  0.13055396806E+04 -0.35198156015E+03 -0.56029496758E+03  0.14636445358E+04  0.00000000000E+00 0.  1.
         -2    1    3    3    0  502  0.40368980081E+03 -0.87700932079E+02 -0.22491847527E+03  0.47036712181E+03  0.00000000000E+00 0. -1.
         13    1    5    5    0    0 -0.78005206805E+03  0.20435957051E+02 -0.45454795576E+03  0.90305741860E+03  0.00000000000E+00 0. -1.
        -13    1    5    5    0    0 -0.43988583937E+03  0.24930193772E+02 -0.33896500761E+03  0.55589418294E+03  0.00000000000E+00 0.  1.
          1    1    6    6  503    0 -0.30501389105E+03  0.21631738082E+03 -0.13672149265E+03  0.39814501068E+03  0.00000000000E+00 0. -1.
         -1    1    6    6    0  503 -0.18427768298E+03  0.17799896059E+03 -0.16536325382E+03  0.30493753480E+03  0.00000000000E+00 0.  1.
<mgrwt>
<rscale>  0 0.18081571E+04</rscale>
<asrwt>0</asrwt>
<pdfrwt beam="1">  1        2 0.45975822E+00 0.18081571E+04</pdfrwt>
<pdfrwt beam="2">  1       -2 0.17040267E+00 0.18081571E+04</pdfrwt>
<totfact> 0.34285808E-01</totfact>
</mgrwt>
</event>
<event>
12    1  0.1418317E-007  0.8732411E+03  0.7818608E-02  0.9459664E-01
          1   -1    0    0  501    0  0.00000000000E+00  0.00000000000E+00  0.24337491475E+03  0.24337491475E+03  0.00000000000E+00 0. -1.
         -1   -1    0    0    0  501 -0.00000000000E+00 -0.00000000000E+00 -0.39144226749E+04  0.39144226749E+04  0.00000000000E+00 0.  1.
         23    2    1    2    0    0  0.32307104817E+03  0.77536578950E+03 -0.10986394814E+04  0.13860399950E+04  0.92364213525E+02 0.  0.
    5000000    2    1    2    0    0 -0.32307104817E+03 -0.77536578950E+03 -0.25724082787E+04  0.27717575946E+04  0.59982397525E+03 0.  0.
         23    2    4    4    0    0 -0.26812110254E+02 -0.47637465549E+03 -0.71012248821E+03  0.86031795695E+03  0.90671589548E+02 0.  0.
         23    2    4    4    0    0 -0.29625893791E+03 -0.29899113402E+03 -0.18622857905E+04  0.19114396377E+04  0.91258240367E+02 0.  0.
          1    1    3    3  502    0  0.13012747582E+03  0.25752825690E+03 -0.44154847015E+03  0.52746470456E+03  0.00000000000E+00 0. -1.
         -1    1    3    3    0  502  0.19294357234E+03  0.51783753260E+03 -0.65709101130E+03  0.85857529048E+03  0.00000000000E+00 0.  1.
         11    1    5    5    0    0  0.24017457346E+02 -0.23268346815E+03 -0.29794582674E+03  0.37880093753E+03  0.00000000000E+00 0.  1.
        -11    1    5    5    0    0 -0.50829567600E+02 -0.24369118734E+03 -0.41217666147E+03  0.48151701942E+03  0.00000000000E+00 0. -1.
          1    1    6    6  503    0 -0.38788487666E+02 -0.58277344134E+02 -0.47234982542E+03  0.47750932262E+03  0.00000000000E+00 0. -1.
         -1    1    6    6    0  503 -0.25747045025E+03 -0.24071378988E+03 -0.13899359651E+04  0.14339303151E+04  0.00000000000E+00 0.  1.
<mgrwt>
<rscale>  0 0.87324107E+03</rscale>
<asrwt>0</asrwt>
<pdfrwt beam="1">  1        1 0.37442297E-01 0.87324107E+03</pdfrwt>
<pdfrwt beam="2">  1       -1 0.60221884E+00 0.87324107E+03</pdfrwt>
<totfact> 0.49940504E-02</totfact>
</mgrwt>
</event>
<event>
12    1  0.1418317E-007  0.5184930E+03  0.7818608E-02  0.1009062E+00
         -1   -1    0    0    0  501 -0.00000000000E+00  0.00000000000E+00  0.25716661381E+03  0.25716661381E+03  0.00000000000E+00 0.  1.
          1   -1    0    0  501    0  0.00000000000E+00 -0.00000000000E+00 -0.13111581863E+04  0.13111581863E+04  0.00000000000E+00 0. -1.
         23    2    1    2    0    0 -0.11609727452E+03 -0.39238495219E+03 -0.48762303892E+03  0.64770991188E+03  0.11961343571E+03 0.  0.
    5000000    2    1    2    0    0  0.11609727452E+03  0.39238495219E+03 -0.56636853356E+03  0.92061488822E+03  0.59942800131E+03 0.  0.
         23    2    4    4    0    0 -0.90017385416E+01 -0.92798345661E+02 -0.33723959279E+03  0.36174557989E+03  0.91851822898E+02 0.  0.
         23    2    4    4    0    0  0.12509901306E+03  0.48518329785E+03 -0.22912894077E+03  0.55886930833E+03  0.93713588723E+02 0.  0.
          2    1    3    3  502    0 -0.32201345937E+02 -0.85342531219E+01 -0.34466122840E+02  0.47934056579E+02  0.00000000000E+00 0. -1.
         -2    1    3    3    0  502 -0.83895928586E+02 -0.38385069907E+03 -0.45315691608E+03  0.59977585530E+03  0.00000000000E+00 0.  1.
         13    1    5    5    0    0  0.41395095237E+01 -0.86307592761E+02 -0.14388534342E+03  0.16783661150E+03  0.00000000000E+00 0. -1.
        -13    1    5    5    0    0 -0.13141248065E+02 -0.64907529004E+01 -0.19335424937E+03  0.19390896840E+03  0.00000000000E+00 0.  1.
          3    1    6    6  503    0  0.44155856009E+02  0.34507192140E+03 -0.15975234860E+03  0.38281220388E+03  0.00000000000E+00 0. -1.
         -3    1    6    6    0  503  0.80943157056E+02  0.14011137645E+03 -0.69376592170E+02  0.17605710445E+03  0.00000000000E+00 0.  1.
<mgrwt>
<rscale>  0 0.51849296E+03</rscale>
<asrwt>0</asrwt>
<pdfrwt beam="1">  1        1 0.20171664E+00 0.51849296E+03</pdfrwt>
<pdfrwt beam="2">  1       -1 0.39564094E-01 0.51849296E+03</pdfrwt>
<totfact> 0.58220477E+01</totfact>
</mgrwt>
</event>
<event>
12    1  0.1418317E-007  0.4863286E+03  0.7818608E-02  0.1017410E+00
         -2   -1    0    0    0  501 -0.00000000000E+00  0.00000000000E+00  0.18297860050E+03  0.18297860050E+03  0.00000000000E+00 0.  1.
          2   -1    0    0  501    0  0.00000000000E+00 -0.00000000000E+00 -0.18291434213E+04  0.18291434213E+04  0.00000000000E+00 0. -1.
         23    2    1    2    0    0 -0.41103318408E+03  0.20761568772E+02 -0.72044740534E+03  0.83476510979E+03  0.91700618887E+02 0.  0.
    5000000    2    1    2    0    0  0.41103318408E+03 -0.20761568772E+02 -0.92571741542E+03  0.11773569120E+04  0.59986435451E+03 0.  0.
         23    2    4    4    0    0  0.44855520884E+03  0.15504196005E+02 -0.96209656883E+03  0.10656327511E+04  0.92201936081E+02 0.  0.
         23    2    4    4    0    0 -0.37522024759E+02 -0.36265764777E+02  0.36379153405E+02  0.11172416087E+03  0.91846269834E+02 0.  0.
          4    1    3    3  502    0 -0.74043002213E+02  0.39908342349E+02 -0.14255482114E+03  0.16552014680E+03  0.00000000000E+00 0. -1.
         -4    1    3    3    0  502 -0.33699018187E+03 -0.19146773577E+02 -0.57789258420E+03  0.66924496299E+03  0.00000000000E+00 0.  1.
         13    1    5    5    0    0  0.38023163631E+03  0.35667951217E+01 -0.72589699869E+03  0.81946035413E+03  0.00000000000E+00 0. -1.
        -13    1    5    5    0    0  0.68323572529E+02  0.11937400884E+02 -0.23619957014E+03  0.24617239698E+03  0.00000000000E+00 0.  1.
          3    1    6    6  503    0 -0.38318486044E+02 -0.63495579387E+02  0.39969710106E+02  0.84247093127E+02  0.00000000000E+00 0.  1.
         -3    1    6    6    0  503  0.79646128535E+00  0.27229814609E+02 -0.35905567005E+01  0.27477067741E+02  0.00000000000E+00 0. -1.
<mgrwt>
<rscale>  0 0.48632865E+03</rscale>
<asrwt>0</asrwt>
<pdfrwt beam="1">  1        2 0.28140668E+00 0.48632865E+03</pdfrwt>
<pdfrwt beam="2">  1       -2 0.28150554E-01 0.48632865E+03</pdfrwt>
<totfact> 0.10139624E+02</totfact>
</mgrwt>
</event>
<event>
12    1  0.1418317E-007  0.5227687E+03  0.7818608E-02  0.1008001E+00
         -2   -1    0    0    0  501 -0.00000000000E+00  0.00000000000E+00  0.26586502912E+03  0.26586502912E+03  0.00000000000E+00 0.  1.
          2   -1    0    0  501    0  0.00000000000E+00 -0.00000000000E+00 -0.17535228522E+04  0.17535228522E+04  0.00000000000E+00 0. -1.
         23    2    1    2    0    0 -0.38090401692E+03  0.33302325582E+02 -0.11808647543E+04  0.12446031977E+04  0.91644076704E+02 0.  0.
    5000000    2    1    2    0    0  0.38090401692E+03 -0.33302325582E+02 -0.30679306880E+03  0.77478468364E+03  0.59997700284E+03 0.  0.
         23    2    4    4    0    0 -0.18224149213E+02  0.18557248286E+03  0.16870285425E+02  0.20817031842E+03  0.91000049078E+02 0.  0.
         23    2    4    4    0    0  0.39912816613E+03 -0.21887480844E+03 -0.32366335423E+03  0.56661436522E+03  0.95312104341E+02 0.  0.
          3    1    3    3  502    0 -0.22494970315E+03  0.21199961283E+02 -0.83463950992E+03  0.86468197554E+03  0.00000000000E+00 0. -1.
         -3    1    3    3    0  502 -0.15595431376E+03  0.12102364299E+02 -0.34622524437E+03  0.37992122215E+03  0.00000000000E+00 0.  1.
         13    1    5    5    0    0 -0.46473602513E+02  0.15537821688E+03 -0.31931416849E+01  0.16221091876E+03  0.00000000000E+00 0. -1.
        -13    1    5    5    0    0  0.28249453300E+02  0.30194265979E+02  0.20063427110E+02  0.45959399661E+02  0.00000000000E+00 0.  1.
          1    1    6    6  503    0  0.22746150031E+03 -0.16023462800E+03 -0.23736881463E+03  0.36572916795E+03  0.00000000000E+00 0. -1.
         -1    1    6    6    0  503  0.17166666582E+03 -0.58640180441E+02 -0.86294539599E+02  0.20088519727E+03  0.00000000000E+00 0.  1.
<mgrwt>
<rscale>  0 0.52276870E+03</rscale>
<asrwt>0</asrwt>
<pdfrwt beam="1">  1        2 0.26977275E+00 0.52276870E+03</pdfrwt>
<pdfrwt beam="2">  1       -2 0.40902312E-01 0.52276870E+03</pdfrwt>
<totfact> 0.54781205E+01</totfact>
</mgrwt>
</event>
<event>
12    1  0.1418317E-007  0.1173338E+04  0.7818608E-02  0.9136520E-01
          2   -1    0    0  501    0  0.00000000000E+00  0.00000000000E+00  0.96193584991E+03  0.96193584991E+03  0.00000000000E+00 0. -1.
         -2   -1    0    0    0  501 -0.00000000000E+00 -0.00000000000E+00 -0.15780810590E+04  0.15780810590E+04  0.00000000000E+00 0.  1.
         23    2    1    2    0    0 -0.11512745429E+04  0.11686352830E+03 -0.26502834371E+03  0.11905499275E+04  0.89882977025E+02 0.  0.
    5000000    2    1    2    0    0  0.11512745429E+04 -0.11686352830E+03 -0.35111686538E+03  0.13494669814E+04  0.59890560461E+03 0.  0.
         23    2    4    4    0    0  0.70593901957E+03 -0.19020264603E+03  0.49310909360E+02  0.73841023503E+03  0.91055826295E+02 0.  0.
         23    2    4    4    0    0  0.44533552334E+03  0.73339117728E+02 -0.40042777474E+03  0.61105674634E+03  0.96672591380E+02 0.  0.
          3    1    3    3  502    0 -0.70082929390E+03  0.69809384175E+02 -0.20611387026E+03  0.73383784096E+03  0.00000000000E+00 0. -1.
         -3    1    3    3    0  502 -0.45044524902E+03  0.47054144128E+02 -0.58914473455E+02  0.45671208657E+03  0.00000000000E+00 0.  1.
         13    1    5    5    0    0  0.43251295302E+03 -0.15879930590E+03  0.14264995261E+02  0.46096438493E+03  0.00000000000E+00 0. -1.
        -13    1    5    5    0    0  0.27342606656E+03 -0.31403340128E+02  0.35045914099E+02  0.27744585010E+03  0.00000000000E+00 0.  1.
          3    1    6    6  503    0  0.38270592364E+03  0.47036374698E+02 -0.29436173251E+03  0.48510315820E+03  0.00000000000E+00 0. -1.
         -3    1    6    6    0  503  0.62629599703E+02  0.26302743029E+02 -0.10606604223E+03  0.12595358813E+03  0.00000000000E+00 0.  1.
<mgrwt>
<rscale>  0 0.11733376E+04</rscale>
<asrwt>0</asrwt>
<pdfrwt beam="1">  1        2 0.14799013E+00 0.11733376E+04</pdfrwt>
<pdfrwt beam="2">  1       -2 0.24278170E+00 0.11733376E+04</pdfrwt>
<totfact> 0.18544758E+00</totfact>
</mgrwt>
</event>
<event>
12    1  0.1418317E-007  0.7616659E+03  0.7818608E-02  0.9617224E-01
          2   -1    0    0  501    0  0.00000000000E+00  0.00000000000E+00  0.13002239372E+04  0.13002239372E+04  0.00000000000E+00 0. -1.
         -2   -1    0    0    0  501 -0.00000000000E+00 -0.00000000000E+00 -0.57612615035E+03  0.57612615035E+03  0.00000000000E+00 0.  1.
         23    2    1    2    0    0 -0.51176501378E+03 -0.45656365184E+03  0.67082407842E+03  0.96353330968E+03  0.89653204976E+02 0.  0.
    5000000    2    1    2    0    0  0.51176501378E+03  0.45656365184E+03  0.53273708469E+02  0.91281677792E+03  0.60003548606E+03 0.  0.
         23    2    4    4    0    0 -0.18036644971E+00  0.26575335226E+03 -0.15564453912E+03  0.32101816641E+03  0.90568006691E+02 0.  0.
         23    2    4    4    0    0  0.51194538023E+03  0.19081029958E+03  0.20891824759E+03  0.59179861151E+03  0.89900609842E+02 0.  0.
          3    1    3    3  502    0 -0.11459328767E+03 -0.57791099874E+02  0.13910096409E+03  0.18926307356E+03  0.00000000000E+00 0. -1.
         -3    1    3    3    0  502 -0.39717172611E+03 -0.39877255197E+03  0.53172311433E+03  0.77427023611E+03  0.00000000000E+00 0.  1.
         13    1    5    5    0    0  0.30139077378E+02  0.23722272365E+03 -0.13246631401E+03  0.27336844907E+03  0.00000000000E+00 0. -1.
        -13    1    5    5    0    0 -0.30319443828E+02  0.28530628615E+02 -0.23178225108E+02  0.47649717337E+02  0.00000000000E+00 0.  1.
          2    1    6    6  503    0  0.16541332253E+03  0.99562739275E+02  0.99041270740E+02  0.21698727988E+03  0.00000000000E+00 0. -1.
         -2    1    6    6    0  503  0.34653205770E+03  0.91247560303E+02  0.10987697685E+03  0.37481133163E+03  0.00000000000E+00 0.  1.
<mgrwt>
<rscale>  0 0.76166587E+03</rscale>
<asrwt>0</asrwt>
<pdfrwt beam="1">  1        2 0.20003445E+00 0.76166587E+03</pdfrwt>
<pdfrwt beam="2">  1       -2 0.88634792E-01 0.76166587E+03</pdfrwt>
<totfact> 0.18441232E+01</totfact>
</mgrwt>
</event>
<event>
12    1  0.1418317E-007  0.6884248E+03  0.7818608E-02  0.9737235E-01
         -1   -1    0    0    0  501 -0.00000000000E+00  0.00000000000E+00  0.34101597911E+03  0.34101597911E+03  0.00000000000E+00 0.  1.
          1   -1    0    0  501    0  0.00000000000E+00 -0.00000000000E+00 -0.15907374614E+04  0.15907374614E+04  0.00000000000E+00 0. -1.
         23    2    1    2    0    0 -0.55062276332E+03 -0.17967217172E+03 -0.27147251150E+03  0.64627732793E+03  0.92247185975E+02 0.  0.
    5000000    2    1    2    0    0  0.55062276332E+03  0.17967217172E+03 -0.97824897075E+03  0.12854761125E+04  0.60000855858E+03 0.  0.
         23    2    4    4    0    0 -0.88891947337E+02  0.54973978577E+00 -0.39534955028E+02  0.13216232059E+03  0.89452701473E+02 0.  0.
         23    2    4    4    0    0  0.63951471066E+03  0.17912243193E+03 -0.93871401572E+03  0.11533137919E+04  0.88796332199E+02 0.  0.
          3    1    3    3  502    0 -0.36977887570E+03 -0.78764149487E+02 -0.15441636784E+03  0.40839273110E+03  0.00000000000E+00 0. -1.
         -3    1    3    3    0  502 -0.18084388762E+03 -0.10090802223E+03 -0.11705614367E+03  0.23788459683E+03  0.00000000000E+00 0.  1.
         13    1    5    5    0    0  0.31571135190E+01  0.26181345827E+02  0.48372602355E+01  0.26810992553E+02  0.00000000000E+00 0. -1.
        -13    1    5    5    0    0 -0.92049060856E+02 -0.25631606042E+02 -0.44372215263E+02  0.10535132804E+03  0.00000000000E+00 0.  1.
          1    1    6    6  503    0  0.26368804258E+03  0.11844331851E+03 -0.38883844497E+03  0.48451577868E+03  0.00000000000E+00 0. -1.
         -1    1    6    6    0  503  0.37582666808E+03  0.60679113420E+02 -0.54987557075E+03  0.66879801327E+03  0.00000000000E+00 0.  1.
<mgrwt>
<rscale>  0 0.68842475E+03</rscale>
<asrwt>0</asrwt>
<pdfrwt beam="1">  1        1 0.24472884E+00 0.68842475E+03</pdfrwt>
<pdfrwt beam="2">  1       -1 0.52463996E-01 0.68842475E+03</pdfrwt>
<totfact> 0.21640951E+01</totfact>
</mgrwt>
</event>
<event>
12    1  0.1418317E-007  0.1426111E+04  0.7818608E-02  0.8935132E-01
          1   -1    0    0  501    0  0.00000000000E+00  0.00000000000E+00  0.98063619617E+03  0.98063619617E+03  0.00000000000E+00 0. -1.
         -1   -1    0    0    0  501 -0.00000000000E+00 -0.00000000000E+00 -0.22309546582E+04  0.22309546582E+04  0.00000000000E+00 0.  1.
         23    2    1    2    0    0 -0.53882750971E+03 -0.13062376692E+04 -0.48917859969E+03  0.14981410234E+04  0.92406113960E+02 0.  0.
    5000000    2    1    2    0    0  0.53882750971E+03  0.13062376692E+04 -0.76113986230E+03  0.17134498309E+04  0.59998708264E+03 0.  0.
         23    2    4    4    0    0  0.47839376909E+03  0.87356958423E+03 -0.24192538441E+03  0.10289550898E+04  0.90753888876E+02 0.  0.
         23    2    4    4    0    0  0.60433740614E+02  0.43266808500E+03 -0.51921447790E+03  0.68449474114E+03  0.89974817653E+02 0.  0.
          3    1    3    3  502    0 -0.29406110125E+03 -0.67635553378E+03 -0.30179519597E+03  0.79687456959E+03  0.00000000000E+00 0. -1.
         -3    1    3    3    0  502 -0.24476640846E+03 -0.62988213545E+03 -0.18738340372E+03  0.70126645382E+03  0.00000000000E+00 0.  1.
         11    1    5    5    0    0  0.43941803633E+03  0.83876903523E+03 -0.23912921465E+03  0.97662914477E+03  0.00000000000E+00 0. -1.
        -11    1    5    5    0    0  0.38975732764E+02  0.34800549006E+02 -0.27961697562E+01  0.52325945007E+02  0.00000000000E+00 0.  1.
          4    1    6    6  503    0  0.11200241171E+02  0.25988627657E+03 -0.24962722733E+03  0.36052749517E+03  0.00000000000E+00 0. -1.
         -4    1    6    6    0  503  0.49233499443E+02  0.17278180843E+03 -0.26958725057E+03  0.32396724597E+03  0.00000000000E+00 0.  1.
<mgrwt>
<rscale>  0 0.14261111E+04</rscale>
<asrwt>0</asrwt>
<pdfrwt beam="1">  1        1 0.15086711E+00 0.14261111E+04</pdfrwt>
<pdfrwt beam="2">  1       -1 0.34322379E+00 0.14261111E+04</pdfrwt>
<totfact> 0.25936937E-01</totfact>
</mgrwt>
</event>
<event>
12    1  0.1418317E-007  0.8727545E+03  0.7818608E-02  0.9460295E-01
         -1   -1    0    0    0  501 -0.00000000000E+00  0.00000000000E+00  0.11654031639E+04  0.11654031639E+04  0.00000000000E+00 0.  1.
          1   -1    0    0  501    0  0.00000000000E+00 -0.00000000000E+00 -0.88839960361E+03  0.88839960361E+03  0.00000000000E+00 0. -1.
         23    2    1    2    0    0 -0.74720650353E+03 -0.33782069386E+03 -0.30878112368E+03  0.88093842221E+03  0.90919421761E+02 0.  0.
    5000000    2    1    2    0    0  0.74720650353E+03  0.33782069386E+03  0.58578468397E+03  0.11728643453E+04  0.60002224659E+03 0.  0.
         23    2    4    4    0    0  0.61836510769E+03  0.42640131890E+03  0.62568568781E+03  0.98195779573E+03  0.92547509412E+02 0.  0.
         23    2    4    4    0    0  0.12884139584E+03 -0.88580625039E+02 -0.39901003841E+02  0.19090654958E+03  0.10201268622E+03 0.  0.
          3    1    3    3  502    0 -0.40726978378E+03 -0.14810425819E+03 -0.19608968179E+03  0.47566239222E+03  0.00000000000E+00 0. -1.
         -3    1    3    3    0  502 -0.33993671976E+03 -0.18971643567E+03 -0.11269144189E+03  0.40527602998E+03  0.00000000000E+00 0.  1.
         11    1    5    5    0    0  0.19133645840E+03  0.14390844568E+03  0.14643261629E+03  0.28064531381E+03  0.00000000000E+00 0.  1.
        -11    1    5    5    0    0  0.42702864930E+03  0.28249287321E+03  0.47925307152E+03  0.70131248192E+03  0.00000000000E+00 0. -1.
          4    1    6    6  503    0  0.55282512829E+02 -0.80178384094E+02  0.15262456226E+02  0.98578253538E+02  0.00000000000E+00 0. -1.
         -4    1    6    6    0  503  0.73558883012E+02 -0.84022409455E+01 -0.55163460067E+02  0.92328296039E+02  0.00000000000E+00 0.  1.
<mgrwt>
<rscale>  0 0.87275452E+03</rscale>
<asrwt>0</asrwt>
<pdfrwt beam="1">  1        1 0.13667686E+00 0.87275452E+03</pdfrwt>
<pdfrwt beam="2">  1       -1 0.17929279E+00 0.87275452E+03</pdfrwt>
<totfact> 0.39920200E+00</totfact>
</mgrwt>
</event>
<event>
12    1  0.1451976E-007  0.7296764E+03  0.7818608E-02  0.9667786E-01
          2   -1    0    0  501    0  0.00000000000E+00  0.00000000000E+00  0.18673209819E+04  0.18673209819E+04  0.00000000000E+00 0. -1.
         -2   -1    0    0    0  501 -0.00000000000E+00 -0.00000000000E+00 -0.32392401720E+03  0.32392401720E+03  0.00000000000E+00 0.  1.
         23    2    1    2    0    0 -0.41125262728E+03 -0.46336949761E+03  0.34301318024E+03  0.71315148399E+03  0.84184217874E+02 0.  0.
    5000000    2    1    2    0    0  0.41125262728E+03  0.46336949761E+03  0.12003837844E+04  0.14780935151E+04  0.59999932887E+03 0.  0.
         23    2    4    4    0    0  0.27529745449E+03 -0.60602553671E+02  0.28664694639E+03  0.41216047372E+03  0.90820847053E+02 0.  0.
         23    2    4    4    0    0  0.13595517279E+03  0.52397205128E+03  0.91373683805E+03  0.10659330414E+04  0.90927003381E+02 0.  0.
          3    1    3    3  502    0 -0.29472182197E+03 -0.28285028853E+03  0.25077331376E+03  0.47932503895E+03  0.00000000000E+00 0. -1.
         -3    1    3    3    0  502 -0.11653080531E+03 -0.18051920908E+03  0.92239866477E+02  0.23382644504E+03  0.00000000000E+00 0.  1.
         11    1    5    5    0    0  0.23283285965E+03 -0.18518194614E+02  0.20371720511E+03  0.30992702968E+03  0.00000000000E+00 0. -1.
        -11    1    5    5    0    0  0.42464594841E+02 -0.42084359057E+02  0.82929741277E+02  0.10223344404E+03  0.00000000000E+00 0.  1.
          1    1    6    6  503    0  0.89072732101E+02  0.26803483326E+03  0.39496181953E+03  0.48556303642E+03  0.00000000000E+00 0. -1.
         -1    1    6    6    0  503  0.46882440688E+02  0.25593721802E+03  0.51877501851E+03  0.58037000495E+03  0.00000000000E+00 0.  1.
<mgrwt>
<rscale>  0 0.72967637E+03</rscale>
<asrwt>0</asrwt>
<pdfrwt beam="1">  1        2 0.28728015E+00 0.72967637E+03</pdfrwt>
<pdfrwt beam="2">  1       -2 0.49834465E-01 0.72967637E+03</pdfrwt>
<totfact> 0.31143238E+01</totfact>
</mgrwt>
</event>
<event>
12    1  0.1418317E-007  0.9354744E+03  0.7818608E-02  0.9382292E-01
          2   -1    0    0  501    0  0.00000000000E+00  0.00000000000E+00  0.21664201544E+04  0.21664201544E+04  0.00000000000E+00 0. -1.
         -2   -1    0    0    0  501 -0.00000000000E+00 -0.00000000000E+00 -0.47782089528E+03  0.47782089528E+03  0.00000000000E+00 0.  1.
         23    2    1    2    0    0 -0.89119292498E+03 -0.22562219971E+03  0.62326419194E+03  0.11144684596E+04  0.91931974211E+02 0.  0.
    5000000    2    1    2    0    0  0.89119292498E+03  0.22562219971E+03  0.10653350672E+04  0.15297725902E+04  0.60011262740E+03 0.  0.
         23    2    4    4    0    0  0.60979051846E+03  0.23935640442E+03  0.10386402841E+04  0.12315962718E+04  0.94444545461E+02 0.  0.
         23    2    4    4    0    0  0.28140240652E+03 -0.13734204709E+02  0.26694783147E+02  0.29817631838E+03  0.93917850396E+02 0.  0.
          3    1    3    3  502    0 -0.27203833943E+03 -0.11290838967E+03  0.20256871459E+03  0.35747342098E+03  0.00000000000E+00 0. -1.
         -3    1    3    3    0  502 -0.61915458555E+03 -0.11271381003E+03  0.42069547735E+03  0.75699503859E+03  0.00000000000E+00 0.  1.
         11    1    5    5    0    0  0.12656953108E+03  0.10114708755E+02  0.19369971407E+03  0.23160684956E+03  0.00000000000E+00 0.  1.
        -11    1    5    5    0    0  0.48322098738E+03  0.22924169566E+03  0.84494057002E+03  0.99998942221E+03  0.00000000000E+00 0. -1.
          1    1    6    6  503    0  0.16228111376E+03  0.14238139551E+02 -0.25971702015E+02  0.16496185562E+03  0.00000000000E+00 0. -1.
         -1    1    6    6    0  503  0.11912129276E+03 -0.27972344261E+02  0.52666485162E+02  0.13321446277E+03  0.00000000000E+00 0.  1.
<mgrwt>
<rscale>  0 0.93547441E+03</rscale>
<asrwt>0</asrwt>
<pdfrwt beam="1">  1        2 0.33329540E+00 0.93547441E+03</pdfrwt>
<pdfrwt beam="2">  1       -2 0.73510909E-01 0.93547441E+03</pdfrwt>
<totfact> 0.91196808E+00</totfact>
</mgrwt>
</event>
<event>
12    1  0.1418317E-007  0.1337037E+04  0.7818608E-02  0.9000699E-01
         -3   -1    0    0    0  501 -0.00000000000E+00  0.00000000000E+00  0.12264814096E+04  0.12264814096E+04  0.00000000000E+00 0.  1.
          3   -1    0    0  501    0  0.00000000000E+00 -0.00000000000E+00 -0.15883555783E+04  0.15883555783E+04  0.00000000000E+00 0. -1.
         23    2    1    2    0    0  0.16904933730E+03  0.13022424183E+04 -0.38246120654E+03  0.13708323087E+04  0.92150147426E+02 0.  0.
    5000000    2    1    2    0    0 -0.16904933730E+03 -0.13022424183E+04  0.20587037804E+02  0.14440046793E+04  0.60026052110E+03 0.  0.
         23    2    4    4    0    0 -0.31614886118E+01 -0.10839162876E+04  0.19561636923E+03  0.11050794086E+04  0.89723027893E+02 0.  0.
         23    2    4    4    0    0 -0.16588784868E+03 -0.21832613063E+03 -0.17502933143E+03  0.33892527067E+03  0.95131459473E+02 0.  0.
          3    1    3    3  502    0  0.10222524615E+03  0.91215148284E+03 -0.30766209003E+03  0.96805283443E+03  0.00000000000E+00 0. -1.
         -3    1    3    3    0  502  0.66824091143E+02  0.39009093544E+03 -0.74799116514E+02  0.40277947428E+03  0.00000000000E+00 0.  1.
         11    1    5    5    0    0  0.22990557341E+02 -0.55744084511E+03  0.62486077935E+02  0.56140303834E+03  0.00000000000E+00 0. -1.
        -11    1    5    5    0    0 -0.26152045953E+02 -0.52647544254E+03  0.13313029130E+03  0.54367637025E+03  0.00000000000E+00 0.  1.
          2    1    6    6  503    0 -0.72717705537E+02 -0.11693856516E+03 -0.34035485892E+02  0.14184818300E+03  0.00000000000E+00 0.  1.
         -2    1    6    6    0  503 -0.93170143147E+02 -0.10138756547E+03 -0.14099384554E+03  0.19707708767E+03  0.00000000000E+00 0. -1.
<mgrwt>
<rscale>  0 0.13370372E+04</rscale>
<asrwt>0</asrwt>
<pdfrwt beam="1">  1        3 0.24436239E+00 0.13370372E+04</pdfrwt>
<pdfrwt beam="2">  1       -3 0.18868945E+00 0.13370372E+04</pdfrwt>
<totfact> 0.33773711E-02</totfact>
</mgrwt>
</event>
<event>
12    1  0.1418317E-007  0.4249803E+03  0.7818608E-02  0.1035457E+00
         -2   -1    0    0    0  501 -0.00000000000E+00  0.00000000000E+00  0.34944699597E+03  0.34944699597E+03  0.00000000000E+00 0.  1.
          2   -1    0    0  501    0  0.00000000000E+00 -0.00000000000E+00 -0.80569756100E+03  0.80569756100E+03  0.00000000000E+00 0. -1.
         23    2    1    2    0    0  0.32611406462E+02  0.23855446295E+03 -0.43919199176E+03  0.50903909826E+03  0.90881583966E+02 0.  0.
    5000000    2    1    2    0    0 -0.32611406462E+02 -0.23855446295E+03 -0.17058573271E+02  0.64610545871E+03  0.59932423046E+03 0.  0.
         23    2    4    4    0    0 -0.12795694240E+03  0.14719499140E+03 -0.85567825641E+02  0.23213099211E+03  0.92323345417E+02 0.  0.
         23    2    4    4    0    0  0.95345535943E+02 -0.38574945435E+03  0.68509252370E+02  0.41397446660E+03  0.93743952250E+02 0.  0.
          3    1    3    3  502    0  0.58646556963E+02  0.97981347482E+02 -0.18512714530E+03  0.21751281118E+03  0.00000000000E+00 0. -1.
         -3    1    3    3    0  502 -0.26035150501E+02  0.14057311547E+03 -0.25406484646E+03  0.29152628708E+03  0.00000000000E+00 0.  1.
         13    1    5    5    0    0 -0.11136985383E+03  0.13387570469E+03 -0.35491291376E+02  0.17772332546E+03  0.00000000000E+00 0. -1.
        -13    1    5    5    0    0 -0.16587088574E+02  0.13319286704E+02 -0.50076534266E+02  0.54407666645E+02  0.00000000000E+00 0.  1.
          4    1    6    6  503    0  0.26322221223E+02 -0.11591139393E+03  0.64896842175E+02  0.13542492642E+03  0.00000000000E+00 0. -1.
         -4    1    6    6    0  503  0.69023314719E+02 -0.26983806042E+03  0.36124101956E+01  0.27854954018E+03  0.00000000000E+00 0.  1.
<mgrwt>
<rscale>  0 0.42498027E+03</rscale>
<asrwt>0</asrwt>
<pdfrwt beam="1">  1        2 0.12395347E+00 0.42498027E+03</pdfrwt>
<pdfrwt beam="2">  1       -2 0.53761076E-01 0.42498027E+03</pdfrwt>
<totfact> 0.11560870E+02</totfact>
</mgrwt>
</event>
<event>
12    1  0.1418317E-007  0.1997455E+03  0.7818608E-02  0.1149954E+00
         -1   -1    0    0    0  501 -0.00000000000E+00  0.00000000000E+00  0.87491665462E+02  0.87491665462E+02  0.00000000000E+00 0.  1.
          1   -1    0    0  501    0  0.00000000000E+00 -0.00000000000E+00 -0.22514212706E+04  0.22514212706E+04  0.00000000000E+00 0. -1.
         23    2    1    2    0    0  0.11661107895E+02 -0.42902384528E+02 -0.84089476487E+01  0.10099256869E+03  0.90289492718E+02 0.  0.
    5000000    2    1    2    0    0 -0.11661107895E+02  0.42902384528E+02 -0.21555206575E+04  0.22379203674E+04  0.60003472381E+03 0.  0.
         23    2    4    4    0    0  0.13458639737E+03 -0.14292910349E+02 -0.14293084558E+03  0.21716601735E+03  0.91728222644E+02 0.  0.
         23    2    4    4    0    0 -0.14624750526E+03  0.57195294877E+02 -0.20125898119E+04  0.20207543500E+04  0.90943705556E+02 0.  0.
          2    1    3    3  502    0 -0.27787881715E+02 -0.26401733608E+02  0.25823015061E+02  0.46217377841E+02  0.00000000000E+00 0.  1.
         -2    1    3    3    0  502  0.39448989610E+02 -0.16500650920E+02 -0.34231962709E+02  0.54775190853E+02  0.00000000000E+00 0. -1.
         13    1    5    5    0    0  0.41943657996E+02  0.20445819949E+02 -0.43145672739E+01  0.46860617689E+02  0.00000000000E+00 0. -1.
        -13    1    5    5    0    0  0.92642739372E+02 -0.34738730298E+02 -0.13861627831E+03  0.17030539966E+03  0.00000000000E+00 0.  1.
          1    1    6    6  503    0 -0.22982926680E+02 -0.17302997114E+02 -0.15933199813E+03  0.16190828965E+03  0.00000000000E+00 0. -1.
         -1    1    6    6    0  503 -0.12326457858E+03  0.74498291991E+02 -0.18532578138E+04  0.18588460604E+04  0.00000000000E+00 0.  1.
<mgrwt>
<rscale>  0 0.19974551E+03</rscale>
<asrwt>0</asrwt>
<pdfrwt beam="1">  1        1 0.34637244E+00 0.19974551E+03</pdfrwt>
<pdfrwt beam="2">  1       -1 0.13460259E-01 0.19974551E+03</pdfrwt>
<totfact> 0.90998353E+01</totfact>
</mgrwt>
</event>
<event>
12    1  0.1466522E-007  0.9514873E+03  0.7818608E-02  0.9363414E-01
          2   -1    0    0  501    0  0.00000000000E+00  0.00000000000E+00  0.11746339306E+04  0.11746339306E+04  0.00000000000E+00 0.  1.
         -2   -1    0    0    0  501 -0.00000000000E+00 -0.00000000000E+00 -0.99767997219E+03  0.99767997219E+03  0.00000000000E+00 0. -1.
         23    2    1    2    0    0 -0.72547344412E+03  0.52762793843E+03  0.51852563755E+03  0.10401722037E+04  0.91577382150E+02 0.  0.
    5000000    2    1    2    0    0  0.72547344412E+03 -0.52762793843E+03 -0.34157167911E+03  0.11321416992E+04  0.60030880012E+03 0.  0.
         23    2    4    4    0    0 -0.22667763302E+02  0.49815222121E+02  0.33514971822E+02  0.11123247489E+03  0.90851671891E+02 0.  0.
         23    2    4    4    0    0  0.74814120742E+03 -0.57744316055E+03 -0.37508665094E+03  0.10209092243E+04  0.91704845092E+02 0.  0.
          1    1    3    3  502    0 -0.27056404944E+03  0.20932919391E+03  0.24825458111E+03  0.42267476068E+03  0.00000000000E+00 0. -1.
         -1    1    3    3    0  502 -0.45490939469E+03  0.31829874451E+03  0.27027105644E+03  0.61749744298E+03  0.00000000000E+00 0.  1.
         11    1    5    5    0    0 -0.27017725273E+02  0.46768312662E+02 -0.19895043368E+02  0.57559059224E+02  0.00000000000E+00 0. -1.
        -11    1    5    5    0    0  0.43499619719E+01  0.30469094598E+01  0.53410015190E+02  0.53673415664E+02  0.00000000000E+00 0.  1.
          3    1    6    6  503    0  0.18983117108E+03 -0.12001408651E+03 -0.12507067672E+03  0.25706405554E+03  0.00000000000E+00 0. -1.
         -3    1    6    6    0  503  0.55831003634E+03 -0.45742907403E+03 -0.25001597422E+03  0.76384516874E+03  0.00000000000E+00 0.  1.
<mgrwt>
<rscale>  0 0.95148732E+03</rscale>
<asrwt>0</asrwt>
<pdfrwt beam="1">  1        2 0.18071291E+00 0.95148732E+03</pdfrwt>
<pdfrwt beam="2">  1       -2 0.15348923E+00 0.95148732E+03</pdfrwt>
<totfact> 0.55083662E+00</totfact>
</mgrwt>
</event>
<event>
12    1  0.1418317E-007  0.7305392E+03  0.7818608E-02  0.9666386E-01
         -1   -1    0    0    0  501 -0.00000000000E+00  0.00000000000E+00  0.67575119825E+03  0.67575119825E+03  0.00000000000E+00 0.  1.
          1   -1    0    0  501    0  0.00000000000E+00 -0.00000000000E+00 -0.93885725694E+03  0.93885725694E+03  0.00000000000E+00 0. -1.
         23    2    1    2    0    0  0.55279359380E+03  0.38611144705E+03 -0.20312796736E+03  0.70990796576E+03  0.89696944406E+02 0.  0.
    5000000    2    1    2    0    0 -0.55279359380E+03 -0.38611144705E+03 -0.59978091326E+02  0.90470048942E+03  0.60018563564E+03 0.  0.
         23    2    4    4    0    0 -0.28935860500E+03 -0.42286424864E+03 -0.23784581604E+03  0.57202825624E+03  0.90017324303E+02 0.  0.
         23    2    4    4    0    0 -0.26343498881E+03  0.36752801588E+02  0.17786772471E+03  0.33267223318E+03  0.91022664660E+02 0.  0.
          1    1    3    3  502    0  0.28928480968E+03  0.24019922777E+03 -0.14583478672E+03  0.40329784918E+03  0.00000000000E+00 0. -1.
         -1    1    3    3    0  502  0.26350878412E+03  0.14591221927E+03 -0.57293180648E+02  0.30661011658E+03  0.00000000000E+00 0.  1.
         11    1    5    5    0    0 -0.92167417470E+02 -0.86230297564E+02 -0.89101595852E+02  0.15449786874E+03  0.00000000000E+00 0. -1.
        -11    1    5    5    0    0 -0.19719118753E+03 -0.33663395107E+03 -0.14874422018E+03  0.41753038751E+03  0.00000000000E+00 0.  1.
          1    1    6    6  503    0 -0.17502490286E+03  0.10753360255E+02  0.65122343353E+02  0.18705686564E+03  0.00000000000E+00 0. -1.
         -1    1    6    6    0  503 -0.88410085946E+02  0.25999441333E+02  0.11274538136E+03  0.14561536754E+03  0.00000000000E+00 0.  1.
<mgrwt>
<rscale>  0 0.73053921E+03</rscale>
<asrwt>0</asrwt>
<pdfrwt beam="1">  1        1 0.14443958E+00 0.73053921E+03</pdfrwt>
<pdfrwt beam="2">  1       -1 0.10396172E+00 0.73053921E+03</pdfrwt>
<totfact> 0.15221523E+01</totfact>
</mgrwt>
</event>
<event>
12    1  0.1418317E-007  0.1522816E+04  0.7818608E-02  0.8869421E-01
         -2   -1    0    0    0  501 -0.00000000000E+00  0.00000000000E+00  0.12041796228E+04  0.12041796228E+04  0.00000000000E+00 0.  1.
          2   -1    0    0  501    0  0.00000000000E+00 -0.00000000000E+00 -0.21462167091E+04  0.21462167091E+04  0.00000000000E+00 0. -1.
         23    2    1    2    0    0  0.84544980872E+03  0.12217756594E+04 -0.91586168613E+03  0.17477557562E+04  0.91249188827E+02 0.  0.
    5000000    2    1    2    0    0 -0.84544980872E+03 -0.12217756594E+04 -0.26175400231E+02  0.16026405757E+04  0.60020873229E+03 0.  0.
         23    2    4    4    0    0 -0.21899711841E+03 -0.71173776401E+03  0.16313673737E+03  0.76780388045E+03  0.91535900930E+02 0.  0.
         23    2    4    4    0    0 -0.62645269030E+03 -0.51003789534E+03 -0.18931213760E+03  0.83483669521E+03  0.92366630055E+02 0.  0.
          1    1    3    3  502    0  0.69195700799E+03  0.93803251713E+03 -0.73252360423E+03  0.13766990720E+04  0.00000000000E+00 0. -1.
         -1    1    3    3    0  502  0.15349280072E+03  0.28374314222E+03 -0.18333808190E+03  0.37105668422E+03  0.00000000000E+00 0.  1.
         11    1    5    5    0    0 -0.40041652120E+02 -0.10056396147E+03 -0.75081746035E+01  0.10850261258E+03  0.00000000000E+00 0. -1.
        -11    1    5    5    0    0 -0.17895546629E+03 -0.61117380254E+03  0.17064491198E+03  0.65930126786E+03  0.00000000000E+00 0.  1.
          1    1    6    6  503    0 -0.67447438485E+02 -0.93027468571E+02 -0.14232640739E+02  0.11578356934E+03  0.00000000000E+00 0. -1.
         -1    1    6    6    0  503 -0.55900525182E+03 -0.41701042677E+03 -0.17507949687E+03  0.71905312587E+03  0.00000000000E+00 0.  1.
<mgrwt>
<rscale>  0 0.15228158E+04</rscale>
<asrwt>0</asrwt>
<pdfrwt beam="1">  1        2 0.33018718E+00 0.15228158E+04</pdfrwt>
<pdfrwt beam="2">  1       -2 0.18525841E+00 0.15228158E+04</pdfrwt>
<totfact> 0.86670272E-01</totfact>
</mgrwt>
</event>
<event>
12    1  0.1418317E-007  0.9875419E+03  0.7818608E-02  0.9322315E-01
          1   -1    0    0  501    0  0.00000000000E+00  0.00000000000E+00  0.18805145135E+04  0.18805145135E+04  0.00000000000E+00 0. -1.
         -1   -1    0    0    0  501 -0.00000000000E+00 -0.00000000000E+00 -0.65721390361E+03  0.65721390361E+03  0.00000000000E+00 0.  1.
         23    2    1    2    0    0 -0.88535899059E+03  0.31248992564E+03  0.10479777490E+04  0.14098523793E+04  0.88971192829E+02 0.  0.
    5000000    2    1    2    0    0  0.88535899059E+03 -0.31248992564E+03  0.17532286091E+03  0.11278760378E+04  0.59987978405E+03 0.  0.
         23    2    4    4    0    0  0.80283934582E+03 -0.12638787005E+03 -0.37691888822E+02  0.81875426254E+03  0.91722162264E+02 0.  0.
         23    2    4    4    0    0  0.82519644776E+02 -0.18610205559E+03  0.21301474973E+03  0.30912177530E+03  0.93474710430E+02 0.  0.
          3    1    3    3  502    0 -0.62379788273E+03  0.18369511806E+03  0.75672051419E+03  0.99774427159E+03  0.00000000000E+00 0. -1.
         -3    1    3    3    0  502 -0.26156110786E+03  0.12879480758E+03  0.29125723482E+03  0.41210810771E+03  0.00000000000E+00 0.  1.
         11    1    5    5    0    0  0.61335587812E+03 -0.82727366294E+02 -0.65343045780E+02  0.62234955129E+03  0.00000000000E+00 0. -1.
        -11    1    5    5    0    0  0.18948346770E+03 -0.43660503757E+02  0.27651156958E+02  0.19640471125E+03  0.00000000000E+00 0.  1.
          3    1    6    6  503    0  0.93993546894E+02 -0.11815075870E+03  0.11735308670E+03  0.19122273818E+03  0.00000000000E+00 0. -1.
         -3    1    6    6    0  503 -0.11473902118E+02 -0.67951296894E+02  0.95661663034E+02  0.11789903712E+03  0.00000000000E+00 0.  1.
<mgrwt>
<rscale>  0 0.98754195E+03</rscale>
<asrwt>0</asrwt>
<pdfrwt beam="1">  1        1 0.28930992E+00 0.98754195E+03</pdfrwt>
<pdfrwt beam="2">  1       -1 0.10110983E+00 0.98754195E+03</pdfrwt>
<totfact> 0.33755222E+00</totfact>
</mgrwt>
</event>
<event>
12    1  0.1418317E-007  0.3973812E+03  0.7818608E-02  0.1044690E+00
         -2   -1    0    0    0  501 -0.00000000000E+00  0.00000000000E+00  0.13801745288E+03  0.13801745288E+03  0.00000000000E+00 0.  1.
          2   -1    0    0  501    0  0.00000000000E+00 -0.00000000000E+00 -0.21457955960E+04  0.21457955960E+04  0.00000000000E+00 0. -1.
         23    2    1    2    0    0 -0.19119146360E+03  0.14749885509E+03 -0.11234361281E+03  0.28105969234E+03  0.89796298997E+02 0.  0.
    5000000    2    1    2    0    0  0.19119146360E+03 -0.14749885509E+03 -0.18954345303E+04  0.20027533565E+04  0.60003238283E+03 0.  0.
         23    2    4    4    0    0  0.35450621527E+03 -0.91054553130E+02 -0.16308671588E+04  0.16743226585E+04  0.98301001319E+02 0.  0.
         23    2    4    4    0    0 -0.16331475167E+03 -0.56444301956E+02 -0.26456737146E+03  0.32843069798E+03  0.89516266660E+02 0.  0.
          3    1    3    3  502    0 -0.27791254091E+02  0.38029806045E+02 -0.62319635009E+02  0.78117583548E+02  0.00000000000E+00 0. -1.
         -3    1    3    3    0  502 -0.16340020951E+03  0.10946904904E+03 -0.50023977800E+02  0.20294210879E+03  0.00000000000E+00 0.  1.
         11    1    5    5    0    0  0.30625559036E+03 -0.48511790471E+02 -0.12389910559E+04  0.12772019093E+04  0.00000000000E+00 0. -1.
        -11    1    5    5    0    0  0.48250624910E+02 -0.42542762660E+02 -0.39187610289E+03  0.39712074924E+03  0.00000000000E+00 0.  1.
          1    1    6    6  503    0 -0.11554566394E+03 -0.21837516369E+02 -0.10260998553E+03  0.15606564871E+03  0.00000000000E+00 0. -1.
         -1    1    6    6    0  503 -0.47769087726E+02 -0.34606785588E+02 -0.16195738593E+03  0.17236504927E+03  0.00000000000E+00 0.  1.
<mgrwt>
<rscale>  0 0.39738117E+03</rscale>
<asrwt>0</asrwt>
<pdfrwt beam="1">  1        2 0.33012237E+00 0.39738117E+03</pdfrwt>
<pdfrwt beam="2">  1       -2 0.21233456E-01 0.39738117E+03</pdfrwt>
<totfact> 0.11517581E+02</totfact>
</mgrwt>
</event>
<event>
12    1  0.1418317E-007  0.5126009E+03  0.7818608E-02  0.1010541E+00
         -2   -1    0    0    0  501 -0.00000000000E+00  0.00000000000E+00  0.23354447416E+03  0.23354447416E+03  0.00000000000E+00 0.  1.
          2   -1    0    0  501    0  0.00000000000E+00 -0.00000000000E+00 -0.19817692913E+04  0.19817692913E+04  0.00000000000E+00 0. -1.
         23    2    1    2    0    0  0.48220142974E+03 -0.12546502378E+02 -0.11165387420E+04  0.12195023224E+04  0.88608794955E+02 0.  0.
    5000000    2    1    2    0    0 -0.48220142974E+03  0.12546502378E+02 -0.63168607517E+03  0.99581144303E+03  0.59994791353E+03 0.  0.
         23    2    4    4    0    0 -0.14030453870E+03 -0.83637869556E+02  0.73489473977E+02  0.20111671256E+03  0.91468970050E+02 0.  0.
         23    2    4    4    0    0 -0.34189689104E+03  0.96184371934E+02 -0.70517554915E+03  0.79469473047E+03  0.90123482050E+02 0.  0.
          2    1    3    3  502    0  0.16492671834E+03 -0.20609536272E+02 -0.29199245813E+03  0.33598388505E+03  0.00000000000E+00 0. -1.
         -2    1    3    3    0  502  0.31727471140E+03  0.80630338938E+01 -0.82454628384E+03  0.88351843739E+03  0.00000000000E+00 0.  1.
         11    1    5    5    0    0  0.81023116865E+00 -0.35219702527E+02  0.98822179566E+00  0.35242878755E+02  0.00000000000E+00 0. -1.
        -11    1    5    5    0    0 -0.14111476987E+03 -0.48418167030E+02  0.72501252181E+02  0.16587383381E+03  0.00000000000E+00 0.  1.
          2    1    6    6  503    0 -0.24655136102E+03  0.51380723260E+02 -0.40877989770E+03  0.48013389498E+03  0.00000000000E+00 0.  1.
         -2    1    6    6    0  503 -0.95345530020E+02  0.44803648674E+02 -0.29639565145E+03  0.31456083550E+03  0.00000000000E+00 0. -1.
<mgrwt>
<rscale>  0 0.51260085E+03</rscale>
<asrwt>0</asrwt>
<pdfrwt beam="1">  1        2 0.30488757E+00 0.51260085E+03</pdfrwt>
<pdfrwt beam="2">  1       -2 0.35929920E-01 0.51260085E+03</pdfrwt>
<totfact> 0.53062661E+01</totfact>
</mgrwt>
</event>
<event>
12    1  0.1418317E-007  0.6129118E+03  0.7818608E-02  0.9878974E-01
         -2   -1    0    0    0  501 -0.00000000000E+00  0.00000000000E+00  0.37196123145E+03  0.37196123145E+03  0.00000000000E+00 0.  1.
          2   -1    0    0  501    0  0.00000000000E+00 -0.00000000000E+00 -0.10647459853E+04  0.10647459853E+04  0.00000000000E+00 0. -1.
         23    2    1    2    0    0  0.46480979273E+03 -0.63769143464E+02 -0.14700508481E+03  0.49967722664E+03  0.89175045752E+02 0.  0.
    5000000    2    1    2    0    0 -0.46480979273E+03  0.63769143464E+02 -0.54577966902E+03  0.93702999010E+03  0.60002925608E+03 0.  0.
         23    2    4    4    0    0  0.11187826903E+03  0.97783827411E+02 -0.15786535162E+03  0.23526545550E+03  0.91378013377E+02 0.  0.
         23    2    4    4    0    0 -0.57668806175E+03 -0.34014683947E+02 -0.38791431740E+03  0.70176453459E+03  0.90938578577E+02 0.  0.
          3    1    3    3  502    0  0.15711840991E+03  0.19029910314E+02 -0.36489688593E+02  0.16241868610E+03  0.00000000000E+00 0. -1.
         -3    1    3    3    0  502  0.30769138281E+03 -0.82799053778E+02 -0.11051539621E+03  0.33725854054E+03  0.00000000000E+00 0.  1.
         13    1    5    5    0    0  0.26519202347E+02  0.76184787929E+02 -0.45853626279E+02  0.92789789567E+02  0.00000000000E+00 0. -1.
        -13    1    5    5    0    0  0.85359066679E+02  0.21599039481E+02 -0.11201172534E+03  0.14247566594E+03  0.00000000000E+00 0.  1.
          1    1    6    6  503    0 -0.19249448232E+03  0.14085064261E+02 -0.17150191531E+03  0.25819647889E+03  0.00000000000E+00 0. -1.
         -1    1    6    6    0  503 -0.38419357944E+03 -0.48099748208E+02 -0.21641240209E+03  0.44356805570E+03  0.00000000000E+00 0.  1.
<mgrwt>
<rscale>  0 0.61291177E+03</rscale>
<asrwt>0</asrwt>
<pdfrwt beam="1">  1        2 0.16380707E+00 0.61291177E+03</pdfrwt>
<pdfrwt beam="2">  1       -2 0.57224805E-01 0.61291177E+03</pdfrwt>
<totfact> 0.67437203E+01</totfact>
</mgrwt>
</event>
<event>
12    1  0.1418317E-007  0.4015496E+03  0.7818608E-02  0.1043244E+00
          2   -1    0    0  501    0  0.00000000000E+00  0.00000000000E+00  0.98674511847E+03  0.98674511847E+03  0.00000000000E+00 0. -1.
         -2   -1    0    0    0  501 -0.00000000000E+00 -0.00000000000E+00 -0.32755975761E+03  0.32755975761E+03  0.00000000000E+00 0.  1.
         23    2    1    2    0    0 -0.76045383210E+02  0.17969305251E+03  0.64805381853E+03  0.68294981205E+03  0.91510658614E+02 0.  0.
    5000000    2    1    2    0    0  0.76045383210E+02 -0.17969305251E+03  0.11131542323E+02  0.63135506403E+03  0.60034391162E+03 0.  0.
         23    2    4    4    0    0 -0.37370343272E+02 -0.36733180909E+03  0.70879868683E+02  0.38671889630E+03  0.90544731726E+02 0.  0.
         23    2    4    4    0    0  0.11341572648E+03  0.18763875658E+03 -0.59748326360E+02  0.24463616773E+03  0.90584557589E+02 0.  0.
          1    1    3    3  502    0 -0.25650652803E+02  0.25529958997E+02  0.41395793670E+02  0.54984966393E+02  0.00000000000E+00 0. -1.
         -1    1    3    3    0  502 -0.50394730407E+02  0.15416309351E+03  0.60665802486E+03  0.62796484566E+03  0.00000000000E+00 0.  1.
         13    1    5    5    0    0 -0.52494694406E+02 -0.24339161434E+03  0.13632969382E+02  0.24936124143E+03  0.00000000000E+00 0. -1.
        -13    1    5    5    0    0  0.15124351134E+02 -0.12394019475E+03  0.57246899301E+02  0.13735765487E+03  0.00000000000E+00 0.  1.
          4    1    6    6  503    0  0.74760955362E+02  0.55270661515E+02  0.32506684315E+01  0.93030174224E+02  0.00000000000E+00 0. -1.
         -4    1    6    6    0  503  0.38654771120E+02  0.13236809507E+03 -0.62998994792E+02  0.15160599351E+03  0.00000000000E+00 0.  1.
<mgrwt>
<rscale>  0 0.40154956E+03</rscale>
<asrwt>0</asrwt>
<pdfrwt beam="1">  1        2 0.15180694E+00 0.40154956E+03</pdfrwt>
<pdfrwt beam="2">  1       -2 0.50393809E-01 0.40154956E+03</pdfrwt>
<totfact> 0.10033381E+02</totfact>
</mgrwt>
</event>
<event>
12    1  0.1418317E-007  0.5202820E+03  0.7818608E-02  0.1008617E+00
         -2   -1    0    0    0  501 -0.00000000000E+00  0.00000000000E+00  0.13147630757E+04  0.13147630757E+04  0.00000000000E+00 0.  1.
          2   -1    0    0  501    0  0.00000000000E+00 -0.00000000000E+00 -0.34190471433E+03  0.34190471433E+03  0.00000000000E+00 0. -1.
         23    2    1    2    0    0 -0.41340844205E+03 -0.23170173235E+03  0.68865055390E+03  0.84100390942E+03  0.91955193149E+02 0.  0.
    5000000    2    1    2    0    0  0.41340844205E+03  0.23170173235E+03  0.28420780743E+03  0.81566388057E+03  0.59995104427E+03 0.  0.
         23    2    4    4    0    0 -0.15753305608E+02  0.74382925573E+02  0.32585256533E+03  0.34689599797E+03  0.91520231774E+02 0.  0.
         23    2    4    4    0    0  0.42916174766E+03  0.15731880678E+03 -0.41644757895E+02  0.46876788259E+03  0.95289187606E+02 0.  0.
          1    1    3    3  502    0 -0.96702068268E+02 -0.17909952028E+02  0.17599433730E+03  0.20160868818E+03  0.00000000000E+00 0. -1.
         -1    1    3    3    0  502 -0.31670637378E+03 -0.21379178032E+03  0.51265621660E+03  0.63939522124E+03  0.00000000000E+00 0.  1.
         13    1    5    5    0    0  0.25480385500E+02  0.12644211758E+02  0.18966839988E+03  0.19178954103E+03  0.00000000000E+00 0.  1.
        -13    1    5    5    0    0 -0.41233691108E+02  0.61738713815E+02  0.13618416545E+03  0.15510645694E+03  0.00000000000E+00 0. -1.
          4    1    6    6  503    0  0.23222840806E+03  0.94341109103E+02  0.24082634254E+02  0.25181392267E+03  0.00000000000E+00 0.  1.
         -4    1    6    6    0  503  0.19693333959E+03  0.62977697673E+02 -0.65727392149E+02  0.21695395992E+03  0.00000000000E+00 0. -1.
<mgrwt>
<rscale>  0 0.52028201E+03</rscale>
<asrwt>0</asrwt>
<pdfrwt beam="1">  1        2 0.52600726E-01 0.52028201E+03</pdfrwt>
<pdfrwt beam="2">  1       -2 0.20227124E+00 0.52028201E+03</pdfrwt>
<totfact> 0.12747357E+01</totfact>
</mgrwt>
</event>
<event>
12    1  0.1418317E-007  0.5023682E+03  0.7818608E-02  0.1013163E+00
          1   -1    0    0  501    0  0.00000000000E+00  0.00000000000E+00  0.76253421047E+03  0.76253421047E+03  0.00000000000E+00 0. -1.
         -1   -1    0    0    0  501 -0.00000000000E+00 -0.00000000000E+00 -0.43988277338E+03  0.43988277338E+03  0.00000000000E+00 0.  1.
         23    2    1    2    0    0  0.21773007354E+03 -0.35630803441E+03  0.11923045640E+03  0.44364983136E+03  0.90815586904E+02 0.  0.
    5000000    2    1    2    0    0 -0.21773007354E+03  0.35630803441E+03  0.20342098069E+03  0.75876715248E+03  0.59998807987E+03 0.  0.
         23    2    4    4    0    0 -0.75392849715E+02 -0.85111644492E+02 -0.11776084805E+03  0.18738843673E+03  0.91207099883E+02 0.  0.
         23    2    4    4    0    0 -0.14233722382E+03  0.44141967891E+03  0.32118182874E+03  0.57137871576E+03  0.90579531331E+02 0.  0.
          4    1    3    3  502    0  0.19231172913E+03 -0.34888685434E+03  0.12292698301E+03  0.41691351794E+03  0.00000000000E+00 0. -1.
         -4    1    3    3    0  502  0.25418344410E+02 -0.74211800718E+01 -0.36965266128E+01  0.26736313418E+02  0.00000000000E+00 0.  1.
         11    1    5    5    0    0 -0.31903064289E+02 -0.53573216507E+02 -0.50837288112E+01  0.62559886001E+02  0.00000000000E+00 0. -1.
        -11    1    5    5    0    0 -0.43489785426E+02 -0.31538427986E+02 -0.11267711924E+03  0.12482855072E+03  0.00000000000E+00 0.  1.
          2    1    6    6  503    0 -0.57009302570E+01  0.18598773137E+02  0.42839190943E+02  0.47049030263E+02  0.00000000000E+00 0. -1.
         -2    1    6    6    0  503 -0.13663629357E+03  0.42282090577E+03  0.27834263780E+03  0.52432968549E+03  0.00000000000E+00 0.  1.
<mgrwt>
<rscale>  0 0.50236817E+03</rscale>
<asrwt>0</asrwt>
<pdfrwt beam="1">  1        1 0.11731296E+00 0.50236817E+03</pdfrwt>
<pdfrwt beam="2">  1       -1 0.67674273E-01 0.50236817E+03</pdfrwt>
<totfact> 0.55416044E+01</totfact>
</mgrwt>
</event>
<event>
12    1  0.1418317E-007  0.3965466E+03  0.7818608E-02  0.1044982E+00
          1   -1    0    0  501    0  0.00000000000E+00  0.00000000000E+00  0.12749765600E+04  0.12749765600E+04  0.00000000000E+00 0. -1.
         -1   -1    0    0    0  501 -0.00000000000E+00 -0.00000000000E+00 -0.14391779659E+03  0.14391779659E+03  0.00000000000E+00 0.  1.
         23    2    1    2    0    0  0.18137966025E+03 -0.92468934064E+02  0.31907756354E+03  0.38888686489E+03  0.89293993157E+02 0.  0.
    5000000    2    1    2    0    0 -0.18137966025E+03  0.92468934064E+02  0.81198119990E+03  0.10300074917E+04  0.60012738572E+03 0.  0.
         23    2    4    4    0    0  0.18234064298E+03  0.10009641820E+03  0.15916743509E+03  0.27715095032E+03  0.90614424077E+02 0.  0.
         23    2    4    4    0    0 -0.36372030323E+03 -0.76274841392E+01  0.65281376481E+03  0.75285654140E+03  0.90975397282E+02 0.  0.
          3    1    3    3  502    0  0.10303144285E+03 -0.96384897541E+02  0.17452480507E+03  0.22442021806E+03  0.00000000000E+00 0. -1.
         -3    1    3    3    0  502  0.78348217400E+02  0.39159634766E+01  0.14455275847E+03  0.16446664683E+03  0.00000000000E+00 0.  1.
         13    1    5    5    0    0  0.84813903100E+02  0.36106266897E+02  0.17816821036E+02  0.93885567475E+02  0.00000000000E+00 0. -1.
        -13    1    5    5    0    0  0.97526739877E+02  0.63990151306E+02  0.14135061405E+03  0.18326538284E+03  0.00000000000E+00 0.  1.
          4    1    6    6  503    0 -0.26482346064E+03 -0.17166951589E+02  0.38851664333E+03  0.47050117074E+03  0.00000000000E+00 0. -1.
         -4    1    6    6    0  503 -0.98896842590E+02  0.95394674495E+01  0.26429712149E+03  0.28235537066E+03  0.00000000000E+00 0.  1.
<mgrwt>
<rscale>  0 0.39654663E+03</rscale>
<asrwt>0</asrwt>
<pdfrwt beam="1">  1        1 0.19615023E+00 0.39654663E+03</pdfrwt>
<pdfrwt beam="2">  1       -1 0.22141200E-01 0.39654663E+03</pdfrwt>
<totfact> 0.17108207E+02</totfact>
</mgrwt>
</event>
<event>
12    1  0.1418317E-007  0.3688240E+03  0.7818608E-02  0.1055144E+00
         -2   -1    0    0    0  501 -0.00000000000E+00  0.00000000000E+00  0.58274478436E+02  0.58274478436E+02  0.00000000000E+00 0.  1.
          2   -1    0    0  501    0  0.00000000000E+00 -0.00000000000E+00 -0.44758837252E+04  0.44758837252E+04  0.00000000000E+00 0. -1.
         23    2    1    2    0    0  0.14391017345E+03  0.15331561383E+03 -0.35660776930E+03  0.42364288359E+03  0.89935400285E+02 0.  0.
    5000000    2    1    2    0    0 -0.14391017345E+03 -0.15331561383E+03 -0.40610014775E+04  0.41105153200E+04  0.60032273061E+03 0.  0.
         23    2    4    4    0    0 -0.29887299033E+03 -0.93317528270E+02 -0.12067336036E+04  0.12500062741E+04  0.90975105975E+02 0.  0.
         23    2    4    4    0    0  0.15496281687E+03 -0.59998085564E+02 -0.28542678739E+04  0.28605090459E+04  0.89742192038E+02 0.  0.
          2    1    3    3  502    0  0.96276261532E+02  0.43463327321E+02 -0.20343513679E+03  0.22922485519E+03  0.00000000000E+00 0. -1.
         -2    1    3    3    0  502  0.47633911920E+02  0.10985228651E+03 -0.15317263250E+03  0.19441802839E+03  0.00000000000E+00 0.  1.
         13    1    5    5    0    0 -0.24431376109E+03 -0.39663374713E+02 -0.97695001760E+03  0.10078163196E+04  0.00000000000E+00 0.  1.
        -13    1    5    5    0    0 -0.54559229234E+02 -0.53654153557E+02 -0.22978358601E+03  0.24218995455E+03  0.00000000000E+00 0. -1.
          3    1    6    6  503    0  0.43185712814E+02 -0.63057546368E+02 -0.12733623908E+04  0.12756539650E+04  0.00000000000E+00 0. -1.
         -3    1    6    6    0  503  0.11177710406E+03  0.30594608040E+01 -0.15809054830E+04  0.15848550809E+04  0.00000000000E+00 0.  1.
<mgrwt>
<rscale>  0 0.36882404E+03</rscale>
<asrwt>0</asrwt>
<pdfrwt beam="1">  1        2 0.68859750E+00 0.36882404E+03</pdfrwt>
<pdfrwt beam="2">  1       -2 0.89653043E-02 0.36882404E+03</pdfrwt>
<totfact> 0.13462671E+01</totfact>
</mgrwt>
</event>
<event>
12    1  0.1418317E-007  0.4499126E+03  0.7818608E-02  0.1027748E+00
         -1   -1    0    0    0  501 -0.00000000000E+00  0.00000000000E+00  0.31487871664E+03  0.31487871664E+03  0.00000000000E+00 0.  1.
          1   -1    0    0  501    0  0.00000000000E+00 -0.00000000000E+00 -0.11217500631E+04  0.11217500631E+04  0.00000000000E+00 0. -1.
         23    2    1    2    0    0 -0.68926044508E+02 -0.36542510897E+03 -0.58047806031E+03  0.69532285043E+03  0.90734656827E+02 0.  0.
    5000000    2    1    2    0    0  0.68926044508E+02  0.36542510897E+03 -0.22639328618E+03  0.74130592934E+03  0.59999520912E+03 0.  0.
         23    2    4    4    0    0  0.42054572646E+02  0.42019207300E+03 -0.36400359132E+03  0.56488166115E+03  0.90899457191E+02 0.  0.
         23    2    4    4    0    0  0.26871471862E+02 -0.54766964021E+02  0.13761030514E+03  0.17642426819E+03  0.92018639297E+02 0.  0.
          1    1    3    3  502    0 -0.85979517029E+02 -0.23897314289E+03 -0.41184769288E+03  0.48385861829E+03  0.00000000000E+00 0. -1.
         -1    1    3    3    0  502  0.17053472522E+02 -0.12645196609E+03 -0.16863036744E+03  0.21146423214E+03  0.00000000000E+00 0.  1.
         11    1    5    5    0    0  0.10439575878E+02  0.19924947125E+03 -0.23028528911E+03  0.30469763852E+03  0.00000000000E+00 0. -1.
        -11    1    5    5    0    0  0.31614996767E+02  0.22094260174E+03 -0.13371830222E+03  0.26018402263E+03  0.00000000000E+00 0.  1.
          1    1    6    6  503    0 -0.10883539550E+02 -0.56703238799E+02  0.12303134437E+03  0.13590592489E+03  0.00000000000E+00 0. -1.
         -1    1    6    6    0  503  0.37755011412E+02  0.19362747771E+01  0.14578960774E+02  0.40518343302E+02  0.00000000000E+00 0.  1.
<mgrwt>
<rscale>  0 0.44991261E+03</rscale>
<asrwt>0</asrwt>
<pdfrwt beam="1">  1        1 0.17257693E+00 0.44991261E+03</pdfrwt>
<pdfrwt beam="2">  1       -1 0.48442879E-01 0.44991261E+03</pdfrwt>
<totfact> 0.55402938E+01</totfact>
</mgrwt>
</event>
<event>
12    1  0.1418317E-007  0.5032441E+03  0.7818608E-02  0.1012936E+00
         -1   -1    0    0    0  501 -0.00000000000E+00  0.00000000000E+00  0.28017890837E+03  0.28017890837E+03  0.00000000000E+00 0.  1.
          1   -1    0    0  501    0  0.00000000000E+00 -0.00000000000E+00 -0.15776571646E+04  0.15776571646E+04  0.00000000000E+00 0. -1.
         23    2    1    2    0    0  0.33214636065E+03  0.26022974976E+02  0.47194645402E+02  0.34814822734E+03  0.89338980975E+02 0.  0.
    5000000    2    1    2    0    0 -0.33214636065E+03 -0.26022974976E+02 -0.13446729016E+04  0.15096878456E+04  0.60001148220E+03 0.  0.
         23    2    4    4    0    0 -0.17582002970E+03 -0.29893023687E+03 -0.71235761352E+03  0.79750477269E+03  0.91041328862E+02 0.  0.
         23    2    4    4    0    0 -0.15632633095E+03  0.27290726189E+03 -0.63231528811E+03  0.71218307296E+03  0.92009839046E+02 0.  0.
          1    1    3    3  502    0  0.10519445051E+03  0.47836262447E+02  0.30623317654E+02  0.11954901926E+03  0.00000000000E+00 0. -1.
         -1    1    3    3    0  502  0.22695191015E+03 -0.21813287471E+02  0.16571327748E+02  0.22859920807E+03  0.00000000000E+00 0.  1.
         13    1    5    5    0    0 -0.96665446121E+02 -0.13150948385E+03 -0.24094102198E+03  0.29101809031E+03  0.00000000000E+00 0. -1.
        -13    1    5    5    0    0 -0.79154583579E+02 -0.16742075301E+03 -0.47141659155E+03  0.50648668238E+03  0.00000000000E+00 0.  1.
          1    1    6    6  503    0 -0.41798411818E+02  0.70120371582E+02 -0.87445055541E+02  0.11962696803E+03  0.00000000000E+00 0. -1.
         -1    1    6    6    0  503 -0.11452791914E+03  0.20278689031E+03 -0.54487023257E+03  0.59255610493E+03  0.00000000000E+00 0.  1.
<mgrwt>
<rscale>  0 0.50324411E+03</rscale>
<asrwt>0</asrwt>
<pdfrwt beam="1">  1        1 0.24271648E+00 0.50324411E+03</pdfrwt>
<pdfrwt beam="2">  1       -1 0.43104448E-01 0.50324411E+03</pdfrwt>
<totfact> 0.32852643E+01</totfact>
</mgrwt>
</event>
<event>
12    1  0.1418317E-007  0.1149226E+04  0.7818608E-02  0.9158498E-01
          1   -1    0    0  501    0  0.00000000000E+00  0.00000000000E+00  0.97783829530E+03  0.97783829530E+03  0.00000000000E+00 0. -1.
         -1   -1    0    0    0  501 -0.00000000000E+00 -0.00000000000E+00 -0.16409024545E+04  0.16409024545E+04  0.00000000000E+00 0.  1.
         23    2    1    2    0    0 -0.90512682413E+03  0.61781302435E+03 -0.80276654162E+03  0.13615808561E+04  0.92308215273E+02 0.  0.
    5000000    2    1    2    0    0  0.90512682413E+03 -0.61781302435E+03  0.13970238241E+03  0.12571598937E+04  0.59998895143E+03 0.  0.
         23    2    4    4    0    0  0.50698443328E+03 -0.63989554825E+02  0.22061834205E+03  0.56404778937E+03  0.91376020547E+02 0.  0.
         23    2    4    4    0    0  0.39814239085E+03 -0.55382346953E+03 -0.80915959643E+02  0.69311210432E+03  0.92839635063E+02 0.  0.
          3    1    3    3  502    0 -0.54555326394E+03  0.32189938007E+03 -0.48547394771E+03  0.79808052764E+03  0.00000000000E+00 0. -1.
         -3    1    3    3    0  502 -0.35957356018E+03  0.29591364428E+03 -0.31729259391E+03  0.56350032849E+03  0.00000000000E+00 0.  1.
         11    1    5    5    0    0  0.41994286230E+03 -0.52529754041E+02  0.14258785670E+03  0.44659005758E+03  0.00000000000E+00 0. -1.
        -11    1    5    5    0    0  0.87041570984E+02 -0.11459800784E+02  0.78030485347E+02  0.11745773179E+03  0.00000000000E+00 0.  1.
          2    1    6    6  503    0  0.40284863048E+03 -0.53994215123E+03 -0.77976725654E+02  0.67816289746E+03  0.00000000000E+00 0. -1.
         -2    1    6    6    0  503 -0.47062396307E+01 -0.13881318297E+02 -0.29392339894E+01  0.14949206854E+02  0.00000000000E+00 0.  1.
<mgrwt>
<rscale>  0 0.11492260E+04</rscale>
<asrwt>0</asrwt>
<pdfrwt beam="1">  1        1 0.15043666E+00 0.11492260E+04</pdfrwt>
<pdfrwt beam="2">  1       -1 0.25244653E+00 0.11492260E+04</pdfrwt>
<totfact> 0.10463659E+00</totfact>
</mgrwt>
</event>
<event>
12    1  0.1418317E-007  0.4173372E+03  0.7818608E-02  0.1037936E+00
          1   -1    0    0  501    0  0.00000000000E+00  0.00000000000E+00  0.22837691482E+04  0.22837691482E+04  0.00000000000E+00 0. -1.
         -1   -1    0    0    0  501 -0.00000000000E+00 -0.00000000000E+00 -0.14339405767E+03  0.14339405767E+03  0.00000000000E+00 0.  1.
         23    2    1    2    0    0  0.18538380736E+03 -0.34064693268E+03  0.51043775864E+03  0.64749715512E+03  0.91095398690E+02 0.  0.
    5000000    2    1    2    0    0 -0.18538380736E+03  0.34064693268E+03  0.16299373318E+04  0.17796660507E+04  0.60009004119E+03 0.  0.
         23    2    4    4    0    0 -0.15296785665E+03  0.97366295594E+02  0.99957397115E+02  0.22739873385E+03  0.94017776161E+02 0.  0.
         23    2    4    4    0    0 -0.32415950708E+02  0.24328063709E+03  0.15299799347E+04  0.15522673169E+04  0.91972604980E+02 0.  0.
          2    1    3    3  502    0  0.10403333490E+03 -0.10827140854E+03  0.16237053817E+03  0.22115565637E+03  0.00000000000E+00 0. -1.
         -2    1    3    3    0  502  0.81350472454E+02 -0.23237552414E+03  0.34806722047E+03  0.42634149875E+03  0.00000000000E+00 0.  1.
         11    1    5    5    0    0 -0.30854600609E+02  0.39455687392E+02  0.74656272660E+02  0.89901705734E+02  0.00000000000E+00 0. -1.
        -11    1    5    5    0    0 -0.12211325604E+03  0.57910608201E+02  0.25301124455E+02  0.13749702812E+03  0.00000000000E+00 0.  1.
          4    1    6    6  503    0  0.18644055536E+02  0.69197438243E+02  0.27240502490E+03  0.28167425132E+03  0.00000000000E+00 0. -1.
         -4    1    6    6    0  503 -0.51060006244E+02  0.17408319885E+03  0.12575749098E+04  0.12705930655E+04  0.00000000000E+00 0.  1.
<mgrwt>
<rscale>  0 0.41733719E+03</rscale>
<asrwt>0</asrwt>
<pdfrwt beam="1">  1        1 0.35134907E+00 0.41733719E+03</pdfrwt>
<pdfrwt beam="2">  1       -1 0.22060626E-01 0.41733719E+03</pdfrwt>
<totfact> 0.36489369E+01</totfact>
</mgrwt>
</event>
<event>
12    1  0.1418317E-007  0.5600963E+03  0.7818608E-02  0.9991837E-01
         -2   -1    0    0    0  501 -0.00000000000E+00  0.00000000000E+00  0.40263618552E+03  0.40263618552E+03  0.00000000000E+00 0.  1.
          2   -1    0    0  501    0  0.00000000000E+00 -0.00000000000E+00 -0.84656898054E+03  0.84656898054E+03  0.00000000000E+00 0. -1.
         23    2    1    2    0    0 -0.31069144555E+03 -0.27695429312E+03 -0.81947649550E+02  0.43371442417E+03  0.90332328901E+02 0.  0.
    5000000    2    1    2    0    0  0.31069144555E+03  0.27695429312E+03 -0.36198514548E+03  0.81549074189E+03  0.60063220839E+03 0.  0.
         23    2    4    4    0    0  0.16305505948E+03 -0.15184063714E+03 -0.27876217199E+02  0.24442586543E+03  0.96562874318E+02 0.  0.
         23    2    4    4    0    0  0.14763638607E+03  0.42879493026E+03 -0.33410892828E+03  0.57106487647E+03  0.93939993973E+02 0.  0.
          2    1    3    3  502    0 -0.70027506026E+02 -0.51026426594E+02 -0.54764800407E+02  0.10250234717E+03  0.00000000000E+00 0. -1.
         -2    1    3    3    0  502 -0.24066393953E+03 -0.22592786653E+03 -0.27182849143E+02  0.33121207700E+03  0.00000000000E+00 0.  1.
         13    1    5    5    0    0  0.15353638397E+03 -0.88651050983E+02 -0.32928644811E+02  0.18032394653E+03  0.00000000000E+00 0.  1.
        -13    1    5    5    0    0  0.95186755119E+01 -0.63189586155E+02  0.50524276119E+01  0.64101918901E+02  0.00000000000E+00 0. -1.
          4    1    6    6  503    0 -0.12427138962E+02  0.36823250483E+02 -0.18864699716E+02  0.43200259887E+02  0.00000000000E+00 0. -1.
         -4    1    6    6    0  503  0.16006352503E+03  0.39197167978E+03 -0.31524422856E+03  0.52786461658E+03  0.00000000000E+00 0.  1.
<mgrwt>
<rscale>  0 0.56009627E+03</rscale>
<asrwt>0</asrwt>
<pdfrwt beam="1">  1        2 0.13024138E+00 0.56009627E+03</pdfrwt>
<pdfrwt beam="2">  1       -2 0.61944029E-01 0.56009627E+03</pdfrwt>
<totfact> 0.79512564E+01</totfact>
</mgrwt>
</event>
<event>
12    1  0.1418317E-007  0.1363461E+04  0.7818608E-02  0.8980700E-01
         -2   -1    0    0    0  501 -0.00000000000E+00  0.00000000000E+00  0.15612461493E+04  0.15612461493E+04  0.00000000000E+00 0.  1.
          2   -1    0    0  501    0  0.00000000000E+00 -0.00000000000E+00 -0.13178409114E+04  0.13178409114E+04  0.00000000000E+00 0. -1.
         23    2    1    2    0    0  0.12653132715E+04  0.42535884493E+03 -0.19395778112E+03  0.13519971036E+04  0.91261850404E+02 0.  0.
    5000000    2    1    2    0    0 -0.12653132715E+04 -0.42535884493E+03  0.43736301899E+03  0.15270899571E+04  0.59897370943E+03 0.  0.
         23    2    4    4    0    0 -0.94330396837E+03 -0.46661773674E+03  0.11864676100E+03  0.10629494600E+04  0.90719411806E+02 0.  0.
         23    2    4    4    0    0 -0.32200930313E+03  0.41258891812E+02  0.31871625799E+03  0.46414049704E+03  0.91945964743E+02 0.  0.
          2    1    3    3  502    0  0.54192179945E+03  0.22523854730E+03 -0.65295680715E+02  0.59048722749E+03  0.00000000000E+00 0. -1.
         -2    1    3    3    0  502  0.72339147205E+03  0.20012029763E+03 -0.12866210041E+03  0.76150987613E+03  0.00000000000E+00 0.  1.
         13    1    5    5    0    0 -0.36753263133E+03 -0.19560984305E+03  0.89880644899E+02  0.42593658697E+03  0.00000000000E+00 0.  1.
        -13    1    5    5    0    0 -0.57577133704E+03 -0.27100789370E+03  0.28766116105E+02  0.63701287306E+03  0.00000000000E+00 0. -1.
          1    1    6    6  503    0 -0.30313320736E+02  0.33230210639E+02  0.33369262076E+02  0.56005820810E+02  0.00000000000E+00 0. -1.
         -1    1    6    6    0  503 -0.29169598239E+03  0.80286811724E+01  0.28534699591E+03  0.40813467623E+03  0.00000000000E+00 0.  1.
<mgrwt>
<rscale>  0 0.13634611E+04</rscale>
<asrwt>0</asrwt>
<pdfrwt beam="1">  1        2 0.20274475E+00 0.13634611E+04</pdfrwt>
<pdfrwt beam="2">  1       -2 0.24019172E+00 0.13634611E+04</pdfrwt>
<totfact> 0.11385383E+00</totfact>
</mgrwt>
</event>
<event>
12    1  0.1418317E-007  0.5406919E+03  0.7818608E-02  0.1003672E+00
          2   -1    0    0  501    0  0.00000000000E+00  0.00000000000E+00  0.19145528118E+04  0.19145528118E+04  0.00000000000E+00 0. -1.
         -2   -1    0    0    0  501 -0.00000000000E+00 -0.00000000000E+00 -0.20208613183E+03  0.20208613183E+03  0.00000000000E+00 0.  1.
         23    2    1    2    0    0  0.88487415145E+02  0.44163433578E+03  0.90262369808E+03  0.10126851194E+04  0.89054486674E+02 0.  0.
    5000000    2    1    2    0    0 -0.88487415145E+02 -0.44163433578E+03  0.80984298184E+03  0.11039538241E+04  0.59999790119E+03 0.  0.
         23    2    4    4    0    0 -0.16009529507E+03 -0.47555869601E+03  0.32669324953E+03  0.60562368273E+03  0.90911984619E+02 0.  0.
         23    2    4    4    0    0  0.71607879927E+02  0.33924360227E+02  0.48314973231E+03  0.49833014141E+03  0.92847807314E+02 0.  0.
          2    1    3    3  502    0  0.80230305986E+02  0.20515095994E+03  0.48505254668E+03  0.53272862829E+03  0.00000000000E+00 0.  1.
         -2    1    3    3    0  502  0.82571091588E+01  0.23648337585E+03  0.41757115141E+03  0.47995649114E+03  0.00000000000E+00 0. -1.
         13    1    5    5    0    0 -0.67482458908E+02 -0.14839073735E+03  0.60809428375E+02  0.17398701035E+03  0.00000000000E+00 0.  1.
        -13    1    5    5    0    0 -0.92612836164E+02 -0.32716795866E+03  0.26588382115E+03  0.43163667238E+03  0.00000000000E+00 0. -1.
          4    1    6    6  503    0  0.42954233794E+02 -0.29318297259E+02  0.23219986108E+03  0.23795252519E+03  0.00000000000E+00 0. -1.
         -4    1    6    6    0  503  0.28653646133E+02  0.63242657486E+02  0.25094987123E+03  0.26037761623E+03  0.00000000000E+00 0.  1.
<mgrwt>
<rscale>  0 0.54069185E+03</rscale>
<asrwt>0</asrwt>
<pdfrwt beam="1">  1        2 0.29454658E+00 0.54069185E+03</pdfrwt>
<pdfrwt beam="2">  1       -2 0.31090175E-01 0.54069185E+03</pdfrwt>
<totfact> 0.75346019E+01</totfact>
</mgrwt>
</event>
<event>
12    1  0.1418317E-007  0.7439318E+03  0.7818608E-02  0.9644919E-01
          2   -1    0    0  501    0  0.00000000000E+00  0.00000000000E+00  0.10257992640E+04  0.10257992640E+04  0.00000000000E+00 0. -1.
         -2   -1    0    0    0  501 -0.00000000000E+00 -0.00000000000E+00 -0.71434109717E+03  0.71434109717E+03  0.00000000000E+00 0.  1.
         23    2    1    2    0    0 -0.40439390332E+03  0.60962863007E+03  0.29404036426E+03  0.79379078098E+03  0.91992241598E+02 0.  0.
    5000000    2    1    2    0    0  0.40439390332E+03 -0.60962863007E+03  0.17417802567E+02  0.94634958017E+03  0.60007720537E+03 0.  0.
         23    2    4    4    0    0  0.24413787801E+03 -0.40520495415E+03 -0.26697155089E+03  0.55081052307E+03  0.91236314030E+02 0.  0.
         23    2    4    4    0    0  0.16025602530E+03 -0.20442367593E+03  0.28438935346E+03  0.39553905710E+03  0.90015600916E+02 0.  0.
          3    1    3    3  502    0 -0.36256208936E+03  0.50050102685E+03  0.27022848809E+03  0.67451907482E+03  0.00000000000E+00 0. -1.
         -3    1    3    3    0  502 -0.41831813952E+02  0.10912760323E+03  0.23811876171E+02  0.11927170617E+03  0.00000000000E+00 0.  1.
         11    1    5    5    0    0  0.93464264902E+02 -0.79409975334E+02 -0.61245277229E+02  0.13708572858E+03  0.00000000000E+00 0.  1.
        -11    1    5    5    0    0  0.15067361311E+03 -0.32579497881E+03 -0.20572627366E+03  0.41372479450E+03  0.00000000000E+00 0. -1.
          2    1    6    6  503    0  0.98331471838E+01 -0.66723009677E+02  0.99928217807E+02  0.12055828266E+03  0.00000000000E+00 0. -1.
         -2    1    6    6    0  503  0.15042287812E+03 -0.13770066625E+03  0.18446113565E+03  0.27498077444E+03  0.00000000000E+00 0.  1.
<mgrwt>
<rscale>  0 0.74393178E+03</rscale>
<asrwt>0</asrwt>
<pdfrwt beam="1">  1        2 0.15781527E+00 0.74393178E+03</pdfrwt>
<pdfrwt beam="2">  1       -2 0.10989863E+00 0.74393178E+03</pdfrwt>
<totfact> 0.16250536E+01</totfact>
</mgrwt>
</event>
<event>
12    1  0.1418317E-007  0.5673700E+03  0.7818608E-02  0.9975515E-01
         -1   -1    0    0    0  501 -0.00000000000E+00  0.00000000000E+00  0.12397854223E+04  0.12397854223E+04  0.00000000000E+00 0.  1.
          1   -1    0    0  501    0  0.00000000000E+00 -0.00000000000E+00 -0.46208992662E+03  0.46208992662E+03  0.00000000000E+00 0. -1.
         23    2    1    2    0    0 -0.49784596321E+03  0.23330206259E+03 -0.26646643009E+02  0.55765024837E+03  0.89349316907E+02 0.  0.
    5000000    2    1    2    0    0  0.49784596321E+03 -0.23330206259E+03  0.80434213870E+03  0.11442251006E+04  0.60000362428E+03 0.  0.
         23    2    4    4    0    0  0.18707799440E+03 -0.34843704014E+02 -0.45971342761E+02  0.21292478169E+03  0.83733736365E+02 0.  0.
         23    2    4    4    0    0  0.31076796882E+03 -0.19845835857E+03  0.85031348146E+03  0.93130031886E+03  0.91240433060E+02 0.  0.
          1    1    3    3  502    0 -0.19957019879E+03  0.13285357900E+03 -0.37848849776E+02  0.24271562193E+03  0.00000000000E+00 0. -1.
         -1    1    3    3    0  502 -0.29827576443E+03  0.10044848358E+03  0.11202206767E+02  0.31493462645E+03  0.00000000000E+00 0.  1.
         11    1    5    5    0    0  0.71880706118E+02  0.17965558666E+02 -0.44025266625E+02  0.86184809053E+02  0.00000000000E+00 0.  1.
        -11    1    5    5    0    0  0.11519728828E+03 -0.52809262681E+02 -0.19460761369E+01  0.12673997264E+03  0.00000000000E+00 0. -1.
          4    1    6    6  503    0  0.25327199831E+03 -0.19875019052E+03  0.70529330641E+03  0.77529800169E+03  0.00000000000E+00 0. -1.
         -4    1    6    6    0  503  0.57495970511E+02  0.29183194482E+00  0.14502017506E+03  0.15600231718E+03  0.00000000000E+00 0.  1.
<mgrwt>
<rscale>  0 0.56736996E+03</rscale>
<asrwt>0</asrwt>
<pdfrwt beam="1">  1        1 0.71090758E-01 0.56736996E+03</pdfrwt>
<pdfrwt beam="2">  1       -1 0.19073622E+00 0.56736996E+03</pdfrwt>
<totfact> 0.91393972E+00</totfact>
</mgrwt>
</event>
<event>
12    1  0.1418317E-007  0.8573392E+03  0.7818608E-02  0.9480539E-01
         -2   -1    0    0    0  501 -0.00000000000E+00  0.00000000000E+00  0.11742865896E+04  0.11742865896E+04  0.00000000000E+00 0.  1.
          2   -1    0    0  501    0  0.00000000000E+00 -0.00000000000E+00 -0.66579295786E+03  0.66579295786E+03  0.00000000000E+00 0. -1.
         23    2    1    2    0    0  0.73682855661E+03  0.18068466944E+03  0.39761035360E+02  0.76531477749E+03  0.92533761943E+02 0.  0.
    5000000    2    1    2    0    0 -0.73682855661E+03 -0.18068466944E+03  0.46873259633E+03  0.10747647699E+04  0.59987147974E+03 0.  0.
         23    2    4    4    0    0 -0.41017742437E+02  0.15813723772E+03  0.83339509801E+02  0.20543432179E+03  0.92563197476E+02 0.  0.
         23    2    4    4    0    0 -0.69581081418E+03 -0.33882190716E+03  0.38539308653E+03  0.86933044814E+03  0.90854955936E+02 0.  0.
          2    1    3    3  502    0  0.48498259765E+03  0.11546320384E+03  0.69924922440E+02  0.50341768566E+03  0.00000000000E+00 0. -1.
         -2    1    3    3    0  502  0.25184595897E+03  0.65221465605E+02 -0.30163887079E+02  0.26189709183E+03  0.00000000000E+00 0.  1.
         11    1    5    5    0    0 -0.14878904738E+01 -0.76270671147E+01 -0.87734725443E+01  0.11720059357E+02  0.00000000000E+00 0. -1.
        -11    1    5    5    0    0 -0.39529851963E+02  0.16576430483E+03  0.92112982345E+02  0.19371426243E+03  0.00000000000E+00 0.  1.
          1    1    6    6  503    0 -0.14609043137E+03 -0.10757514238E+03  0.11256660934E+03  0.21350893877E+03  0.00000000000E+00 0. -1.
         -1    1    6    6    0  503 -0.54972038281E+03 -0.23124676478E+03  0.27282647719E+03  0.65582150937E+03  0.00000000000E+00 0.  1.
<mgrwt>
<rscale>  0 0.85733922E+03</rscale>
<asrwt>0</asrwt>
<pdfrwt beam="1">  1        2 0.10242969E+00 0.85733922E+03</pdfrwt>
<pdfrwt beam="2">  1       -2 0.18065948E+00 0.85733922E+03</pdfrwt>
<totfact> 0.78791960E+00</totfact>
</mgrwt>
</event>
<event>
12    1  0.1418317E-007  0.9949170E+03  0.7818608E-02  0.9314137E-01
          2   -1    0    0  501    0  0.00000000000E+00  0.00000000000E+00  0.18356325756E+04  0.18356325756E+04  0.00000000000E+00 0. -1.
         -2   -1    0    0    0  501 -0.00000000000E+00 -0.00000000000E+00 -0.70276087204E+03  0.70276087204E+03  0.00000000000E+00 0.  1.
         23    2    1    2    0    0  0.85797143591E+03 -0.30906545902E+03  0.11187847477E+04  0.14462662106E+04  0.91488783867E+02 0.  0.
    5000000    2    1    2    0    0 -0.85797143591E+03  0.30906545902E+03  0.14086955941E+02  0.10921272371E+04  0.60075537186E+03 0.  0.
         23    2    4    4    0    0 -0.21283087256E+03 -0.16596439100E+03 -0.16449412485E+02  0.28524239649E+03  0.90837669456E+02 0.  0.
         23    2    4    4    0    0 -0.64514056336E+03  0.47502985002E+03  0.30536368427E+02  0.80688484058E+03  0.90944880288E+02 0.  0.
          4    1    3    3  502    0  0.57187850678E+03 -0.16415091802E+03  0.75628206721E+03  0.96226457671E+03  0.00000000000E+00 0. -1.
         -4    1    3    3    0  502  0.28609292913E+03 -0.14491454100E+03  0.36250268045E+03  0.48400163391E+03  0.00000000000E+00 0.  1.
         11    1    5    5    0    0 -0.62417839333E+02 -0.73312821139E+02 -0.45016646588E+02  0.10628854539E+03  0.00000000000E+00 0.  1.
        -11    1    5    5    0    0 -0.15041303322E+03 -0.92651569863E+02  0.28567234103E+02  0.17895385111E+03  0.00000000000E+00 0. -1.
          4    1    6    6  503    0 -0.27854361105E+03  0.21094353663E+03  0.58231156997E+02  0.35422392148E+03  0.00000000000E+00 0. -1.
         -4    1    6    6    0  503 -0.36659695231E+03  0.26408631340E+03 -0.27694788571E+02  0.45266091910E+03  0.00000000000E+00 0.  1.
<mgrwt>
<rscale>  0 0.99491696E+03</rscale>
<asrwt>0</asrwt>
<pdfrwt beam="1">  1        2 0.28240501E+00 0.99491696E+03</pdfrwt>
<pdfrwt beam="2">  1       -2 0.10811706E+00 0.99491696E+03</pdfrwt>
<totfact> 0.56394011E+00</totfact>
</mgrwt>
</event>
<event>
12    1  0.1418317E-007  0.5198148E+03  0.7818608E-02  0.1008733E+00
          2   -1    0    0  501    0  0.00000000000E+00  0.00000000000E+00  0.81108105294E+03  0.81108105294E+03  0.00000000000E+00 0. -1.
         -2   -1    0    0    0  501 -0.00000000000E+00 -0.00000000000E+00 -0.46051773256E+03  0.46051773256E+03  0.00000000000E+00 0.  1.
         23    2    1    2    0    0 -0.45423655863E+03 -0.53150329127E+02  0.16381154488E+03  0.49434663548E+03  0.91589110120E+02 0.  0.
    5000000    2    1    2    0    0  0.45423655863E+03  0.53150329127E+02  0.18675177550E+03  0.77725215002E+03  0.60007405408E+03 0.  0.
         23    2    4    4    0    0 -0.14196901332E+02  0.71362113361E+02  0.26823934263E+03  0.29260179054E+03  0.91484204461E+02 0.  0.
         23    2    4    4    0    0  0.46843345996E+03 -0.18211784234E+02 -0.81487567128E+02  0.48465035948E+03  0.92109564392E+02 0.  0.
          1    1    3    3  502    0 -0.33727852604E+03 -0.34559518739E+02  0.77457500576E+02  0.34777985689E+03  0.00000000000E+00 0. -1.
         -1    1    3    3    0  502 -0.11695803259E+03 -0.18590810388E+02  0.86354044307E+02  0.14656677859E+03  0.00000000000E+00 0.  1.
         13    1    5    5    0    0 -0.42708895238E+02  0.11373311162E+02  0.63567248948E+02  0.77422200163E+02  0.00000000000E+00 0. -1.
        -13    1    5    5    0    0  0.28511993906E+02  0.59988802199E+02  0.20467209368E+03  0.21517959038E+03  0.00000000000E+00 0.  1.
          4    1    6    6  503    0  0.31069081245E+03 -0.36130461535E+02 -0.16847092390E+02  0.31323795382E+03  0.00000000000E+00 0. -1.
         -4    1    6    6    0  503  0.15774264751E+03  0.17918677301E+02 -0.64640474738E+02  0.17141240566E+03  0.00000000000E+00 0.  1.
<mgrwt>
<rscale>  0 0.51981482E+03</rscale>
<asrwt>0</asrwt>
<pdfrwt beam="1">  1        2 0.12478170E+00 0.51981482E+03</pdfrwt>
<pdfrwt beam="2">  1       -2 0.70848882E-01 0.51981482E+03</pdfrwt>
<totfact> 0.63346894E+01</totfact>
</mgrwt>
</event>
<event>
12    1  0.1418317E-007  0.4924626E+03  0.7818608E-02  0.1015765E+00
          1   -1    0    0  501    0  0.00000000000E+00  0.00000000000E+00  0.34258300588E+03  0.34258300588E+03  0.00000000000E+00 0. -1.
         -1   -1    0    0    0  501 -0.00000000000E+00 -0.00000000000E+00 -0.11415582170E+04  0.11415582170E+04  0.00000000000E+00 0.  1.
         23    2    1    2    0    0 -0.31530020444E+03  0.16785866789E+02 -0.73242123165E+03  0.80240744077E+03  0.87868402664E+02 0.  0.
    5000000    2    1    2    0    0  0.31530020444E+03 -0.16785866789E+02 -0.66553979459E+02  0.68173378209E+03  0.60052937748E+03 0.  0.
         23    2    4    4    0    0  0.31487896057E+03  0.23267663435E+03  0.13517605696E+02  0.40235851295E+03  0.91774023014E+02 0.  0.
         23    2    4    4    0    0  0.42124386977E+00 -0.24946250114E+03 -0.80071585156E+02  0.27937526914E+03  0.96991573528E+02 0.  0.
          2    1    3    3  502    0 -0.91997442842E+02 -0.43728994450E+01 -0.12786684423E+03  0.15758357018E+03  0.00000000000E+00 0. -1.
         -2    1    3    3    0  502 -0.22330276160E+03  0.21158766234E+02 -0.60455438742E+03  0.64482387059E+03  0.00000000000E+00 0.  1.
         13    1    5    5    0    0  0.16128354169E+03  0.63440891884E+02 -0.15413695559E+01  0.17331907975E+03  0.00000000000E+00 0.  1.
        -13    1    5    5    0    0  0.15359541888E+03  0.16923574247E+03  0.15058975252E+02  0.22903943321E+03  0.00000000000E+00 0. -1.
          2    1    6    6  503    0 -0.34651111000E+02 -0.21400451023E+03 -0.55528498866E+02  0.22379017869E+03  0.00000000000E+00 0. -1.
         -2    1    6    6    0  503  0.35072354870E+02 -0.35457990912E+02 -0.24543086289E+02  0.55585090449E+02  0.00000000000E+00 0.  1.
<mgrwt>
<rscale>  0 0.49246262E+03</rscale>
<asrwt>0</asrwt>
<pdfrwt beam="1">  1        1 0.52705078E-01 0.49246262E+03</pdfrwt>
<pdfrwt beam="2">  1       -1 0.17562434E+00 0.49246262E+03</pdfrwt>
<totfact> 0.17518944E+01</totfact>
</mgrwt>
</event>
<event>
12    1  0.1418317E-007  0.8938492E+03  0.7818608E-02  0.9433303E-01
          2   -1    0    0  501    0  0.00000000000E+00  0.00000000000E+00  0.67860221501E+03  0.67860221501E+03  0.00000000000E+00 0.  1.
         -2   -1    0    0    0  501 -0.00000000000E+00 -0.00000000000E+00 -0.14736237352E+04  0.14736237352E+04  0.00000000000E+00 0. -1.
         23    2    1    2    0    0  0.87929232791E+03 -0.10011925501E+03 -0.14577370689E+03  0.90130213030E+03  0.88975801851E+02 0.  0.
    5000000    2    1    2    0    0 -0.87929232791E+03  0.10011925501E+03 -0.64924781329E+03  0.12509238199E+04  0.60009067399E+03 0.  0.
         23    2    4    4    0    0 -0.25526648883E+03  0.21881032118E+02  0.80442888048E+02  0.28324045774E+03  0.90079624653E+02 0.  0.
         23    2    4    4    0    0 -0.62402583907E+03  0.78238222889E+02 -0.72969070134E+03  0.96768336216E+03  0.91831924928E+02 0.  0.
          2    1    3    3  502    0  0.30922724507E+03 -0.75219865678E+02 -0.36583059809E+02  0.32034019035E+03  0.00000000000E+00 0. -1.
         -2    1    3    3    0  502  0.57006508284E+03 -0.24899389328E+02 -0.10919064708E+03  0.58096193995E+03  0.00000000000E+00 0.  1.
         13    1    5    5    0    0 -0.13708103677E+03  0.53588827047E+02  0.61074930436E+02  0.15935218905E+03  0.00000000000E+00 0.  1.
        -13    1    5    5    0    0 -0.11818545206E+03 -0.31707794929E+02  0.19367957611E+02  0.12388826869E+03  0.00000000000E+00 0. -1.
          4    1    6    6  503    0 -0.36777080892E+03  0.57021076917E+02 -0.49697226577E+03  0.62087696370E+03  0.00000000000E+00 0.  1.
         -4    1    6    6    0  503 -0.25625503016E+03  0.21217145972E+02 -0.23271843556E+03  0.34680639846E+03  0.00000000000E+00 0. -1.
<mgrwt>
<rscale>  0 0.89384917E+03</rscale>
<asrwt>0</asrwt>
<pdfrwt beam="1">  1        2 0.10440034E+00 0.89384917E+03</pdfrwt>
<pdfrwt beam="2">  1       -2 0.22671134E+00 0.89384917E+03</pdfrwt>
<totfact> 0.38479281E+00</totfact>
</mgrwt>
</event>
<event>
12    1  0.1418317E-007  0.1828087E+04  0.7818608E-02  0.8691504E-01
         -2   -1    0    0    0  501 -0.00000000000E+00  0.00000000000E+00  0.69224265848E+03  0.69224265848E+03  0.00000000000E+00 0.  1.
          2   -1    0    0  501    0  0.00000000000E+00 -0.00000000000E+00 -0.50323582706E+04  0.50323582706E+04  0.00000000000E+00 0. -1.
         23    2    1    2    0    0 -0.12683438771E+04  0.12642932195E+04 -0.16437104900E+04  0.24325298473E+04  0.91015095462E+02 0.  0.
    5000000    2    1    2    0    0  0.12683438771E+04 -0.12642932195E+04 -0.26964051222E+04  0.32920710818E+04  0.59999824147E+03 0.  0.
         23    2    4    4    0    0  0.73831364874E+03 -0.38456407579E+03 -0.97248188710E+03  0.12832892478E+04  0.90076081880E+02 0.  0.
         23    2    4    4    0    0  0.53003022835E+03 -0.87972914368E+03 -0.17239232351E+04  0.20087818340E+04  0.91857101679E+02 0.  0.
          2    1    3    3  502    0 -0.43551235310E+03  0.37948428200E+03 -0.50581978483E+03  0.76781051355E+03  0.00000000000E+00 0. -1.
         -2    1    3    3    0  502 -0.83283152399E+03  0.88480893747E+03 -0.11378907052E+04  0.16647193337E+04  0.00000000000E+00 0.  1.
         13    1    5    5    0    0  0.65718069214E+03 -0.32598038588E+03 -0.81331424262E+03  0.10952760982E+04  0.00000000000E+00 0. -1.
        -13    1    5    5    0    0  0.81132956600E+02 -0.58583689911E+02 -0.15916764448E+03  0.18801314959E+03  0.00000000000E+00 0.  1.
          4    1    6    6  503    0  0.12257421379E+03 -0.14741556094E+03 -0.36331034006E+03  0.41079214779E+03  0.00000000000E+00 0. -1.
         -4    1    6    6    0  503  0.40745601456E+03 -0.73231358275E+03 -0.13606128950E+04  0.15979896862E+04  0.00000000000E+00 0.  1.
<mgrwt>
<rscale>  0 0.18280872E+04</rscale>
<asrwt>0</asrwt>
<pdfrwt beam="1">  1        2 0.77420895E+00 0.18280872E+04</pdfrwt>
<pdfrwt beam="2">  1       -2 0.10649887E+00 0.18280872E+04</pdfrwt>
<totfact> 0.21001783E-02</totfact>
</mgrwt>
</event>
<event>
12    1  0.1418317E-007  0.4354311E+03  0.7818608E-02  0.1032158E+00
          2   -1    0    0  501    0  0.00000000000E+00  0.00000000000E+00  0.14141859450E+04  0.14141859450E+04  0.00000000000E+00 0.  1.
         -2   -1    0    0    0  501 -0.00000000000E+00 -0.00000000000E+00 -0.20504494852E+03  0.20504494852E+03  0.00000000000E+00 0. -1.
         23    2    1    2    0    0 -0.13509951946E+03 -0.25053391696E+03  0.76205063614E+03  0.81860062009E+03  0.91469554892E+02 0.  0.
    5000000    2    1    2    0    0  0.13509951946E+03  0.25053391696E+03  0.44709036032E+03  0.80063027341E+03  0.60008326148E+03 0.  0.
         23    2    4    4    0    0  0.19689750874E+03 -0.76923922254E+02 -0.65929298090E+01  0.23036765346E+03  0.91322890184E+02 0.  0.
         23    2    4    4    0    0 -0.61797989287E+02  0.32745783922E+03  0.45368329013E+03  0.57026261996E+03  0.91232121709E+02 0.  0.
          2    1    3    3  502    0  0.50285958203E+01 -0.71218901631E+02  0.18002581049E+03  0.19366649470E+03  0.00000000000E+00 0. -1.
         -2    1    3    3    0  502 -0.14012811528E+03 -0.17931501533E+03  0.58202482564E+03  0.62493412539E+03  0.00000000000E+00 0.  1.
         13    1    5    5    0    0  0.92851102560E+02 -0.81128904476E+02  0.14406089994E+02  0.12414008948E+03  0.00000000000E+00 0.  1.
        -13    1    5    5    0    0  0.10404640618E+03  0.42049822212E+01 -0.20999019803E+02  0.10622756397E+03  0.00000000000E+00 0. -1.
          4    1    6    6  503    0 -0.84256283397E+02  0.25038517966E+03  0.32849350656E+03  0.42154459234E+03  0.00000000000E+00 0. -1.
         -4    1    6    6    0  503  0.22458294111E+02  0.77072659560E+02  0.12518978357E+03  0.14871802761E+03  0.00000000000E+00 0.  1.
<mgrwt>
<rscale>  0 0.43543106E+03</rscale>
<asrwt>0</asrwt>
<pdfrwt beam="1">  1        2 0.21756706E+00 0.43543106E+03</pdfrwt>
<pdfrwt beam="2">  1       -2 0.31545378E-01 0.43543106E+03</pdfrwt>
<totfact> 0.13910556E+02</totfact>
</mgrwt>
</event>
<event>
12    1  0.1418317E-007  0.4554945E+03  0.7818608E-02  0.1026096E+00
          2   -1    0    0  501    0  0.00000000000E+00  0.00000000000E+00  0.14938764244E+03  0.14938764244E+03  0.00000000000E+00 0. -1.
         -2   -1    0    0    0  501 -0.00000000000E+00 -0.00000000000E+00 -0.18113714457E+04  0.18113714457E+04  0.00000000000E+00 0.  1.
         23    2    1    2    0    0 -0.18316171820E+03 -0.20618997988E+03 -0.93480484515E+03  0.97846971712E+03  0.86489109083E+02 0.  0.
    5000000    2    1    2    0    0  0.18316171820E+03  0.20618997988E+03 -0.72717895812E+03  0.98228937104E+03  0.60003387279E+03 0.  0.
         23    2    4    4    0    0  0.35920746463E+03  0.25053072243E+03 -0.41622130988E+03  0.61098230888E+03  0.90904111253E+02 0.  0.
         23    2    4    4    0    0 -0.17604574643E+03 -0.44340742547E+02 -0.31095764824E+03  0.37130706215E+03  0.90642534842E+02 0.  0.
          4    1    3    3  502    0 -0.12861244084E+03 -0.86334092979E+02 -0.44126788674E+03  0.46766663706E+03  0.00000000000E+00 0. -1.
         -4    1    3    3    0  502 -0.54549277361E+02 -0.11985588690E+03 -0.49353695841E+03  0.51080308006E+03  0.00000000000E+00 0.  1.
         13    1    5    5    0    0  0.35629379112E+02  0.52169642769E+02 -0.31639044590E+02  0.70655172671E+02  0.00000000000E+00 0. -1.
        -13    1    5    5    0    0  0.32357808551E+03  0.19836107966E+03 -0.38458226529E+03  0.54032713621E+03  0.00000000000E+00 0.  1.
          2    1    6    6  503    0 -0.65855449808E+02 -0.13000791359E+02 -0.42556671263E+02  0.79479752858E+02  0.00000000000E+00 0. -1.
         -2    1    6    6    0  503 -0.11019029662E+03 -0.31339951188E+02 -0.26840097698E+03  0.29182730930E+03  0.00000000000E+00 0.  1.
<mgrwt>
<rscale>  0 0.45549454E+03</rscale>
<asrwt>0</asrwt>
<pdfrwt beam="1">  1        2 0.22982715E-01 0.45549454E+03</pdfrwt>
<pdfrwt beam="2">  1       -2 0.27867252E+00 0.45549454E+03</pdfrwt>
<totfact> 0.11127510E+01</totfact>
</mgrwt>
</event>
<event>
12    1  0.2040502E-007  0.1766123E+04  0.7818608E-02  0.8724525E-01
          2   -1    0    0  501    0  0.00000000000E+00  0.00000000000E+00  0.16582092278E+04  0.16582092278E+04  0.00000000000E+00 0. -1.
         -2   -1    0    0    0  501 -0.00000000000E+00 -0.00000000000E+00 -0.19792621946E+04  0.19792621946E+04  0.00000000000E+00 0.  1.
         23    2    1    2    0    0  0.17251807014E+04  0.34187239990E+03 -0.24243378785E+03  0.17775291390E+04  0.87809500521E+02 0.  0.
    5000000    2    1    2    0    0 -0.17251807014E+04 -0.34187239990E+03 -0.78619178936E+02  0.18599422834E+04  0.60006593974E+03 0.  0.
         23    2    4    4    0    0 -0.55314812480E+03 -0.45290174185E+02  0.23192491760E+03  0.60849934643E+03  0.91968686822E+02 0.  0.
         23    2    4    4    0    0 -0.11720325766E+04 -0.29658222571E+03 -0.31054409654E+03  0.12514429369E+04  0.89724084900E+02 0.  0.
          1    1    3    3  502    0  0.66211060563E+03  0.15068738938E+03 -0.55032002851E+02  0.68126768949E+03  0.00000000000E+00 0. -1.
         -1    1    3    3    0  502  0.10630700957E+04  0.19118501052E+03 -0.18740178500E+03  0.10962614495E+04  0.00000000000E+00 0.  1.
         13    1    5    5    0    0 -0.51792509609E+03 -0.64750463677E+02  0.20950019729E+03  0.56243164950E+03  0.00000000000E+00 0.  1.
        -13    1    5    5    0    0 -0.35223028714E+02  0.19460289492E+02  0.22424720315E+02  0.46067696926E+02  0.00000000000E+00 0. -1.
          1    1    6    6  503    0 -0.47427922987E+03 -0.85718967396E+02 -0.15329877358E+03  0.50575591271E+03  0.00000000000E+00 0. -1.
         -1    1    6    6    0  503 -0.69775334668E+03 -0.21086325832E+03 -0.15724532295E+03  0.74568702423E+03  0.00000000000E+00 0.  1.
<mgrwt>
<rscale>  0 0.17661234E+04</rscale>
<asrwt>0</asrwt>
<pdfrwt beam="1">  1        2 0.25510911E+00 0.17661234E+04</pdfrwt>
<pdfrwt beam="2">  1       -2 0.30450187E+00 0.17661234E+04</pdfrwt>
<totfact> 0.28218687E-01</totfact>
</mgrwt>
</event>
<event>
12    1  0.1418317E-007  0.1200351E+04  0.7818608E-02  0.9112549E-01
          2   -1    0    0  501    0  0.00000000000E+00  0.00000000000E+00  0.16622028532E+04  0.16622028532E+04  0.00000000000E+00 0. -1.
         -2   -1    0    0    0  501 -0.00000000000E+00 -0.00000000000E+00 -0.87967943067E+03  0.87967943067E+03  0.00000000000E+00 0.  1.
         23    2    1    2    0    0 -0.62213148434E+03  0.94576367977E+03  0.40660425620E+03  0.12065670194E+04  0.94659544493E+02 0.  0.
    5000000    2    1    2    0    0  0.62213148434E+03 -0.94576367977E+03  0.37591916632E+03  0.13353152645E+04  0.60019589645E+03 0.  0.
         23    2    4    4    0    0  0.13028678001E+03 -0.69365962102E+03  0.13128571338E+03  0.72367154424E+03  0.91248290564E+02 0.  0.
         23    2    4    4    0    0  0.49184470434E+03 -0.25210405875E+03  0.24463345294E+03  0.61164372022E+03  0.93780832610E+02 0.  0.
          1    1    3    3  502    0 -0.88562830075E+02  0.20121183913E+03  0.70897476765E+02  0.23098924497E+03  0.00000000000E+00 0. -1.
         -1    1    3    3    0  502 -0.53356865427E+03  0.74455184064E+03  0.33570677944E+03  0.97557777443E+03  0.00000000000E+00 0.  1.
         13    1    5    5    0    0  0.53083576016E+02 -0.10713583982E+03  0.11840783613E+02  0.12015056543E+03  0.00000000000E+00 0. -1.
        -13    1    5    5    0    0  0.77203203990E+02 -0.58652378120E+03  0.11944492977E+03  0.60352097881E+03  0.00000000000E+00 0.  1.
          3    1    6    6  503    0  0.24163043795E+03 -0.10496119547E+03  0.68837906165E+02  0.27228804312E+03  0.00000000000E+00 0. -1.
         -3    1    6    6    0  503  0.25021426639E+03 -0.14714286328E+03  0.17579554677E+03  0.33935567710E+03  0.00000000000E+00 0.  1.
<mgrwt>
<rscale>  0 0.12003512E+04</rscale>
<asrwt>0</asrwt>
<pdfrwt beam="1">  1        2 0.25572351E+00 0.12003512E+04</pdfrwt>
<pdfrwt beam="2">  1       -2 0.13533530E+00 0.12003512E+04</pdfrwt>
<totfact> 0.39279491E+00</totfact>
</mgrwt>
</event>
<event>
12    1  0.1418317E-007  0.9092152E+03  0.7818608E-02  0.9414135E-01
          2   -1    0    0  501    0  0.00000000000E+00  0.00000000000E+00  0.68549768598E+03  0.68549768598E+03  0.00000000000E+00 0. -1.
         -2   -1    0    0    0  501 -0.00000000000E+00 -0.00000000000E+00 -0.13443128105E+04  0.13443128105E+04  0.00000000000E+00 0.  1.
         23    2    1    2    0    0 -0.79515633343E+03  0.27737707601E+03 -0.49901255410E+03  0.98348564026E+03  0.94967565760E+02 0.  0.
    5000000    2    1    2    0    0  0.79515633343E+03 -0.27737707601E+03 -0.15980257042E+03  0.10463248562E+04  0.60003933733E+03 0.  0.
         23    2    4    4    0    0  0.77933540859E+03 -0.10072211201E+03 -0.24655563581E+03  0.82859880474E+03  0.90981727549E+02 0.  0.
         23    2    4    4    0    0  0.15820924840E+02 -0.17665496400E+03  0.86753065389E+02  0.21772605147E+03  0.91767429768E+02 0.  0.
          4    1    3    3  502    0 -0.11234436305E+03  0.70856472338E+02 -0.59005770522E+02  0.14533952159E+03  0.00000000000E+00 0. -1.
         -4    1    3    3    0  502 -0.68281197038E+03  0.20652060367E+03 -0.44000678358E+03  0.83814611867E+03  0.00000000000E+00 0.  1.
         13    1    5    5    0    0  0.15875411505E+03 -0.26875866448E+02 -0.89463700765E+02  0.18419808630E+03  0.00000000000E+00 0. -1.
        -13    1    5    5    0    0  0.62058129354E+03 -0.73846245561E+02 -0.15709193504E+03  0.64440071844E+03  0.00000000000E+00 0.  1.
          2    1    6    6  503    0  0.29467584638E+02 -0.44221930386E+02 -0.87818511308E+01  0.53861290189E+02  0.00000000000E+00 0. -1.
         -2    1    6    6    0  503 -0.13646659798E+02 -0.13243303362E+03  0.95534916519E+02  0.16386476129E+03  0.00000000000E+00 0.  1.
<mgrwt>
<rscale>  0 0.90921523E+03</rscale>
<asrwt>0</asrwt>
<pdfrwt beam="1">  1        2 0.10546118E+00 0.90921523E+03</pdfrwt>
<pdfrwt beam="2">  1       -2 0.20681736E+00 0.90921523E+03</pdfrwt>
<totfact> 0.50670076E+00</totfact>
</mgrwt>
</event>
<event>
12    1  0.1418317E-007  0.6908090E+03  0.7818608E-02  0.9733080E-01
         -2   -1    0    0    0  501 -0.00000000000E+00  0.00000000000E+00  0.12403237227E+04  0.12403237227E+04  0.00000000000E+00 0.  1.
          2   -1    0    0  501    0  0.00000000000E+00 -0.00000000000E+00 -0.42517401316E+03  0.42517401316E+03  0.00000000000E+00 0. -1.
         23    2    1    2    0    0  0.49233416471E+03 -0.28232973993E+03  0.55631436022E+03  0.79995428626E+03  0.91313640480E+02 0.  0.
    5000000    2    1    2    0    0 -0.49233416471E+03  0.28232973993E+03  0.25883534931E+03  0.86554344957E+03  0.60005559180E+03 0.  0.
         23    2    4    4    0    0 -0.35718988778E+03  0.45105560979E+03  0.12389161901E+03  0.59485724518E+03  0.86430491335E+02 0.  0.
         23    2    4    4    0    0 -0.13514427694E+03 -0.16872586986E+03  0.13494373030E+03  0.27068620439E+03  0.91262347928E+02 0.  0.
          4    1    3    3  502    0  0.28840344413E+03 -0.12587322547E+03  0.26441844018E+03  0.41102034862E+03  0.00000000000E+00 0. -1.
         -4    1    3    3    0  502  0.20393072059E+03 -0.15645651446E+03  0.29189592004E+03  0.38893393764E+03  0.00000000000E+00 0.  1.
         11    1    5    5    0    0 -0.16948950153E+03  0.22391443070E+03  0.16765330640E+02  0.28132799313E+03  0.00000000000E+00 0.  1.
        -11    1    5    5    0    0 -0.18770038625E+03  0.22714117909E+03  0.10712628837E+03  0.31352925206E+03  0.00000000000E+00 0. -1.
          4    1    6    6  503    0 -0.10052998149E+03 -0.53033302737E+02  0.59437181572E+02  0.12826373973E+03  0.00000000000E+00 0. -1.
         -4    1    6    6    0  503 -0.34614295449E+02 -0.11569256713E+03  0.75506548727E+02  0.14242246466E+03  0.00000000000E+00 0.  1.
<mgrwt>
<rscale>  0 0.69080899E+03</rscale>
<asrwt>0</asrwt>
<pdfrwt beam="1">  1        2 0.65411387E-01 0.69080899E+03</pdfrwt>
<pdfrwt beam="2">  1       -2 0.19081903E+00 0.69080899E+03</pdfrwt>
<totfact> 0.11625819E+01</totfact>
</mgrwt>
</event>
<event>
12    1  0.1418317E-007  0.1142865E+04  0.7818608E-02  0.9164391E-01
          1   -1    0    0  501    0  0.00000000000E+00  0.00000000000E+00  0.93157361938E+03  0.93157361938E+03  0.00000000000E+00 0. -1.
         -1   -1    0    0    0  501 -0.00000000000E+00 -0.00000000000E+00 -0.15000518848E+04  0.15000518848E+04  0.00000000000E+00 0.  1.
         23    2    1    2    0    0 -0.90930888728E+03 -0.55996239255E+03  0.21448898697E+02  0.10720175193E+04  0.91438355148E+02 0.  0.
    5000000    2    1    2    0    0  0.90930888728E+03  0.55996239255E+03 -0.58992716413E+03  0.13596079849E+04  0.60009939192E+03 0.  0.
         23    2    4    4    0    0  0.12144258194E+03  0.38098625310E+03 -0.23330448430E+03  0.47174853412E+03  0.90646959630E+02 0.  0.
         23    2    4    4    0    0  0.78786630534E+03  0.17897613945E+03 -0.35662267983E+03  0.88785945082E+03  0.91372288250E+02 0.  0.
          3    1    3    3  502    0 -0.56485925458E+03 -0.31297333542E+03 -0.20511526623E+02  0.64609520111E+03  0.00000000000E+00 0. -1.
         -3    1    3    3    0  502 -0.34444963269E+03 -0.24698905713E+03  0.41960425320E+02  0.42592231815E+03  0.00000000000E+00 0.  1.
         13    1    5    5    0    0  0.54182864784E+02  0.28848924970E+03 -0.14581625295E+03  0.32775632664E+03  0.00000000000E+00 0. -1.
        -13    1    5    5    0    0  0.67259717152E+02  0.92497003396E+02 -0.87488231351E+02  0.14399220747E+03  0.00000000000E+00 0.  1.
          2    1    6    6  503    0  0.34956988940E+03  0.68734711678E+02 -0.20567212731E+03  0.41136916768E+03  0.00000000000E+00 0. -1.
         -2    1    6    6    0  503  0.43829641594E+03  0.11024142777E+03 -0.15095055252E+03  0.47649028315E+03  0.00000000000E+00 0.  1.
<mgrwt>
<rscale>  0 0.11428652E+04</rscale>
<asrwt>0</asrwt>
<pdfrwt beam="1">  1        1 0.14331902E+00 0.11428652E+04</pdfrwt>
<pdfrwt beam="2">  1       -1 0.23077721E+00 0.11428652E+04</pdfrwt>
<totfact> 0.15812468E+00</totfact>
</mgrwt>
</event>
<event>
12    1  0.1418317E-007  0.4389159E+03  0.7818608E-02  0.1031080E+00
         -4   -1    0    0    0  501 -0.00000000000E+00  0.00000000000E+00  0.50971761575E+03  0.50971761575E+03  0.00000000000E+00 0. -1.
          4   -1    0    0  501    0  0.00000000000E+00 -0.00000000000E+00 -0.48206531511E+03  0.48206531511E+03  0.00000000000E+00 0.  1.
         23    2    1    2    0    0  0.24871123096E+03 -0.12382003842E+02  0.18495772513E+03  0.32325908284E+03  0.90975184131E+02 0.  0.
    5000000    2    1    2    0    0 -0.24871123096E+03  0.12382003842E+02 -0.15730542450E+03  0.66852384803E+03  0.60014044055E+03 0.  0.
         23    2    4    4    0    0 -0.39212226295E+03  0.13474730752E+03 -0.17704775579E+03  0.45946686237E+03  0.88584331600E+02 0.  0.
         23    2    4    4    0    0  0.14341103199E+03 -0.12236530368E+03  0.19742331289E+02  0.20905698566E+03  0.88176368525E+02 0.  0.
          1    1    3    3  502    0  0.10532292751E+03  0.35011608922E+02  0.10307954155E+03  0.15147317817E+03  0.00000000000E+00 0. -1.
         -1    1    3    3    0  502  0.14338830345E+03 -0.47393612764E+02  0.81878183585E+02  0.17178590467E+03  0.00000000000E+00 0.  1.
         13    1    5    5    0    0 -0.34679450770E+03  0.12022589481E+03 -0.12221033828E+03  0.38685405922E+03  0.00000000000E+00 0.  1.
        -13    1    5    5    0    0 -0.45327755253E+02  0.14521412711E+02 -0.54837417503E+02  0.72612803153E+02  0.00000000000E+00 0. -1.
          2    1    6    6  503    0  0.36416958629E+02 -0.76594466845E+02 -0.18031835230E+02  0.86706714323E+02  0.00000000000E+00 0. -1.
         -2    1    6    6    0  503  0.10699407336E+03 -0.45770836832E+02  0.37774166519E+02  0.12235027133E+03  0.00000000000E+00 0.  1.
<mgrwt>
<rscale>  0 0.43891593E+03</rscale>
<asrwt>0</asrwt>
<pdfrwt beam="1">  1        4 0.74163895E-01 0.43891593E+03</pdfrwt>
<pdfrwt beam="2">  1       -4 0.78418094E-01 0.43891593E+03</pdfrwt>
<totfact> 0.46260502E+00</totfact>
</mgrwt>
</event>
<event>
12    1  0.1418317E-007  0.9942405E+03  0.7818608E-02  0.9314884E-01
          1   -1    0    0  501    0  0.00000000000E+00  0.00000000000E+00  0.10524873547E+04  0.10524873547E+04  0.00000000000E+00 0. -1.
         -1   -1    0    0    0  501 -0.00000000000E+00 -0.00000000000E+00 -0.13605170145E+04  0.13605170145E+04  0.00000000000E+00 0.  1.
         23    2    1    2    0    0 -0.42997411470E+02 -0.94007370808E+03 -0.75566057067E+03  0.12104983546E+04  0.93252423183E+02 0.  0.
    5000000    2    1    2    0    0  0.42997411470E+02  0.94007370808E+03  0.44763091094E+03  0.12025060146E+04  0.60004993851E+03 0.  0.
         23    2    4    4    0    0 -0.65254452676E+02  0.93077324324E+03  0.27662291402E+03  0.97833791000E+03  0.10013918141E+03 0.  0.
         23    2    4    4    0    0  0.10825186415E+03  0.93004648405E+01  0.17100799692E+03  0.22416810460E+03  0.95930388165E+02 0.  0.
          2    1    3    3  502    0  0.26347436413E+02 -0.33112282225E+03 -0.28649517580E+03  0.43865247814E+03  0.00000000000E+00 0. -1.
         -2    1    3    3    0  502 -0.69344847883E+02 -0.60895088583E+03 -0.46916539487E+03  0.77184587647E+03  0.00000000000E+00 0.  1.
         11    1    5    5    0    0 -0.14833810865E+02  0.38047865645E+03  0.16293880483E+03  0.41416555154E+03  0.00000000000E+00 0.  1.
        -11    1    5    5    0    0 -0.50420641811E+02  0.55029458679E+03  0.11368410919E+03  0.56417235846E+03  0.00000000000E+00 0. -1.
          3    1    6    6  503    0  0.67617749033E+02  0.14311487856E+02  0.26582152290E+02  0.74051262577E+02  0.00000000000E+00 0. -1.
         -3    1    6    6    0  503  0.40634115113E+02 -0.50110230158E+01  0.14442584463E+03  0.15011684203E+03  0.00000000000E+00 0.  1.
<mgrwt>
<rscale>  0 0.99424045E+03</rscale>
<asrwt>0</asrwt>
<pdfrwt beam="1">  1        1 0.16192113E+00 0.99424045E+03</pdfrwt>
<pdfrwt beam="2">  1       -1 0.20931031E+00 0.99424045E+03</pdfrwt>
<totfact> 0.18009580E+00</totfact>
</mgrwt>
</event>
<event>
12    1  0.1418317E-007  0.6082580E+03  0.7818608E-02  0.9888420E-01
          2   -1    0    0  501    0  0.00000000000E+00  0.00000000000E+00  0.10390166039E+04  0.10390166039E+04  0.00000000000E+00 0. -1.
         -2   -1    0    0    0  501 -0.00000000000E+00 -0.00000000000E+00 -0.54061975535E+03  0.54061975535E+03  0.00000000000E+00 0.  1.
         23    2    1    2    0    0 -0.36679512066E+03  0.37969008721E+03  0.56501714592E+03  0.77843358419E+03  0.89505569387E+02 0.  0.
    5000000    2    1    2    0    0  0.36679512066E+03 -0.37969008721E+03 -0.66620297325E+02  0.80120277509E+03  0.59898614336E+03 0.  0.
         23    2    4    4    0    0 -0.53497028469E+02  0.48934414008E+02 -0.14762045651E+03  0.18863830572E+03  0.92391029185E+02 0.  0.
         23    2    4    4    0    0  0.42029214913E+03 -0.42862450121E+03  0.81000159189E+02  0.61256446937E+03  0.91157828451E+02 0.  0.
          4    1    3    3  502    0 -0.20510725713E+03  0.25811770352E+03  0.30627940526E+03  0.45000089987E+03  0.00000000000E+00 0. -1.
         -4    1    3    3    0  502 -0.16168786353E+03  0.12157238368E+03  0.25873774066E+03  0.32843268432E+03  0.00000000000E+00 0.  1.
         11    1    5    5    0    0 -0.47922437806E+02  0.56825904838E+02 -0.47857598517E+02  0.88408671757E+02  0.00000000000E+00 0.  1.
        -11    1    5    5    0    0 -0.55745906630E+01 -0.78914908296E+01 -0.99762857997E+02  0.10022963396E+03  0.00000000000E+00 0. -1.
          1    1    6    6  503    0  0.27143065143E+03 -0.28815952715E+03  0.10214226832E+02  0.39599853794E+03  0.00000000000E+00 0. -1.
         -1    1    6    6    0  503  0.14886149770E+03 -0.14046497406E+03  0.70785932358E+02  0.21656593143E+03  0.00000000000E+00 0.  1.
<mgrwt>
<rscale>  0 0.60825802E+03</rscale>
<asrwt>0</asrwt>
<pdfrwt beam="1">  1        2 0.15984871E+00 0.60825802E+03</pdfrwt>
<pdfrwt beam="2">  1       -2 0.83172270E-01 0.60825802E+03</pdfrwt>
<totfact> 0.31084003E+01</totfact>
</mgrwt>
</event>
<event>
12    1  0.1418317E-007  0.1430628E+04  0.7818608E-02  0.8931942E-01
         -1   -1    0    0    0  501 -0.00000000000E+00  0.00000000000E+00  0.23360833764E+04  0.23360833764E+04  0.00000000000E+00 0.  1.
          1   -1    0    0  501    0  0.00000000000E+00 -0.00000000000E+00 -0.21414868091E+04  0.21414868091E+04  0.00000000000E+00 0. -1.
         23    2    1    2    0    0  0.11034130544E+04 -0.82771520855E+03 -0.16140449817E+04  0.21251527604E+04  0.92196622033E+02 0.  0.
    5000000    2    1    2    0    0 -0.11034130544E+04  0.82771520855E+03  0.18086415489E+04  0.23524174251E+04  0.60004221036E+03 0.  0.
         23    2    4    4    0    0 -0.50742245869E+03  0.69317666213E+03  0.85105579837E+03  0.12128377328E+04  0.93316438855E+02 0.  0.
         23    2    4    4    0    0 -0.59599059568E+03  0.13453854642E+03  0.95758575056E+03  0.11395796922E+04  0.91465811287E+02 0.  0.
          4    1    3    3  502    0  0.85697248665E+03 -0.60748361378E+03 -0.12688640028E+04  0.16472565196E+04  0.00000000000E+00 0. -1.
         -4    1    3    3    0  502  0.24644056773E+03 -0.22023159477E+03 -0.34518097893E+03  0.47789624080E+03  0.00000000000E+00 0.  1.
         11    1    5    5    0    0 -0.19065449669E+03  0.19352655050E+03  0.24329394625E+03  0.36468288572E+03  0.00000000000E+00 0.  1.
        -11    1    5    5    0    0 -0.31676796201E+03  0.49965011164E+03  0.60776185212E+03  0.84815484712E+03  0.00000000000E+00 0. -1.
          3    1    6    6  503    0 -0.41207398438E+03  0.13335891202E+03  0.64584461590E+03  0.77762769749E+03  0.00000000000E+00 0. -1.
         -3    1    6    6    0  503 -0.18391661130E+03  0.11796343977E+01  0.31174113467E+03  0.36195199474E+03  0.00000000000E+00 0.  1.
<mgrwt>
<rscale>  0 0.14306281E+04</rscale>
<asrwt>0</asrwt>
<pdfrwt beam="1">  1        1 0.32945951E+00 0.14306281E+04</pdfrwt>
<pdfrwt beam="2">  1       -1 0.35939744E+00 0.14306281E+04</pdfrwt>
<totfact> 0.30651746E-02</totfact>
</mgrwt>
</event>
<event>
12    1  0.1418317E-007  0.8688050E+03  0.7818608E-02  0.9465439E-01
         -1   -1    0    0    0  501 -0.00000000000E+00  0.00000000000E+00  0.13125399411E+04  0.13125399411E+04  0.00000000000E+00 0.  1.
          1   -1    0    0  501    0  0.00000000000E+00 -0.00000000000E+00 -0.13344936160E+04  0.13344936160E+04  0.00000000000E+00 0. -1.
         23    2    1    2    0    0 -0.74676751044E+03  0.42030519144E+03  0.90537977936E+03  0.12492210292E+04  0.80761787721E+02 0.  0.
    5000000    2    1    2    0    0  0.74676751044E+03 -0.42030519144E+03 -0.92733345421E+03  0.13978125279E+04  0.59967854656E+03 0.  0.
         23    2    4    4    0    0  0.62156903960E+03 -0.34560013003E+03 -0.35501620835E+03  0.80000069641E+03  0.90427237011E+02 0.  0.
         23    2    4    4    0    0  0.12519847083E+03 -0.74705061415E+02 -0.57231724586E+03  0.59781183147E+03  0.92609139075E+02 0.  0.
          2    1    3    3  502    0 -0.30878050088E+03  0.21973932729E+03  0.39579293679E+03  0.54798067347E+03  0.00000000000E+00 0. -1.
         -2    1    3    3    0  502 -0.43798700956E+03  0.20056586415E+03  0.50958684257E+03  0.70124035574E+03  0.00000000000E+00 0.  1.
         11    1    5    5    0    0  0.28848343375E+03 -0.13764843527E+03 -0.20456080710E+03  0.37949296052E+03  0.00000000000E+00 0.  1.
        -11    1    5    5    0    0  0.33308560585E+03 -0.20795169476E+03 -0.15045540125E+03  0.42050773589E+03  0.00000000000E+00 0. -1.
          2    1    6    6  503    0 -0.17805683156E+01 -0.29874096420E+02 -0.19287712084E+03  0.19518508090E+03  0.00000000000E+00 0. -1.
         -2    1    6    6    0  503  0.12697903915E+03 -0.44830964994E+02 -0.37944012501E+03  0.40262675057E+03  0.00000000000E+00 0.  1.
<mgrwt>
<rscale>  0 0.86880497E+03</rscale>
<asrwt>0</asrwt>
<pdfrwt beam="1">  1        1 0.20530671E+00 0.86880497E+03</pdfrwt>
<pdfrwt beam="2">  1       -1 0.20192922E+00 0.86880497E+03</pdfrwt>
<totfact> 0.12811359E+00</totfact>
</mgrwt>
</event>
<event>
12    1  0.1418317E-007  0.1441113E+04  0.7818608E-02  0.8924585E-01
          2   -1    0    0  501    0  0.00000000000E+00  0.00000000000E+00  0.34422681184E+04  0.34422681184E+04  0.00000000000E+00 0. -1.
         -2   -1    0    0    0  501 -0.00000000000E+00 -0.00000000000E+00 -0.64925810870E+03  0.64925810870E+03  0.00000000000E+00 0.  1.
         23    2    1    2    0    0 -0.73132308911E+03  0.12310421342E+04  0.14267767905E+04  0.20234789924E+04  0.92070765636E+02 0.  0.
    5000000    2    1    2    0    0  0.73132308911E+03 -0.12310421342E+04  0.13662332192E+04  0.20680472347E+04  0.59993996274E+03 0.  0.
         23    2    4    4    0    0  0.36046918668E+03 -0.77232428496E+03  0.43324640569E+03  0.96042394962E+03  0.91043282361E+02 0.  0.
         23    2    4    4    0    0  0.37085390243E+03 -0.45871784924E+03  0.93298681350E+03  0.11076232851E+04  0.91707498821E+02 0.  0.
          3    1    3    3  502    0 -0.31387608763E+03  0.60572474072E+03  0.71193438756E+03  0.98603814942E+03  0.00000000000E+00 0. -1.
         -3    1    3    3    0  502 -0.41744700148E+03  0.62531739348E+03  0.71484240296E+03  0.10374408430E+04  0.00000000000E+00 0.  1.
         13    1    5    5    0    0  0.22983250243E+03 -0.38934121911E+03  0.21422448416E+03  0.50030160272E+03  0.00000000000E+00 0.  1.
        -13    1    5    5    0    0  0.13063668425E+03 -0.38298306585E+03  0.21902192153E+03  0.46012234690E+03  0.00000000000E+00 0. -1.
          1    1    6    6  503    0  0.14090731512E+03 -0.14248893502E+03  0.39049870295E+03  0.43891594305E+03  0.00000000000E+00 0. -1.
         -1    1    6    6    0  503  0.22994658731E+03 -0.31622891422E+03  0.54248811055E+03  0.66870734204E+03  0.00000000000E+00 0.  1.
<mgrwt>
<rscale>  0 0.14411133E+04</rscale>
<asrwt>0</asrwt>
<pdfrwt beam="1">  1        2 0.52957970E+00 0.14411133E+04</pdfrwt>
<pdfrwt beam="2">  1       -2 0.99885865E-01 0.14411133E+04</pdfrwt>
<totfact> 0.71492202E-01</totfact>
</mgrwt>
</event>
<event>
12    1  0.1418317E-007  0.6675479E+03  0.7818608E-02  0.9774398E-01
         -1   -1    0    0    0  501 -0.00000000000E+00  0.00000000000E+00  0.51779295248E+03  0.51779295248E+03  0.00000000000E+00 0.  1.
          1   -1    0    0  501    0  0.00000000000E+00 -0.00000000000E+00 -0.10179217884E+04  0.10179217884E+04  0.00000000000E+00 0. -1.
         23    2    1    2    0    0  0.27915652629E+03 -0.49862080250E+03 -0.39475975939E+03  0.70054902811E+03  0.91556552377E+02 0.  0.
    5000000    2    1    2    0    0 -0.27915652629E+03  0.49862080250E+03 -0.10536907655E+03  0.83516571279E+03  0.59987336553E+03 0.  0.
         23    2    4    4    0    0 -0.27116908393E+03  0.59412406410E+03 -0.18252248404E+03  0.68313669250E+03  0.82735771212E+02 0.  0.
         23    2    4    4    0    0 -0.79874423637E+01 -0.95503261598E+02  0.77153407489E+02  0.15202902029E+03  0.89305668979E+02 0.  0.
          1    1    3    3  502    0  0.70931404089E+02 -0.92303968193E+02 -0.42640600527E+02  0.12397381757E+03  0.00000000000E+00 0. -1.
         -1    1    3    3    0  502  0.20822512220E+03 -0.40631683431E+03 -0.35211915887E+03  0.57657521053E+03  0.00000000000E+00 0.  1.
         11    1    5    5    0    0 -0.16540281067E+03  0.30207295318E+03 -0.13001561156E+03  0.36811712548E+03  0.00000000000E+00 0.  1.
        -11    1    5    5    0    0 -0.10576627325E+03  0.29205111093E+03 -0.52506872480E+02  0.31501956703E+03  0.00000000000E+00 0. -1.
          1    1    6    6  503    0  0.20212898334E+02 -0.36608736326E+02 -0.10125942653E+02  0.43026684151E+02  0.00000000000E+00 0. -1.
         -1    1    6    6    0  503 -0.28200340698E+02 -0.58894525272E+02  0.87279350142E+02  0.10900233614E+03  0.00000000000E+00 0.  1.
<mgrwt>
<rscale>  0 0.66754794E+03</rscale>
<asrwt>0</asrwt>
<pdfrwt beam="1">  1        1 0.15660335E+00 0.66754794E+03</pdfrwt>
<pdfrwt beam="2">  1       -1 0.79660455E-01 0.66754794E+03</pdfrwt>
<totfact> 0.23963552E+01</totfact>
</mgrwt>
</event>
<event>
12    1  0.1418317E-007  0.1444289E+04  0.7818608E-02  0.8922369E-01
          2   -1    0    0  501    0  0.00000000000E+00  0.00000000000E+00  0.48601479073E+04  0.48601479073E+04  0.00000000000E+00 0.  1.
         -2   -1    0    0    0  501 -0.00000000000E+00 -0.00000000000E+00 -0.47597943922E+03  0.47597943922E+03  0.00000000000E+00 0. -1.
         23    2    1    2    0    0 -0.14332682073E+04  0.16410852570E+03  0.17115808017E+04  0.22403179537E+04  0.91248728864E+02 0.  0.
    5000000    2    1    2    0    0  0.14332682073E+04 -0.16410852570E+03  0.26725876664E+04  0.30958093928E+04  0.60010132482E+03 0.  0.
         23    2    4    4    0    0  0.72385109015E+03 -0.10341145452E+03  0.78994645630E+03  0.10809127208E+04  0.98501657449E+02 0.  0.
         23    2    4    4    0    0  0.70941711716E+03 -0.60697071172E+02  0.18826412101E+04  0.20148966720E+04  0.92270756891E+02 0.  0.
          1    1    3    3  502    0 -0.67830271309E+03  0.38129926653E+02  0.76915769892E+03  0.10262319561E+04  0.00000000000E+00 0. -1.
         -1    1    3    3    0  502 -0.75496549421E+03  0.12597859904E+03  0.94242310276E+03  0.12140859976E+04  0.00000000000E+00 0.  1.
         13    1    5    5    0    0  0.43603287834E+03 -0.63925129602E+02  0.40404676198E+03  0.59788366683E+03  0.00000000000E+00 0. -1.
        -13    1    5    5    0    0  0.28781821181E+03 -0.39486324922E+02  0.38589969432E+03  0.48302905397E+03  0.00000000000E+00 0.  1.
          4    1    6    6  503    0  0.49386369357E+02 -0.11652933831E+02  0.21064500682E+03  0.21667054079E+03  0.00000000000E+00 0. -1.
         -4    1    6    6    0  503  0.66003074780E+03 -0.49044137341E+02  0.16719962033E+04  0.17982261313E+04  0.00000000000E+00 0.  1.
<mgrwt>
<rscale>  0 0.14442893E+04</rscale>
<asrwt>0</asrwt>
<pdfrwt beam="1">  1        2 0.74771503E+00 0.14442893E+04</pdfrwt>
<pdfrwt beam="2">  1       -2 0.73227609E-01 0.14442893E+04</pdfrwt>
<totfact> 0.85924698E-02</totfact>
</mgrwt>
</event>
<event>
12    1  0.1418317E-007  0.4817939E+03  0.7818608E-02  0.1018643E+00
          2   -1    0    0  501    0  0.00000000000E+00  0.00000000000E+00  0.42971933797E+03  0.42971933797E+03  0.00000000000E+00 0. -1.
         -2   -1    0    0    0  501 -0.00000000000E+00 -0.00000000000E+00 -0.82860756589E+03  0.82860756589E+03  0.00000000000E+00 0.  1.
         23    2    1    2    0    0  0.19265942154E+03 -0.30337255725E+03 -0.41747780008E+03  0.55827101487E+03  0.90698684026E+02 0.  0.
    5000000    2    1    2    0    0 -0.19265942154E+03  0.30337255725E+03  0.18589572151E+02  0.70005588899E+03  0.60048323400E+03 0.  0.
         23    2    4    4    0    0  0.55354529024E+02  0.32287320813E+03  0.18073015030E+03  0.38563256678E+03  0.93476504684E+02 0.  0.
         23    2    4    4    0    0 -0.24801395057E+03 -0.19500650881E+02 -0.16214057815E+03  0.31442332221E+03  0.10335019789E+03 0.  0.
          2    1    3    3  502    0  0.54576765771E+02 -0.16117707397E+03 -0.16227277523E+03  0.23513639896E+03  0.00000000000E+00 0. -1.
         -2    1    3    3    0  502  0.13808265577E+03 -0.14219548328E+03 -0.25520502485E+03  0.32313461591E+03  0.00000000000E+00 0.  1.
         11    1    5    5    0    0  0.81801814226E+02  0.23325846942E+03  0.13370342145E+03  0.28102963415E+03  0.00000000000E+00 0.  1.
        -11    1    5    5    0    0 -0.26447285202E+02  0.89614738710E+02  0.47026728852E+02  0.10460293263E+03  0.00000000000E+00 0. -1.
          1    1    6    6  503    0 -0.16419103734E+03  0.12961844519E+02 -0.52974831851E+02  0.17301167292E+03  0.00000000000E+00 0. -1.
         -1    1    6    6    0  503 -0.83822913224E+02 -0.32462495399E+02 -0.10916574630E+03  0.14141164929E+03  0.00000000000E+00 0.  1.
<mgrwt>
<rscale>  0 0.48179393E+03</rscale>
<asrwt>0</asrwt>
<pdfrwt beam="1">  1        2 0.66110668E-01 0.48179393E+03</pdfrwt>
<pdfrwt beam="2">  1       -2 0.12747809E+00 0.48179393E+03</pdfrwt>
<totfact> 0.34667755E+01</totfact>
</mgrwt>
</event>
<event>
12    1  0.1418317E-007  0.7171684E+03  0.7818608E-02  0.9688314E-01
         -1   -1    0    0    0  501 -0.00000000000E+00  0.00000000000E+00  0.33108217267E+03  0.33108217267E+03  0.00000000000E+00 0.  1.
          1   -1    0    0  501    0  0.00000000000E+00 -0.00000000000E+00 -0.20001391235E+04  0.20001391235E+04  0.00000000000E+00 0. -1.
         23    2    1    2    0    0 -0.76629400979E+02 -0.68902967679E+03 -0.85929851719E+03  0.11079514759E+04  0.92350261640E+02 0.  0.
    5000000    2    1    2    0    0  0.76629400979E+02  0.68902967679E+03 -0.80975843368E+03  0.12232698203E+04  0.60003864180E+03 0.  0.
         23    2    4    4    0    0  0.11403669531E+03  0.55569452092E+03 -0.87423632158E+03  0.10459836311E+04  0.89397102915E+02 0.  0.
         23    2    4    4    0    0 -0.37407294333E+02  0.13333515587E+03  0.64477887902E+02  0.17728618920E+03  0.89974581928E+02 0.  0.
          2    1    3    3  502    0  0.12092965829E+02 -0.23008941233E+03 -0.24960480033E+03  0.33969093870E+03  0.00000000000E+00 0. -1.
         -2    1    3    3    0  502 -0.88722366808E+02 -0.45894026446E+03 -0.60969371686E+03  0.76826053725E+03  0.00000000000E+00 0.  1.
         11    1    5    5    0    0  0.81743291979E+02  0.20955184131E+03 -0.38325896410E+03  0.44438876397E+03  0.00000000000E+00 0. -1.
        -11    1    5    5    0    0  0.32293403334E+02  0.34614267961E+03 -0.49097735749E+03  0.60159486709E+03  0.00000000000E+00 0.  1.
          4    1    6    6  503    0 -0.65942919496E+02  0.10270834801E+03  0.38338129940E+02  0.12793469267E+03  0.00000000000E+00 0.  1.
         -4    1    6    6    0  503  0.28535625163E+02  0.30626807862E+02  0.26139757962E+02  0.49351496528E+02  0.00000000000E+00 0. -1.
<mgrwt>
<rscale>  0 0.71716839E+03</rscale>
<asrwt>0</asrwt>
<pdfrwt beam="1">  1        1 0.30771372E+00 0.71716839E+03</pdfrwt>
<pdfrwt beam="2">  1       -1 0.50935718E-01 0.71716839E+03</pdfrwt>
<totfact> 0.12119294E+01</totfact>
</mgrwt>
</event>
<event>
12    1  0.1418317E-007  0.8984340E+03  0.7818608E-02  0.9427541E-01
         -2   -1    0    0    0  501 -0.00000000000E+00  0.00000000000E+00  0.51161354909E+03  0.51161354909E+03  0.00000000000E+00 0.  1.
          2   -1    0    0  501    0  0.00000000000E+00 -0.00000000000E+00 -0.19253011890E+04  0.19253011890E+04  0.00000000000E+00 0. -1.
         23    2    1    2    0    0 -0.45033811083E+03 -0.72461347967E+03 -0.29467575836E+03  0.90717617473E+03  0.90915897681E+02 0.  0.
    5000000    2    1    2    0    0  0.45033811083E+03  0.72461347967E+03 -0.11190118816E+04  0.15297385634E+04  0.60003614242E+03 0.  0.
         23    2    4    4    0    0  0.19170972763E+03  0.47670961082E+02 -0.58824225681E+03  0.62684125917E+03  0.88746105784E+02 0.  0.
         23    2    4    4    0    0  0.25862838319E+03  0.67694251859E+03 -0.53076962478E+03  0.90289730423E+03  0.91473128997E+02 0.  0.
          1    1    3    3  502    0 -0.23395715529E+03 -0.41255463419E+03 -0.20680961759E+03  0.51740457539E+03  0.00000000000E+00 0. -1.
         -1    1    3    3    0  502 -0.21638095553E+03 -0.31205884549E+03 -0.87866140767E+02  0.38977159935E+03  0.00000000000E+00 0.  1.
         13    1    5    5    0    0 -0.83184543785E+01 -0.40966698978E+01 -0.16752036802E+02  0.19147065690E+02  0.00000000000E+00 0.  1.
        -13    1    5    5    0    0  0.20002818201E+03  0.51767630980E+02 -0.57149022001E+03  0.60769419348E+03  0.00000000000E+00 0. -1.
          3    1    6    6  503    0  0.20853649654E+03  0.47248500042E+03 -0.41583483759E+03  0.66305969427E+03  0.00000000000E+00 0. -1.
         -3    1    6    6    0  503  0.50091886649E+02  0.20445751817E+03 -0.11493478719E+03  0.23983760996E+03  0.00000000000E+00 0.  1.
<mgrwt>
<rscale>  0 0.89843403E+03</rscale>
<asrwt>0</asrwt>
<pdfrwt beam="1">  1        2 0.29620018E+00 0.89843403E+03</pdfrwt>
<pdfrwt beam="2">  1       -2 0.78709776E-01 0.89843403E+03</pdfrwt>
<totfact> 0.10678718E+01</totfact>
</mgrwt>
</event>
<event>
12    1  0.1418317E-007  0.4195375E+03  0.7818608E-02  0.1037217E+00
          1   -1    0    0  501    0  0.00000000000E+00  0.00000000000E+00  0.94745238707E+03  0.94745238707E+03  0.00000000000E+00 0. -1.
         -1   -1    0    0    0  501 -0.00000000000E+00 -0.00000000000E+00 -0.43205743506E+03  0.43205743506E+03  0.00000000000E+00 0.  1.
         23    2    1    2    0    0  0.34628414685E+03 -0.64379326180E+02  0.57571840194E+03  0.68113210187E+03  0.91825126510E+02 0.  0.
    5000000    2    1    2    0    0 -0.34628414685E+03  0.64379326180E+02 -0.60323449927E+02  0.69837772026E+03  0.60002926057E+03 0.  0.
         23    2    4    4    0    0 -0.29594404816E+03 -0.87866620808E+02 -0.26942121818E+03  0.41961464210E+03  0.90472273994E+02 0.  0.
         23    2    4    4    0    0 -0.50340098694E+02  0.15224594699E+03  0.20909776826E+03  0.27876307816E+03  0.90961657565E+02 0.  0.
          2    1    3    3  502    0  0.29941985255E+03 -0.64873025361E+02  0.42938859732E+03  0.52748016553E+03  0.00000000000E+00 0.  1.
         -2    1    3    3    0  502  0.46864294305E+02  0.49369918086E+00  0.14632980462E+03  0.15365193633E+03  0.00000000000E+00 0. -1.
         11    1    5    5    0    0 -0.27488241254E+03 -0.55412568934E+02 -0.25266524250E+03  0.37745280272E+03  0.00000000000E+00 0. -1.
        -11    1    5    5    0    0 -0.21061635622E+02 -0.32454051874E+02 -0.16755975687E+02  0.42161839373E+02  0.00000000000E+00 0.  1.
          4    1    6    6  503    0 -0.53527795462E+02  0.92218063408E+02  0.70872588400E+02  0.12803249545E+03  0.00000000000E+00 0. -1.
         -4    1    6    6    0  503  0.31876967679E+01  0.60027883580E+02  0.13822517986E+03  0.15073058271E+03  0.00000000000E+00 0.  1.
<mgrwt>
<rscale>  0 0.41953751E+03</rscale>
<asrwt>0</asrwt>
<pdfrwt beam="1">  1        1 0.14576191E+00 0.41953751E+03</pdfrwt>
<pdfrwt beam="2">  1       -1 0.66470375E-01 0.41953751E+03</pdfrwt>
<totfact> 0.40957338E+01</totfact>
</mgrwt>
</event>
<event>
12    1  0.1418317E-007  0.5469821E+03  0.7818608E-02  0.1002195E+00
         -1   -1    0    0    0  501 -0.00000000000E+00  0.00000000000E+00  0.23053081534E+03  0.23053081534E+03  0.00000000000E+00 0.  1.
          1   -1    0    0  501    0  0.00000000000E+00 -0.00000000000E+00 -0.14743810158E+04  0.14743810158E+04  0.00000000000E+00 0. -1.
         23    2    1    2    0    0 -0.22271664687E+03 -0.35648746703E+03 -0.39807996793E+03  0.58605615797E+03  0.91149001597E+02 0.  0.
    5000000    2    1    2    0    0  0.22271664687E+03  0.35648746703E+03 -0.84577023256E+03  0.11188556732E+04  0.59985390907E+03 0.  0.
         23    2    4    4    0    0  0.36288136506E+03  0.14261879667E+03 -0.27076260077E+03  0.48297786043E+03  0.89063019377E+02 0.  0.
         23    2    4    4    0    0 -0.14016471818E+03  0.21386867036E+03 -0.57500763179E+03  0.63587781277E+03  0.91218746829E+02 0.  0.
          3    1    3    3  502    0 -0.19984575337E+02 -0.96882561315E+01 -0.26332900028E+01  0.22364699294E+02  0.00000000000E+00 0. -1.
         -3    1    3    3    0  502 -0.20273207154E+03 -0.34679921089E+03 -0.39544667793E+03  0.56369145868E+03  0.00000000000E+00 0.  1.
         13    1    5    5    0    0 -0.19415971849E+01  0.10547510994E+02 -0.14339454343E+02  0.17906416131E+02  0.00000000000E+00 0. -1.
        -13    1    5    5    0    0  0.36482296224E+03  0.13207128567E+03 -0.25642314642E+03  0.46507144430E+03  0.00000000000E+00 0.  1.
          2    1    6    6  503    0 -0.33698173946E+01 -0.91208289501E+01 -0.25016334567E+02  0.26839563804E+02  0.00000000000E+00 0. -1.
         -2    1    6    6    0  503 -0.13679490079E+03  0.22298949931E+03 -0.54999129722E+03  0.60903824897E+03  0.00000000000E+00 0.  1.
<mgrwt>
<rscale>  0 0.54698208E+03</rscale>
<asrwt>0</asrwt>
<pdfrwt beam="1">  1        1 0.22682784E+00 0.54698208E+03</pdfrwt>
<pdfrwt beam="2">  1       -1 0.35466280E-01 0.54698208E+03</pdfrwt>
<totfact> 0.54417482E+01</totfact>
</mgrwt>
</event>
<event>
12    1  0.1418317E-007  0.1089331E+04  0.7818608E-02  0.9215654E-01
          2   -1    0    0  501    0  0.00000000000E+00  0.00000000000E+00  0.21344743241E+04  0.21344743241E+04  0.00000000000E+00 0. -1.
         -2   -1    0    0    0  501 -0.00000000000E+00 -0.00000000000E+00 -0.57845048963E+03  0.57845048963E+03  0.00000000000E+00 0.  1.
         23    2    1    2    0    0  0.30302408817E+03 -0.97569714267E+03  0.58277329963E+03  0.11796223240E+04  0.89864321949E+02 0.  0.
    5000000    2    1    2    0    0 -0.30302408817E+03  0.97569714267E+03  0.97325053483E+03  0.15333024897E+04  0.59999284089E+03 0.  0.
         23    2    4    4    0    0 -0.44448948659E+03  0.81536192367E+03  0.65911720392E+03  0.11422146900E+04  0.88503893956E+02 0.  0.
         23    2    4    4    0    0  0.14146539843E+03  0.16033521900E+03  0.31413333091E+03  0.39108779971E+03  0.92466621477E+02 0.  0.
          3    1    3    3  502    0  0.14515668679E+03 -0.41426846559E+03  0.20269582971E+03  0.48350224889E+03  0.00000000000E+00 0. -1.
         -3    1    3    3    0  502  0.15786740138E+03 -0.56142867708E+03  0.38007746993E+03  0.69612007514E+03  0.00000000000E+00 0.  1.
         11    1    5    5    0    0 -0.81615512864E+02  0.22617818528E+03  0.18542959204E+03  0.30364748812E+03  0.00000000000E+00 0.  1.
        -11    1    5    5    0    0 -0.36287397373E+03  0.58918373839E+03  0.47368761188E+03  0.83856720186E+03  0.00000000000E+00 0. -1.
          2    1    6    6  503    0  0.12878894458E+03  0.10173803359E+03  0.17679290410E+03  0.24123215097E+03  0.00000000000E+00 0. -1.
         -2    1    6    6    0  503  0.12676453850E+02  0.58597185410E+02  0.13734042682E+03  0.14985564874E+03  0.00000000000E+00 0.  1.
<mgrwt>
<rscale>  0 0.10893305E+04</rscale>
<asrwt>0</asrwt>
<pdfrwt beam="1">  1        2 0.32838066E+00 0.10893305E+04</pdfrwt>
<pdfrwt beam="2">  1       -2 0.88992384E-01 0.10893305E+04</pdfrwt>
<totfact> 0.60529431E+00</totfact>
</mgrwt>
</event>
<event>
12    1  0.1418317E-007  0.4348434E+03  0.7818608E-02  0.1032341E+00
          2   -1    0    0  501    0  0.00000000000E+00  0.00000000000E+00  0.17691959171E+04  0.17691959171E+04  0.00000000000E+00 0. -1.
         -2   -1    0    0    0  501 -0.00000000000E+00 -0.00000000000E+00 -0.12632902273E+03  0.12632902273E+03  0.00000000000E+00 0.  1.
         23    2    1    2    0    0  0.12541501055E+02  0.27137598531E+03  0.45426457257E+03  0.53663969830E+03  0.88451394878E+02 0.  0.
    5000000    2    1    2    0    0 -0.12541501055E+02 -0.27137598531E+03  0.11886023218E+04  0.13588852415E+04  0.59999283794E+03 0.  0.
         23    2    4    4    0    0  0.21377835194E+03 -0.27578897312E+03  0.95968569350E+03  0.10250679302E+04  0.89481225958E+02 0.  0.
         23    2    4    4    0    0 -0.22631985299E+03  0.44129878094E+01  0.22891662831E+03  0.33381731131E+03  0.88266779107E+02 0.  0.
          4    1    3    3  502    0  0.29594107400E+02  0.93239608546E+02  0.10083770295E+03  0.14049084714E+03  0.00000000000E+00 0.  1.
         -4    1    3    3    0  502 -0.17052606345E+02  0.17813637676E+03  0.35342686962E+03  0.39614885116E+03  0.00000000000E+00 0. -1.
         11    1    5    5    0    0  0.14248681203E+03 -0.16064695796E+03  0.46511481236E+03  0.51229066494E+03  0.00000000000E+00 0. -1.
        -11    1    5    5    0    0  0.71291539909E+02 -0.11514201516E+03  0.49457088114E+03  0.51277726528E+03  0.00000000000E+00 0.  1.
          1    1    6    6  503    0 -0.23715172135E+02 -0.28947597651E+02  0.30423060645E+02  0.48227952664E+02  0.00000000000E+00 0. -1.
         -1    1    6    6    0  503 -0.20260468086E+03  0.33360585461E+02  0.19849356766E+03  0.28558935864E+03  0.00000000000E+00 0.  1.
<mgrwt>
<rscale>  0 0.43484338E+03</rscale>
<asrwt>0</asrwt>
<pdfrwt beam="1">  1        2 0.27218397E+00 0.43484338E+03</pdfrwt>
<pdfrwt beam="2">  1       -2 0.19435236E-01 0.43484338E+03</pdfrwt>
<totfact> 0.21223190E+02</totfact>
</mgrwt>
</event>
<event>
12    1  0.1418317E-007  0.5135187E+03  0.7818608E-02  0.1010309E+00
          2   -1    0    0  501    0  0.00000000000E+00  0.00000000000E+00  0.15819548119E+04  0.15819548119E+04  0.00000000000E+00 0. -1.
         -2   -1    0    0    0  501 -0.00000000000E+00 -0.00000000000E+00 -0.25639222219E+03  0.25639222219E+03  0.00000000000E+00 0.  1.
         23    2    1    2    0    0  0.35662704635E+03 -0.33684448304E+03  0.51446697701E+03  0.71649407191E+03  0.89668437646E+02 0.  0.
    5000000    2    1    2    0    0 -0.35662704635E+03  0.33684448304E+03  0.81109561267E+03  0.11218529621E+04  0.60002576599E+03 0.  0.
         23    2    4    4    0    0 -0.67798493027E+02  0.38681150267E+02  0.65875388630E+03  0.66993547345E+03  0.93616178254E+02 0.  0.
         23    2    4    4    0    0 -0.28882855332E+03  0.29816333277E+03  0.15234172637E+03  0.45191748870E+03  0.93263651937E+02 0.  0.
          3    1    3    3  502    0  0.29062865792E+03 -0.26477041535E+03  0.35636366962E+03  0.53062553150E+03  0.00000000000E+00 0. -1.
         -3    1    3    3    0  502  0.65998388424E+02 -0.72074067685E+02  0.15810330739E+03  0.18586854042E+03  0.00000000000E+00 0.  1.
         13    1    5    5    0    0 -0.58803947835E+02 -0.18063634443E+02  0.41292779643E+03  0.41748480719E+03  0.00000000000E+00 0. -1.
        -13    1    5    5    0    0 -0.89945451912E+01  0.56744784710E+02  0.24582608987E+03  0.25245066626E+03  0.00000000000E+00 0.  1.
          1    1    6    6  503    0 -0.13489839514E+03  0.10983663671E+03  0.20251297238E+02  0.17513360275E+03  0.00000000000E+00 0. -1.
         -1    1    6    6    0  503 -0.15393015819E+03  0.18832669607E+03  0.13209042913E+03  0.27678388594E+03  0.00000000000E+00 0.  1.
<mgrwt>
<rscale>  0 0.51351871E+03</rscale>
<asrwt>0</asrwt>
<pdfrwt beam="1">  1        2 0.24337766E+00 0.51351871E+03</pdfrwt>
<pdfrwt beam="2">  1       -2 0.39444958E-01 0.51351871E+03</pdfrwt>
<totfact> 0.72902392E+01</totfact>
</mgrwt>
</event>
<event>
12    1  0.1418317E-007  0.6191754E+03  0.7818608E-02  0.9866403E-01
         -1   -1    0    0    0  501 -0.00000000000E+00  0.00000000000E+00  0.60727681526E+03  0.60727681526E+03  0.00000000000E+00 0.  1.
          1   -1    0    0  501    0  0.00000000000E+00 -0.00000000000E+00 -0.90424630862E+03  0.90424630862E+03  0.00000000000E+00 0. -1.
         23    2    1    2    0    0 -0.35499570004E+03 -0.34742845407E+03  0.24615886969E+03  0.56190207376E+03  0.91712995934E+02 0.  0.
    5000000    2    1    2    0    0  0.35499570004E+03  0.34742845407E+03 -0.54312836305E+03  0.94962105013E+03  0.60005269965E+03 0.  0.
         23    2    4    4    0    0  0.46236714507E+03  0.36782008384E+03 -0.54094389547E+03  0.80614203839E+03  0.90386376707E+02 0.  0.
         23    2    4    4    0    0 -0.10737144503E+03 -0.20391629776E+02 -0.21844675841E+01  0.14347901174E+03  0.92935510649E+02 0.  0.
          3    1    3    3  502    0 -0.28390678581E+03 -0.23987633157E+03  0.14883755833E+03  0.40037024895E+03  0.00000000000E+00 0. -1.
         -3    1    3    3    0  502 -0.71088914233E+02 -0.10755212250E+03  0.97321311362E+02  0.16153182481E+03  0.00000000000E+00 0.  1.
         11    1    5    5    0    0  0.31163603165E+03  0.29103079605E+03 -0.35572352822E+03  0.55529736989E+03  0.00000000000E+00 0.  1.
        -11    1    5    5    0    0  0.15073111341E+03  0.76789287790E+02 -0.18522036725E+03  0.25084466850E+03  0.00000000000E+00 0. -1.
          1    1    6    6  503    0 -0.10760293426E+02 -0.41859801729E+02 -0.94615154262E+01  0.44244176900E+02  0.00000000000E+00 0. -1.
         -1    1    6    6    0  503 -0.96611151601E+02  0.21468171953E+02  0.72770478421E+01  0.99234834841E+02  0.00000000000E+00 0.  1.
<mgrwt>
<rscale>  0 0.61917543E+03</rscale>
<asrwt>0</asrwt>
<pdfrwt beam="1">  1        1 0.13911482E+00 0.61917543E+03</pdfrwt>
<pdfrwt beam="2">  1       -1 0.93427202E-01 0.61917543E+03</pdfrwt>
<totfact> 0.20983779E+01</totfact>
</mgrwt>
</event>
<event>
12    1  0.1418317E-007  0.6532566E+03  0.7818608E-02  0.9800688E-01
         -2   -1    0    0    0  501 -0.00000000000E+00  0.00000000000E+00  0.96052232437E+03  0.96052232437E+03  0.00000000000E+00 0.  1.
          2   -1    0    0  501    0  0.00000000000E+00 -0.00000000000E+00 -0.12250984312E+04  0.12250984312E+04  0.00000000000E+00 0. -1.
         23    2    1    2    0    0 -0.41310268092E+03  0.32465003623E+03 -0.97906450374E+03  0.11148720695E+04  0.91219284015E+02 0.  0.
    5000000    2    1    2    0    0  0.41310268092E+03 -0.32465003623E+03  0.71448839686E+03  0.10707486861E+04  0.59996467282E+03 0.  0.
         23    2    4    4    0    0  0.19994428040E+03  0.14412379911E+03  0.32895501417E+03  0.42101070415E+03  0.91045191674E+02 0.  0.
         23    2    4    4    0    0  0.21315840052E+03 -0.46877383534E+03  0.38553338269E+03  0.64973798200E+03  0.91312888865E+02 0.  0.
          2    1    3    3  502    0 -0.25244071920E+03  0.14522365882E+03 -0.49864687417E+03  0.57746422652E+03  0.00000000000E+00 0. -1.
         -2    1    3    3    0  502 -0.16066196172E+03  0.17942637741E+03 -0.48041762957E+03  0.53740784294E+03  0.00000000000E+00 0.  1.
         11    1    5    5    0    0  0.89583754144E+02  0.17387975363E+02  0.84544639676E+02  0.12440010768E+03  0.00000000000E+00 0.  1.
        -11    1    5    5    0    0  0.11036052626E+03  0.12673582375E+03  0.24441037449E+03  0.29661059647E+03  0.00000000000E+00 0. -1.
          2    1    6    6  503    0  0.14580551876E+03 -0.33505246396E+03  0.21992959020E+03  0.42648379519E+03  0.00000000000E+00 0. -1.
         -2    1    6    6    0  503  0.67352881758E+02 -0.13372137138E+03  0.16560379248E+03  0.22325418681E+03  0.00000000000E+00 0.  1.
<mgrwt>
<rscale>  0 0.65325656E+03</rscale>
<asrwt>0</asrwt>
<pdfrwt beam="1">  1        2 0.18847668E+00 0.65325656E+03</pdfrwt>
<pdfrwt beam="2">  1       -2 0.14777267E+00 0.65325656E+03</pdfrwt>
<totfact> 0.59120957E+00</totfact>
</mgrwt>
</event>
<event>
12    1  0.1418317E-007  0.1364423E+04  0.7818608E-02  0.8979981E-01
          1   -1    0    0  501    0  0.00000000000E+00  0.00000000000E+00  0.25871402698E+04  0.25871402698E+04  0.00000000000E+00 0. -1.
         -1   -1    0    0    0  501 -0.00000000000E+00 -0.00000000000E+00 -0.85737953349E+03  0.85737953349E+03  0.00000000000E+00 0.  1.
         23    2    1    2    0    0 -0.73617284821E+02  0.13535128435E+04  0.13477538278E+04  0.19136953762E+04  0.91504591793E+02 0.  0.
    5000000    2    1    2    0    0  0.73617284821E+02 -0.13535128435E+04  0.38200690848E+03  0.15308244271E+04  0.60006468499E+03 0.  0.
         23    2    4    4    0    0  0.75046875952E+02 -0.48872314697E+03  0.42819448184E+03  0.66008042350E+03  0.88731636039E+02 0.  0.
         23    2    4    4    0    0 -0.14295911311E+01 -0.86478969656E+03 -0.46187573352E+02  0.87074400358E+03  0.90545926615E+02 0.  0.
          4    1    3    3  502    0 -0.84720014365E+02  0.76530696146E+03  0.74384979117E+03  0.10706001765E+04  0.00000000000E+00 0. -1.
         -4    1    3    3    0  502  0.11102729544E+02  0.58820588207E+03  0.60390403664E+03  0.84309519971E+03  0.00000000000E+00 0.  1.
         13    1    5    5    0    0  0.27176187330E+01 -0.29892064603E+03  0.26610649823E+03  0.40021694926E+03  0.00000000000E+00 0. -1.
        -13    1    5    5    0    0  0.72329257219E+02 -0.18980250094E+03  0.16208798361E+03  0.25986347424E+03  0.00000000000E+00 0.  1.
          2    1    6    6  503    0 -0.35413967448E+02 -0.22119488006E+03  0.64669771009E+01  0.22410521156E+03  0.00000000000E+00 0. -1.
         -2    1    6    6    0  503  0.33984376317E+02 -0.64359481650E+03 -0.52654550453E+02  0.64663879202E+03  0.00000000000E+00 0.  1.
<mgrwt>
<rscale>  0 0.13644230E+04</rscale>
<asrwt>0</asrwt>
<pdfrwt beam="1">  1        1 0.39802158E+00 0.13644230E+04</pdfrwt>
<pdfrwt beam="2">  1       -1 0.13190454E+00 0.13644230E+04</pdfrwt>
<totfact> 0.55713154E-01</totfact>
</mgrwt>
</event>
<event>
12    1  0.1418317E-007  0.6590540E+03  0.7818608E-02  0.9789937E-01
         -1   -1    0    0    0  501 -0.00000000000E+00  0.00000000000E+00  0.32091516053E+03  0.32091516053E+03  0.00000000000E+00 0.  1.
          1   -1    0    0  501    0  0.00000000000E+00 -0.00000000000E+00 -0.16879230903E+04  0.16879230903E+04  0.00000000000E+00 0. -1.
         23    2    1    2    0    0 -0.57703091137E+03  0.15663252328E+03 -0.73371097052E+03  0.95088712941E+03  0.91411840474E+02 0.  0.
    5000000    2    1    2    0    0  0.57703091137E+03 -0.15663252328E+03 -0.63329695921E+03  0.10579511214E+04  0.60058064958E+03 0.  0.
         23    2    4    4    0    0  0.60482636490E+03 -0.97506644476E+02 -0.26497029019E+03  0.67391371932E+03  0.92886861335E+02 0.  0.
         23    2    4    4    0    0 -0.27795453526E+02 -0.59125878806E+02 -0.36832666902E+03  0.38403740206E+03  0.86900715127E+02 0.  0.
          4    1    3    3  502    0 -0.29069264834E+03  0.10312059749E+03 -0.43888530036E+03  0.53642928732E+03  0.00000000000E+00 0. -1.
         -4    1    3    3    0  502 -0.28633826304E+03  0.53511925796E+02 -0.29482567016E+03  0.41445784209E+03  0.00000000000E+00 0.  1.
         11    1    5    5    0    0  0.12468508528E+03  0.94849957102E+01 -0.29180020840E+02  0.12840486459E+03  0.00000000000E+00 0. -1.
        -11    1    5    5    0    0  0.48014127962E+03 -0.10699164019E+03 -0.23579026936E+03  0.54550885473E+03  0.00000000000E+00 0.  1.
          2    1    6    6  503    0 -0.44317152653E+02 -0.47420505119E+01 -0.23357002694E+03  0.23778447078E+03  0.00000000000E+00 0. -1.
         -2    1    6    6    0  503  0.16521699127E+02 -0.54383828294E+02 -0.13475664208E+03  0.14625293127E+03  0.00000000000E+00 0.  1.
<mgrwt>
<rscale>  0 0.65905402E+03</rscale>
<asrwt>0</asrwt>
<pdfrwt beam="1">  1        1 0.25968048E+00 0.65905402E+03</pdfrwt>
<pdfrwt beam="2">  1       -1 0.49371562E-01 0.65905402E+03</pdfrwt>
<totfact> 0.20977439E+01</totfact>
</mgrwt>
</event>
<event>
12    1  0.1418317E-007  0.8997247E+03  0.7818608E-02  0.9425926E-01
         -1   -1    0    0    0  501 -0.00000000000E+00  0.00000000000E+00  0.24345332457E+03  0.24345332457E+03  0.00000000000E+00 0.  1.
          1   -1    0    0  501    0  0.00000000000E+00 -0.00000000000E+00 -0.34786126445E+04  0.34786126445E+04  0.00000000000E+00 0. -1.
         23    2    1    2    0    0  0.35314379638E+03  0.72762522862E+03 -0.17190298435E+04  0.19019558960E+04  0.90684140040E+02 0.  0.
    5000000    2    1    2    0    0 -0.35314379638E+03 -0.72762522862E+03 -0.15161294764E+04  0.18201100731E+04  0.60000256212E+03 0.  0.
         23    2    4    4    0    0 -0.12210283630E+03 -0.74131652385E+03 -0.11821349380E+04  0.14036762174E+04  0.91676716961E+02 0.  0.
         23    2    4    4    0    0 -0.23104096008E+03  0.13691295226E+02 -0.33399453841E+03  0.41643385568E+03  0.91090217187E+02 0.  0.
          4    1    3    3  502    0  0.62311102080E+02  0.15354470946E+03 -0.27591194302E+03  0.32184787019E+03  0.00000000000E+00 0. -1.
         -4    1    3    3    0  502  0.29083269430E+03  0.57408051917E+03 -0.14431179005E+04  0.15801080258E+04  0.00000000000E+00 0.  1.
         13    1    5    5    0    0 -0.37206492000E+01 -0.26348796479E+03 -0.37680828037E+03  0.45980890703E+03  0.00000000000E+00 0. -1.
        -13    1    5    5    0    0 -0.11838218710E+03 -0.47782855905E+03 -0.80532665764E+03  0.94386731036E+03  0.00000000000E+00 0.  1.
          3    1    6    6  503    0 -0.40855687474E+02 -0.11789592895E+02 -0.16811505824E+02  0.45725358694E+02  0.00000000000E+00 0. -1.
         -3    1    6    6    0  503 -0.19018527261E+03  0.25480888121E+02 -0.31718303259E+03  0.37070849699E+03  0.00000000000E+00 0.  1.
<mgrwt>
<rscale>  0 0.89972470E+03</rscale>
<asrwt>0</asrwt>
<pdfrwt beam="1">  1        1 0.53517116E+00 0.89972470E+03</pdfrwt>
<pdfrwt beam="2">  1       -1 0.37454359E-01 0.89972470E+03</pdfrwt>
<totfact> 0.18819798E+00</totfact>
</mgrwt>
</event>
<event>
12    1  0.1418317E-007  0.4315394E+03  0.7818608E-02  0.1033375E+00
          1   -1    0    0  501    0  0.00000000000E+00  0.00000000000E+00  0.52935431512E+03  0.52935431512E+03  0.00000000000E+00 0. -1.
         -1   -1    0    0    0  501 -0.00000000000E+00 -0.00000000000E+00 -0.64360267162E+03  0.64360267162E+03  0.00000000000E+00 0.  1.
         23    2    1    2    0    0  0.12636149299E+03  0.38658317410E+03  0.73590114684E+02  0.42415233554E+03  0.95267630145E+02 0.  0.
    5000000    2    1    2    0    0 -0.12636149299E+03 -0.38658317410E+03 -0.18783847119E+03  0.74880465121E+03  0.60000944743E+03 0.  0.
         23    2    4    4    0    0 -0.85808193220E+02 -0.37814401319E+02  0.18669290906E+03  0.22855464838E+03  0.92682307018E+02 0.  0.
         23    2    4    4    0    0 -0.40553299773E+02 -0.34876877278E+03 -0.37453138024E+03  0.52025000282E+03  0.84273861076E+02 0.  0.
          4    1    3    3  502    0  0.58103213136E+02  0.17245898060E+03 -0.14956319479E+02  0.18259730244E+03  0.00000000000E+00 0. -1.
         -4    1    3    3    0  502  0.68258279856E+02  0.21412419350E+03  0.88546434162E+02  0.24155503309E+03  0.00000000000E+00 0.  1.
         13    1    5    5    0    0 -0.45204655924E+02 -0.44958507207E+01  0.13231357094E+02  0.47315350590E+02  0.00000000000E+00 0. -1.
        -13    1    5    5    0    0 -0.40603537296E+02 -0.33318550599E+02  0.17346155196E+03  0.18123929779E+03  0.00000000000E+00 0.  1.
          4    1    6    6  503    0 -0.25897770653E+02 -0.31428029624E+02 -0.65029823386E+02  0.76728700630E+02  0.00000000000E+00 0. -1.
         -4    1    6    6    0  503 -0.14655529120E+02 -0.31734074316E+03 -0.30950155686E+03  0.44352130219E+03  0.00000000000E+00 0.  1.
<mgrwt>
<rscale>  0 0.43153936E+03</rscale>
<asrwt>0</asrwt>
<pdfrwt beam="1">  1        1 0.81439126E-01 0.43153936E+03</pdfrwt>
<pdfrwt beam="2">  1       -1 0.99015795E-01 0.43153936E+03</pdfrwt>
<totfact> 0.42361337E+01</totfact>
</mgrwt>
</event>
<event>
12    1  0.1418317E-007  0.1566882E+04  0.7818608E-02  0.8841156E-01
         -2   -1    0    0    0  501 -0.00000000000E+00  0.00000000000E+00  0.65835659635E+03  0.65835659635E+03  0.00000000000E+00 0.  1.
          2   -1    0    0  501    0  0.00000000000E+00 -0.00000000000E+00 -0.37950921451E+04  0.37950921451E+04  0.00000000000E+00 0. -1.
         23    2    1    2    0    0  0.15097845467E+04  0.11765100974E+03 -0.17320389357E+04  0.23025165947E+04  0.91283386627E+02 0.  0.
    5000000    2    1    2    0    0 -0.15097845467E+04 -0.11765100974E+03 -0.14046966131E+04  0.21509321467E+04  0.60003782186E+03 0.  0.
         23    2    4    4    0    0 -0.10389919065E+04  0.18695750543E+03 -0.86908347840E+03  0.13701872807E+04  0.87463140767E+02 0.  0.
         23    2    4    4    0    0 -0.47079264013E+03 -0.30460851517E+03 -0.53561313465E+03  0.78074486606E+03  0.90824326899E+02 0.  0.
          4    1    3    3  502    0  0.14223284373E+04  0.13063579728E+03 -0.16185971003E+04  0.21586895257E+04  0.00000000000E+00 0. -1.
         -4    1    3    3    0  502  0.87456109382E+02 -0.12984787544E+02 -0.11344183535E+03  0.14382706903E+03  0.00000000000E+00 0.  1.
         11    1    5    5    0    0 -0.42773258434E+03  0.93130591565E+02 -0.41244767692E+03  0.60144954650E+03  0.00000000000E+00 0. -1.
        -11    1    5    5    0    0 -0.61125932220E+03  0.93826913861E+02 -0.45663580149E+03  0.76873773418E+03  0.00000000000E+00 0.  1.
          3    1    6    6  503    0 -0.33238533208E+03 -0.20873672325E+03 -0.31524846834E+03  0.50342092269E+03  0.00000000000E+00 0. -1.
         -3    1    6    6    0  503 -0.13840730805E+03 -0.95871791918E+02 -0.22036466631E+03  0.27732394337E+03  0.00000000000E+00 0.  1.
<mgrwt>
<rscale>  0 0.15668821E+04</rscale>
<asrwt>0</asrwt>
<pdfrwt beam="1">  1        2 0.58386032E+00 0.15668821E+04</pdfrwt>
<pdfrwt beam="2">  1       -2 0.10128563E+00 0.15668821E+04</pdfrwt>
<totfact> 0.38037175E-01</totfact>
</mgrwt>
</event>
<event>
12    1  0.1418317E-007  0.5695398E+03  0.7818608E-02  0.9970697E-01
         -2   -1    0    0    0  501 -0.00000000000E+00  0.00000000000E+00  0.13121110208E+04  0.13121110208E+04  0.00000000000E+00 0.  1.
          2   -1    0    0  501    0  0.00000000000E+00 -0.00000000000E+00 -0.66195772754E+03  0.66195772754E+03  0.00000000000E+00 0. -1.
         23    2    1    2    0    0 -0.27512999501E+03  0.43745460656E+03  0.98347593028E+03  0.11149310621E+04  0.93719372642E+02 0.  0.
    5000000    2    1    2    0    0  0.27512999501E+03 -0.43745460656E+03 -0.33332263697E+03  0.85913768630E+03  0.59995877920E+03 0.  0.
         23    2    4    4    0    0 -0.32897799166E+02 -0.22254452274E+03  0.11341563004E+03  0.26813690319E+03  0.91793049416E+02 0.  0.
         23    2    4    4    0    0  0.30802779418E+03 -0.21491008382E+03 -0.44673826701E+03  0.59100078311E+03  0.92948266871E+02 0.  0.
          2    1    3    3  502    0 -0.13635945069E+03  0.15318553151E+03  0.32296714942E+03  0.38258003929E+03  0.00000000000E+00 0. -1.
         -2    1    3    3    0  502 -0.13877054432E+03  0.28426907505E+03  0.66050878085E+03  0.73235102279E+03  0.00000000000E+00 0.  1.
         13    1    5    5    0    0 -0.62950727088E+02 -0.12702164368E+03  0.54021504854E+02  0.15170898125E+03  0.00000000000E+00 0.  1.
        -13    1    5    5    0    0  0.30052927922E+02 -0.95522879063E+02  0.59394125184E+02  0.11642792194E+03  0.00000000000E+00 0. -1.
          4    1    6    6  503    0  0.22670098655E+03 -0.15203720990E+03 -0.38205461792E+03  0.46954699612E+03  0.00000000000E+00 0.  1.
         -4    1    6    6    0  503  0.81326807624E+02 -0.62872873923E+02 -0.64683649093E+02  0.12145378699E+03  0.00000000000E+00 0. -1.
<mgrwt>
<rscale>  0 0.56953985E+03</rscale>
<asrwt>0</asrwt>
<pdfrwt beam="1">  1        2 0.10183965E+00 0.56953985E+03</pdfrwt>
<pdfrwt beam="2">  1       -2 0.20186323E+00 0.56953985E+03</pdfrwt>
<totfact> 0.59549805E+00</totfact>
</mgrwt>
</event>
<event>
12    1  0.1418317E-007  0.2258179E+04  0.7818608E-02  0.8494595E-01
         -2   -1    0    0    0  501 -0.00000000000E+00  0.00000000000E+00  0.36500670542E+04  0.36500670542E+04  0.00000000000E+00 0.  1.
          2   -1    0    0  501    0  0.00000000000E+00 -0.00000000000E+00 -0.14502012784E+04  0.14502012784E+04  0.00000000000E+00 0. -1.
         23    2    1    2    0    0 -0.22366035966E+04  0.26053833206E+03  0.85884677149E+03  0.24116608689E+04  0.90633873455E+02 0.  0.
    5000000    2    1    2    0    0  0.22366035966E+04 -0.26053833206E+03  0.13410190042E+04  0.26886074637E+04  0.60000187767E+03 0.  0.
         23    2    4    4    0    0  0.47069406213E+03 -0.11954030477E+03  0.56984187416E+03  0.75427657411E+03  0.91491005664E+02 0.  0.
         23    2    4    4    0    0  0.17659095345E+04 -0.14099802729E+03  0.77117713009E+03  0.19343308896E+04  0.92762582684E+02 0.  0.
          4    1    3    3  502    0 -0.19056964982E+04  0.19718745878E+03  0.70781330045E+03  0.20424401351E+04  0.00000000000E+00 0. -1.
         -4    1    3    3    0  502 -0.33090709838E+03  0.63350873275E+02  0.15103347104E+03  0.36922073381E+03  0.00000000000E+00 0.  1.
         13    1    5    5    0    0  0.64131455072E+02  0.69991031911E+01  0.11037935244E+03  0.12784925662E+03  0.00000000000E+00 0. -1.
        -13    1    5    5    0    0  0.40656260705E+03 -0.12653940796E+03  0.45946252172E+03  0.62642731748E+03  0.00000000000E+00 0.  1.
          2    1    6    6  503    0  0.13023789701E+04 -0.69350431088E+02  0.54313221200E+03  0.14127961862E+04  0.00000000000E+00 0. -1.
         -2    1    6    6    0  503  0.46353056437E+03 -0.71647596199E+02  0.22804491809E+03  0.52153470336E+03  0.00000000000E+00 0.  1.
<mgrwt>
<rscale>  0 0.22581795E+04</rscale>
<asrwt>0</asrwt>
<pdfrwt beam="1">  1        2 0.22310789E+00 0.22581795E+04</pdfrwt>
<pdfrwt beam="2">  1       -2 0.56154878E+00 0.22581795E+04</pdfrwt>
<totfact> 0.86442161E-03</totfact>
</mgrwt>
</event>
<event>
12    1  0.1418317E-007  0.1545067E+04  0.7818608E-02  0.8855025E-01
          1   -1    0    0  501    0  0.00000000000E+00  0.00000000000E+00  0.17225899097E+04  0.17225899097E+04  0.00000000000E+00 0. -1.
         -1   -1    0    0    0  501 -0.00000000000E+00 -0.00000000000E+00 -0.14659432696E+04  0.14659432696E+04  0.00000000000E+00 0.  1.
         23    2    1    2    0    0 -0.70121074375E+03  0.13247048621E+04  0.43747170358E+03  0.15639712634E+04  0.89917420006E+02 0.  0.
    5000000    2    1    2    0    0  0.70121074375E+03 -0.13247048621E+04 -0.18082506353E+03  0.16245619160E+04  0.59997019633E+03 0.  0.
         23    2    4    4    0    0  0.57890540321E+02 -0.66071180700E+03 -0.18721290356E+03  0.69538776613E+03  0.92865857306E+02 0.  0.
         23    2    4    4    0    0  0.64332020343E+03 -0.66399305508E+03  0.63878400281E+01  0.92917414985E+03  0.92607423674E+02 0.  0.
          3    1    3    3  502    0 -0.52879455546E+03  0.94554762338E+03  0.34866210937E+03  0.11380901794E+04  0.00000000000E+00 0. -1.
         -3    1    3    3    0  502 -0.17241618830E+03  0.37915723870E+03  0.88809594208E+02  0.42588108395E+03  0.00000000000E+00 0.  1.
         13    1    5    5    0    0  0.66197866458E+02 -0.45219807913E+03 -0.92799176840E+02  0.46634423714E+03  0.00000000000E+00 0. -1.
        -13    1    5    5    0    0 -0.83073261372E+01 -0.20851372787E+03 -0.94413726715E+02  0.22904352898E+03  0.00000000000E+00 0.  1.
          1    1    6    6  503    0  0.58033893363E+03 -0.60197223864E+03  0.33156549416E+02  0.83681731026E+03  0.00000000000E+00 0.  1.
         -1    1    6    6    0  503  0.62981269804E+02 -0.62020816438E+02 -0.26768709388E+02  0.92356839596E+02  0.00000000000E+00 0. -1.
<mgrwt>
<rscale>  0 0.15450674E+04</rscale>
<asrwt>0</asrwt>
<pdfrwt beam="1">  1        1 0.26501383E+00 0.15450674E+04</pdfrwt>
<pdfrwt beam="2">  1       -1 0.22552973E+00 0.15450674E+04</pdfrwt>
<totfact> 0.43726274E-01</totfact>
</mgrwt>
</event>
<event>
12    1  0.1418317E-007  0.1622714E+04  0.7818608E-02  0.8806714E-01
          1   -1    0    0  501    0  0.00000000000E+00  0.00000000000E+00  0.14599181604E+04  0.14599181604E+04  0.00000000000E+00 0. -1.
         -1   -1    0    0    0  501 -0.00000000000E+00 -0.00000000000E+00 -0.18524700059E+04  0.18524700059E+04  0.00000000000E+00 0.  1.
         23    2    1    2    0    0  0.15410529123E+04 -0.31579549176E+03  0.33437129856E+02  0.15757441459E+04  0.85327021298E+02 0.  0.
    5000000    2    1    2    0    0 -0.15410529123E+04  0.31579549176E+03 -0.42598897540E+03  0.17366440203E+04  0.59991247279E+03 0.  0.
         23    2    4    4    0    0 -0.48145860576E+03  0.36834746202E+03 -0.22512903993E+03  0.65302514458E+03  0.90975342767E+02 0.  0.
         23    2    4    4    0    0 -0.10595943066E+04 -0.52551970267E+02 -0.20085993547E+03  0.10836188757E+04  0.91560636432E+02 0.  0.
          3    1    3    3  502    0  0.11975060175E+04 -0.21077701326E+03  0.14386717233E+02  0.12159994198E+04  0.00000000000E+00 0. -1.
         -3    1    3    3    0  502  0.34354689482E+03 -0.10501847849E+03  0.19050412623E+02  0.35974472614E+03  0.00000000000E+00 0.  1.
         11    1    5    5    0    0 -0.27457196720E+02  0.27571508281E+02  0.73488104185E+01  0.39599125435E+02  0.00000000000E+00 0.  1.
        -11    1    5    5    0    0 -0.45400140904E+03  0.34077595374E+03 -0.23247785035E+03  0.61342601915E+03  0.00000000000E+00 0. -1.
          2    1    6    6  503    0 -0.10394233300E+04 -0.40528976765E+02 -0.18875464860E+03  0.10571999689E+04  0.00000000000E+00 0. -1.
         -2    1    6    6    0  503 -0.20170976530E+02 -0.12022993503E+02 -0.12105286867E+02  0.26418906810E+02  0.00000000000E+00 0.  1.
<mgrwt>
<rscale>  0 0.16227139E+04</rscale>
<asrwt>0</asrwt>
<pdfrwt beam="1">  1        1 0.22460279E+00 0.16227139E+04</pdfrwt>
<pdfrwt beam="2">  1       -1 0.28499539E+00 0.16227139E+04</pdfrwt>
<totfact> 0.26896733E-01</totfact>
</mgrwt>
</event>
<event>
12    1  0.1418317E-007  0.8377349E+03  0.7818608E-02  0.9506948E-01
          2   -1    0    0  501    0  0.00000000000E+00  0.00000000000E+00  0.23838673270E+04  0.23838673270E+04  0.00000000000E+00 0. -1.
         -2   -1    0    0    0  501 -0.00000000000E+00 -0.00000000000E+00 -0.65680386238E+03  0.65680386238E+03  0.00000000000E+00 0.  1.
         23    2    1    2    0    0 -0.30116405289E+03 -0.71717234530E+03  0.18892680423E+04  0.20450936183E+04  0.89656078025E+02 0.  0.
    5000000    2    1    2    0    0  0.30116405289E+03  0.71717234530E+03 -0.16220457775E+03  0.99557757103E+03  0.59985699568E+03 0.  0.
         23    2    4    4    0    0  0.12283123441E+03  0.69039705170E+03  0.41799815232E+02  0.70835950260E+03  0.91051409817E+02 0.  0.
         23    2    4    4    0    0  0.17833281848E+03  0.26775293608E+02 -0.20400439298E+03  0.28721806843E+03  0.91416169160E+02 0.  0.
          4    1    3    3  502    0 -0.84655278488E+02 -0.13848268733E+03  0.32652691731E+03  0.36464201431E+03  0.00000000000E+00 0. -1.
         -4    1    3    3    0  502 -0.21650877440E+03 -0.57868965797E+03  0.15627411250E+04  0.16804516040E+04  0.00000000000E+00 0.  1.
         13    1    5    5    0    0  0.27387705639E+01  0.25625556038E+03  0.35745923451E+01  0.25629512441E+03  0.00000000000E+00 0.  1.
        -13    1    5    5    0    0  0.12009246384E+03  0.43414149132E+03  0.38225222887E+02  0.45206437818E+03  0.00000000000E+00 0. -1.
          3    1    6    6  503    0  0.16262178912E+03  0.40643972754E+02 -0.13538212548E+03  0.21546716389E+03  0.00000000000E+00 0. -1.
         -3    1    6    6    0  503  0.15711029360E+02 -0.13868679146E+02 -0.68622267502E+02  0.71750904538E+02  0.00000000000E+00 0.  1.
<mgrwt>
<rscale>  0 0.83773489E+03</rscale>
<asrwt>0</asrwt>
<pdfrwt beam="1">  1        2 0.36674881E+00 0.83773489E+03</pdfrwt>
<pdfrwt beam="2">  1       -2 0.10104675E+00 0.83773489E+03</pdfrwt>
<totfact> 0.33736421E+00</totfact>
</mgrwt>
</event>
<event>
12    1  0.1418317E-007  0.1096322E+04  0.7818608E-02  0.9208784E-01
         -2   -1    0    0    0  501 -0.00000000000E+00  0.00000000000E+00  0.73357595675E+03  0.73357595675E+03  0.00000000000E+00 0.  1.
          2   -1    0    0  501    0  0.00000000000E+00 -0.00000000000E+00 -0.19845493067E+04  0.19845493067E+04  0.00000000000E+00 0. -1.
         23    2    1    2    0    0 -0.37669272021E+03 -0.94935146520E+03 -0.11330639579E+04  0.15277465381E+04  0.83725396831E+02 0.  0.
    5000000    2    1    2    0    0  0.37669272021E+03  0.94935146520E+03 -0.11790939201E+03  0.11903787253E+04  0.59994439324E+03 0.  0.
         23    2    4    4    0    0  0.89073265222E+02  0.84903861452E+03 -0.24648646125E+02  0.85887832968E+03  0.90905521887E+02 0.  0.
         23    2    4    4    0    0  0.28761945499E+03  0.10031285068E+03 -0.93260745882E+02  0.33150039563E+03  0.91691475481E+02 0.  0.
          4    1    3    3  502    0 -0.15797714431E+03 -0.35171086883E+03 -0.48309827417E+03  0.61809485994E+03  0.00000000000E+00 0. -1.
         -4    1    3    3    0  502 -0.21871557590E+03 -0.59764059637E+03 -0.64996568374E+03  0.90965167818E+03  0.00000000000E+00 0.  1.
         13    1    5    5    0    0  0.87629830577E+02  0.64675058992E+03  0.14550070836E+02  0.65282234745E+03  0.00000000000E+00 0.  1.
        -13    1    5    5    0    0  0.14434346444E+01  0.20228802460E+03 -0.39198716960E+02  0.20605598222E+03  0.00000000000E+00 0. -1.
          4    1    6    6  503    0  0.17154136044E+03  0.16057083679E+02 -0.71011487654E+02  0.18635154858E+03  0.00000000000E+00 0. -1.
         -4    1    6    6    0  503  0.11607809455E+03  0.84255767004E+02 -0.22249258228E+02  0.14514884705E+03  0.00000000000E+00 0.  1.
<mgrwt>
<rscale>  0 0.10963218E+04</rscale>
<asrwt>0</asrwt>
<pdfrwt beam="1">  1        2 0.30531528E+00 0.10963218E+04</pdfrwt>
<pdfrwt beam="2">  1       -2 0.11285784E+00 0.10963218E+04</pdfrwt>
<totfact> 0.41566499E+00</totfact>
</mgrwt>
</event>
<event>
12    1  0.1418317E-007  0.1489004E+04  0.7818608E-02  0.8891798E-01
          2   -1    0    0  501    0  0.00000000000E+00  0.00000000000E+00  0.17067342164E+04  0.17067342164E+04  0.00000000000E+00 0. -1.
         -2   -1    0    0    0  501 -0.00000000000E+00 -0.00000000000E+00 -0.15715379299E+04  0.15715379299E+04  0.00000000000E+00 0.  1.
         23    2    1    2    0    0 -0.37699770375E+03 -0.13981658135E+04 -0.57074259411E+03  0.15591976432E+04  0.91407172397E+02 0.  0.
    5000000    2    1    2    0    0  0.37699770375E+03  0.13981658135E+04  0.70593888070E+03  0.17190745031E+04  0.59989376808E+03 0.  0.
         23    2    4    4    0    0  0.10431454146E+03  0.20024972498E+01  0.41660661692E+02  0.14673228668E+03  0.94388662813E+02 0.  0.
         23    2    4    4    0    0  0.27268316229E+03  0.13961633163E+04  0.66427821900E+03  0.15723422164E+04  0.85827620126E+02 0.  0.
          3    1    3    3  502    0 -0.34901296032E+03 -0.12339421593E+04 -0.53092825379E+03  0.13879150225E+04  0.00000000000E+00 0. -1.
         -3    1    3    3    0  502 -0.27984743435E+02 -0.16422365426E+03 -0.39814340325E+02  0.17128262078E+03  0.00000000000E+00 0.  1.
         11    1    5    5    0    0  0.39489360096E+02 -0.65820514893E+01 -0.29770547036E+02  0.49890063473E+02  0.00000000000E+00 0.  1.
        -11    1    5    5    0    0  0.64825181365E+02  0.85845487392E+01  0.71431208728E+02  0.96842223211E+02  0.00000000000E+00 0. -1.
          3    1    6    6  503    0  0.12463986980E+03  0.49812162865E+03  0.27428900526E+03  0.58214664173E+03  0.00000000000E+00 0. -1.
         -3    1    6    6    0  503  0.14804329249E+03  0.89804168765E+03  0.38998921374E+03  0.99019557465E+03  0.00000000000E+00 0.  1.
<mgrwt>
<rscale>  0 0.14890040E+04</rscale>
<asrwt>0</asrwt>
<pdfrwt beam="1">  1        2 0.26257449E+00 0.14890040E+04</pdfrwt>
<pdfrwt beam="2">  1       -2 0.24177507E+00 0.14890040E+04</pdfrwt>
<totfact> 0.66007631E-01</totfact>
</mgrwt>
</event>
<event>
12    1  0.1418317E-007  0.2839688E+04  0.7818608E-02  0.8291052E-01
         -1   -1    0    0    0  501 -0.00000000000E+00  0.00000000000E+00  0.43382419851E+04  0.43382419851E+04  0.00000000000E+00 0.  1.
          1   -1    0    0  501    0  0.00000000000E+00 -0.00000000000E+00 -0.28855178685E+04  0.28855178685E+04  0.00000000000E+00 0. -1.
         23    2    1    2    0    0 -0.16145036556E+04  0.23249138436E+04 -0.14017528979E+04  0.31592779703E+04  0.65419210694E+02 0.  0.
    5000000    2    1    2    0    0  0.16145036556E+04 -0.23249138436E+04  0.28544770145E+04  0.40644818832E+04  0.60010625656E+03 0.  0.
         23    2    4    4    0    0  0.81054116280E+03 -0.14289513630E+04  0.19771690249E+04  0.25721320410E+04  0.88243461086E+02 0.  0.
         23    2    4    4    0    0  0.80396249275E+03 -0.89596248052E+03  0.87730798952E+03  0.14923498423E+04  0.91292316019E+02 0.  0.
          3    1    3    3  502    0 -0.85751136622E+03  0.12898115997E+04 -0.77663200664E+03  0.17326560477E+04  0.00000000000E+00 0. -1.
         -3    1    3    3    0  502 -0.75699228934E+03  0.10351022438E+04 -0.62512089127E+03  0.14266219226E+04  0.00000000000E+00 0.  1.
         11    1    5    5    0    0  0.76022721824E+03 -0.13242824467E+04  0.18685374473E+04  0.24131103609E+04  0.00000000000E+00 0.  1.
        -11    1    5    5    0    0  0.50313944568E+02 -0.10466891633E+03  0.10863157766E+03  0.15902168006E+03  0.00000000000E+00 0. -1.
          4    1    6    6  503    0  0.15876519353E+03 -0.21092887132E+03  0.23042121576E+03  0.35041591303E+03  0.00000000000E+00 0. -1.
         -4    1    6    6    0  503  0.64519729922E+03 -0.68503360920E+03  0.64688677376E+03  0.11419339292E+04  0.00000000000E+00 0.  1.
<mgrwt>
<rscale>  0 0.28396877E+04</rscale>
<asrwt>0</asrwt>
<pdfrwt beam="1">  1        1 0.44392583E+00 0.28396877E+04</pdfrwt>
<pdfrwt beam="2">  1       -1 0.66742184E+00 0.28396877E+04</pdfrwt>
<totfact> 0.14589572E-04</totfact>
</mgrwt>
</event>
<event>
12    1  0.1418317E-007  0.3796942E+03  0.7818608E-02  0.1051047E+00
          2   -1    0    0  501    0  0.00000000000E+00  0.00000000000E+00  0.18541397520E+03  0.18541397520E+03  0.00000000000E+00 0. -1.
         -2   -1    0    0    0  501 -0.00000000000E+00 -0.00000000000E+00 -0.12058867899E+04  0.12058867899E+04  0.00000000000E+00 0.  1.
         23    2    1    2    0    0  0.18437857978E+03 -0.13158264913E+03 -0.53172732849E+03  0.58491622975E+03  0.89908785646E+02 0.  0.
    5000000    2    1    2    0    0 -0.18437857978E+03  0.13158264913E+03 -0.48874548620E+03  0.80638453533E+03  0.60006200872E+03 0.  0.
         23    2    4    4    0    0 -0.11263398287E+02  0.27617460957E+03 -0.48508385700E+03  0.56570774285E+03  0.91211966814E+02 0.  0.
         23    2    4    4    0    0 -0.17311518149E+03 -0.14459196044E+03 -0.36616291993E+01  0.24067679248E+03  0.83882118608E+02 0.  0.
          4    1    3    3  502    0  0.58106574047E+02 -0.22569199384E+02 -0.24862159516E+03  0.25631706984E+03  0.00000000000E+00 0. -1.
         -4    1    3    3    0  502  0.12627200573E+03 -0.10901344975E+03 -0.28310573332E+03  0.32859915992E+03  0.00000000000E+00 0.  1.
         11    1    5    5    0    0  0.26181543436E+02  0.22648311659E+02 -0.51673859392E+02  0.62198126838E+02  0.00000000000E+00 0. -1.
        -11    1    5    5    0    0 -0.37444941723E+02  0.25352629791E+03 -0.43340999760E+03  0.50350961601E+03  0.00000000000E+00 0.  1.
          4    1    6    6  503    0 -0.14001204619E+03 -0.67486539927E+02 -0.14345004195E+02  0.15608838937E+03  0.00000000000E+00 0.  1.
         -4    1    6    6    0  503 -0.33103135298E+02 -0.77105420514E+02  0.10683374996E+02  0.84588403109E+02  0.00000000000E+00 0. -1.
<mgrwt>
<rscale>  0 0.37969416E+03</rscale>
<asrwt>0</asrwt>
<pdfrwt beam="1">  1        2 0.28525227E-01 0.37969416E+03</pdfrwt>
<pdfrwt beam="2">  1       -2 0.18552104E+00 0.37969416E+03</pdfrwt>
<totfact> 0.32850322E+01</totfact>
</mgrwt>
</event>
<event>
12    1  0.1418317E-007  0.7166800E+03  0.7818608E-02  0.9689125E-01
         -2   -1    0    0    0  501 -0.00000000000E+00  0.00000000000E+00  0.58589924568E+03  0.58589924568E+03  0.00000000000E+00 0.  1.
          2   -1    0    0  501    0  0.00000000000E+00 -0.00000000000E+00 -0.11916112581E+04  0.11916112581E+04  0.00000000000E+00 0. -1.
         23    2    1    2    0    0 -0.26610010934E+03  0.62051298765E+03  0.17776034170E+02  0.67991959620E+03  0.78288146393E+02 0.  0.
    5000000    2    1    2    0    0  0.26610010934E+03 -0.62051298765E+03 -0.62348804659E+03  0.10975909076E+04  0.60010234139E+03 0.  0.
         23    2    4    4    0    0 -0.63513499937E+01 -0.29455235440E+02 -0.38635651218E+03  0.39880733176E+03  0.94169967702E+02 0.  0.
         23    2    4    4    0    0  0.27245145934E+03 -0.59105775221E+03 -0.23713153441E+03  0.69878357583E+03  0.92130652290E+02 0.  0.
          1    1    3    3  502    0 -0.52005726244E+02  0.20256784497E+03  0.22173204771E+02  0.21030924465E+03  0.00000000000E+00 0. -1.
         -1    1    3    3    0  502 -0.21409438310E+03  0.41794514269E+03 -0.43971706006E+01  0.46961035155E+03  0.00000000000E+00 0.  1.
         13    1    5    5    0    0 -0.14427767431E+02 -0.62860489518E+02 -0.25482005970E+03  0.26285521574E+03  0.00000000000E+00 0. -1.
        -13    1    5    5    0    0  0.80764174376E+01  0.33405254078E+02 -0.13153645248E+03  0.13595211602E+03  0.00000000000E+00 0.  1.
          2    1    6    6  503    0  0.55377002003E+02 -0.21042157691E+03 -0.10144103776E+03  0.24007110722E+03  0.00000000000E+00 0. -1.
         -2    1    6    6    0  503  0.21707445734E+03 -0.38063617530E+03 -0.13569049665E+03  0.45871246861E+03  0.00000000000E+00 0.  1.
<mgrwt>
<rscale>  0 0.71667999E+03</rscale>
<asrwt>0</asrwt>
<pdfrwt beam="1">  1        2 0.18332481E+00 0.71667999E+03</pdfrwt>
<pdfrwt beam="2">  1       -2 0.90138346E-01 0.71667999E+03</pdfrwt>
<totfact> 0.20638558E+01</totfact>
</mgrwt>
</event>
<event>
12    1  0.1418317E-007  0.2649713E+04  0.7818608E-02  0.8351508E-01
          1   -1    0    0  501    0  0.00000000000E+00  0.00000000000E+00  0.37614217796E+04  0.37614217796E+04  0.00000000000E+00 0. -1.
         -1   -1    0    0    0  501 -0.00000000000E+00 -0.00000000000E+00 -0.19389409335E+04  0.19389409335E+04  0.00000000000E+00 0.  1.
         23    2    1    2    0    0 -0.21770000952E+04  0.14606608085E+04  0.14129572761E+04  0.29795637525E+04  0.92154649852E+02 0.  0.
    5000000    2    1    2    0    0  0.21770000952E+04 -0.14606608085E+04  0.40952357009E+03  0.27207989605E+04  0.60181227749E+03 0.  0.
         23    2    4    4    0    0  0.10610518182E+04 -0.10337529125E+04  0.32303209108E+03  0.15194995347E+04  0.10026494424E+03 0.  0.
         23    2    4    4    0    0  0.11159482770E+04 -0.42690789604E+03  0.86491479002E+02  0.12012994259E+04  0.89714135331E+02 0.  0.
          3    1    3    3  502    0 -0.10280804363E+04  0.63520849657E+03  0.64247865669E+03  0.13686555600E+04  0.00000000000E+00 0. -1.
         -3    1    3    3    0  502 -0.11489196588E+04  0.82545231194E+03  0.77047861938E+03  0.16109081925E+04  0.00000000000E+00 0.  1.
         13    1    5    5    0    0  0.28245601602E+03 -0.26998043606E+03  0.40462644753E+02  0.39282064923E+03  0.00000000000E+00 0. -1.
        -13    1    5    5    0    0  0.77859580217E+03 -0.76377247640E+03  0.28256944633E+03  0.11266788854E+04  0.00000000000E+00 0.  1.
          3    1    6    6  503    0  0.41505152251E+03 -0.16205318235E+03 -0.11081994648E+02  0.44570372542E+03  0.00000000000E+00 0. -1.
         -3    1    6    6    0  503  0.70089675449E+03 -0.26485471369E+03  0.97573473650E+02  0.75559570047E+03  0.00000000000E+00 0.  1.
<mgrwt>
<rscale>  0 0.26497131E+04</rscale>
<asrwt>0</asrwt>
<pdfrwt beam="1">  1        1 0.57868027E+00 0.26497131E+04</pdfrwt>
<pdfrwt beam="2">  1       -1 0.29829860E+00 0.26497131E+04</pdfrwt>
<totfact> 0.42966912E-03</totfact>
</mgrwt>
</event>
<event>
12    1  0.1418317E-007  0.9140545E+03  0.7818608E-02  0.9408181E-01
          1   -1    0    0  501    0  0.00000000000E+00  0.00000000000E+00  0.37052398273E+04  0.37052398273E+04  0.00000000000E+00 0. -1.
         -1   -1    0    0    0  501 -0.00000000000E+00 -0.00000000000E+00 -0.78718001501E+03  0.78718001501E+03  0.00000000000E+00 0.  1.
         23    2    1    2    0    0  0.80810607453E+03 -0.13538230424E+03  0.33045875097E+04  0.34058104384E+04  0.88782524985E+02 0.  0.
    5000000    2    1    2    0    0 -0.80810607453E+03  0.13538230424E+03 -0.38652769740E+03  0.10866094040E+04  0.59996044863E+03 0.  0.
         23    2    4    4    0    0  0.56694789224E+02 -0.43909721944E+02 -0.37796829886E+01  0.11969091949E+03  0.95756291687E+02 0.  0.
         23    2    4    4    0    0 -0.86480086375E+03  0.17929202618E+03 -0.38274801442E+03  0.96691848447E+03  0.91701409335E+02 0.  0.
          2    1    3    3  502    0  0.65919887813E+03 -0.83477879390E+02  0.27594463658E+04  0.28383192144E+04  0.00000000000E+00 0. -1.
         -2    1    3    3    0  502  0.14890719640E+03 -0.51904424845E+02  0.54514114391E+03  0.56749122393E+03  0.00000000000E+00 0.  1.
         11    1    5    5    0    0 -0.94974293246E+01 -0.50690567356E+02 -0.11091234127E+02  0.52751779658E+02  0.00000000000E+00 0.  1.
        -11    1    5    5    0    0  0.66192218549E+02  0.67808454116E+01  0.73115511388E+01  0.66939139829E+02  0.00000000000E+00 0. -1.
          3    1    6    6  503    0 -0.70865267885E+03  0.18206698821E+03 -0.32088310652E+03  0.79893865564E+03  0.00000000000E+00 0. -1.
         -3    1    6    6    0  503 -0.15614818490E+03 -0.27749620336E+01 -0.61864907900E+02  0.16797982883E+03  0.00000000000E+00 0.  1.
<mgrwt>
<rscale>  0 0.91405446E+03</rscale>
<asrwt>0</asrwt>
<pdfrwt beam="1">  1        1 0.57003689E+00 0.91405446E+03</pdfrwt>
<pdfrwt beam="2">  1       -1 0.12110462E+00 0.91405446E+03</pdfrwt>
<totfact> 0.11010293E-01</totfact>
</mgrwt>
</event>
<event>
12    1  0.1418317E-007  0.4225700E+03  0.7818608E-02  0.1036233E+00
          2   -1    0    0  501    0  0.00000000000E+00  0.00000000000E+00  0.12018861390E+04  0.12018861390E+04  0.00000000000E+00 0. -1.
         -2   -1    0    0    0  501 -0.00000000000E+00 -0.00000000000E+00 -0.16339187648E+03  0.16339187648E+03  0.00000000000E+00 0.  1.
         23    2    1    2    0    0 -0.15383442020E+03 -0.16687668126E+03  0.30201165765E+03  0.38861793538E+03  0.91104350894E+02 0.  0.
    5000000    2    1    2    0    0  0.15383442020E+03  0.16687668126E+03  0.73648260488E+03  0.97666008012E+03  0.59995452263E+03 0.  0.
         23    2    4    4    0    0 -0.16436734546E+02  0.35191234826E+03  0.50888913208E+03  0.62560667535E+03  0.91121327897E+02 0.  0.
         23    2    4    4    0    0  0.17027115474E+03 -0.18503566699E+03  0.22759347280E+03  0.35105340477E+03  0.90604856052E+02 0.  0.
          2    1    3    3  502    0 -0.50929779218E+02 -0.69147092284E+02  0.18761174354E+03  0.20633305382E+03  0.00000000000E+00 0. -1.
         -2    1    3    3    0  502 -0.10290464098E+03 -0.97729588978E+02  0.11439991411E+03  0.18228488156E+03  0.00000000000E+00 0.  1.
         11    1    5    5    0    0 -0.38835627295E+00  0.34710265891E+03  0.48364902872E+03  0.59531234627E+03  0.00000000000E+00 0. -1.
        -11    1    5    5    0    0 -0.16048378273E+02  0.48096893499E+01  0.25240103360E+02  0.30294329081E+02  0.00000000000E+00 0.  1.
          1    1    6    6  503    0  0.97795163278E+02 -0.82628923607E+02  0.59176874620E+02  0.14104373601E+03  0.00000000000E+00 0. -1.
         -1    1    6    6    0  503  0.72475991464E+02 -0.10240674339E+03  0.16841659818E+03  0.21000966876E+03  0.00000000000E+00 0.  1.
<mgrwt>
<rscale>  0 0.42257005E+03</rscale>
<asrwt>0</asrwt>
<pdfrwt beam="1">  1        2 0.18490555E+00 0.42257005E+03</pdfrwt>
<pdfrwt beam="2">  1       -2 0.25137213E-01 0.42257005E+03</pdfrwt>
<totfact> 0.27764061E+02</totfact>
</mgrwt>
</event>
<event>
12    1  0.1418317E-007  0.1578094E+04  0.7818608E-02  0.8834120E-01
          1   -1    0    0  501    0  0.00000000000E+00  0.00000000000E+00  0.12841789525E+04  0.12841789525E+04  0.00000000000E+00 0. -1.
         -1   -1    0    0    0  501 -0.00000000000E+00 -0.00000000000E+00 -0.22804630671E+04  0.22804630671E+04  0.00000000000E+00 0.  1.
         23    2    1    2    0    0  0.55936123160E+03  0.14649501781E+04 -0.10420517778E+04  0.18849955815E+04  0.91500944390E+02 0.  0.
    5000000    2    1    2    0    0 -0.55936123160E+03 -0.14649501781E+04  0.45767663196E+02  0.16796464381E+04  0.60012787495E+03 0.  0.
         23    2    4    4    0    0 -0.48140518209E+03 -0.10623722236E+04 -0.20888119521E+03  0.11883894932E+04  0.90843508000E+02 0.  0.
         23    2    4    4    0    0 -0.77956049507E+02 -0.40257795450E+03  0.25464885841E+03  0.49125694493E+03  0.91330114114E+02 0.  0.
          1    1    3    3  502    0  0.24092252440E+03  0.53713886339E+03 -0.35619055576E+03  0.68806506475E+03  0.00000000000E+00 0. -1.
         -1    1    3    3    0  502  0.31843870720E+03  0.92781131475E+03 -0.68586122202E+03  0.11969305167E+04  0.00000000000E+00 0.  1.
         13    1    5    5    0    0 -0.56337595066E+02 -0.81228504694E+02  0.31337063608E+00  0.98853896200E+02  0.00000000000E+00 0. -1.
        -13    1    5    5    0    0 -0.42506758703E+03 -0.98114371894E+03 -0.20919456585E+03  0.10895355970E+04  0.00000000000E+00 0.  1.
          4    1    6    6  503    0  0.12507185549E+01  0.40132292344E+01  0.83026990319E+01  0.93061870283E+01  0.00000000000E+00 0. -1.
         -4    1    6    6    0  503 -0.79206768062E+02 -0.40659118374E+03  0.24634615938E+03  0.48195075790E+03  0.00000000000E+00 0.  1.
<mgrwt>
<rscale>  0 0.15780936E+04</rscale>
<asrwt>0</asrwt>
<pdfrwt beam="1">  1        1 0.19756599E+00 0.15780936E+04</pdfrwt>
<pdfrwt beam="2">  1       -1 0.35084047E+00 0.15780936E+04</pdfrwt>
<totfact> 0.13386851E-01</totfact>
</mgrwt>
</event>
<event>
12    1  0.1418317E-007  0.6501517E+03  0.7818608E-02  0.9806494E-01
         -1   -1    0    0    0  501 -0.00000000000E+00  0.00000000000E+00  0.11136824407E+04  0.11136824407E+04  0.00000000000E+00 0.  1.
          1   -1    0    0  501    0  0.00000000000E+00 -0.00000000000E+00 -0.42084896488E+03  0.42084896488E+03  0.00000000000E+00 0. -1.
         23    2    1    2    0    0  0.37157401664E+03 -0.38290560966E+03  0.42963933274E+03  0.68957378051E+03  0.78981559717E+02 0.  0.
    5000000    2    1    2    0    0 -0.37157401664E+03  0.38290560966E+03  0.26319414304E+03  0.84495762503E+03  0.59999856285E+03 0.  0.
         23    2    4    4    0    0 -0.61270420372E+02  0.43630383521E+03  0.25629257805E+03  0.51758013151E+03  0.89934453603E+02 0.  0.
         23    2    4    4    0    0 -0.31030359627E+03 -0.53398225551E+02  0.69015649960E+01  0.32737749352E+03  0.89379524022E+02 0.  0.
          4    1    3    3  502    0  0.19608733304E+03 -0.20164573200E+03  0.17582217712E+03  0.33169968553E+03  0.00000000000E+00 0. -1.
         -4    1    3    3    0  502  0.17548668360E+03 -0.18125987766E+03  0.25381715562E+03  0.35787409498E+03  0.00000000000E+00 0.  1.
         13    1    5    5    0    0 -0.57703690044E+02  0.17347942643E+03  0.13942273004E+03  0.22992069261E+03  0.00000000000E+00 0. -1.
        -13    1    5    5    0    0 -0.35667303274E+01  0.26282440878E+03  0.11686984800E+03  0.28765943890E+03  0.00000000000E+00 0.  1.
          2    1    6    6  503    0 -0.81171871834E+02  0.13695913845E+02  0.29758451668E+02  0.87532943962E+02  0.00000000000E+00 0. -1.
         -2    1    6    6    0  503 -0.22913172443E+03 -0.67094139396E+02 -0.22856886672E+02  0.23984454955E+03  0.00000000000E+00 0.  1.
<mgrwt>
<rscale>  0 0.65015175E+03</rscale>
<asrwt>0</asrwt>
<pdfrwt beam="1">  1        1 0.64745995E-01 0.65015175E+03</pdfrwt>
<pdfrwt beam="2">  1       -1 0.17133576E+00 0.65015175E+03</pdfrwt>
<totfact> 0.14037737E+01</totfact>
</mgrwt>
</event>
<event>
12    1  0.1418317E-007  0.7702657E+03  0.7818608E-02  0.9604082E-01
         -2   -1    0    0    0  501 -0.00000000000E+00  0.00000000000E+00  0.50086557118E+03  0.50086557118E+03  0.00000000000E+00 0.  1.
          2   -1    0    0  501    0  0.00000000000E+00 -0.00000000000E+00 -0.13815135878E+04  0.13815135878E+04  0.00000000000E+00 0. -1.
         23    2    1    2    0    0  0.37148976551E+02 -0.69953699188E+03 -0.19472808208E+03  0.73282523275E+03  0.91551877852E+02 0.  0.
    5000000    2    1    2    0    0 -0.37148976551E+02  0.69953699188E+03 -0.68591993453E+03  0.11495539262E+04  0.60021331479E+03 0.  0.
         23    2    4    4    0    0  0.19205701908E+03  0.21829215314E+03 -0.48531272205E+03  0.57326965614E+03  0.92586704045E+02 0.  0.
         23    2    4    4    0    0 -0.22920599564E+03  0.48124483873E+03 -0.20060721248E+03  0.57628427008E+03  0.87910881018E+02 0.  0.
          4    1    3    3  502    0  0.51320689909E+02 -0.20078453998E+03 -0.47674026634E+02  0.21265243362E+03  0.00000000000E+00 0. -1.
         -4    1    3    3    0  502 -0.14171713358E+02 -0.49875245189E+03 -0.14705405544E+03  0.52017279913E+03  0.00000000000E+00 0.  1.
         13    1    5    5    0    0  0.78724739619E+02  0.36227298282E+02 -0.18448592523E+03  0.20382604931E+03  0.00000000000E+00 0. -1.
        -13    1    5    5    0    0  0.11333227947E+03  0.18206485486E+03 -0.30082679682E+03  0.36944360683E+03  0.00000000000E+00 0.  1.
          3    1    6    6  503    0 -0.68033896080E+02  0.15792610625E+03 -0.22248027210E+02  0.17339042871E+03  0.00000000000E+00 0. -1.
         -3    1    6    6    0  503 -0.16117209956E+03  0.32331873248E+03 -0.17835918527E+03  0.40289384137E+03  0.00000000000E+00 0.  1.
<mgrwt>
<rscale>  0 0.77026574E+03</rscale>
<asrwt>0</asrwt>
<pdfrwt beam="1">  1        2 0.21254055E+00 0.77026574E+03</pdfrwt>
<pdfrwt beam="2">  1       -2 0.77056242E-01 0.77026574E+03</pdfrwt>
<totfact> 0.22727566E+01</totfact>
</mgrwt>
</event>
<event>
12    1  0.1418317E-007  0.5964137E+03  0.7818608E-02  0.9912874E-01
         -1   -1    0    0    0  501 -0.00000000000E+00  0.00000000000E+00  0.34412911046E+03  0.34412911046E+03  0.00000000000E+00 0.  1.
          1   -1    0    0  501    0  0.00000000000E+00 -0.00000000000E+00 -0.14972186894E+04  0.14972186894E+04  0.00000000000E+00 0. -1.
         23    2    1    2    0    0  0.35228351309E+02 -0.58231943252E+03 -0.38186316121E+03  0.70336655524E+03  0.92563918036E+02 0.  0.
    5000000    2    1    2    0    0 -0.35228351309E+02  0.58231943252E+03 -0.77122641775E+03  0.11379812446E+04  0.59989513042E+03 0.  0.
         23    2    4    4    0    0  0.37204764097E+02  0.19705021266E+03  0.47035057450E+02  0.22649487817E+03  0.94205373672E+02 0.  0.
         23    2    4    4    0    0 -0.72433115406E+02  0.38526921986E+03 -0.81826147520E+03  0.91148636647E+03  0.87043819331E+02 0.  0.
          3    1    3    3  502    0  0.54254449619E+02 -0.23950968371E+03 -0.13262090228E+03  0.27909987033E+03  0.00000000000E+00 0. -1.
         -3    1    3    3    0  502 -0.19026098310E+02 -0.34280974881E+03 -0.24924225893E+03  0.42426668492E+03  0.00000000000E+00 0.  1.
         11    1    5    5    0    0  0.96476851752E+01  0.13041581316E+03 -0.14666003774E+02  0.13159199754E+03  0.00000000000E+00 0. -1.
        -11    1    5    5    0    0  0.27557078922E+02  0.66634399504E+02  0.61701061224E+02  0.94902880632E+02  0.00000000000E+00 0.  1.
          4    1    6    6  503    0 -0.87727974927E+02  0.25089097313E+03 -0.51973474251E+03  0.58375224245E+03  0.00000000000E+00 0. -1.
         -4    1    6    6    0  503  0.15294859521E+02  0.13437824673E+03 -0.29852673268E+03  0.32773412402E+03  0.00000000000E+00 0.  1.
<mgrwt>
<rscale>  0 0.59641373E+03</rscale>
<asrwt>0</asrwt>
<pdfrwt beam="1">  1        1 0.23034133E+00 0.59641373E+03</pdfrwt>
<pdfrwt beam="2">  1       -1 0.52942941E-01 0.59641373E+03</pdfrwt>
<totfact> 0.24961439E+01</totfact>
</mgrwt>
</event>
<event>
12    1  0.1418317E-007  0.8895576E+03  0.7818608E-02  0.9438730E-01
         -1   -1    0    0    0  501 -0.00000000000E+00  0.00000000000E+00  0.75684086934E+03  0.75684086934E+03  0.00000000000E+00 0.  1.
          1   -1    0    0  501    0  0.00000000000E+00 -0.00000000000E+00 -0.12027897009E+04  0.12027897009E+04  0.00000000000E+00 0. -1.
         23    2    1    2    0    0  0.84774049158E+03 -0.27691280266E+02 -0.74534406657E+02  0.85631402197E+03  0.91036137762E+02 0.  0.
    5000000    2    1    2    0    0 -0.84774049158E+03  0.27691280266E+02 -0.37141442490E+03  0.11033165483E+04  0.59993998250E+03 0.  0.
         23    2    4    4    0    0 -0.25095590618E+03 -0.15114103332E+03  0.93347690019E+02  0.32089233899E+03  0.91845648711E+02 0.  0.
         23    2    4    4    0    0 -0.59678458539E+03  0.17883231359E+03 -0.46476211492E+03  0.78242420928E+03  0.89727264838E+02 0.  0.
          1    1    3    3  502    0  0.61218107512E+03 -0.72859116957E+01 -0.92580087553E+02  0.61918480752E+03  0.00000000000E+00 0. -1.
         -1    1    3    3    0  502  0.23555941645E+03 -0.20405368570E+02  0.18045680896E+02  0.23712921445E+03  0.00000000000E+00 0.  1.
         13    1    5    5    0    0 -0.84622178309E+02 -0.36621090987E+01  0.27137192459E+02  0.88942404506E+02  0.00000000000E+00 0. -1.
        -13    1    5    5    0    0 -0.16633372788E+03 -0.14747892423E+03  0.66210497560E+02  0.23194993448E+03  0.00000000000E+00 0.  1.
          1    1    6    6  503    0 -0.50515250694E+03  0.14240218947E+03 -0.42784200943E+03  0.67713087647E+03  0.00000000000E+00 0. -1.
         -1    1    6    6    0  503 -0.91632078456E+02  0.36430124121E+02 -0.36920105490E+02  0.10529333281E+03  0.00000000000E+00 0.  1.
<mgrwt>
<rscale>  0 0.88955764E+03</rscale>
<asrwt>0</asrwt>
<pdfrwt beam="1">  1        1 0.18504457E+00 0.88955764E+03</pdfrwt>
<pdfrwt beam="2">  1       -1 0.11643706E+00 0.88955764E+03</pdfrwt>
<totfact> 0.72022270E+00</totfact>
</mgrwt>
</event>
<event>
12    1  0.1418317E-007  0.1778151E+04  0.7818608E-02  0.8718005E-01
          2   -1    0    0  501    0  0.00000000000E+00  0.00000000000E+00  0.17660846982E+04  0.17660846982E+04  0.00000000000E+00 0. -1.
         -2   -1    0    0    0  501 -0.00000000000E+00 -0.00000000000E+00 -0.19040359581E+04  0.19040359581E+04  0.00000000000E+00 0.  1.
         23    2    1    2    0    0  0.17214200312E+04  0.31965382002E+03 -0.40706795088E+03  0.17999338822E+04  0.92693985682E+02 0.  0.
    5000000    2    1    2    0    0 -0.17214200312E+04 -0.31965382002E+03  0.26911669101E+03  0.18701867741E+04  0.59975769108E+03 0.  0.
         23    2    4    4    0    0 -0.14276836952E+04 -0.88050758115E+02  0.35320096939E+03  0.14758746989E+04  0.86148316505E+02 0.  0.
         23    2    4    4    0    0 -0.29373633601E+03 -0.23160306191E+03 -0.84084278385E+02  0.39431207519E+03  0.92145718271E+02 0.  0.
          4    1    3    3  502    0  0.58510919980E+03  0.91164844793E+02 -0.17922385111E+03  0.61869620447E+03  0.00000000000E+00 0. -1.
         -4    1    3    3    0  502  0.11363108314E+04  0.22848897523E+03 -0.22784409977E+03  0.11812376777E+04  0.00000000000E+00 0.  1.
         13    1    5    5    0    0 -0.83082650246E+03 -0.66343599893E+02  0.24657495419E+03  0.86917970436E+03  0.00000000000E+00 0.  1.
        -13    1    5    5    0    0 -0.59685719277E+03 -0.21707158222E+02  0.10662601520E+03  0.60669499454E+03  0.00000000000E+00 0. -1.
          1    1    6    6  503    0 -0.14561802704E+03 -0.12427834237E+03 -0.89474844420E+02  0.21131839476E+03  0.00000000000E+00 0. -1.
         -1    1    6    6    0  503 -0.14811830897E+03 -0.10732471953E+03  0.53905660348E+01  0.18299368043E+03  0.00000000000E+00 0.  1.
<mgrwt>
<rscale>  0 0.17781513E+04</rscale>
<asrwt>0</asrwt>
<pdfrwt beam="1">  1        2 0.27170534E+00 0.17781513E+04</pdfrwt>
<pdfrwt beam="2">  1       -2 0.29292861E+00 0.17781513E+04</pdfrwt>
<totfact> 0.28865468E-01</totfact>
</mgrwt>
</event>
<event>
12    1  0.1418317E-007  0.5452655E+03  0.7818608E-02  0.1002596E+00
         -2   -1    0    0    0  501 -0.00000000000E+00  0.00000000000E+00  0.12048965056E+04  0.12048965056E+04  0.00000000000E+00 0.  1.
          2   -1    0    0  501    0  0.00000000000E+00 -0.00000000000E+00 -0.33949593623E+03  0.33949593623E+03  0.00000000000E+00 0. -1.
         23    2    1    2    0    0  0.38811562293E+03  0.26157918948E+01 -0.28770000319E+02  0.39998906111E+03  0.92319862236E+02 0.  0.
    5000000    2    1    2    0    0 -0.38811562293E+03 -0.26157918948E+01  0.89417056968E+03  0.11444033807E+04  0.59956443436E+03 0.  0.
         23    2    4    4    0    0 -0.44745500834E+03  0.17902232385E+03  0.52532413941E+03  0.71882601713E+03  0.92089166210E+02 0.  0.
         23    2    4    4    0    0  0.59339385409E+02 -0.18163811574E+03  0.36884643027E+03  0.42557736357E+03  0.92492353785E+02 0.  0.
          4    1    3    3  502    0  0.48650909364E+02  0.27101283369E+02  0.12715643771E+02  0.57123358959E+02  0.00000000000E+00 0. -1.
         -4    1    3    3    0  502  0.33946471357E+03 -0.24485491474E+02 -0.41485644091E+02  0.34286570216E+03  0.00000000000E+00 0.  1.
         13    1    5    5    0    0 -0.18872746314E+03  0.10236355904E+03  0.17731413168E+03  0.27845404442E+03  0.00000000000E+00 0. -1.
        -13    1    5    5    0    0 -0.25872754520E+03  0.76658764809E+02  0.34801000772E+03  0.44037197271E+03  0.00000000000E+00 0.  1.
          3    1    6    6  503    0  0.80272750060E+02 -0.11610315930E+03  0.27623583260E+03  0.31020943444E+03  0.00000000000E+00 0. -1.
         -3    1    6    6    0  503 -0.20933364651E+02 -0.65534956441E+02  0.92610597669E+02  0.11536792913E+03  0.00000000000E+00 0.  1.
<mgrwt>
<rscale>  0 0.54526549E+03</rscale>
<asrwt>0</asrwt>
<pdfrwt beam="1">  1        2 0.52230145E-01 0.54526549E+03</pdfrwt>
<pdfrwt beam="2">  1       -2 0.18536869E+00 0.54526549E+03</pdfrwt>
<totfact> 0.16525906E+01</totfact>
</mgrwt>
</event>
<event>
12    1  0.1418317E-007  0.7769132E+03  0.7818608E-02  0.9594049E-01
         -1   -1    0    0    0  501 -0.00000000000E+00  0.00000000000E+00  0.88703282422E+03  0.88703282422E+03  0.00000000000E+00 0.  1.
          1   -1    0    0  501    0  0.00000000000E+00 -0.00000000000E+00 -0.95242277528E+03  0.95242277528E+03  0.00000000000E+00 0. -1.
         23    2    1    2    0    0 -0.61268022061E+03  0.31199929241E+03 -0.47357500192E+03  0.83976100863E+03  0.90579567106E+02 0.  0.
    5000000    2    1    2    0    0  0.61268022061E+03 -0.31199929241E+03  0.40818505085E+03  0.99969459087E+03  0.60004468840E+03 0.  0.
         23    2    4    4    0    0  0.18012901343E+03 -0.37179352063E+03  0.48213475155E+02  0.42580836755E+03  0.91166568559E+02 0.  0.
         23    2    4    4    0    0  0.43255120718E+03  0.59794228218E+02  0.35997157570E+03  0.57388622332E+03  0.95341310306E+02 0.  0.
          4    1    3    3  502    0 -0.73049344665E+02  0.38143063667E+02 -0.23806303772E+02  0.85777853559E+02  0.00000000000E+00 0.  1.
         -4    1    3    3    0  502 -0.53963087595E+03  0.27385622875E+03 -0.44976869814E+03  0.75398315507E+03  0.00000000000E+00 0. -1.
         13    1    5    5    0    0  0.75557548083E+02 -0.25393807412E+03  0.40899977246E+02  0.26807890014E+03  0.00000000000E+00 0.  1.
        -13    1    5    5    0    0  0.10457146535E+03 -0.11785544651E+03  0.73134979092E+01  0.15772946741E+03  0.00000000000E+00 0. -1.
          3    1    6    6  503    0  0.17991047128E+03 -0.14340451422E+02  0.18043794300E+03  0.25520830217E+03  0.00000000000E+00 0. -1.
         -3    1    6    6    0  503  0.25264073590E+03  0.74134679640E+02  0.17953363270E+03  0.31867792116E+03  0.00000000000E+00 0.  1.
<mgrwt>
<rscale>  0 0.77691315E+03</rscale>
<asrwt>0</asrwt>
<pdfrwt beam="1">  1        1 0.14652658E+00 0.77691315E+03</pdfrwt>
<pdfrwt beam="2">  1       -1 0.13646659E+00 0.77691315E+03</pdfrwt>
<totfact> 0.76125687E+00</totfact>
</mgrwt>
</event>
<event>
12    1  0.1418317E-007  0.1295441E+04  0.7818608E-02  0.9033189E-01
          1   -1    0    0  501    0  0.00000000000E+00  0.00000000000E+00  0.16269707750E+04  0.16269707750E+04  0.00000000000E+00 0. -1.
         -1   -1    0    0    0  501 -0.00000000000E+00 -0.00000000000E+00 -0.11968222441E+04  0.11968222441E+04  0.00000000000E+00 0.  1.
         23    2    1    2    0    0  0.84795223417E+03 -0.96678394400E+03 -0.13524687975E+03  0.12962567884E+04  0.91081047549E+02 0.  0.
    5000000    2    1    2    0    0 -0.84795223417E+03  0.96678394400E+03  0.56539541062E+03  0.15275362307E+04  0.60000064983E+03 0.  0.
         23    2    4    4    0    0 -0.72637172973E+03  0.77487977631E+03  0.67228833282E+03  0.12603624445E+04  0.92126714908E+02 0.  0.
         23    2    4    4    0    0 -0.12158050444E+03  0.19190416769E+03 -0.10689292220E+03  0.26717378615E+03  0.91360311688E+02 0.  0.
          3    1    3    3  502    0  0.23943291777E+03 -0.21696836601E+03 -0.47862260775E+02  0.32664076593E+03  0.00000000000E+00 0. -1.
         -3    1    3    3    0  502  0.60851931640E+03 -0.74981557799E+03 -0.87384618973E+02  0.96961602249E+03  0.00000000000E+00 0.  1.
         11    1    5    5    0    0 -0.26497838879E+03  0.32967238215E+03  0.30484544519E+03  0.52137143337E+03  0.00000000000E+00 0.  1.
        -11    1    5    5    0    0 -0.46139334095E+03  0.44520739416E+03  0.36744288762E+03  0.73899101114E+03  0.00000000000E+00 0. -1.
          4    1    6    6  503    0  0.35085066450E+01  0.44511670323E+02 -0.46913912253E+02  0.64765064477E+02  0.00000000000E+00 0. -1.
         -4    1    6    6    0  503 -0.12508901108E+03  0.14739249737E+03 -0.59979009942E+02  0.20240872167E+03  0.00000000000E+00 0.  1.
<mgrwt>
<rscale>  0 0.12954407E+04</rscale>
<asrwt>0</asrwt>
<pdfrwt beam="1">  1        1 0.25030320E+00 0.12954407E+04</pdfrwt>
<pdfrwt beam="2">  1       -1 0.18412650E+00 0.12954407E+04</pdfrwt>
<totfact> 0.10074277E+00</totfact>
</mgrwt>
</event>
<event>
12    1  0.1418317E-007  0.5250864E+03  0.7818608E-02  0.1007431E+00
          2   -1    0    0  501    0  0.00000000000E+00  0.00000000000E+00  0.20364169413E+04  0.20364169413E+04  0.00000000000E+00 0. -1.
         -2   -1    0    0    0  501 -0.00000000000E+00 -0.00000000000E+00 -0.20210932511E+03  0.20210932511E+03  0.00000000000E+00 0.  1.
         23    2    1    2    0    0 -0.76852374126E+02  0.42704632205E+03  0.11412817021E+04  0.12242662201E+04  0.89604717897E+02 0.  0.
    5000000    2    1    2    0    0  0.76852374126E+02 -0.42704632205E+03  0.69302591405E+03  0.10142600463E+04  0.60013638067E+03 0.  0.
         23    2    4    4    0    0  0.24443198633E+03 -0.21586130948E+03  0.64137476304E+03  0.72519519765E+03  0.90572551916E+02 0.  0.
         23    2    4    4    0    0 -0.16757961221E+03 -0.21118501257E+03  0.51651151012E+02  0.28906484865E+03  0.90601376177E+02 0.  0.
          2    1    3    3  502    0 -0.74456298353E+02  0.31625090847E+03  0.74462084689E+03  0.81241527749E+03  0.00000000000E+00 0. -1.
         -2    1    3    3    0  502 -0.23960757725E+01  0.11079541358E+03  0.39666085521E+03  0.41185094258E+03  0.00000000000E+00 0.  1.
         11    1    5    5    0    0  0.19242027006E+03 -0.20135191953E+03  0.58029333585E+03  0.64366801339E+03  0.00000000000E+00 0.  1.
        -11    1    5    5    0    0  0.52011716271E+02 -0.14509389953E+02  0.61081427185E+02  0.81527184259E+02  0.00000000000E+00 0. -1.
          1    1    6    6  503    0 -0.86252347523E+02 -0.45827944685E+02 -0.63719010854E-01  0.97671244629E+02  0.00000000000E+00 0. -1.
         -1    1    6    6    0  503 -0.81327264685E+02 -0.16535706788E+03  0.51714870023E+02  0.19139360403E+03  0.00000000000E+00 0.  1.
<mgrwt>
<rscale>  0 0.52508636E+03</rscale>
<asrwt>0</asrwt>
<pdfrwt beam="1">  1        2 0.31329490E+00 0.52508636E+03</pdfrwt>
<pdfrwt beam="2">  1       -2 0.31093744E-01 0.52508636E+03</pdfrwt>
<totfact> 0.64911593E+01</totfact>
</mgrwt>
</event>
<event>
12    1  0.1418317E-007  0.1004942E+04  0.7818608E-02  0.9303141E-01
         -1   -1    0    0    0  501 -0.00000000000E+00  0.00000000000E+00  0.50557126175E+03  0.50557126175E+03  0.00000000000E+00 0.  1.
          1   -1    0    0  501    0  0.00000000000E+00 -0.00000000000E+00 -0.33189665362E+04  0.33189665362E+04  0.00000000000E+00 0. -1.
         23    2    1    2    0    0 -0.12066052994E+02  0.91703332849E+03 -0.25290255931E+04  0.26922871868E+04  0.10650882744E+03 0.  0.
    5000000    2    1    2    0    0  0.12066052994E+02 -0.91703332849E+03 -0.28436968134E+03  0.11322506112E+04  0.60002467919E+03 0.  0.
         23    2    4    4    0    0 -0.25719085985E+03 -0.26004232231E+03 -0.13677558804E+03  0.40120249364E+03  0.92123458636E+02 0.  0.
         23    2    4    4    0    0  0.26925691285E+03 -0.65699100617E+03 -0.14759409330E+03  0.73104811753E+03  0.92254357401E+02 0.  0.
          3    1    3    3  502    0  0.36782157798E+02  0.51303748575E+03 -0.14989165831E+04  0.15847117441E+04  0.00000000000E+00 0. -1.
         -3    1    3    3    0  502 -0.48848210792E+02  0.40399584274E+03 -0.10301090100E+04  0.11075754426E+04  0.00000000000E+00 0.  1.
         11    1    5    5    0    0 -0.17730729725E+03 -0.11586915061E+03 -0.66316541132E+02  0.22194914135E+03  0.00000000000E+00 0. -1.
        -11    1    5    5    0    0 -0.79883562607E+02 -0.14417317170E+03 -0.70459046907E+02  0.17925335228E+03  0.00000000000E+00 0.  1.
          3    1    6    6  503    0  0.22772328733E+03 -0.49742163747E+03 -0.80188214946E+02  0.55291620598E+03  0.00000000000E+00 0. -1.
         -3    1    6    6    0  503  0.41533625515E+02 -0.15956936871E+03 -0.67405878354E+02  0.17813191156E+03  0.00000000000E+00 0.  1.
<mgrwt>
<rscale>  0 0.10049422E+04</rscale>
<asrwt>0</asrwt>
<pdfrwt beam="1">  1        1 0.51061023E+00 0.10049422E+04</pdfrwt>
<pdfrwt beam="2">  1       -1 0.77780195E-01 0.10049422E+04</pdfrwt>
<totfact> 0.59171936E-01</totfact>
</mgrwt>
</event>
<event>
12    1  0.1418317E-007  0.8198276E+03  0.7818608E-02  0.9531753E-01
         -1   -1    0    0    0  501 -0.00000000000E+00  0.00000000000E+00  0.10323444060E+04  0.10323444060E+04  0.00000000000E+00 0.  1.
          1   -1    0    0  501    0  0.00000000000E+00 -0.00000000000E+00 -0.99179435598E+03  0.99179435598E+03  0.00000000000E+00 0. -1.
         23    2    1    2    0    0  0.62860737034E+03 -0.34656642301E+03 -0.55745943455E+03  0.91376912631E+03  0.94643982482E+02 0.  0.
    5000000    2    1    2    0    0 -0.62860737034E+03  0.34656642301E+03  0.59800948459E+03  0.11103696357E+04  0.60004155906E+03 0.  0.
         23    2    4    4    0    0  0.64397482013E+02 -0.59904965308E+02  0.93307517624E+02  0.15616085302E+03  0.89130682780E+02 0.  0.
         23    2    4    4    0    0 -0.69300485236E+03  0.40647138831E+03  0.50470196697E+03  0.95420878267E+03  0.10156579421E+03 0.  0.
          4    1    3    3  502    0  0.43793776224E+03 -0.28703210101E+03 -0.38587298024E+03  0.65044205544E+03  0.00000000000E+00 0. -1.
         -4    1    3    3    0  502  0.19066960810E+03 -0.59534322000E+02 -0.17158645431E+03  0.26332707087E+03  0.00000000000E+00 0.  1.
         11    1    5    5    0    0  0.76458636411E+02 -0.48613116261E+02  0.37672339898E+02  0.98124224062E+02  0.00000000000E+00 0. -1.
        -11    1    5    5    0    0 -0.12061154397E+02 -0.11291849047E+02  0.55635177727E+02  0.58036628959E+02  0.00000000000E+00 0.  1.
          1    1    6    6  503    0 -0.21389829891E+03  0.75416279326E+02  0.12451149963E+03  0.25873386134E+03  0.00000000000E+00 0. -1.
         -1    1    6    6    0  503 -0.47910655345E+03  0.33105510899E+03  0.38019046734E+03  0.69547492133E+03  0.00000000000E+00 0.  1.
<mgrwt>
<rscale>  0 0.81982764E+03</rscale>
<asrwt>0</asrwt>
<pdfrwt beam="1">  1        1 0.15258375E+00 0.81982764E+03</pdfrwt>
<pdfrwt beam="2">  1       -1 0.15882222E+00 0.81982764E+03</pdfrwt>
<totfact> 0.47011605E+00</totfact>
</mgrwt>
</event>
<event>
12    1  0.1418317E-007  0.8367165E+03  0.7818608E-02  0.9508341E-01
         -2   -1    0    0    0  501 -0.00000000000E+00  0.00000000000E+00  0.23580052739E+03  0.23580052739E+03  0.00000000000E+00 0.  1.
          2   -1    0    0  501    0  0.00000000000E+00 -0.00000000000E+00 -0.33253128276E+04  0.33253128276E+04  0.00000000000E+00 0. -1.
         23    2    1    2    0    0  0.14665190001E+03  0.75755687862E+03 -0.11299581876E+04  0.13713090300E+04  0.91015086283E+02 0.  0.
    5000000    2    1    2    0    0 -0.14665190001E+03 -0.75755687862E+03 -0.19595541125E+04  0.21898043249E+04  0.59999288111E+03 0.  0.
         23    2    4    4    0    0  0.15864373148E+03 -0.15266402369E+03 -0.88168110235E+03  0.91356291022E+03  0.93602815251E+02 0.  0.
         23    2    4    4    0    0 -0.30529563148E+03 -0.60489285493E+03 -0.10778730102E+04  0.12762414147E+04  0.88775751041E+02 0.  0.
          2    1    3    3  502    0  0.13100743749E+03  0.47630162906E+03 -0.75709343734E+03  0.90400036692E+03  0.00000000000E+00 0. -1.
         -2    1    3    3    0  502  0.15644462518E+02  0.28125524956E+03 -0.37286475031E+03  0.46730866313E+03  0.00000000000E+00 0.  1.
         11    1    5    5    0    0  0.18494321975E+02 -0.17644778769E+02 -0.27713059278E+02  0.37701350343E+02  0.00000000000E+00 0.  1.
        -11    1    5    5    0    0  0.14014940950E+03 -0.13501924492E+03 -0.85396804307E+03  0.87586155988E+03  0.00000000000E+00 0. -1.
          1    1    6    6  503    0 -0.28992930931E+03 -0.57224967911E+03 -0.10507717777E+04  0.12311173902E+04  0.00000000000E+00 0. -1.
         -1    1    6    6    0  503 -0.15366322175E+02 -0.32643175820E+02 -0.27101232457E+02  0.45124024482E+02  0.00000000000E+00 0.  1.
<mgrwt>
<rscale>  0 0.83671645E+03</rscale>
<asrwt>0</asrwt>
<pdfrwt beam="1">  1        2 0.51158660E+00 0.83671645E+03</pdfrwt>
<pdfrwt beam="2">  1       -2 0.36277003E-01 0.83671645E+03</pdfrwt>
<totfact> 0.81047146E+00</totfact>
</mgrwt>
</event>
<event>
12    1  0.1418317E-007  0.5305113E+03  0.7818608E-02  0.1006108E+00
          1   -1    0    0  501    0  0.00000000000E+00  0.00000000000E+00  0.18808039105E+04  0.18808039105E+04  0.00000000000E+00 0. -1.
         -1   -1    0    0    0  501 -0.00000000000E+00 -0.00000000000E+00 -0.18242659841E+03  0.18242659841E+03  0.00000000000E+00 0.  1.
         23    2    1    2    0    0  0.37111255764E+03 -0.80961717890E+02  0.97286028856E+03  0.10482439348E+04  0.89882565910E+02 0.  0.
    5000000    2    1    2    0    0 -0.37111255764E+03  0.80961717890E+02  0.72551702357E+03  0.10149865741E+04  0.59961943260E+03 0.  0.
         23    2    4    4    0    0 -0.46515499071E+03  0.20461112159E+03  0.61817025136E+03  0.80525081237E+03  0.89774911240E+02 0.  0.
         23    2    4    4    0    0  0.94042433070E+02 -0.12364940370E+03  0.10734677221E+03  0.20973576175E+03  0.91283109063E+02 0.  0.
          1    1    3    3  502    0  0.30184460402E+03 -0.29878047624E+02  0.72625324753E+03  0.78704932645E+03  0.00000000000E+00 0. -1.
         -1    1    3    3    0  502  0.69267953620E+02 -0.51083670266E+02  0.24660704103E+03  0.26119460839E+03  0.00000000000E+00 0.  1.
         13    1    5    5    0    0 -0.12056137311E+03  0.97861645643E+02  0.18800858059E+03  0.24384251629E+03  0.00000000000E+00 0.  1.
        -13    1    5    5    0    0 -0.34459361760E+03  0.10674947595E+03  0.43016167077E+03  0.56140829608E+03  0.00000000000E+00 0. -1.
          3    1    6    6  503    0  0.60422953413E+02 -0.86350579013E+02  0.11819975107E+03  0.15836204390E+03  0.00000000000E+00 0. -1.
         -3    1    6    6    0  503  0.33619479657E+02 -0.37298824687E+02 -0.10852978863E+02  0.51373717850E+02  0.00000000000E+00 0.  1.
<mgrwt>
<rscale>  0 0.53051127E+03</rscale>
<asrwt>0</asrwt>
<pdfrwt beam="1">  1        1 0.28935443E+00 0.53051127E+03</pdfrwt>
<pdfrwt beam="2">  1       -1 0.28065632E-01 0.53051127E+03</pdfrwt>
<totfact> 0.43881762E+01</totfact>
</mgrwt>
</event>
<event>
12    1  0.1418317E-007  0.6372653E+03  0.7818608E-02  0.9830973E-01
          2   -1    0    0  501    0  0.00000000000E+00  0.00000000000E+00  0.12793656566E+04  0.12793656566E+04  0.00000000000E+00 0. -1.
         -2   -1    0    0    0  501 -0.00000000000E+00 -0.00000000000E+00 -0.40866359326E+03  0.40866359326E+03  0.00000000000E+00 0.  1.
         23    2    1    2    0    0 -0.48126131468E+03  0.27712534574E+03  0.11394039258E+03  0.57352037568E+03  0.86788812612E+02 0.  0.
    5000000    2    1    2    0    0  0.48126131468E+03 -0.27712534574E+03  0.75676167074E+03  0.11145088742E+04  0.60085846423E+03 0.  0.
         23    2    4    4    0    0  0.44775229887E+03 -0.24721710742E+02  0.70261620743E+03  0.83851059692E+03  0.91308280487E+02 0.  0.
         23    2    4    4    0    0  0.33509015811E+02 -0.25240363500E+03  0.54145463319E+02  0.27599827725E+03  0.91721691796E+02 0.  0.
          1    1    3    3  502    0 -0.36652105032E+03  0.21235204273E+03  0.12401841999E+03  0.44137471481E+03  0.00000000000E+00 0. -1.
         -1    1    3    3    0  502 -0.11474026436E+03  0.64773303012E+02 -0.10078027411E+02  0.13214566087E+03  0.00000000000E+00 0.  1.
         13    1    5    5    0    0  0.26944539279E+03 -0.95189282182E+01  0.33812104676E+03  0.43245493633E+03  0.00000000000E+00 0.  1.
        -13    1    5    5    0    0  0.17830690608E+03 -0.15202782524E+02  0.36449516066E+03  0.40605566059E+03  0.00000000000E+00 0. -1.
          4    1    6    6  503    0  0.61534425191E+02 -0.11552527084E+03  0.24292708454E+02  0.13312666664E+03  0.00000000000E+00 0. -1.
         -4    1    6    6    0  503 -0.28025409380E+02 -0.13687836416E+03  0.29852754866E+02  0.14287161062E+03  0.00000000000E+00 0.  1.
<mgrwt>
<rscale>  0 0.63726530E+03</rscale>
<asrwt>0</asrwt>
<pdfrwt beam="1">  1        2 0.19682548E+00 0.63726530E+03</pdfrwt>
<pdfrwt beam="2">  1       -2 0.62871323E-01 0.63726530E+03</pdfrwt>
<totfact> 0.41127622E+01</totfact>
</mgrwt>
</event>
<event>
12    1  0.1418317E-007  0.4316950E+03  0.7818608E-02  0.1033326E+00
          2   -1    0    0  501    0  0.00000000000E+00  0.00000000000E+00  0.12290081289E+04  0.12290081289E+04  0.00000000000E+00 0. -1.
         -2   -1    0    0    0  501 -0.00000000000E+00 -0.00000000000E+00 -0.35470967087E+03  0.35470967087E+03  0.00000000000E+00 0.  1.
         23    2    1    2    0    0  0.54828083914E+02 -0.41425110245E+03 -0.19909695573E+02  0.42823268082E+03  0.91524522820E+02 0.  0.
    5000000    2    1    2    0    0 -0.54828083914E+02  0.41425110245E+03  0.89420815359E+03  0.11554851189E+04  0.60077245566E+03 0.  0.
         23    2    4    4    0    0 -0.27325230234E+02  0.21198046339E+03  0.90224345069E+03  0.93159922407E+03  0.90285574221E+02 0.  0.
         23    2    4    4    0    0 -0.27502853680E+02  0.20227063906E+03 -0.80352970996E+01  0.22388589487E+03  0.91599724530E+02 0.  0.
          3    1    3    3  502    0 -0.80504438951E+01 -0.14562658892E+03  0.27172298488E+02  0.14835850786E+03  0.00000000000E+00 0. -1.
         -3    1    3    3    0  502  0.62878527809E+02 -0.26862451352E+03 -0.47081994061E+02  0.27987417296E+03  0.00000000000E+00 0.  1.
         11    1    5    5    0    0  0.23941317088E+02  0.49378917283E+02  0.32878760343E+03  0.33333579511E+03  0.00000000000E+00 0.  1.
        -11    1    5    5    0    0 -0.51266547322E+02  0.16260154610E+03  0.57345584726E+03  0.59826342896E+03  0.00000000000E+00 0. -1.
          2    1    6    6  503    0 -0.44879801781E+02  0.71859338112E+02  0.24816103677E+02  0.88282501570E+02  0.00000000000E+00 0. -1.
         -2    1    6    6    0  503  0.17376948101E+02  0.13041130095E+03 -0.32851400776E+02  0.13560339330E+03  0.00000000000E+00 0.  1.
<mgrwt>
<rscale>  0 0.43169504E+03</rscale>
<asrwt>0</asrwt>
<pdfrwt beam="1">  1        2 0.18907817E+00 0.43169504E+03</pdfrwt>
<pdfrwt beam="2">  1       -2 0.54570719E-01 0.43169504E+03</pdfrwt>
<totfact> 0.60810256E+01</totfact>
</mgrwt>
</event>
<event>
12    1  0.1418317E-007  0.3361795E+03  0.7818608E-02  0.1068435E+00
          1   -1    0    0  501    0  0.00000000000E+00  0.00000000000E+00  0.56857361376E+03  0.56857361376E+03  0.00000000000E+00 0. -1.
         -1   -1    0    0    0  501 -0.00000000000E+00 -0.00000000000E+00 -0.41234149750E+03  0.41234149750E+03  0.00000000000E+00 0.  1.
         23    2    1    2    0    0  0.22578598105E+03 -0.12154949400E+03  0.18361112684E+03  0.32800064534E+03  0.90098771983E+02 0.  0.
    5000000    2    1    2    0    0 -0.22578598105E+03  0.12154949400E+03 -0.27379010583E+02  0.65291446591E+03  0.59982839283E+03 0.  0.
         23    2    4    4    0    0 -0.60903799740E+02 -0.98021794911E+02 -0.24837394243E+03  0.28889631196E+03  0.91945193906E+02 0.  0.
         23    2    4    4    0    0 -0.16488218131E+03  0.21957128891E+03  0.22099493185E+03  0.36401815395E+03  0.90954779279E+02 0.  0.
          3    1    3    3  502    0  0.16716232261E+03 -0.48503984600E+02  0.14558014500E+03  0.22691288469E+03  0.00000000000E+00 0. -1.
         -3    1    3    3    0  502  0.58623658444E+02 -0.73045509403E+02  0.38030981845E+02  0.10108776065E+03  0.00000000000E+00 0.  1.
         13    1    5    5    0    0 -0.51247723896E+02 -0.82077959387E+02 -0.99255437074E+02  0.13861732363E+03  0.00000000000E+00 0. -1.
        -13    1    5    5    0    0 -0.96560758443E+01 -0.15943835523E+02 -0.14911850536E+03  0.15027898833E+03  0.00000000000E+00 0.  1.
          2    1    6    6  503    0 -0.12057134654E+03  0.84898338037E+02  0.11484337058E+03  0.18690686765E+03  0.00000000000E+00 0. -1.
         -2    1    6    6    0  503 -0.44310834772E+02  0.13467295088E+03  0.10615156127E+03  0.17711128630E+03  0.00000000000E+00 0.  1.
<mgrwt>
<rscale>  0 0.33617952E+03</rscale>
<asrwt>0</asrwt>
<pdfrwt beam="1">  1        1 0.87472864E-01 0.33617952E+03</pdfrwt>
<pdfrwt beam="2">  1       -1 0.63437153E-01 0.33617952E+03</pdfrwt>
<totfact> 0.99003507E+01</totfact>
</mgrwt>
</event>
<event>
12    1  0.1418317E-007  0.6623275E+03  0.7818608E-02  0.9783919E-01
         -2   -1    0    0    0  501 -0.00000000000E+00  0.00000000000E+00  0.13429533952E+03  0.13429533952E+03  0.00000000000E+00 0.  1.
          2   -1    0    0  501    0  0.00000000000E+00 -0.00000000000E+00 -0.36502495694E+04  0.36502495694E+04  0.00000000000E+00 0. -1.
         23    2    1    2    0    0  0.30387269562E+02 -0.54917438889E+03 -0.18182612100E+04  0.19018066297E+04  0.90987545650E+02 0.  0.
    5000000    2    1    2    0    0 -0.30387269562E+02  0.54917438889E+03 -0.16976930199E+04  0.18827382792E+04  0.60002161852E+03 0.  0.
         23    2    4    4    0    0 -0.27306746782E+03  0.21282628158E+03 -0.52224205247E+03  0.63303171676E+03  0.90174968500E+02 0.  0.
         23    2    4    4    0    0  0.24268019825E+03  0.33634810730E+03 -0.11754509674E+04  0.12497065625E+04  0.89765179953E+02 0.  0.
          1    1    3    3  502    0  0.61553512999E+02 -0.32280581590E+03 -0.10385133097E+04  0.10892668746E+04  0.00000000000E+00 0. -1.
         -1    1    3    3    0  502 -0.31166243437E+02 -0.22636857299E+03 -0.77974790032E+03  0.81253975510E+03  0.00000000000E+00 0.  1.
         13    1    5    5    0    0 -0.16407785444E+03  0.14767635387E+03 -0.25580696328E+03  0.33788614986E+03  0.00000000000E+00 0. -1.
        -13    1    5    5    0    0 -0.10898961338E+03  0.65149927718E+02 -0.26643508919E+03  0.29514556690E+03  0.00000000000E+00 0.  1.
          2    1    6    6  503    0  0.20017843646E+03  0.31236107165E+03 -0.96973150429E+03  0.10382774369E+04  0.00000000000E+00 0. -1.
         -2    1    6    6    0  503  0.42501761795E+02  0.23987035650E+02 -0.20571946315E+03  0.21142912560E+03  0.00000000000E+00 0.  1.
<mgrwt>
<rscale>  0 0.66232749E+03</rscale>
<asrwt>0</asrwt>
<pdfrwt beam="1">  1        2 0.56157688E+00 0.66232749E+03</pdfrwt>
<pdfrwt beam="2">  1       -2 0.20660821E-01 0.66232749E+03</pdfrwt>
<totfact> 0.14120637E+01</totfact>
</mgrwt>
</event>
<event>
12    1  0.1418317E-007  0.7353343E+03  0.7818608E-02  0.9658644E-01
          2   -1    0    0  501    0  0.00000000000E+00  0.00000000000E+00  0.32095542571E+04  0.32095542571E+04  0.00000000000E+00 0. -1.
         -2   -1    0    0    0  501 -0.00000000000E+00 -0.00000000000E+00 -0.18058169808E+03  0.18058169808E+03  0.00000000000E+00 0.  1.
         23    2    1    2    0    0  0.62969123164E+03 -0.25212394117E+02  0.10445378326E+04  0.12233182612E+04  0.91112964670E+02 0.  0.
    5000000    2    1    2    0    0 -0.62969123164E+03  0.25212394117E+02  0.19844347264E+04  0.21668176940E+04  0.59997585261E+03 0.  0.
         23    2    4    4    0    0 -0.32105571368E+02 -0.19325445905E+03  0.36299118380E+03  0.42258329714E+03  0.91847644789E+02 0.  0.
         23    2    4    4    0    0 -0.59758566027E+03  0.21846685317E+03  0.16214435426E+04  0.17442343969E+04  0.91859033749E+02 0.  0.
          1    1    3    3  502    0  0.17768912438E+03 -0.30591682464E+02  0.23593884338E+03  0.29694513596E+03  0.00000000000E+00 0. -1.
         -1    1    3    3    0  502  0.45200210726E+03  0.53792883472E+01  0.80859898924E+03  0.92637312521E+03  0.00000000000E+00 0.  1.
         11    1    5    5    0    0 -0.49880701977E+01 -0.87567606443E+02  0.25249411042E+03  0.26729429911E+03  0.00000000000E+00 0.  1.
        -11    1    5    5    0    0 -0.27117501171E+02 -0.10568685261E+03  0.11049707338E+03  0.15528899803E+03  0.00000000000E+00 0. -1.
          1    1    6    6  503    0 -0.38594356392E+03  0.98835153282E+02  0.10610190901E+04  0.11333500481E+04  0.00000000000E+00 0. -1.
         -1    1    6    6    0  503 -0.21164209635E+03  0.11963169988E+03  0.56042445259E+03  0.61088434881E+03  0.00000000000E+00 0.  1.
<mgrwt>
<rscale>  0 0.73533426E+03</rscale>
<asrwt>0</asrwt>
<pdfrwt beam="1">  1        2 0.49377754E+00 0.73533426E+03</pdfrwt>
<pdfrwt beam="2">  1       -2 0.27781802E-01 0.73533426E+03</pdfrwt>
<totfact> 0.16164685E+01</totfact>
</mgrwt>
</event>
<event>
12    1  0.1418317E-007  0.5805519E+03  0.7818608E-02  0.9946597E-01
          2   -1    0    0  501    0  0.00000000000E+00  0.00000000000E+00  0.13790099399E+04  0.13790099399E+04  0.00000000000E+00 0. -1.
         -2   -1    0    0    0  501 -0.00000000000E+00 -0.00000000000E+00 -0.32453128707E+03  0.32453128707E+03  0.00000000000E+00 0.  1.
         23    2    1    2    0    0 -0.39855264474E+03  0.19976732695E+03  0.59466415209E+02  0.45900174133E+03  0.91625042778E+02 0.  0.
    5000000    2    1    2    0    0  0.39855264474E+03 -0.19976732695E+03  0.99501223765E+03  0.12445394857E+04  0.60006498212E+03 0.  0.
         23    2    4    4    0    0  0.44171758777E+03  0.48740392890E+02  0.46019624552E+03  0.64619353460E+03  0.91079341904E+02 0.  0.
         23    2    4    4    0    0 -0.43164943030E+02 -0.24850771984E+03  0.53481599214E+03  0.59834595107E+03  0.91490068288E+02 0.  0.
          1    1    3    3  502    0 -0.22790010965E+03  0.90786652663E+02  0.73337072235E+02  0.25604492271E+03  0.00000000000E+00 0. -1.
         -1    1    3    3    0  502 -0.17065253509E+03  0.10898067429E+03 -0.13870657026E+02  0.20295681862E+03  0.00000000000E+00 0.  1.
         13    1    5    5    0    0  0.17963050422E+03  0.39139819032E+02  0.13324824061E+03  0.22705536133E+03  0.00000000000E+00 0.  1.
        -13    1    5    5    0    0  0.26208708355E+03  0.96005738587E+01  0.32694800490E+03  0.41913817327E+03  0.00000000000E+00 0. -1.
          4    1    6    6  503    0 -0.54614428468E+02 -0.72262488792E+02  0.15623066026E+03  0.18058965167E+03  0.00000000000E+00 0.  1.
         -4    1    6    6    0  503  0.11449485439E+02 -0.17624523105E+03  0.37858533187E+03  0.41775629941E+03  0.00000000000E+00 0. -1.
<mgrwt>
<rscale>  0 0.58055191E+03</rscale>
<asrwt>0</asrwt>
<pdfrwt beam="1">  1        2 0.21215537E+00 0.58055191E+03</pdfrwt>
<pdfrwt beam="2">  1       -2 0.49927891E-01 0.58055191E+03</pdfrwt>
<totfact> 0.58660241E+01</totfact>
</mgrwt>
</event>
<event>
12    1  0.1418317E-007  0.1049955E+04  0.7818608E-02  0.9255391E-01
          2   -1    0    0  501    0  0.00000000000E+00  0.00000000000E+00  0.16947976503E+04  0.16947976503E+04  0.00000000000E+00 0. -1.
         -2   -1    0    0    0  501 -0.00000000000E+00 -0.00000000000E+00 -0.76624239407E+03  0.76624239407E+03  0.00000000000E+00 0.  1.
         23    2    1    2    0    0  0.81315486719E+03  0.51948776109E+03 -0.37027128773E+02  0.96990141185E+03  0.90826034207E+02 0.  0.
    5000000    2    1    2    0    0 -0.81315486719E+03 -0.51948776109E+03  0.96558238505E+03  0.14911386326E+04  0.60004725418E+03 0.  0.
         23    2    4    4    0    0 -0.28940055812E+03 -0.52018026883E+03  0.56755943488E+03  0.82747167580E+03  0.90804553918E+02 0.  0.
         23    2    4    4    0    0 -0.52375430907E+03  0.69250773830E+00  0.39802295017E+03  0.66366695676E+03  0.87820867683E+02 0.  0.
          4    1    3    3  502    0  0.45563202488E+03  0.24053045397E+03 -0.42190676711E+01  0.51524095520E+03  0.00000000000E+00 0. -1.
         -4    1    3    3    0  502  0.35752284230E+03  0.27895730712E+03 -0.32808061102E+02  0.45466045665E+03  0.00000000000E+00 0.  1.
         13    1    5    5    0    0 -0.19139175890E+03 -0.26056108165E+03  0.27772608310E+03  0.42620964311E+03  0.00000000000E+00 0.  1.
        -13    1    5    5    0    0 -0.98008799223E+02 -0.25961918717E+03  0.28983335179E+03  0.40126203269E+03  0.00000000000E+00 0. -1.
          2    1    6    6  503    0 -0.61605569259E+02  0.27537140038E+02  0.39976592076E+02  0.78432570780E+02  0.00000000000E+00 0. -1.
         -2    1    6    6    0  503 -0.46214873981E+03 -0.26844632299E+02  0.35804635809E+03  0.58523438598E+03  0.00000000000E+00 0.  1.
<mgrwt>
<rscale>  0 0.10499547E+04</rscale>
<asrwt>0</asrwt>
<pdfrwt beam="1">  1        2 0.26073810E+00 0.10499547E+04</pdfrwt>
<pdfrwt beam="2">  1       -2 0.11788345E+00 0.10499547E+04</pdfrwt>
<totfact> 0.54248370E+00</totfact>
</mgrwt>
</event>
<event>
12    1  0.1418317E-007  0.1128988E+04  0.7818608E-02  0.9177390E-01
         -2   -1    0    0    0  501 -0.00000000000E+00  0.00000000000E+00  0.45772986524E+03  0.45772986524E+03  0.00000000000E+00 0.  1.
          2   -1    0    0  501    0  0.00000000000E+00 -0.00000000000E+00 -0.28665408424E+04  0.28665408424E+04  0.00000000000E+00 0. -1.
         23    2    1    2    0    0  0.10409624856E+04 -0.21383282868E+03 -0.11045221002E+04  0.15380402397E+04  0.12755914015E+03 0.  0.
    5000000    2    1    2    0    0 -0.10409624856E+04  0.21383282868E+03 -0.13042888770E+04  0.17862304679E+04  0.60010202051E+03 0.  0.
         23    2    4    4    0    0 -0.52105689713E+03  0.37329596980E+03 -0.53507035530E+03  0.83987237370E+03  0.90747715490E+02 0.  0.
         23    2    4    4    0    0 -0.51990558842E+03 -0.15946314111E+03 -0.76921852169E+03  0.94635809425E+03  0.90366997240E+02 0.  0.
          1    1    3    3  502    0  0.89317309642E+02  0.16709430295E+02 -0.84101183939E+02  0.12381355339E+03  0.00000000000E+00 0. -1.
         -1    1    3    3    0  502  0.95164517591E+03 -0.23054225898E+03 -0.10204209162E+04  0.14142266863E+04  0.00000000000E+00 0.  1.
         11    1    5    5    0    0 -0.35442840098E+03  0.23722926736E+03 -0.40688630938E+03  0.58945202135E+03  0.00000000000E+00 0. -1.
        -11    1    5    5    0    0 -0.16662849615E+03  0.13606670244E+03 -0.12818404592E+03  0.25042035234E+03  0.00000000000E+00 0.  1.
          3    1    6    6  503    0 -0.20583537457E+03 -0.36571034168E+02 -0.23442684470E+03  0.31410442130E+03  0.00000000000E+00 0. -1.
         -3    1    6    6    0  503 -0.31407021386E+03 -0.12289210694E+03 -0.53479167699E+03  0.63225367295E+03  0.00000000000E+00 0.  1.
<mgrwt>
<rscale>  0 0.11289878E+04</rscale>
<asrwt>0</asrwt>
<pdfrwt beam="1">  1        2 0.44100628E+00 0.11289878E+04</pdfrwt>
<pdfrwt beam="2">  1       -2 0.70419979E-01 0.11289878E+04</pdfrwt>
<totfact> 0.38701916E+00</totfact>
</mgrwt>
</event>
<event>
12    1  0.1418317E-007  0.4282738E+03  0.7818608E-02  0.1034407E+00
          2   -1    0    0  501    0  0.00000000000E+00  0.00000000000E+00  0.21814337335E+04  0.21814337335E+04  0.00000000000E+00 0. -1.
         -2   -1    0    0    0  501 -0.00000000000E+00 -0.00000000000E+00 -0.10763517121E+03  0.10763517121E+03  0.00000000000E+00 0.  1.
         23    2    1    2    0    0  0.83843759555E+02  0.27476212642E+03  0.55012972822E+03  0.62647398191E+03  0.85457182323E+02 0.  0.
    5000000    2    1    2    0    0 -0.83843759555E+02 -0.27476212642E+03  0.15236688340E+04  0.16625949228E+04  0.60010928942E+03 0.  0.
         23    2    4    4    0    0 -0.25761208576E+03 -0.27110635950E+03  0.56085441984E+03  0.68024358334E+03  0.91164727496E+02 0.  0.
         23    2    4    4    0    0  0.17376832620E+03 -0.36557669229E+01  0.96281441421E+03  0.98235133943E+03  0.88282286138E+02 0.  0.
          1    1    3    3  502    0  0.90864375250E+02  0.18363886102E+03  0.42176372737E+03  0.46889679855E+03  0.00000000000E+00 0. -1.
         -1    1    3    3    0  502 -0.70206156945E+01  0.91123265402E+02  0.12836600085E+03  0.15757718336E+03  0.00000000000E+00 0.  1.
         13    1    5    5    0    0 -0.22799245352E+02 -0.75999480927E+02  0.12672313130E+03  0.14951414213E+03  0.00000000000E+00 0. -1.
        -13    1    5    5    0    0 -0.23481284040E+03 -0.19510687857E+03  0.43413128854E+03  0.53072944121E+03  0.00000000000E+00 0.  1.
          3    1    6    6  503    0  0.58243516841E+02 -0.13159241410E+02  0.15224977151E+03  0.16354041033E+03  0.00000000000E+00 0. -1.
         -3    1    6    6    0  503  0.11552480936E+03  0.95034744867E+01  0.81056464270E+03  0.81881092909E+03  0.00000000000E+00 0.  1.
<mgrwt>
<rscale>  0 0.42827381E+03</rscale>
<asrwt>0</asrwt>
<pdfrwt beam="1">  1        2 0.33560516E+00 0.42827381E+03</pdfrwt>
<pdfrwt beam="2">  1       -2 0.16559259E-01 0.42827381E+03</pdfrwt>
<totfact> 0.16792235E+02</totfact>
</mgrwt>
</event>
<event>
12    1  0.1418317E-007  0.9658713E+03  0.7818608E-02  0.9346789E-01
         -1   -1    0    0    0  501 -0.00000000000E+00  0.00000000000E+00  0.11618081027E+04  0.11618081027E+04  0.00000000000E+00 0.  1.
          1   -1    0    0  501    0  0.00000000000E+00 -0.00000000000E+00 -0.12935545900E+04  0.12935545900E+04  0.00000000000E+00 0. -1.
         23    2    1    2    0    0  0.25438422949E+03  0.85210853728E+03  0.66911449730E+03  0.11166916622E+04  0.92118197636E+02 0.  0.
    5000000    2    1    2    0    0 -0.25438422949E+03 -0.85210853728E+03 -0.80086098465E+03  0.13386710305E+04  0.59988458524E+03 0.  0.
         23    2    4    4    0    0 -0.17462796170E+03 -0.89918751158E+03 -0.77805794729E+03  0.12053842048E+04  0.92432709360E+02 0.  0.
         23    2    4    4    0    0 -0.79756267790E+02  0.47078974304E+02 -0.22803037359E+02  0.13328682572E+03  0.93101596787E+02 0.  0.
          4    1    3    3  502    0  0.40455626481E+02  0.13757941013E+03  0.67807590124E+02  0.15862730245E+03  0.00000000000E+00 0. -1.
         -4    1    3    3    0  502  0.21392860301E+03  0.71452912715E+03  0.60130690718E+03  0.95806435971E+03  0.00000000000E+00 0.  1.
         11    1    5    5    0    0 -0.18980789968E+02 -0.98037582284E+02 -0.12590337762E+03  0.16069629250E+03  0.00000000000E+00 0.  1.
        -11    1    5    5    0    0 -0.15564717174E+03 -0.80114992930E+03 -0.65215456967E+03  0.10446879123E+04  0.00000000000E+00 0. -1.
          4    1    6    6  503    0 -0.13720803542E+02  0.57956735547E+02 -0.28679102816E+02  0.66103967985E+02  0.00000000000E+00 0. -1.
         -4    1    6    6    0  503 -0.66035464248E+02 -0.10877761242E+02  0.58760654564E+01  0.67182857734E+02  0.00000000000E+00 0.  1.
<mgrwt>
<rscale>  0 0.96587132E+03</rscale>
<asrwt>0</asrwt>
<pdfrwt beam="1">  1        1 0.19900840E+00 0.96587132E+03</pdfrwt>
<pdfrwt beam="2">  1       -1 0.17873971E+00 0.96587132E+03</pdfrwt>
<totfact> 0.19611771E+00</totfact>
</mgrwt>
</event>
<event>
12    1  0.1418317E-007  0.7495365E+03  0.7818608E-02  0.9636078E-01
         -2   -1    0    0    0  501 -0.00000000000E+00  0.00000000000E+00  0.80524286448E+03  0.80524286448E+03  0.00000000000E+00 0.  1.
          2   -1    0    0  501    0  0.00000000000E+00 -0.00000000000E+00 -0.87573400526E+03  0.87573400526E+03  0.00000000000E+00 0. -1.
         23    2    1    2    0    0  0.65273556911E+03 -0.29621710622E+03  0.99673222686E+02  0.73082098481E+03  0.10176572762E+03 0.  0.
    5000000    2    1    2    0    0 -0.65273556911E+03  0.29621710622E+03 -0.17016436347E+03  0.95015588493E+03  0.60002666429E+03 0.  0.
         23    2    4    4    0    0 -0.50295788272E+03  0.80967423560E+02 -0.34472756431E+03  0.62182853541E+03  0.91166212952E+02 0.  0.
         23    2    4    4    0    0 -0.14977768639E+03  0.21524968266E+03  0.17456320084E+03  0.32832734952E+03  0.92524354227E+02 0.  0.
          3    1    3    3  502    0  0.23316300391E+03 -0.15963766000E+03  0.31112642499E+02  0.28428360031E+03  0.00000000000E+00 0. -1.
         -3    1    3    3    0  502  0.41957256520E+03 -0.13657944622E+03  0.68560580187E+02  0.44653738450E+03  0.00000000000E+00 0.  1.
         13    1    5    5    0    0 -0.31041054972E+03  0.67686949158E+02 -0.16453213033E+03  0.35778073505E+03  0.00000000000E+00 0. -1.
        -13    1    5    5    0    0 -0.19254733300E+03  0.13280474402E+02 -0.18019543398E+03  0.26404780035E+03  0.00000000000E+00 0.  1.
          2    1    6    6  503    0 -0.10771177004E+03  0.12521848565E+03  0.57778764899E+02  0.17498537147E+03  0.00000000000E+00 0. -1.
         -2    1    6    6    0  503 -0.42065916350E+02  0.90031197014E+02  0.11678443594E+03  0.15334197805E+03  0.00000000000E+00 0.  1.
<mgrwt>
<rscale>  0 0.74953648E+03</rscale>
<asrwt>0</asrwt>
<pdfrwt beam="1">  1        2 0.13472831E+00 0.74953648E+03</pdfrwt>
<pdfrwt beam="2">  1       -2 0.12388352E+00 0.74953648E+03</pdfrwt>
<totfact> 0.15172083E+01</totfact>
</mgrwt>
</event>
<event>
12    1  0.1418317E-007  0.6505877E+03  0.7818608E-02  0.9805677E-01
         -1   -1    0    0    0  501 -0.00000000000E+00  0.00000000000E+00  0.13840673671E+04  0.13840673671E+04  0.00000000000E+00 0.  1.
          1   -1    0    0  501    0  0.00000000000E+00 -0.00000000000E+00 -0.33946204191E+03  0.33946204191E+03  0.00000000000E+00 0. -1.
         23    2    1    2    0    0 -0.20678164178E+03  0.48982295134E+03  0.24766391811E+03  0.59314898934E+03  0.88335362032E+02 0.  0.
    5000000    2    1    2    0    0  0.20678164178E+03 -0.48982295134E+03  0.79694140714E+03  0.11303804197E+04  0.59996592890E+03 0.  0.
         23    2    4    4    0    0  0.21149277133E+03 -0.59772517066E+03  0.54484519299E+03  0.84107179688E+03  0.92417050488E+02 0.  0.
         23    2    4    4    0    0 -0.47111295486E+01  0.10790221932E+03  0.25209621414E+03  0.28930862284E+03  0.92097200755E+02 0.  0.
          1    1    3    3  502    0 -0.14397219078E+03  0.22755466022E+03  0.12192313910E+03  0.29559155427E+03  0.00000000000E+00 0. -1.
         -1    1    3    3    0  502 -0.62809451001E+02  0.26226829111E+03  0.12574077901E+03  0.29755743507E+03  0.00000000000E+00 0.  1.
         11    1    5    5    0    0  0.21133501239E+03 -0.50899403388E+03  0.48402676558E+03  0.73349800530E+03  0.00000000000E+00 0.  1.
        -11    1    5    5    0    0  0.15775894116E+00 -0.88731136776E+02  0.60818427418E+02  0.10757379158E+03  0.00000000000E+00 0. -1.
          4    1    6    6  503    0  0.11078346806E+02  0.10586190863E+03  0.25181358462E+03  0.27338535964E+03  0.00000000000E+00 0.  1.
         -4    1    6    6    0  503 -0.15789476355E+02  0.20403106927E+01  0.28262951825E+00  0.15923263193E+02  0.00000000000E+00 0. -1.
<mgrwt>
<rscale>  0 0.65058769E+03</rscale>
<asrwt>0</asrwt>
<pdfrwt beam="1">  1        1 0.52224930E-01 0.65058769E+03</pdfrwt>
<pdfrwt beam="2">  1       -1 0.21293344E+00 0.65058769E+03</pdfrwt>
<totfact> 0.95774828E+00</totfact>
</mgrwt>
</event>
<event>
12    1  0.1418317E-007  0.6524163E+03  0.7818608E-02  0.9802256E-01
          1   -1    0    0  501    0  0.00000000000E+00  0.00000000000E+00  0.85056380391E+03  0.85056380391E+03  0.00000000000E+00 0. -1.
         -1   -1    0    0    0  501 -0.00000000000E+00 -0.00000000000E+00 -0.90354433010E+03  0.90354433010E+03  0.00000000000E+00 0.  1.
         23    2    1    2    0    0 -0.55861931946E+03  0.24059583248E+03 -0.49849392113E+03  0.79066771314E+03  0.81959407756E+02 0.  0.
    5000000    2    1    2    0    0  0.55861931946E+03 -0.24059583248E+03  0.44551339494E+03  0.96344042087E+03  0.59982777596E+03 0.  0.
         23    2    4    4    0    0  0.55479146825E+03 -0.21541227196E+03  0.10643195344E+03  0.61134131870E+03  0.90633476599E+02 0.  0.
         23    2    4    4    0    0  0.38278512103E+01 -0.25183560521E+02  0.33908144150E+03  0.35209910217E+03  0.91371164040E+02 0.  0.
          2    1    3    3  502    0 -0.36327045105E+03  0.11352884876E+03 -0.30261260004E+03  0.48623924750E+03  0.00000000000E+00 0. -1.
         -2    1    3    3    0  502 -0.19534886841E+03  0.12706698372E+03 -0.19588132108E+03  0.30442846564E+03  0.00000000000E+00 0.  1.
         11    1    5    5    0    0  0.16908647111E+03 -0.44210393725E+02 -0.51448671407E+01  0.17484639912E+03  0.00000000000E+00 0.  1.
        -11    1    5    5    0    0  0.38570499714E+03 -0.17120187824E+03  0.11157682058E+03  0.43649491958E+03  0.00000000000E+00 0. -1.
          4    1    6    6  503    0  0.33232042014E+02 -0.47181540760E+02  0.22308385625E+03  0.23042758803E+03  0.00000000000E+00 0. -1.
         -4    1    6    6    0  503 -0.29404190804E+02  0.21997980238E+02  0.11599758525E+03  0.12167151415E+03  0.00000000000E+00 0.  1.
<mgrwt>
<rscale>  0 0.65241634E+03</rscale>
<asrwt>0</asrwt>
<pdfrwt beam="1">  1        1 0.13085597E+00 0.65241634E+03</pdfrwt>
<pdfrwt beam="2">  1       -1 0.13900682E+00 0.65241634E+03</pdfrwt>
<totfact> 0.89461039E+00</totfact>
</mgrwt>
</event>
<event>
12    1  0.1418317E-007  0.1192104E+04  0.7818608E-02  0.9119796E-01
          2   -1    0    0  501    0  0.00000000000E+00  0.00000000000E+00  0.24611704862E+04  0.24611704862E+04  0.00000000000E+00 0.  1.
         -2   -1    0    0    0  501 -0.00000000000E+00 -0.00000000000E+00 -0.64872403819E+03  0.64872403819E+03  0.00000000000E+00 0. -1.
         23    2    1    2    0    0  0.11871149349E+04 -0.81583622093E+02  0.80817144908E+03  0.14412340835E+04  0.90093486125E+02 0.  0.
    5000000    2    1    2    0    0 -0.11871149349E+04  0.81583622093E+02  0.10042749989E+04  0.16686604409E+04  0.59996803047E+03 0.  0.
         23    2    4    4    0    0 -0.51030248261E+03  0.59557938152E+02  0.80099673155E+03  0.95608366549E+03  0.92436138506E+02 0.  0.
         23    2    4    4    0    0 -0.67681245227E+03  0.22025683940E+02  0.20327826737E+03  0.71257677542E+03  0.88788403417E+02 0.  0.
          2    1    3    3  502    0  0.40559984293E+03 -0.34865943555E+02  0.22623526572E+03  0.46573518448E+03  0.00000000000E+00 0. -1.
         -2    1    3    3    0  502  0.78151509195E+03 -0.46717678538E+02  0.58193618336E+03  0.97549889899E+03  0.00000000000E+00 0.  1.
         11    1    5    5    0    0 -0.42440417632E+03  0.49186836632E+02  0.72190384411E+03  0.83885839682E+03  0.00000000000E+00 0.  1.
        -11    1    5    5    0    0 -0.85898306289E+02  0.10371101520E+02  0.79092887439E+02  0.11722526866E+03  0.00000000000E+00 0. -1.
          2    1    6    6  503    0 -0.51101073129E+03  0.45270339459E+02  0.17931392882E+03  0.54344719725E+03  0.00000000000E+00 0. -1.
         -2    1    6    6    0  503 -0.16580172098E+03 -0.23244655519E+02  0.23964338548E+02  0.16912957817E+03  0.00000000000E+00 0.  1.
<mgrwt>
<rscale>  0 0.11921041E+04</rscale>
<asrwt>0</asrwt>
<pdfrwt beam="1">  1        2 0.37864161E+00 0.11921041E+04</pdfrwt>
<pdfrwt beam="2">  1       -2 0.99803700E-01 0.11921041E+04</pdfrwt>
<totfact> 0.29931474E+00</totfact>
</mgrwt>
</event>
<event>
12    1  0.1418317E-007  0.1064300E+04  0.7818608E-02  0.9240704E-01
          2   -1    0    0  501    0  0.00000000000E+00  0.00000000000E+00  0.23979042878E+04  0.23979042878E+04  0.00000000000E+00 0. -1.
         -2   -1    0    0    0  501 -0.00000000000E+00 -0.00000000000E+00 -0.55638421338E+03  0.55638421338E+03  0.00000000000E+00 0.  1.
         23    2    1    2    0    0  0.46704952210E+02  0.99916843630E+03  0.35615304252E+03  0.10656997462E+04  0.91389511096E+02 0.  0.
    5000000    2    1    2    0    0 -0.46704952210E+02 -0.99916843630E+03  0.14853670319E+04  0.18885887550E+04  0.59994445514E+03 0.  0.
         23    2    4    4    0    0  0.17762353755E+03 -0.78632730213E+03  0.12470753557E+04  0.14876900664E+04  0.90355097912E+02 0.  0.
         23    2    4    4    0    0 -0.22432848976E+03 -0.21284113416E+03  0.23829167620E+03  0.40089868855E+03  0.91171354209E+02 0.  0.
          3    1    3    3  502    0  0.29268298587E+02  0.37140523696E+03  0.17811866360E+03  0.41294641501E+03  0.00000000000E+00 0. -1.
         -3    1    3    3    0  502  0.17436653623E+02  0.62776319933E+03  0.17803437892E+03  0.65275333121E+03  0.00000000000E+00 0.  1.
         11    1    5    5    0    0  0.11645290593E+03 -0.51095155472E+03  0.88743436173E+03  0.10306175416E+04  0.00000000000E+00 0. -1.
        -11    1    5    5    0    0  0.61170631621E+02 -0.27537574741E+03  0.35964099398E+03  0.45707252486E+03  0.00000000000E+00 0.  1.
          4    1    6    6  503    0 -0.20140483045E+02  0.74991448614E+01  0.10647310070E+02  0.23984191516E+02  0.00000000000E+00 0. -1.
         -4    1    6    6    0  503 -0.20418800671E+03 -0.22034027902E+03  0.22764436613E+03  0.37691449704E+03  0.00000000000E+00 0.  1.
<mgrwt>
<rscale>  0 0.10642998E+04</rscale>
<asrwt>0</asrwt>
<pdfrwt beam="1">  1        2 0.36890835E+00 0.10642998E+04</pdfrwt>
<pdfrwt beam="2">  1       -2 0.85597573E-01 0.10642998E+04</pdfrwt>
<totfact> 0.47258646E+00</totfact>
</mgrwt>
</event>
<event>
12    1  0.1418317E-007  0.6827314E+03  0.7818608E-02  0.9747228E-01
          2   -1    0    0  501    0  0.00000000000E+00  0.00000000000E+00  0.47771731052E+04  0.47771731052E+04  0.00000000000E+00 0. -1.
         -2   -1    0    0    0  501 -0.00000000000E+00 -0.00000000000E+00 -0.15514127024E+03  0.15514127024E+03  0.00000000000E+00 0.  1.
         23    2    1    2    0    0  0.63695178922E+03  0.24053631229E+02  0.88636192429E+03  0.10954519299E+04  0.89951714316E+02 0.  0.
    5000000    2    1    2    0    0 -0.63695178922E+03 -0.24053631229E+02  0.37356699107E+04  0.38368624456E+04  0.59999798805E+03 0.  0.
         23    2    4    4    0    0 -0.51800614126E+03 -0.13690752369E+03  0.34660042541E+04  0.35083871566E+04  0.92308821896E+02 0.  0.
         23    2    4    4    0    0 -0.11894564796E+03  0.11285389246E+03  0.26966565655E+03  0.32847528896E+03  0.91062511053E+02 0.  0.
          3    1    3    3  502    0  0.10657535522E+03  0.26386306294E+02  0.11174737629E+03  0.15665892763E+03  0.00000000000E+00 0. -1.
         -3    1    3    3    0  502  0.53037643400E+03 -0.23326750654E+01  0.77461454800E+03  0.93879300226E+03  0.00000000000E+00 0.  1.
         13    1    5    5    0    0 -0.13902858115E+03 -0.61544858139E+02  0.12125637832E+04  0.12220587728E+04  0.00000000000E+00 0.  1.
        -13    1    5    5    0    0 -0.37897756011E+03 -0.75362665553E+02  0.22534404710E+04  0.22863283838E+04  0.00000000000E+00 0. -1.
          1    1    6    6  503    0 -0.44864896761E+02  0.10270348250E+03  0.14759923858E+03  0.18532781634E+03  0.00000000000E+00 0. -1.
         -1    1    6    6    0  503 -0.74080751195E+02  0.10150409959E+02  0.12206641797E+03  0.14314747261E+03  0.00000000000E+00 0.  1.
<mgrwt>
<rscale>  0 0.68273144E+03</rscale>
<asrwt>0</asrwt>
<pdfrwt beam="1">  1        2 0.73494960E+00 0.68273144E+03</pdfrwt>
<pdfrwt beam="2">  1       -2 0.23867891E-01 0.68273144E+03</pdfrwt>
<totfact> 0.11585183E+00</totfact>
</mgrwt>
</event>
<event>
12    1  0.1418317E-007  0.6585554E+03  0.7818608E-02  0.9790857E-01
          1   -1    0    0  501    0  0.00000000000E+00  0.00000000000E+00  0.15968242580E+04  0.15968242580E+04  0.00000000000E+00 0. -1.
         -1   -1    0    0    0  501 -0.00000000000E+00 -0.00000000000E+00 -0.14243675489E+04  0.14243675489E+04  0.00000000000E+00 0.  1.
         23    2    1    2    0    0 -0.60161136159E+03 -0.73912051937E+02  0.13988873403E+04  0.15272180439E+04  0.90055210849E+02 0.  0.
    5000000    2    1    2    0    0  0.60161136159E+03  0.73912051937E+02 -0.12264306311E+04  0.14939737630E+04  0.60035513634E+03 0.  0.
         23    2    4    4    0    0  0.10942482993E+03  0.14388812924E+03 -0.82214383635E+03  0.84660196042E+03  0.90204238266E+02 0.  0.
         23    2    4    4    0    0  0.49218653166E+03 -0.69976077298E+02 -0.40428679479E+03  0.64737180258E+03  0.92185709276E+02 0.  0.
          1    1    3    3  502    0 -0.46364662734E+03 -0.18508903608E+02  0.10475697511E+04  0.11457369497E+04  0.00000000000E+00 0. -1.
         -1    1    3    3    0  502 -0.13796473425E+03 -0.55403148330E+02  0.35131758920E+03  0.38148109418E+03  0.00000000000E+00 0.  1.
         11    1    5    5    0    0  0.43105274310E+01  0.76283207528E+02 -0.34531027484E+03  0.35366211885E+03  0.00000000000E+00 0.  1.
        -11    1    5    5    0    0  0.10511430250E+03  0.67604921708E+02 -0.47683356151E+03  0.49293984157E+03  0.00000000000E+00 0. -1.
          2    1    6    6  503    0  0.38536421647E+03 -0.22154094174E+02 -0.33673957146E+03  0.51224010211E+03  0.00000000000E+00 0. -1.
         -2    1    6    6    0  503  0.10682231519E+03 -0.47821983125E+02 -0.67547223334E+02  0.13513170047E+03  0.00000000000E+00 0.  1.
<mgrwt>
<rscale>  0 0.65855535E+03</rscale>
<asrwt>0</asrwt>
<pdfrwt beam="1">  1        1 0.24566527E+00 0.65855535E+03</pdfrwt>
<pdfrwt beam="2">  1       -1 0.21913347E+00 0.65855535E+03</pdfrwt>
<totfact> 0.67629900E-01</totfact>
</mgrwt>
</event>
<event>
12    1  0.1418317E-007  0.4568834E+03  0.7818608E-02  0.1025689E+00
          1   -1    0    0  501    0  0.00000000000E+00  0.00000000000E+00  0.93989561108E+03  0.93989561108E+03  0.00000000000E+00 0. -1.
         -1   -1    0    0    0  501 -0.00000000000E+00 -0.00000000000E+00 -0.44623203658E+03  0.44623203658E+03  0.00000000000E+00 0.  1.
         23    2    1    2    0    0  0.15230425548E+03 -0.39681080115E+03 -0.93894099539E+02  0.44486491596E+03  0.91832964574E+02 0.  0.
    5000000    2    1    2    0    0 -0.15230425548E+03  0.39681080115E+03  0.58755767404E+03  0.94126273169E+03  0.60008008766E+03 0.  0.
         23    2    4    4    0    0 -0.63681924363E+02  0.34096923010E+03  0.68432448682E+03  0.77256793578E+03  0.90806435708E+02 0.  0.
         23    2    4    4    0    0 -0.88622331120E+02  0.55841571045E+02 -0.96766812786E+02  0.16869479591E+03  0.90121692620E+02 0.  0.
          2    1    3    3  502    0  0.88768695353E+02 -0.26460438035E+03 -0.17910089705E+02  0.27967146921E+03  0.00000000000E+00 0. -1.
         -2    1    3    3    0  502  0.63535560130E+02 -0.13220642079E+03 -0.75984009834E+02  0.16519344676E+03  0.00000000000E+00 0.  1.
         13    1    5    5    0    0  0.21721718267E+02  0.40786010362E+02  0.98263573961E+02  0.10858665504E+03  0.00000000000E+00 0.  1.
        -13    1    5    5    0    0 -0.85403642629E+02  0.30018321974E+03  0.58606091286E+03  0.66398128074E+03  0.00000000000E+00 0. -1.
          2    1    6    6  503    0 -0.88942111478E+02  0.71440437405E+02 -0.60314161891E+02  0.12904353302E+03  0.00000000000E+00 0. -1.
         -2    1    6    6    0  503  0.31978035778E+00 -0.15598866360E+02 -0.36452650895E+02  0.39651262886E+02  0.00000000000E+00 0.  1.
<mgrwt>
<rscale>  0 0.45688336E+03</rscale>
<asrwt>0</asrwt>
<pdfrwt beam="1">  1        1 0.14459932E+00 0.45688336E+03</pdfrwt>
<pdfrwt beam="2">  1       -1 0.68651083E-01 0.45688336E+03</pdfrwt>
<totfact> 0.38655504E+01</totfact>
</mgrwt>
</event>
<event>
12    1  0.1418317E-007  0.4915784E+03  0.7818608E-02  0.1016001E+00
          2   -1    0    0  501    0  0.00000000000E+00  0.00000000000E+00  0.13006110818E+04  0.13006110818E+04  0.00000000000E+00 0. -1.
         -2   -1    0    0    0  501 -0.00000000000E+00 -0.00000000000E+00 -0.24962537996E+03  0.24962537996E+03  0.00000000000E+00 0.  1.
         23    2    1    2    0    0 -0.13629771359E+03 -0.34078113217E+03  0.14916598893E+03  0.40655952360E+03  0.91275994670E+02 0.  0.
    5000000    2    1    2    0    0  0.13629771359E+03  0.34078113217E+03  0.90181971295E+03  0.11436769382E+04  0.60000774789E+03 0.  0.
         23    2    4    4    0    0  0.20056094297E+03  0.43727588217E+03  0.86061083038E+03  0.99002808525E+03  0.89831616043E+02 0.  0.
         23    2    4    4    0    0 -0.64263229377E+02 -0.96494749997E+02  0.41208882563E+02  0.15364885295E+03  0.92026075561E+02 0.  0.
          2    1    3    3  502    0 -0.10560484708E+03 -0.29370755311E+03  0.15774239529E+03  0.34971298768E+03  0.00000000000E+00 0. -1.
         -2    1    3    3    0  502 -0.30692866507E+02 -0.47073579062E+02 -0.85764063586E+01  0.56846535920E+02  0.00000000000E+00 0.  1.
         11    1    5    5    0    0  0.18377737578E+03  0.42556289973E+03  0.84668286386E+03  0.96527186711E+03  0.00000000000E+00 0. -1.
        -11    1    5    5    0    0  0.16783567191E+02  0.11712982432E+02  0.13927966521E+02  0.24756218139E+02  0.00000000000E+00 0.  1.
          3    1    6    6  503    0 -0.26807795916E+02 -0.88578269919E+02  0.60713362006E+02  0.11068369415E+03  0.00000000000E+00 0. -1.
         -3    1    6    6    0  503 -0.37455433461E+02 -0.79164800780E+01 -0.19504479442E+02  0.42965158802E+02  0.00000000000E+00 0.  1.
<mgrwt>
<rscale>  0 0.49157841E+03</rscale>
<asrwt>0</asrwt>
<pdfrwt beam="1">  1        2 0.20009401E+00 0.49157841E+03</pdfrwt>
<pdfrwt beam="2">  1       -2 0.38403905E-01 0.49157841E+03</pdfrwt>
<totfact> 0.11027029E+02</totfact>
</mgrwt>
</event>
<event>
12    1  0.1418317E-007  0.9206530E+03  0.7818608E-02  0.9400126E-01
          2   -1    0    0  501    0  0.00000000000E+00  0.00000000000E+00  0.83505717207E+03  0.83505717207E+03  0.00000000000E+00 0.  1.
         -2   -1    0    0    0  501 -0.00000000000E+00 -0.00000000000E+00 -0.11361454352E+04  0.11361454352E+04  0.00000000000E+00 0. -1.
         23    2    1    2    0    0  0.58568401999E+03 -0.64866200022E+03 -0.40200546990E+02  0.87953639484E+03  0.90443485503E+02 0.  0.
    5000000    2    1    2    0    0 -0.58568401999E+03  0.64866200022E+03 -0.26088771617E+03  0.10916662125E+04  0.59990378993E+03 0.  0.
         23    2    4    4    0    0 -0.52036936599E+03  0.68217597918E+03 -0.36243578044E+03  0.93585997008E+03  0.91246068488E+02 0.  0.
         23    2    4    4    0    0 -0.65314654001E+02 -0.33513978960E+02  0.10154806428E+03  0.15580624238E+03  0.92597975108E+02 0.  0.
          4    1    3    3  502    0  0.14583255158E+03 -0.17860218295E+03 -0.48959680632E+02  0.23571788897E+03  0.00000000000E+00 0.  1.
         -4    1    3    3    0  502  0.43985146841E+03 -0.47005981728E+03  0.87591336419E+01  0.64381850587E+03  0.00000000000E+00 0. -1.
         11    1    5    5    0    0 -0.33066268030E+03  0.48368867233E+03 -0.21422603541E+03  0.62384720415E+03  0.00000000000E+00 0. -1.
        -11    1    5    5    0    0 -0.18970668569E+03  0.19848730686E+03 -0.14820974503E+03  0.31201276593E+03  0.00000000000E+00 0.  1.
          4    1    6    6  503    0 -0.22456067101E+02 -0.54373444970E+02  0.88708099247E+02  0.10644187775E+03  0.00000000000E+00 0.  1.
         -4    1    6    6    0  503 -0.42858586900E+02  0.20859466010E+02  0.12839965028E+02  0.49364364629E+02  0.00000000000E+00 0. -1.
<mgrwt>
<rscale>  0 0.92065303E+03</rscale>
<asrwt>0</asrwt>
<pdfrwt beam="1">  1        2 0.12847033E+00 0.92065303E+03</pdfrwt>
<pdfrwt beam="2">  1       -2 0.17479161E+00 0.92065303E+03</pdfrwt>
<totfact> 0.64064433E+00</totfact>
</mgrwt>
</event>
<event>
12    1  0.1418317E-007  0.4348111E+03  0.7818608E-02  0.1032351E+00
         -1   -1    0    0    0  501 -0.00000000000E+00  0.00000000000E+00  0.33790441916E+03  0.33790441916E+03  0.00000000000E+00 0.  1.
          1   -1    0    0  501    0  0.00000000000E+00 -0.00000000000E+00 -0.92905843887E+03  0.92905843887E+03  0.00000000000E+00 0. -1.
         23    2    1    2    0    0  0.38571434829E+03  0.35835878924E+02 -0.13811713253E+03  0.42116859219E+03  0.90812290212E+02 0.  0.
    5000000    2    1    2    0    0 -0.38571434829E+03 -0.35835878924E+02 -0.45303688718E+03  0.84579426585E+03  0.60005478942E+03 0.  0.
         23    2    4    4    0    0 -0.57608151343E+02  0.90139625478E+02 -0.46119059844E+03  0.48207352291E+03  0.90852970369E+02 0.  0.
         23    2    4    4    0    0 -0.32810619694E+03 -0.12597550440E+03  0.81537112627E+01  0.36372074294E+03  0.93288754158E+02 0.  0.
          4    1    3    3  502    0  0.18812144297E+03 -0.13132672960E+02 -0.10207302548E+03  0.21443191678E+03  0.00000000000E+00 0. -1.
         -4    1    3    3    0  502  0.19759290532E+03  0.48968551883E+02 -0.36044107058E+02  0.20673667541E+03  0.00000000000E+00 0.  1.
         11    1    5    5    0    0 -0.59952125867E+02  0.35784084661E+02 -0.14151567532E+03  0.15780191530E+03  0.00000000000E+00 0.  1.
        -11    1    5    5    0    0  0.23439745242E+01  0.54355540817E+02 -0.31967492312E+03  0.32427160762E+03  0.00000000000E+00 0. -1.
          3    1    6    6  503    0 -0.26025903051E+03 -0.84063948004E+02  0.42698884799E+02  0.27681167800E+03  0.00000000000E+00 0. -1.
         -3    1    6    6    0  503 -0.67847166433E+02 -0.41911556398E+02 -0.34545173536E+02  0.86909064932E+02  0.00000000000E+00 0.  1.
<mgrwt>
<rscale>  0 0.43481111E+03</rscale>
<asrwt>0</asrwt>
<pdfrwt beam="1">  1        1 0.14293207E+00 0.43481111E+03</pdfrwt>
<pdfrwt beam="2">  1       -1 0.51985295E-01 0.43481111E+03</pdfrwt>
<totfact> 0.68046490E+01</totfact>
</mgrwt>
</event>
<event>
12    1  0.1418317E-007  0.5796362E+03  0.7818608E-02  0.9948579E-01
         -2   -1    0    0    0  501 -0.00000000000E+00  0.00000000000E+00  0.36435924473E+03  0.36435924473E+03  0.00000000000E+00 0.  1.
          2   -1    0    0  501    0  0.00000000000E+00 -0.00000000000E+00 -0.44641431523E+04  0.44641431523E+04  0.00000000000E+00 0. -1.
         23    2    1    2    0    0 -0.26054510746E+03  0.37773717088E+03  0.16618387297E+03  0.49615261881E+03  0.89337664129E+02 0.  0.
    5000000    2    1    2    0    0  0.26054510746E+03 -0.37773717088E+03 -0.42659677806E+04  0.43323497782E+04  0.60017028659E+03 0.  0.
         23    2    4    4    0    0  0.41871362521E+03 -0.27773590558E+03 -0.23378150016E+04  0.23929779483E+04  0.92228772712E+02 0.  0.
         23    2    4    4    0    0 -0.15816851774E+03 -0.10000126530E+03 -0.19281527790E+04  0.19393718299E+04  0.91500941956E+02 0.  0.
          3    1    3    3  502    0 -0.49046463818E+02  0.12897836757E+03  0.24169115992E+02  0.14008968942E+03  0.00000000000E+00 0. -1.
         -3    1    3    3    0  502 -0.21149864365E+03  0.24875880331E+03  0.14201475697E+03  0.35606292939E+03  0.00000000000E+00 0.  1.
         13    1    5    5    0    0  0.13016324746E+03 -0.51148511517E+02 -0.51788750387E+03  0.53643835423E+03  0.00000000000E+00 0. -1.
        -13    1    5    5    0    0  0.28855037775E+03 -0.22658739406E+03 -0.18199274977E+04  0.18565395941E+04  0.00000000000E+00 0.  1.
          3    1    6    6  503    0 -0.42080808237E+02 -0.17298506569E+02 -0.92788111368E+03  0.92899590627E+03  0.00000000000E+00 0. -1.
         -3    1    6    6    0  503 -0.11608770951E+03 -0.82702758727E+02 -0.10002716653E+04  0.10103759236E+04  0.00000000000E+00 0.  1.
<mgrwt>
<rscale>  0 0.57963618E+03</rscale>
<asrwt>0</asrwt>
<pdfrwt beam="1">  1        2 0.68679125E+00 0.57963618E+03</pdfrwt>
<pdfrwt beam="2">  1       -2 0.56055269E-01 0.57963618E+03</pdfrwt>
<totfact> 0.47993880E-01</totfact>
</mgrwt>
</event>
<event>
12    1  0.1418317E-007  0.1683043E+04  0.7818608E-02  0.8771095E-01
         -1   -1    0    0    0  501 -0.00000000000E+00  0.00000000000E+00  0.58770611637E+03  0.58770611637E+03  0.00000000000E+00 0. -1.
          1   -1    0    0  501    0  0.00000000000E+00 -0.00000000000E+00 -0.49532635345E+04  0.49532635345E+04  0.00000000000E+00 0.  1.
         23    2    1    2    0    0  0.13842933422E+04 -0.87274674722E+03 -0.17477418756E+04  0.23959980158E+04  0.90828880860E+02 0.  0.
    5000000    2    1    2    0    0 -0.13842933422E+04  0.87274674722E+03 -0.26178155425E+04  0.31449716351E+04  0.59994452142E+03 0.  0.
         23    2    4    4    0    0  0.12993233897E+02  0.77844627027E+02 -0.10440199809E+03  0.16000417898E+03  0.92048628452E+02 0.  0.
         23    2    4    4    0    0 -0.13972865761E+04  0.79490212019E+03 -0.25134135444E+04  0.29849674561E+04  0.92216659429E+02 0.  0.
          1    1    3    3  502    0  0.36324653828E+03 -0.22930856993E+03 -0.40161176703E+03  0.58806673026E+03  0.00000000000E+00 0. -1.
         -1    1    3    3    0  502  0.10210468040E+04 -0.64343817728E+03 -0.13461301086E+04  0.18079312855E+04  0.00000000000E+00 0.  1.
         13    1    5    5    0    0  0.51323791958E+02  0.31367732638E+02 -0.42673253499E+02  0.73750070074E+02  0.00000000000E+00 0. -1.
        -13    1    5    5    0    0 -0.38330558061E+02  0.46476894389E+02 -0.61728744594E+02  0.86254108902E+02  0.00000000000E+00 0.  1.
          4    1    6    6  503    0 -0.19225798139E+02  0.22076245876E+02 -0.33253182136E+02  0.44303115784E+02  0.00000000000E+00 0.  1.
         -4    1    6    6    0  503 -0.13780607780E+04  0.77282587431E+03 -0.24801603623E+04  0.29406643403E+04  0.00000000000E+00 0. -1.
<mgrwt>
<rscale>  0 0.16830433E+04</rscale>
<asrwt>0</asrwt>
<pdfrwt beam="1">  1        1 0.76204052E+00 0.16830433E+04</pdfrwt>
<pdfrwt beam="2">  1       -1 0.90416328E-01 0.16830433E+04</pdfrwt>
<totfact> 0.11427697E-02</totfact>
</mgrwt>
</event>
<event>
12    1  0.1418317E-007  0.9999489E+03  0.7818608E-02  0.9308601E-01
          1   -1    0    0  501    0  0.00000000000E+00  0.00000000000E+00  0.26010087293E+04  0.26010087293E+04  0.00000000000E+00 0. -1.
         -1   -1    0    0    0  501 -0.00000000000E+00 -0.00000000000E+00 -0.41143690902E+03  0.41143690902E+03  0.00000000000E+00 0.  1.
         23    2    1    2    0    0  0.72237348431E+02  0.91383192269E+03  0.13416684131E+04  0.16279802141E+04  0.99691672435E+02 0.  0.
    5000000    2    1    2    0    0 -0.72237348431E+02 -0.91383192269E+03  0.84790340718E+03  0.13844654242E+04  0.59791078375E+03 0.  0.
         23    2    4    4    0    0 -0.27713630910E+03 -0.23966509119E+03  0.37408740035E+03  0.53078378759E+03  0.86868615212E+02 0.  0.
         23    2    4    4    0    0  0.20489896067E+03 -0.67416683150E+03  0.47381600683E+03  0.85368163656E+03  0.88239602762E+02 0.  0.
          1    1    3    3  502    0 -0.43842896252E+01  0.54016595253E+03  0.81166954422E+03  0.97499021907E+03  0.00000000000E+00 0. -1.
         -1    1    3    3    0  502  0.76621638056E+02  0.37366597016E+03  0.52999886886E+03  0.65298999507E+03  0.00000000000E+00 0.  1.
         11    1    5    5    0    0 -0.17980705268E+03 -0.11223922749E+03  0.17304190064E+03  0.27362697192E+03  0.00000000000E+00 0. -1.
        -11    1    5    5    0    0 -0.97329256423E+02 -0.12742586370E+03  0.20104549971E+03  0.25715681568E+03  0.00000000000E+00 0.  1.
          3    1    6    6  503    0  0.17367251479E+03 -0.50735659779E+03  0.31899430482E+03  0.62396332121E+03  0.00000000000E+00 0. -1.
         -3    1    6    6    0  503  0.31226445884E+02 -0.16681023371E+03  0.15482170201E+03  0.22971831534E+03  0.00000000000E+00 0.  1.
<mgrwt>
<rscale>  0 0.99994892E+03</rscale>
<asrwt>0</asrwt>
<pdfrwt beam="1">  1        1 0.40015518E+00 0.99994892E+03</pdfrwt>
<pdfrwt beam="2">  1       -1 0.63297988E-01 0.99994892E+03</pdfrwt>
<totfact> 0.29760754E+00</totfact>
</mgrwt>
</event>
<event>
12    1  0.1418317E-007  0.1840910E+04  0.7818608E-02  0.8684842E-01
         -1   -1    0    0    0  501 -0.00000000000E+00  0.00000000000E+00  0.11523787904E+04  0.11523787904E+04  0.00000000000E+00 0.  1.
          1   -1    0    0  501    0  0.00000000000E+00 -0.00000000000E+00 -0.31475520299E+04  0.31475520299E+04  0.00000000000E+00 0. -1.
         23    2    1    2    0    0 -0.40820026251E+02 -0.18343342295E+04 -0.65670517762E+03  0.19509069859E+04  0.91258080831E+02 0.  0.
    5000000    2    1    2    0    0  0.40820026251E+02  0.18343342295E+04 -0.13384680619E+04  0.23490238344E+04  0.59997323438E+03 0.  0.
         23    2    4    4    0    0 -0.72789780554E+02  0.70555910719E+03 -0.84924746118E+03  0.11101539059E+04  0.90046868740E+02 0.  0.
         23    2    4    4    0    0  0.11360980680E+03  0.11287751223E+04 -0.48922060069E+03  0.12388699285E+04  0.91768397132E+02 0.  0.
          3    1    3    3  502    0 -0.29611896848E+02 -0.98984615768E+03 -0.40199648524E+03  0.10687719375E+04  0.00000000000E+00 0. -1.
         -3    1    3    3    0  502 -0.11208129402E+02 -0.84448807181E+03 -0.25470869237E+03  0.88213504837E+03  0.00000000000E+00 0.  1.
         13    1    5    5    0    0 -0.11271624324E+01  0.43744108604E+02 -0.24074354273E+02  0.49943889179E+02  0.00000000000E+00 0. -1.
        -13    1    5    5    0    0 -0.71662618121E+02  0.66181499858E+03 -0.82517310691E+03  0.10602100167E+04  0.00000000000E+00 0.  1.
          1    1    6    6  503    0  0.95060065580E+02  0.52957929284E+03 -0.25243269478E+03  0.59431717867E+03  0.00000000000E+00 0. -1.
         -1    1    6    6    0  503  0.18549741224E+02  0.59919582946E+03 -0.23678790591E+03  0.64455274984E+03  0.00000000000E+00 0.  1.
<mgrwt>
<rscale>  0 0.18409099E+04</rscale>
<asrwt>0</asrwt>
<pdfrwt beam="1">  1        1 0.48423878E+00 0.18409099E+04</pdfrwt>
<pdfrwt beam="2">  1       -1 0.17728904E+00 0.18409099E+04</pdfrwt>
<totfact> 0.92423868E-02</totfact>
</mgrwt>
</event>
<event>
12    1  0.1418317E-007  0.6978156E+03  0.7818608E-02  0.9720975E-01
          2   -1    0    0  501    0  0.00000000000E+00  0.00000000000E+00  0.14719205576E+04  0.14719205576E+04  0.00000000000E+00 0.  1.
         -2   -1    0    0    0  501 -0.00000000000E+00 -0.00000000000E+00 -0.96321328135E+03  0.96321328135E+03  0.00000000000E+00 0. -1.
         23    2    1    2    0    0 -0.51724280680E+03 -0.27869706514E+03 -0.72818380506E+03  0.94010491991E+03  0.91287628786E+02 0.  0.
    5000000    2    1    2    0    0  0.51724280680E+03  0.27869706514E+03  0.12368910813E+04  0.14950289190E+04  0.59999978870E+03 0.  0.
         23    2    4    4    0    0  0.39865235596E+03 -0.83073219633E+02  0.83435794307E+03  0.93289385161E+03  0.91175108856E+02 0.  0.
         23    2    4    4    0    0  0.11859045085E+03  0.36177028477E+03  0.40253313820E+03  0.56213506740E+03  0.94981433304E+02 0.  0.
          4    1    3    3  502    0 -0.45545687326E+03 -0.24961947537E+03 -0.68372425654E+03  0.85862081553E+03  0.00000000000E+00 0. -1.
         -4    1    3    3    0  502 -0.61785933547E+02 -0.29077589771E+02 -0.44459548521E+02  0.81484104376E+02  0.00000000000E+00 0.  1.
         13    1    5    5    0    0  0.29977697568E+03 -0.21654622478E+02  0.58420003435E+03  0.65698161158E+03  0.00000000000E+00 0.  1.
        -13    1    5    5    0    0  0.98875380280E+02 -0.61418597155E+02  0.25015790872E+03  0.27591224003E+03  0.00000000000E+00 0. -1.
          1    1    6    6  503    0  0.11879878387E+03  0.22668906084E+03  0.24073017112E+03  0.35135750546E+03  0.00000000000E+00 0. -1.
         -1    1    6    6    0  503 -0.20833302198E+00  0.13508122393E+03  0.16180296708E+03  0.21077756194E+03  0.00000000000E+00 0.  1.
<mgrwt>
<rscale>  0 0.69781565E+03</rscale>
<asrwt>0</asrwt>
<pdfrwt beam="1">  1        2 0.22644932E+00 0.69781565E+03</pdfrwt>
<pdfrwt beam="2">  1       -2 0.14818666E+00 0.69781565E+03</pdfrwt>
<totfact> 0.42149783E+00</totfact>
</mgrwt>
</event>
<event>
12    1  0.1418317E-007  0.3177347E+03  0.7818608E-02  0.1076697E+00
          2   -1    0    0  501    0  0.00000000000E+00  0.00000000000E+00  0.14211277115E+04  0.14211277115E+04  0.00000000000E+00 0.  1.
         -2   -1    0    0    0  501 -0.00000000000E+00 -0.00000000000E+00 -0.92842277568E+02  0.92842277568E+02  0.00000000000E+00 0. -1.
         23    2    1    2    0    0 -0.59717230861E+00  0.80580180794E+02  0.23121319943E+03  0.26093802939E+03  0.90197502390E+02 0.  0.
    5000000    2    1    2    0    0  0.59717230861E+00 -0.80580180794E+02  0.10970722345E+04  0.12530319597E+04  0.60002340131E+03 0.  0.
         23    2    4    4    0    0 -0.12512228227E+01 -0.31502553751E+03  0.43930793464E+03  0.54862322119E+03  0.93559192798E+02 0.  0.
         23    2    4    4    0    0  0.18483951313E+01  0.23444535672E+03  0.65776429986E+03  0.70440873848E+03  0.92572970309E+02 0.  0.
          1    1    3    3  502    0  0.17863565280E+01  0.66288041653E+01 -0.80008953320E+01  0.10542601217E+02  0.00000000000E+00 0. -1.
         -1    1    3    3    0  502 -0.23835288366E+01  0.73951376629E+02  0.23921409476E+03  0.25039542817E+03  0.00000000000E+00 0.  1.
         11    1    5    5    0    0 -0.71169138571E+00 -0.60402103274E+02  0.32217784258E+02  0.68460983100E+02  0.00000000000E+00 0.  1.
        -11    1    5    5    0    0 -0.53953143695E+00 -0.25462343424E+03  0.40709015038E+03  0.48016223809E+03  0.00000000000E+00 0. -1.
          1    1    6    6  503    0  0.23971841888E+02  0.78540817786E+02  0.33989790451E+03  0.34967684332E+03  0.00000000000E+00 0. -1.
         -1    1    6    6    0  503 -0.22123446757E+02  0.15590453893E+03  0.31786639534E+03  0.35473189516E+03  0.00000000000E+00 0.  1.
<mgrwt>
<rscale>  0 0.31773472E+03</rscale>
<asrwt>0</asrwt>
<pdfrwt beam="1">  1        2 0.21863502E+00 0.31773472E+03</pdfrwt>
<pdfrwt beam="2">  1       -2 0.14283428E-01 0.31773472E+03</pdfrwt>
<totfact> 0.55824338E+02</totfact>
</mgrwt>
</event>
<event>
12    1  0.1418317E-007  0.1453629E+04  0.7818608E-02  0.8915888E-01
          1   -1    0    0  501    0  0.00000000000E+00  0.00000000000E+00  0.28550030878E+04  0.28550030878E+04  0.00000000000E+00 0. -1.
         -1   -1    0    0    0  501 -0.00000000000E+00 -0.00000000000E+00 -0.86693076267E+03  0.86693076267E+03  0.00000000000E+00 0.  1.
         23    2    1    2    0    0 -0.32660076306E+03 -0.14047218096E+04  0.41253526185E+03  0.15033290136E+04  0.99505578280E+02 0.  0.
    5000000    2    1    2    0    0  0.32660076306E+03  0.14047218096E+04  0.15755370633E+04  0.22186048368E+04  0.59998246944E+03 0.  0.
         23    2    4    4    0    0  0.11923614092E+03  0.85769520753E+03  0.53650751279E+03  0.10227631879E+04  0.91355902761E+02 0.  0.
         23    2    4    4    0    0  0.20736462214E+03  0.54702660205E+03  0.10390295505E+04  0.11958416489E+04  0.90645753848E+02 0.  0.
          4    1    3    3  502    0 -0.18163854837E+03 -0.97082963168E+03  0.29983148919E+03  0.10321829576E+04  0.00000000000E+00 0. -1.
         -4    1    3    3    0  502 -0.14496221469E+03 -0.43389217791E+03  0.11270377267E+03  0.47114605603E+03  0.00000000000E+00 0.  1.
         13    1    5    5    0    0 -0.90926711507E+01  0.22340189725E+03  0.14061503339E+03  0.26412813553E+03  0.00000000000E+00 0. -1.
        -13    1    5    5    0    0  0.12832881207E+03  0.63429331028E+03  0.39589247940E+03  0.75863505239E+03  0.00000000000E+00 0.  1.
          3    1    6    6  503    0  0.29025248941E+02  0.20662291614E+02  0.76474042955E+02  0.84366312096E+02  0.00000000000E+00 0. -1.
         -3    1    6    6    0  503  0.17833937320E+03  0.52636431044E+03  0.96255550751E+03  0.11114753368E+04  0.00000000000E+00 0.  1.
<mgrwt>
<rscale>  0 0.14536293E+04</rscale>
<asrwt>0</asrwt>
<pdfrwt beam="1">  1        1 0.43923124E+00 0.14536293E+04</pdfrwt>
<pdfrwt beam="2">  1       -1 0.13337396E+00 0.14536293E+04</pdfrwt>
<totfact> 0.34670050E-01</totfact>
</mgrwt>
</event>
<event>
12    1  0.1418317E-007  0.7538944E+03  0.7818608E-02  0.9629260E-01
          2   -1    0    0  501    0  0.00000000000E+00  0.00000000000E+00  0.14833646606E+04  0.14833646606E+04  0.00000000000E+00 0. -1.
         -2   -1    0    0    0  501 -0.00000000000E+00 -0.00000000000E+00 -0.60855873171E+03  0.60855873171E+03  0.00000000000E+00 0.  1.
         23    2    1    2    0    0 -0.15701713359E+03 -0.69958042915E+03  0.90222375517E+03  0.11559409890E+04  0.90137164997E+02 0.  0.
    5000000    2    1    2    0    0  0.15701713359E+03  0.69958042915E+03 -0.27417826241E+02  0.93598240336E+03  0.60103591001E+03 0.  0.
         23    2    4    4    0    0 -0.66797672409E+02  0.40501781010E+03  0.22756182705E+03  0.47756369801E+03  0.88211932219E+02 0.  0.
         23    2    4    4    0    0  0.22381480600E+03  0.29456261905E+03 -0.25497965329E+03  0.45841870536E+03  0.90955384139E+02 0.  0.
          3    1    3    3  502    0 -0.13129091264E+03 -0.43930021476E+03  0.52667195840E+03  0.69828742950E+03  0.00000000000E+00 0. -1.
         -3    1    3    3    0  502 -0.25726220953E+02 -0.26028021439E+03  0.37555179677E+03  0.45765355948E+03  0.00000000000E+00 0.  1.
         11    1    5    5    0    0 -0.43423161657E+02  0.35922015923E+03  0.22499081540E+03  0.42608163629E+03  0.00000000000E+00 0.  1.
        -11    1    5    5    0    0 -0.23374510752E+02  0.45797650870E+02  0.25710116500E+01  0.51482061721E+02  0.00000000000E+00 0. -1.
          2    1    6    6  503    0  0.14969587643E+03  0.23836534176E+03 -0.22605805907E+03  0.36101127080E+03  0.00000000000E+00 0. -1.
         -2    1    6    6    0  503  0.74118929567E+02  0.56197277284E+02 -0.28921594220E+02  0.97407434555E+02  0.00000000000E+00 0.  1.
<mgrwt>
<rscale>  0 0.75389436E+03</rscale>
<asrwt>0</asrwt>
<pdfrwt beam="1">  1        2 0.22820995E+00 0.75389436E+03</pdfrwt>
<pdfrwt beam="2">  1       -2 0.93624421E-01 0.75389436E+03</pdfrwt>
<totfact> 0.12804303E+01</totfact>
</mgrwt>
</event>
<event>
12    1  0.1418317E-007  0.6030789E+03  0.7818608E-02  0.9899039E-01
          2   -1    0    0  501    0  0.00000000000E+00  0.00000000000E+00  0.41450770185E+04  0.41450770185E+04  0.00000000000E+00 0. -1.
         -2   -1    0    0    0  501 -0.00000000000E+00 -0.00000000000E+00 -0.28303811215E+03  0.28303811215E+03  0.00000000000E+00 0.  1.
         23    2    1    2    0    0  0.38765499129E+03 -0.29938613491E+03  0.35628463935E+04  0.35974284641E+04  0.87799093342E+02 0.  0.
    5000000    2    1    2    0    0 -0.38765499129E+03  0.29938613491E+03  0.29919251283E+03  0.83068666651E+03  0.60051288757E+03 0.  0.
         23    2    4    4    0    0 -0.33073087164E+03 -0.58664326275E+02 -0.62310748428E+01  0.34789211513E+03  0.90364178967E+02 0.  0.
         23    2    4    4    0    0 -0.56924119643E+02  0.35805046118E+03  0.30542358767E+03  0.48279455138E+03  0.91468698381E+02 0.  0.
          1    1    3    3  502    0  0.12932175177E+03 -0.14742688526E+03  0.12627894186E+04  0.12779264132E+04  0.00000000000E+00 0. -1.
         -1    1    3    3    0  502  0.25833323952E+03 -0.15195924965E+03  0.23000569749E+04  0.23195020509E+04  0.00000000000E+00 0.  1.
         11    1    5    5    0    0 -0.31785035202E+02 -0.18020546725E+02 -0.27075971618E+02  0.45476772160E+02  0.00000000000E+00 0. -1.
        -11    1    5    5    0    0 -0.29894583644E+03 -0.40643779550E+02  0.20844896775E+02  0.30241534297E+03  0.00000000000E+00 0.  1.
          2    1    6    6  503    0  0.10927931285E+02  0.19750142633E+03  0.13861536867E+03  0.24153768550E+03  0.00000000000E+00 0. -1.
         -2    1    6    6    0  503 -0.67852050928E+02  0.16054903485E+03  0.16680821900E+03  0.24125686588E+03  0.00000000000E+00 0.  1.
<mgrwt>
<rscale>  0 0.60307888E+03</rscale>
<asrwt>0</asrwt>
<pdfrwt beam="1">  1        2 0.63770411E+00 0.60307888E+03</pdfrwt>
<pdfrwt beam="2">  1       -2 0.43544328E-01 0.60307888E+03</pdfrwt>
<totfact> 0.15100238E+00</totfact>
</mgrwt>
</event>
<event>
12    1  0.1418317E-007  0.6897643E+03  0.7818608E-02  0.9734899E-01
         -2   -1    0    0    0  501 -0.00000000000E+00  0.00000000000E+00  0.39245614269E+03  0.39245614269E+03  0.00000000000E+00 0.  1.
          2   -1    0    0  501    0  0.00000000000E+00 -0.00000000000E+00 -0.14755572160E+04  0.14755572160E+04  0.00000000000E+00 0. -1.
         23    2    1    2    0    0  0.39575783899E+03 -0.49646755959E+03 -0.36869831564E+03  0.73957335465E+03  0.89028052414E+02 0.  0.
    5000000    2    1    2    0    0 -0.39575783899E+03  0.49646755959E+03 -0.71440275762E+03  0.11284400040E+04  0.59991769241E+03 0.  0.
         23    2    4    4    0    0 -0.42281707971E+03  0.47881584013E+03 -0.77889372897E+03  0.10114104418E+04  0.90756537311E+02 0.  0.
         23    2    4    4    0    0  0.27059240725E+02  0.17651719458E+02  0.64490971344E+02  0.11702956221E+03  0.92157730752E+02 0.  0.
          1    1    3    3  502    0  0.58062579907E+02 -0.12628531893E+03 -0.62940410346E+02  0.15258027467E+03  0.00000000000E+00 0. -1.
         -1    1    3    3    0  502  0.33769525908E+03 -0.37018224065E+03 -0.30575790529E+03  0.58699307998E+03  0.00000000000E+00 0.  1.
         13    1    5    5    0    0 -0.16780434969E+03  0.13452826595E+03 -0.22660511657E+03  0.31241964242E+03  0.00000000000E+00 0. -1.
        -13    1    5    5    0    0 -0.25501273002E+03  0.34428757418E+03 -0.55228861239E+03  0.69899079936E+03  0.00000000000E+00 0.  1.
          1    1    6    6  503    0 -0.39978573463E+01 -0.34778190017E+02  0.13317899561E+02  0.37454930422E+02  0.00000000000E+00 0. -1.
         -1    1    6    6    0  503  0.31057098072E+02  0.52429909475E+02  0.51173071783E+02  0.79574631786E+02  0.00000000000E+00 0.  1.
<mgrwt>
<rscale>  0 0.68976426E+03</rscale>
<asrwt>0</asrwt>
<pdfrwt beam="1">  1        2 0.22700881E+00 0.68976426E+03</pdfrwt>
<pdfrwt beam="2">  1       -2 0.60377867E-01 0.68976426E+03</pdfrwt>
<totfact> 0.34487549E+01</totfact>
</mgrwt>
</event>
<event>
12    1  0.1418317E-007  0.1452106E+04  0.7818608E-02  0.8916942E-01
         -2   -1    0    0    0  501 -0.00000000000E+00  0.00000000000E+00  0.10678912390E+04  0.10678912390E+04  0.00000000000E+00 0. -1.
          2   -1    0    0  501    0  0.00000000000E+00 -0.00000000000E+00 -0.20053962209E+04  0.20053962209E+04  0.00000000000E+00 0.  1.
         23    2    1    2    0    0  0.13853708603E+04 -0.14665928733E+03 -0.59582697003E+03  0.15184439904E+04  0.99503802136E+02 0.  0.
    5000000    2    1    2    0    0 -0.13853708603E+04  0.14665928733E+03 -0.34167801195E+03  0.15548434696E+04  0.60002748603E+03 0.  0.
         23    2    4    4    0    0 -0.42574800331E+03  0.30582444263E+03 -0.46135029305E+02  0.53407092134E+03  0.91177607210E+02 0.  0.
         23    2    4    4    0    0 -0.95962285695E+03 -0.15916515531E+03 -0.29554298264E+03  0.10207725482E+04  0.91768003035E+02 0.  0.
          3    1    3    3  502    0  0.97075935875E+03 -0.65030476763E+02 -0.38683403125E+03  0.10470163624E+04  0.00000000000E+00 0. -1.
         -3    1    3    3    0  502  0.41461150151E+03 -0.81628810564E+02 -0.20899293878E+03  0.47142762791E+03  0.00000000000E+00 0.  1.
         11    1    5    5    0    0 -0.10174011196E+03  0.12311332681E+03 -0.45134328655E+01  0.15977582012E+03  0.00000000000E+00 0. -1.
        -11    1    5    5    0    0 -0.32400789135E+03  0.18271111582E+03 -0.41621596440E+02  0.37429510122E+03  0.00000000000E+00 0.  1.
          4    1    6    6  503    0 -0.19799724776E+03 -0.70851423236E+02 -0.66971283455E+02  0.22069886067E+03  0.00000000000E+00 0. -1.
         -4    1    6    6    0  503 -0.76162560919E+03 -0.88313732069E+02 -0.22857169919E+03  0.80007368755E+03  0.00000000000E+00 0.  1.
<mgrwt>
<rscale>  0 0.14521063E+04</rscale>
<asrwt>0</asrwt>
<pdfrwt beam="1">  1        2 0.30852249E+00 0.14521063E+04</pdfrwt>
<pdfrwt beam="2">  1       -2 0.16429096E+00 0.14521063E+04</pdfrwt>
<totfact> 0.14721010E+00</totfact>
</mgrwt>
</event>
<event>
12    1  0.1418317E-007  0.4051880E+03  0.7818608E-02  0.1041998E+00
         -1   -1    0    0    0  501 -0.00000000000E+00  0.00000000000E+00  0.23624354039E+03  0.23624354039E+03  0.00000000000E+00 0.  1.
          1   -1    0    0  501    0  0.00000000000E+00 -0.00000000000E+00 -0.17771485071E+04  0.17771485071E+04  0.00000000000E+00 0. -1.
         23    2    1    2    0    0  0.83823443744E+02  0.28756801593E+03  0.20959566310E+02  0.31362496714E+03  0.90551549334E+02 0.  0.
    5000000    2    1    2    0    0 -0.83823443744E+02 -0.28756801593E+03 -0.15618645331E+04  0.16997670804E+04  0.60005464291E+03 0.  0.
         23    2    4    4    0    0 -0.10105951768E+03  0.70020671532E+02 -0.81862601154E+02  0.17452932553E+03  0.92968163625E+02 0.  0.
         23    2    4    4    0    0  0.17236073932E+02 -0.35758868746E+03 -0.14800019319E+04  0.15252377549E+04  0.88191489318E+02 0.  0.
          3    1    3    3  502    0 -0.48538024080E+00  0.14031380078E+03 -0.11800675963E+02  0.14080999338E+03  0.00000000000E+00 0. -1.
         -3    1    3    3    0  502  0.84308823985E+02  0.14725421515E+03  0.32760242273E+02  0.17281497376E+03  0.00000000000E+00 0.  1.
         13    1    5    5    0    0 -0.10568958982E+03  0.41602167613E+02 -0.33805516361E+02  0.11850671999E+03  0.00000000000E+00 0. -1.
        -13    1    5    5    0    0  0.46300721412E+01  0.28418503920E+02 -0.48057084792E+02  0.56022605543E+02  0.00000000000E+00 0.  1.
          4    1    6    6  503    0  0.58229740375E+01 -0.11795602302E+03 -0.33046312140E+03  0.35093219431E+03  0.00000000000E+00 0. -1.
         -4    1    6    6    0  503  0.11413099895E+02 -0.23963266444E+03 -0.11495388105E+04  0.11743055606E+04  0.00000000000E+00 0.  1.
<mgrwt>
<rscale>  0 0.40518796E+03</rscale>
<asrwt>0</asrwt>
<pdfrwt beam="1">  1        1 0.27340747E+00 0.40518796E+03</pdfrwt>
<pdfrwt beam="2">  1       -1 0.36345159E-01 0.40518796E+03</pdfrwt>
<totfact> 0.33579438E+01</totfact>
</mgrwt>
</event>
<event>
12    1  0.1418317E-007  0.6767668E+03  0.7818608E-02  0.9757810E-01
          2   -1    0    0  501    0  0.00000000000E+00  0.00000000000E+00  0.21200504265E+04  0.21200504265E+04  0.00000000000E+00 0. -1.
         -2   -1    0    0    0  501 -0.00000000000E+00 -0.00000000000E+00 -0.22637736908E+03  0.22637736908E+03  0.00000000000E+00 0.  1.
         23    2    1    2    0    0 -0.31626867673E+03 -0.45771285951E+03  0.85580166663E+03  0.10248221405E+04  0.91307115523E+02 0.  0.
    5000000    2    1    2    0    0  0.31626867673E+03  0.45771285951E+03  0.10378713908E+04  0.13216056551E+04  0.59994795288E+03 0.  0.
         23    2    4    4    0    0  0.42115943807E+03  0.13459215970E+03  0.45123583098E+03  0.63783383426E+03  0.87908493576E+02 0.  0.
         23    2    4    4    0    0 -0.10489076134E+03  0.32312069980E+03  0.58663555983E+03  0.68377182087E+03  0.89406736311E+02 0.  0.
          1    1    3    3  502    0 -0.64768948643E+02 -0.47083934158E+02  0.15609741083E+03  0.17543749666E+03  0.00000000000E+00 0. -1.
         -1    1    3    3    0  502 -0.25149972809E+03 -0.41062892535E+03  0.69970425580E+03  0.84938464381E+03  0.00000000000E+00 0.  1.
         13    1    5    5    0    0  0.27807279721E+03  0.52469156764E+02  0.31879301838E+03  0.42627043239E+03  0.00000000000E+00 0.  1.
        -13    1    5    5    0    0  0.14308664086E+03  0.82123002937E+02  0.13244281260E+03  0.21156340187E+03  0.00000000000E+00 0. -1.
          2    1    6    6  503    0 -0.58785482903E+02  0.98816304382E+02  0.13445877385E+03  0.17691680778E+03  0.00000000000E+00 0. -1.
         -2    1    6    6    0  503 -0.46105278435E+02  0.22430439542E+03  0.45217678599E+03  0.50685501309E+03  0.00000000000E+00 0.  1.
<mgrwt>
<rscale>  0 0.67676678E+03</rscale>
<asrwt>0</asrwt>
<pdfrwt beam="1">  1        2 0.32616159E+00 0.67676678E+03</pdfrwt>
<pdfrwt beam="2">  1       -2 0.34827289E-01 0.67676678E+03</pdfrwt>
<totfact> 0.46173362E+01</totfact>
</mgrwt>
</event>
<event>
12    1  0.1418317E-007  0.1340446E+04  0.7818608E-02  0.8998092E-01
         -2   -1    0    0    0  501 -0.00000000000E+00  0.00000000000E+00  0.18208081167E+04  0.18208081167E+04  0.00000000000E+00 0.  1.
          2   -1    0    0  501    0  0.00000000000E+00 -0.00000000000E+00 -0.12731200453E+04  0.12731200453E+04  0.00000000000E+00 0. -1.
         23    2    1    2    0    0 -0.99419678899E+02  0.13304836037E+04  0.87077952912E+03  0.15957837561E+04  0.90542341448E+02 0.  0.
    5000000    2    1    2    0    0  0.99419678899E+02 -0.13304836037E+04 -0.32309145767E+03  0.14981444059E+04  0.59998139856E+03 0.  0.
         23    2    4    4    0    0  0.19186903192E+02 -0.37972684225E+03  0.16348124585E+03  0.42334384280E+03  0.89068959294E+02 0.  0.
         23    2    4    4    0    0  0.80232775707E+02 -0.95075676146E+03 -0.48657270352E+03  0.10748005631E+04  0.89819468210E+02 0.  0.
          2    1    3    3  502    0 -0.10375986124E+03  0.12696548588E+04  0.84966764947E+03  0.15312493866E+04  0.00000000000E+00 0.  1.
         -2    1    3    3    0  502  0.43401823408E+01  0.60828744872E+02  0.21111879654E+02  0.64534369510E+02  0.00000000000E+00 0. -1.
         13    1    5    5    0    0  0.52010140287E+02 -0.20424160669E+03  0.71829384504E+02  0.22266375788E+03  0.00000000000E+00 0.  1.
        -13    1    5    5    0    0 -0.32823237094E+02 -0.17548523556E+03  0.91651861350E+02  0.20068008492E+03  0.00000000000E+00 0. -1.
          4    1    6    6  503    0  0.29506495874E+01 -0.45329147641E+03 -0.26178137681E+03  0.52346094235E+03  0.00000000000E+00 0. -1.
         -4    1    6    6    0  503  0.77282126120E+02 -0.49746528505E+03 -0.22479132671E+03  0.55133962075E+03  0.00000000000E+00 0.  1.
<mgrwt>
<rscale>  0 0.13404464E+04</rscale>
<asrwt>0</asrwt>
<pdfrwt beam="1">  1        2 0.19586462E+00 0.13404464E+04</pdfrwt>
<pdfrwt beam="2">  1       -2 0.28012433E+00 0.13404464E+04</pdfrwt>
<totfact> 0.69092028E-01</totfact>
</mgrwt>
</event>
<event>
12    1  0.1418317E-007  0.8416528E+03  0.7818608E-02  0.9501609E-01
          1   -1    0    0  501    0  0.00000000000E+00  0.00000000000E+00  0.98562189829E+03  0.98562189829E+03  0.00000000000E+00 0. -1.
         -1   -1    0    0    0  501 -0.00000000000E+00 -0.00000000000E+00 -0.90877107765E+03  0.90877107765E+03  0.00000000000E+00 0.  1.
         23    2    1    2    0    0  0.78364985249E+03 -0.74348909962E+01 -0.29103114062E+03  0.84118021662E+03  0.93395198590E+02 0.  0.
    5000000    2    1    2    0    0 -0.78364985249E+03  0.74348909962E+01  0.36788196125E+03  0.10532127593E+04  0.59979797438E+03 0.  0.
         23    2    4    4    0    0 -0.76911854871E+03 -0.75827521069E+02  0.13532872647E+03  0.78984105912E+03  0.90784797950E+02 0.  0.
         23    2    4    4    0    0 -0.14531303775E+02  0.83262412065E+02  0.23255323478E+03  0.26337170020E+03  0.90221158297E+02 0.  0.
          4    1    3    3  502    0  0.42610528029E+03  0.40973705517E+02 -0.17044714017E+03  0.46075674930E+03  0.00000000000E+00 0. -1.
         -4    1    3    3    0  502  0.35754457220E+03 -0.48408596513E+02 -0.12058400045E+03  0.38042346732E+03  0.00000000000E+00 0.  1.
         11    1    5    5    0    0 -0.41351420316E+02 -0.47836834651E+01 -0.13224497588E+02  0.43677350264E+02  0.00000000000E+00 0. -1.
        -11    1    5    5    0    0 -0.72776712840E+03 -0.71043837604E+02  0.14855322405E+03  0.74616370886E+03  0.00000000000E+00 0.  1.
          3    1    6    6  503    0 -0.50727034134E+02  0.59900853039E+02  0.17192814894E+03  0.18899902800E+03  0.00000000000E+00 0. -1.
         -3    1    6    6    0  503  0.36195730359E+02  0.23361559027E+02  0.60625085840E+02  0.74372672195E+02  0.00000000000E+00 0.  1.
<mgrwt>
<rscale>  0 0.84165276E+03</rscale>
<asrwt>0</asrwt>
<pdfrwt beam="1">  1        1 0.15163414E+00 0.84165276E+03</pdfrwt>
<pdfrwt beam="2">  1       -1 0.13981094E+00 0.84165276E+03</pdfrwt>
<totfact> 0.66731742E+00</totfact>
</mgrwt>
</event>
<event>
12    1  0.1418317E-007  0.4409476E+03  0.7818608E-02  0.1030456E+00
         -2   -1    0    0    0  501 -0.00000000000E+00  0.00000000000E+00  0.10520200234E+03  0.10520200234E+03  0.00000000000E+00 0.  1.
          2   -1    0    0  501    0  0.00000000000E+00 -0.00000000000E+00 -0.29139152609E+04  0.29139152609E+04  0.00000000000E+00 0. -1.
         23    2    1    2    0    0 -0.10853618185E+03  0.34146180309E+03 -0.13724354522E+04  0.14218773056E+04  0.98892547154E+02 0.  0.
    5000000    2    1    2    0    0  0.10853618185E+03 -0.34146180309E+03 -0.14362778063E+04  0.15972399576E+04  0.59992106112E+03 0.  0.
         23    2    4    4    0    0  0.21949074485E+03 -0.31455353274E+03 -0.13883240742E+04  0.14431908761E+04  0.90752729398E+02 0.  0.
         23    2    4    4    0    0 -0.11095456300E+03 -0.26908270351E+02 -0.47953732148E+02  0.15404908153E+03  0.91632903641E+02 0.  0.
          3    1    3    3  502    0 -0.68183095675E+02  0.15118729560E+03 -0.80864926584E+03  0.82548177934E+03  0.00000000000E+00 0. -1.
         -3    1    3    3    0  502 -0.40353086172E+02  0.19027450749E+03 -0.56378618636E+03  0.59639552622E+03  0.00000000000E+00 0.  1.
         13    1    5    5    0    0  0.13359917930E+03 -0.17876479242E+03 -0.63948347506E+03  0.67730695153E+03  0.00000000000E+00 0.  1.
        -13    1    5    5    0    0  0.85891565546E+02 -0.13578874032E+03 -0.74884059913E+03  0.76588392458E+03  0.00000000000E+00 0. -1.
          3    1    6    6  503    0 -0.60858697844E+02  0.24781434287E+02 -0.49147393431E+02  0.82057095182E+02  0.00000000000E+00 0. -1.
         -3    1    6    6    0  503 -0.50095865155E+02 -0.51689704638E+02  0.11936612826E+01  0.71991986349E+02  0.00000000000E+00 0.  1.
<mgrwt>
<rscale>  0 0.44094764E+03</rscale>
<asrwt>0</asrwt>
<pdfrwt beam="1">  1        2 0.44829465E+00 0.44094764E+03</pdfrwt>
<pdfrwt beam="2">  1       -2 0.16184924E-01 0.44094764E+03</pdfrwt>
<totfact> 0.67416620E+01</totfact>
</mgrwt>
</event>
<event>
12    1  0.1418317E-007  0.5484913E+03  0.7818608E-02  0.1001844E+00
         -1   -1    0    0    0  501 -0.00000000000E+00  0.00000000000E+00  0.15875558454E+04  0.15875558454E+04  0.00000000000E+00 0.  1.
          1   -1    0    0  501    0  0.00000000000E+00 -0.00000000000E+00 -0.51626905671E+03  0.51626905671E+03  0.00000000000E+00 0. -1.
         23    2    1    2    0    0 -0.46472128655E+03 -0.27804369027E+03 -0.21105724037E+03  0.58803922137E+03  0.89279332924E+02 0.  0.
    5000000    2    1    2    0    0  0.46472128655E+03  0.27804369027E+03  0.12823440290E+04  0.15157856807E+04  0.59993820777E+03 0.  0.
         23    2    4    4    0    0  0.20603152054E+03  0.10314497660E+03  0.11297719339E+04  0.11567322938E+04  0.92504612432E+02 0.  0.
         23    2    4    4    0    0  0.25868976601E+03  0.17489871367E+03  0.15257209514E+03  0.35905338687E+03  0.90172808101E+02 0.  0.
          1    1    3    3  502    0 -0.20000766385E+03 -0.16103553321E+03 -0.12813449626E+03  0.28697379268E+03  0.00000000000E+00 0. -1.
         -1    1    3    3    0  502 -0.26471362270E+03 -0.11700815706E+03 -0.82922744115E+02  0.30106542869E+03  0.00000000000E+00 0.  1.
         13    1    5    5    0    0  0.14380860062E+03  0.72484074770E+02  0.55820079854E+03  0.58096728496E+03  0.00000000000E+00 0. -1.
        -13    1    5    5    0    0  0.62222919916E+02  0.30660901830E+02  0.57157113537E+03  0.57576500888E+03  0.00000000000E+00 0.  1.
          4    1    6    6  503    0  0.14152097163E+03  0.52532852523E+02  0.41799674324E+02  0.15663683723E+03  0.00000000000E+00 0. -1.
         -4    1    6    6    0  503  0.11716879439E+03  0.12236586115E+03  0.11077242082E+03  0.20241654964E+03  0.00000000000E+00 0.  1.
<mgrwt>
<rscale>  0 0.54849131E+03</rscale>
<asrwt>0</asrwt>
<pdfrwt beam="1">  1        1 0.79426010E-01 0.54849131E+03</pdfrwt>
<pdfrwt beam="2">  1       -1 0.24423936E+00 0.54849131E+03</pdfrwt>
<totfact> 0.34840484E+00</totfact>
</mgrwt>
</event>
<event>
12    1  0.1418317E-007  0.3899842E+03  0.7818608E-02  0.1047304E+00
          2   -1    0    0  501    0  0.00000000000E+00  0.00000000000E+00  0.84119206719E+03  0.84119206719E+03  0.00000000000E+00 0. -1.
         -2   -1    0    0    0  501 -0.00000000000E+00 -0.00000000000E+00 -0.10683605086E+04  0.10683605086E+04  0.00000000000E+00 0.  1.
         23    2    1    2    0    0 -0.32704524223E+03 -0.44939873180E+02 -0.89136913255E+03  0.95548418588E+03  0.97123201876E+02 0.  0.
    5000000    2    1    2    0    0  0.32704524223E+03  0.44939873180E+02  0.66420069113E+03  0.95406838993E+03  0.60008812011E+03 0.  0.
         23    2    4    4    0    0  0.17177441514E+03 -0.10449321763E+03  0.68477025507E+03  0.71988471062E+03  0.94331395236E+02 0.  0.
         23    2    4    4    0    0  0.15527082709E+03  0.14943309081E+03 -0.20569563944E+02  0.23418367931E+03  0.89328664601E+02 0.  0.
          3    1    3    3  502    0 -0.10857958963E+03 -0.51272588711E+02 -0.23883084060E+03  0.26731736954E+03  0.00000000000E+00 0. -1.
         -3    1    3    3    0  502 -0.21846565260E+03  0.63327155309E+01 -0.65253829194E+03  0.68816681634E+03  0.00000000000E+00 0.  1.
         13    1    5    5    0    0  0.15319293376E+03 -0.11542407429E+03  0.53040805319E+03  0.56402437427E+03  0.00000000000E+00 0.  1.
        -13    1    5    5    0    0  0.18581481377E+02  0.10930856666E+02  0.15436220188E+03  0.15586033635E+03  0.00000000000E+00 0. -1.
          1    1    6    6  503    0  0.28777786152E+02  0.77002832548E+02  0.16358418960E+02  0.83816436735E+02  0.00000000000E+00 0. -1.
         -1    1    6    6    0  503  0.12649304094E+03  0.72430258261E+02 -0.36927982905E+02  0.15036724257E+03  0.00000000000E+00 0.  1.
<mgrwt>
<rscale>  0 0.38998419E+03</rscale>
<asrwt>0</asrwt>
<pdfrwt beam="1">  1        2 0.12941417E+00 0.38998419E+03</pdfrwt>
<pdfrwt beam="2">  1       -2 0.16436315E+00 0.38998419E+03</pdfrwt>
<totfact> 0.81408703E+00</totfact>
</mgrwt>
</event>
<event>
12    1  0.1418317E-007  0.9355560E+03  0.7818608E-02  0.9382195E-01
          2   -1    0    0  501    0  0.00000000000E+00  0.00000000000E+00  0.13784547432E+04  0.13784547432E+04  0.00000000000E+00 0. -1.
         -2   -1    0    0    0  501 -0.00000000000E+00 -0.00000000000E+00 -0.16706380684E+04  0.16706380684E+04  0.00000000000E+00 0.  1.
         23    2    1    2    0    0 -0.65318503845E+03  0.62900256456E+03 -0.12859041125E+04  0.15760942077E+04  0.90711875210E+02 0.  0.
    5000000    2    1    2    0    0  0.65318503845E+03 -0.62900256456E+03  0.99372078735E+03  0.14729986039E+04  0.59995746783E+03 0.  0.
         23    2    4    4    0    0  0.53938926053E+03 -0.35584409626E+03  0.96042689356E+03  0.11609574465E+04  0.88524456518E+02 0.  0.
         23    2    4    4    0    0  0.11379577791E+03 -0.27315846830E+03  0.33293893789E+02  0.31204115744E+03  0.93253271764E+02 0.  0.
          2    1    3    3  502    0 -0.54102798209E+03  0.47450871651E+03 -0.98898504992E+03  0.12230949384E+04  0.00000000000E+00 0. -1.
         -2    1    3    3    0  502 -0.11215705636E+03  0.15449384805E+03 -0.29691906261E+03  0.35299926928E+03  0.00000000000E+00 0.  1.
         13    1    5    5    0    0  0.67926692381E+02 -0.15799686732E+02  0.12601054937E+03  0.14402195732E+03  0.00000000000E+00 0. -1.
        -13    1    5    5    0    0  0.47146256815E+03 -0.34004440953E+03  0.83441634419E+03  0.10169354891E+04  0.00000000000E+00 0.  1.
          3    1    6    6  503    0  0.89586269048E+02 -0.98279132545E+02  0.37263704364E+01  0.13303523342E+03  0.00000000000E+00 0. -1.
         -3    1    6    6    0  503  0.24209508866E+02 -0.17487933576E+03  0.29567523353E+02  0.17900592401E+03  0.00000000000E+00 0.  1.
<mgrwt>
<rscale>  0 0.93555604E+03</rscale>
<asrwt>0</asrwt>
<pdfrwt beam="1">  1        2 0.21206996E+00 0.93555604E+03</pdfrwt>
<pdfrwt beam="2">  1       -2 0.25702124E+00 0.93555604E+03</pdfrwt>
<totfact> 0.87345626E-01</totfact>
</mgrwt>
</event>
<event>
12    1  0.1418317E-007  0.6890146E+03  0.7818608E-02  0.9736205E-01
         -2   -1    0    0    0  501 -0.00000000000E+00  0.00000000000E+00  0.48747092731E+03  0.48747092731E+03  0.00000000000E+00 0. -1.
          2   -1    0    0  501    0  0.00000000000E+00 -0.00000000000E+00 -0.14929216980E+04  0.14929216980E+04  0.00000000000E+00 0.  1.
         23    2    1    2    0    0  0.28152358222E+03  0.48325810108E+03  0.12846807940E+03  0.58086235523E+03  0.90017268829E+02 0.  0.
    5000000    2    1    2    0    0 -0.28152358222E+03 -0.48325810108E+03 -0.11339188501E+04  0.13995302701E+04  0.60009924067E+03 0.  0.
         23    2    4    4    0    0 -0.59026544584E+02  0.12570840084E+03 -0.23901528313E+03  0.29061143542E+03  0.89665856479E+02 0.  0.
         23    2    4    4    0    0 -0.22249703764E+03 -0.60896650192E+03 -0.89490356698E+03  0.11089188347E+04  0.92214182624E+02 0.  0.
          3    1    3    3  502    0  0.12310861790E+03  0.24943379455E+03  0.10550315947E+03  0.29749599379E+03  0.00000000000E+00 0. -1.
         -3    1    3    3    0  502  0.15841496432E+03  0.23382430653E+03  0.22964919938E+02  0.28336636144E+03  0.00000000000E+00 0.  1.
         13    1    5    5    0    0 -0.72604542267E+02  0.50961609470E+02 -0.14134758934E+03  0.16687614032E+03  0.00000000000E+00 0. -1.
        -13    1    5    5    0    0  0.13577997684E+02  0.74746791370E+02 -0.97667693799E+02  0.12373529510E+03  0.00000000000E+00 0.  1.
          2    1    6    6  503    0 -0.16498909667E+03 -0.34261705143E+03 -0.47704885365E+03  0.61006840167E+03  0.00000000000E+00 0. -1.
         -2    1    6    6    0  503 -0.57507940967E+02 -0.26634945049E+03 -0.41785471333E+03  0.49885043299E+03  0.00000000000E+00 0.  1.
<mgrwt>
<rscale>  0 0.68901462E+03</rscale>
<asrwt>0</asrwt>
<pdfrwt beam="1">  1        2 0.22968026E+00 0.68901462E+03</pdfrwt>
<pdfrwt beam="2">  1       -2 0.74995527E-01 0.68901462E+03</pdfrwt>
<totfact> 0.21108839E+01</totfact>
</mgrwt>
</event>
<event>
12    1  0.1418317E-007  0.1364233E+04  0.7818608E-02  0.8980124E-01
          1   -1    0    0  501    0  0.00000000000E+00  0.00000000000E+00  0.23909275778E+04  0.23909275778E+04  0.00000000000E+00 0. -1.
         -1   -1    0    0    0  501 -0.00000000000E+00 -0.00000000000E+00 -0.81285775552E+03  0.81285775552E+03  0.00000000000E+00 0.  1.
         23    2    1    2    0    0  0.12825991711E+04  0.34324175844E+03  0.73869392225E+03  0.15222120021E+04  0.92655976735E+02 0.  0.
    5000000    2    1    2    0    0 -0.12825991711E+04 -0.34324175844E+03  0.83937589999E+03  0.16815733312E+04  0.60021781746E+03 0.  0.
         23    2    4    4    0    0 -0.84713579559E+03 -0.41971634526E+03  0.34083541169E+03  0.10089899539E+04  0.89950445310E+02 0.  0.
         23    2    4    4    0    0 -0.43546337549E+03  0.76474586826E+02  0.49854048830E+03  0.67258337729E+03  0.91373229759E+02 0.  0.
          4    1    3    3  502    0  0.52197061707E+03  0.18251368629E+03  0.32918509129E+03  0.64352730718E+03  0.00000000000E+00 0. -1.
         -4    1    3    3    0  502  0.76062855402E+03  0.16072807215E+03  0.40950883097E+03  0.87868469488E+03  0.00000000000E+00 0.  1.
         13    1    5    5    0    0 -0.19515261649E+03 -0.11944605557E+03  0.48209223451E+02  0.23382906821E+03  0.00000000000E+00 0. -1.
        -13    1    5    5    0    0 -0.65198317910E+03 -0.30027028969E+03  0.29262618824E+03  0.77516088572E+03  0.00000000000E+00 0.  1.
          2    1    6    6  503    0 -0.13338989832E+03  0.66945176790E+02  0.16524034399E+03  0.22266318274E+03  0.00000000000E+00 0. -1.
         -2    1    6    6    0  503 -0.30207347717E+03  0.95294100362E+01  0.33330014431E+03  0.44992019455E+03  0.00000000000E+00 0.  1.
<mgrwt>
<rscale>  0 0.13642327E+04</rscale>
<asrwt>0</asrwt>
<pdfrwt beam="1">  1        1 0.36783501E+00 0.13642327E+04</pdfrwt>
<pdfrwt beam="2">  1       -1 0.12505504E+00 0.13642327E+04</pdfrwt>
<totfact> 0.87154719E-01</totfact>
</mgrwt>
</event>
<event>
12    1  0.1418317E-007  0.7229821E+03  0.7818608E-02  0.9678717E-01
         -2   -1    0    0    0  501 -0.00000000000E+00  0.00000000000E+00  0.62686407052E+03  0.62686407052E+03  0.00000000000E+00 0.  1.
          2   -1    0    0  501    0  0.00000000000E+00 -0.00000000000E+00 -0.17939267650E+04  0.17939267650E+04  0.00000000000E+00 0. -1.
         23    2    1    2    0    0 -0.30284280775E+03  0.51807510133E+03  0.33668717614E+03  0.69407400907E+03  0.90911488086E+02 0.  0.
    5000000    2    1    2    0    0  0.30284280775E+03 -0.51807510133E+03 -0.15037498707E+04  0.17267168265E+04  0.60014310672E+03 0.  0.
         23    2    4    4    0    0  0.27544170141E+01  0.10976807787E+03 -0.20812449680E+03  0.25301207030E+03  0.92966035849E+02 0.  0.
         23    2    4    4    0    0  0.30008839074E+03 -0.62784317920E+03 -0.12956253739E+04  0.14737047562E+04  0.94448393760E+02 0.  0.
          1    1    3    3  502    0 -0.12631446602E+03  0.21674345029E+03  0.19266047126E+03  0.31630859102E+03  0.00000000000E+00 0. -1.
         -1    1    3    3    0  502 -0.17652834173E+03  0.30133165104E+03  0.14402670488E+03  0.37776541805E+03  0.00000000000E+00 0.  1.
         11    1    5    5    0    0  0.31838827903E+02  0.18004801819E+01 -0.41260448188E+02  0.52147648804E+02  0.00000000000E+00 0. -1.
        -11    1    5    5    0    0 -0.29084410889E+02  0.10796759769E+03 -0.16686404861E+03  0.20086442150E+03  0.00000000000E+00 0.  1.
          1    1    6    6  503    0  0.46197199718E+02 -0.37376494521E+02 -0.10312886608E+03  0.11902414303E+03  0.00000000000E+00 0. -1.
         -1    1    6    6    0  503  0.25389119102E+03 -0.59046668468E+03 -0.11924965078E+04  0.13546806132E+04  0.00000000000E+00 0.  1.
<mgrwt>
<rscale>  0 0.72298207E+03</rscale>
<asrwt>0</asrwt>
<pdfrwt beam="1">  1        2 0.27598873E+00 0.72298207E+03</pdfrwt>
<pdfrwt beam="2">  1       -2 0.96440627E-01 0.72298207E+03</pdfrwt>
<totfact> 0.80981343E+00</totfact>
</mgrwt>
</event>
<event>
12    1  0.1418317E-007  0.4854821E+03  0.7818608E-02  0.1017639E+00
         -1   -1    0    0    0  501 -0.00000000000E+00  0.00000000000E+00  0.50011859982E+03  0.50011859982E+03  0.00000000000E+00 0.  1.
          1   -1    0    0  501    0  0.00000000000E+00 -0.00000000000E+00 -0.16210667110E+04  0.16210667110E+04  0.00000000000E+00 0. -1.
         23    2    1    2    0    0  0.17635979096E+03 -0.30250346204E+03 -0.13439427594E+04  0.13918282247E+04  0.91610839493E+02 0.  0.
    5000000    2    1    2    0    0 -0.17635979096E+03  0.30250346204E+03  0.22299464830E+03  0.72935708611E+03  0.59968660605E+03 0.  0.
         23    2    4    4    0    0 -0.34078492164E+03  0.20295666954E+03 -0.17427686634E+02  0.40773501663E+03  0.92835052644E+02 0.  0.
         23    2    4    4    0    0  0.16442513068E+03  0.99546792502E+02  0.24042233494E+03  0.32162206948E+03  0.93234483648E+02 0.  0.
          2    1    3    3  502    0  0.96176947386E+02 -0.10566938038E+03 -0.41594253831E+03  0.43980020274E+03  0.00000000000E+00 0. -1.
         -2    1    3    3    0  502  0.80182843571E+02 -0.19683408166E+03 -0.92800022112E+03  0.95202802192E+03  0.00000000000E+00 0.  1.
         11    1    5    5    0    0 -0.19425576541E+03  0.15435257075E+03  0.19889798694E+02  0.24890886402E+03  0.00000000000E+00 0. -1.
        -11    1    5    5    0    0 -0.14652915623E+03  0.48604098786E+02 -0.37317485328E+02  0.15882615262E+03  0.00000000000E+00 0.  1.
          2    1    6    6  503    0 -0.10380031325E+02  0.16559160261E+02  0.29478436910E+02  0.35368475816E+02  0.00000000000E+00 0. -1.
         -2    1    6    6    0  503  0.17480516201E+03  0.82987632241E+02  0.21094389803E+03  0.28625359366E+03  0.00000000000E+00 0.  1.
<mgrwt>
<rscale>  0 0.48548214E+03</rscale>
<asrwt>0</asrwt>
<pdfrwt beam="1">  1        1 0.24939487E+00 0.48548214E+03</pdfrwt>
<pdfrwt beam="2">  1       -1 0.76941324E-01 0.48548214E+03</pdfrwt>
<totfact> 0.10006868E+01</totfact>
</mgrwt>
</event>
<event>
12    1  0.1418317E-007  0.1004511E+04  0.7818608E-02  0.9303611E-01
          2   -1    0    0  501    0  0.00000000000E+00  0.00000000000E+00  0.12327331088E+04  0.12327331088E+04  0.00000000000E+00 0. -1.
         -2   -1    0    0    0  501 -0.00000000000E+00 -0.00000000000E+00 -0.87003160799E+03  0.87003160799E+03  0.00000000000E+00 0.  1.
         23    2    1    2    0    0 -0.52743134350E+03 -0.77907084478E+03  0.63507661181E+02  0.94734872113E+03  0.91110773777E+02 0.  0.
    5000000    2    1    2    0    0  0.52743134350E+03  0.77907084478E+03  0.29919383961E+03  0.11554159956E+04  0.60027824051E+03 0.  0.
         23    2    4    4    0    0  0.75761609729E+02  0.54178773211E+03 -0.47359696216E+01  0.55450517027E+03  0.90442170936E+02 0.  0.
         23    2    4    4    0    0  0.45166973377E+03  0.23728311268E+03  0.30392980923E+03  0.60091082537E+03  0.91715141283E+02 0.  0.
          4    1    3    3  502    0 -0.24415199458E+03 -0.32825535318E+03 -0.13822741025E+02  0.40933218969E+03  0.00000000000E+00 0. -1.
         -4    1    3    3    0  502 -0.28327934892E+03 -0.45081549160E+03  0.77330402206E+02  0.53801653143E+03  0.00000000000E+00 0.  1.
         11    1    5    5    0    0 -0.77185289588E+01  0.14205349092E+03  0.27425523849E+02  0.14488246730E+03  0.00000000000E+00 0. -1.
        -11    1    5    5    0    0  0.83480138688E+02  0.39973424119E+03 -0.32161493470E+02  0.40962270298E+03  0.00000000000E+00 0.  1.
          2    1    6    6  503    0  0.43961395669E+03  0.24428798794E+03  0.28728418589E+03  0.57919707823E+03  0.00000000000E+00 0. -1.
         -2    1    6    6    0  503  0.12055777076E+02 -0.70048752596E+01  0.16645623340E+02  0.21713747136E+02  0.00000000000E+00 0.  1.
<mgrwt>
<rscale>  0 0.10045108E+04</rscale>
<asrwt>0</asrwt>
<pdfrwt beam="1">  1        2 0.18965125E+00 0.10045108E+04</pdfrwt>
<pdfrwt beam="2">  1       -2 0.13385102E+00 0.10045108E+04</pdfrwt>
<totfact> 0.72403618E+00</totfact>
</mgrwt>
</event>
<event>
12    1  0.1418317E-007  0.6911345E+03  0.7818608E-02  0.9732515E-01
         -2   -1    0    0    0  501 -0.00000000000E+00  0.00000000000E+00  0.47152416582E+03  0.47152416582E+03  0.00000000000E+00 0.  1.
          2   -1    0    0  501    0  0.00000000000E+00 -0.00000000000E+00 -0.10824292013E+04  0.10824292013E+04  0.00000000000E+00 0. -1.
         23    2    1    2    0    0 -0.33831945124E+02 -0.58335207867E+03 -0.23414998975E+03  0.63560013076E+03  0.87846800258E+02 0.  0.
    5000000    2    1    2    0    0  0.33831945124E+02  0.58335207867E+03 -0.37675504571E+03  0.91835323635E+03  0.59998671156E+03 0.  0.
         23    2    4    4    0    0  0.27853888505E+03  0.23882715215E+03 -0.29299320542E+03  0.47782097695E+03  0.88575100960E+02 0.  0.
         23    2    4    4    0    0 -0.24470693992E+03  0.34452492653E+03 -0.83761840296E+02  0.44053225940E+03  0.92052779632E+02 0.  0.
          1    1    3    3  502    0 -0.18134879470E+02 -0.32822664633E+03 -0.17827434004E+03  0.37395634174E+03  0.00000000000E+00 0. -1.
         -1    1    3    3    0  502 -0.15697065654E+02 -0.25512543235E+03 -0.55875649712E+02  0.26164378902E+03  0.00000000000E+00 0.  1.
         11    1    5    5    0    0  0.10280655844E+03  0.41231176097E+02 -0.11098691955E+03  0.15680336301E+03  0.00000000000E+00 0. -1.
        -11    1    5    5    0    0  0.17573232661E+03  0.19759597605E+03 -0.18200628587E+03  0.32101761394E+03  0.00000000000E+00 0.  1.
          1    1    6    6  503    0 -0.74044840295E+02  0.11320181820E+03  0.16086248976E+02  0.13622062040E+03  0.00000000000E+00 0. -1.
         -1    1    6    6    0  503 -0.17066209963E+03  0.23132310833E+03 -0.99848089272E+02  0.30431163900E+03  0.00000000000E+00 0.  1.
<mgrwt>
<rscale>  0 0.69113448E+03</rscale>
<asrwt>0</asrwt>
<pdfrwt beam="1">  1        2 0.16652757E+00 0.69113448E+03</pdfrwt>
<pdfrwt beam="2">  1       -2 0.72542180E-01 0.69113448E+03</pdfrwt>
<totfact> 0.39271801E+01</totfact>
</mgrwt>
</event>
<event>
12    1  0.1418317E-007  0.1463261E+04  0.7818608E-02  0.8909258E-01
          2   -1    0    0  501    0  0.00000000000E+00  0.00000000000E+00  0.27369892966E+04  0.27369892966E+04  0.00000000000E+00 0. -1.
         -2   -1    0    0    0  501 -0.00000000000E+00 -0.00000000000E+00 -0.83003802304E+03  0.83003802304E+03  0.00000000000E+00 0.  1.
         23    2    1    2    0    0 -0.25120510229E+03  0.14227136953E+04  0.98907521918E+03  0.17532732948E+04  0.92082543697E+02 0.  0.
    5000000    2    1    2    0    0  0.25120510229E+03 -0.14227136953E+04  0.91787605434E+03  0.18137540248E+04  0.59999079068E+03 0.  0.
         23    2    4    4    0    0  0.26810521212E+02 -0.96243237087E+03  0.31470256445E+03  0.10172950115E+04  0.94109318163E+02 0.  0.
         23    2    4    4    0    0  0.22439458108E+03 -0.46028132447E+03  0.60317348989E+03  0.79645901329E+03  0.91196903829E+02 0.  0.
          4    1    3    3  502    0 -0.64143372470E+02  0.27714139831E+03  0.15519410992E+03  0.32404774131E+03  0.00000000000E+00 0.  1.
         -4    1    3    3    0  502 -0.18706172982E+03  0.11455722970E+04  0.83388110925E+03  0.14292255535E+04  0.00000000000E+00 0. -1.
         11    1    5    5    0    0  0.18101176908E+02 -0.76640228887E+03  0.28951029050E+03  0.81946099925E+03  0.00000000000E+00 0. -1.
        -11    1    5    5    0    0  0.87093443040E+01 -0.19603008200E+03  0.25192273949E+02  0.19783401223E+03  0.00000000000E+00 0.  1.
          4    1    6    6  503    0  0.92345253708E+02 -0.28115360373E+03  0.31259377972E+03  0.43045309372E+03  0.00000000000E+00 0. -1.
         -4    1    6    6    0  503  0.13204932737E+03 -0.17912772074E+03  0.29057971017E+03  0.36600591956E+03  0.00000000000E+00 0.  1.
<mgrwt>
<rscale>  0 0.14632608E+04</rscale>
<asrwt>0</asrwt>
<pdfrwt beam="1">  1        2 0.42107527E+00 0.14632608E+04</pdfrwt>
<pdfrwt beam="2">  1       -2 0.12769816E+00 0.14632608E+04</pdfrwt>
<totfact> 0.10929336E+00</totfact>
</mgrwt>
</event>
<event>
12    1  0.1418317E-007  0.6551353E+03  0.7818608E-02  0.9797191E-01
          2   -1    0    0  501    0  0.00000000000E+00  0.00000000000E+00  0.50639753407E+03  0.50639753407E+03  0.00000000000E+00 0. -1.
         -2   -1    0    0    0  501 -0.00000000000E+00 -0.00000000000E+00 -0.91359578391E+03  0.91359578391E+03  0.00000000000E+00 0.  1.
         23    2    1    2    0    0 -0.49714971964E+03  0.20960805766E+03 -0.23171128286E+03  0.59424963599E+03  0.91373572174E+02 0.  0.
    5000000    2    1    2    0    0  0.49714971964E+03 -0.20960805766E+03 -0.17548696698E+03  0.82574368199E+03  0.59996964190E+03 0.  0.
         23    2    4    4    0    0  0.15567038987E+02 -0.28207257289E+03  0.46007222559E+01  0.29853798986E+03  0.96418336764E+02 0.  0.
         23    2    4    4    0    0  0.48158268065E+03  0.72464515228E+02 -0.18008768923E+03  0.52720569213E+03  0.91330617713E+02 0.  0.
          3    1    3    3  502    0 -0.98327342007E+02  0.46940439394E+02 -0.88418141247E+02  0.14031906050E+03  0.00000000000E+00 0. -1.
         -3    1    3    3    0  502 -0.39882237763E+03  0.16266761827E+03 -0.14329314162E+03  0.45393057549E+03  0.00000000000E+00 0.  1.
         11    1    5    5    0    0  0.16666019610E+01 -0.20013333420E+03 -0.40176832968E+02  0.20413306182E+03  0.00000000000E+00 0. -1.
        -11    1    5    5    0    0  0.13900437026E+02 -0.81939238694E+02  0.44777555224E+02  0.94404928045E+02  0.00000000000E+00 0.  1.
          4    1    6    6  503    0  0.32851652571E+03  0.57969537616E+02 -0.16655759477E+03  0.37286057358E+03  0.00000000000E+00 0. -1.
         -4    1    6    6    0  503  0.15306615494E+03  0.14494977612E+02 -0.13530094468E+02  0.15434511855E+03  0.00000000000E+00 0.  1.
<mgrwt>
<rscale>  0 0.65513533E+03</rscale>
<asrwt>0</asrwt>
<pdfrwt beam="1">  1        2 0.77907313E-01 0.65513533E+03</pdfrwt>
<pdfrwt beam="2">  1       -2 0.14055320E+00 0.65513533E+03</pdfrwt>
<totfact> 0.22040417E+01</totfact>
</mgrwt>
</event>
<event>
12    1  0.1418317E-007  0.6901412E+03  0.7818608E-02  0.9734242E-01
          1   -1    0    0  501    0  0.00000000000E+00  0.00000000000E+00  0.10116103849E+04  0.10116103849E+04  0.00000000000E+00 0. -1.
         -1   -1    0    0    0  501 -0.00000000000E+00 -0.00000000000E+00 -0.81890760881E+03  0.81890760881E+03  0.00000000000E+00 0.  1.
         23    2    1    2    0    0 -0.28038602562E+03 -0.56629739922E+03 -0.42093517530E+03  0.76468405069E+03  0.90808633124E+02 0.  0.
    5000000    2    1    2    0    0  0.28038602562E+03  0.56629739922E+03  0.61363795144E+03  0.10658339431E+04  0.60011781427E+03 0.  0.
         23    2    4    4    0    0  0.80092021660E+02 -0.25874300919E+02  0.36744110933E+03  0.38776273478E+03  0.90899715501E+02 0.  0.
         23    2    4    4    0    0  0.20029400396E+03  0.59217170014E+03  0.24619684211E+03  0.67807120828E+03  0.91556911079E+02 0.  0.
          3    1    3    3  502    0 -0.99482128648E+02 -0.20718919967E+03 -0.10198792540E+03  0.25144700298E+03  0.00000000000E+00 0.  1.
         -3    1    3    3    0  502 -0.18090389698E+03 -0.35910819955E+03 -0.31894724990E+03  0.51323704771E+03  0.00000000000E+00 0. -1.
         11    1    5    5    0    0  0.91021797241E+02 -0.43595791860E+02  0.32782490035E+03  0.34300834674E+03  0.00000000000E+00 0. -1.
        -11    1    5    5    0    0 -0.10929775581E+02  0.17721490941E+02  0.39616208976E+02  0.44754388043E+02  0.00000000000E+00 0.  1.
          3    1    6    6  503    0  0.19981425833E+03  0.59293674884E+03  0.23739087726E+03  0.66921906321E+03  0.00000000000E+00 0. -1.
         -3    1    6    6    0  503  0.47974563276E+00 -0.76504869841E+00  0.88059648579E+01  0.88521450769E+01  0.00000000000E+00 0.  1.
<mgrwt>
<rscale>  0 0.69014118E+03</rscale>
<asrwt>0</asrwt>
<pdfrwt beam="1">  1        1 0.15563237E+00 0.69014118E+03</pdfrwt>
<pdfrwt beam="2">  1       -1 0.12598579E+00 0.69014118E+03</pdfrwt>
<totfact> 0.84804086E+00</totfact>
</mgrwt>
</event>
<event>
12    1  0.1418317E-007  0.8923126E+03  0.7818608E-02  0.9435242E-01
          2   -1    0    0  501    0  0.00000000000E+00  0.00000000000E+00  0.59824833863E+03  0.59824833863E+03  0.00000000000E+00 0. -1.
         -2   -1    0    0    0  501 -0.00000000000E+00 -0.00000000000E+00 -0.16236217039E+04  0.16236217039E+04  0.00000000000E+00 0.  1.
         23    2    1    2    0    0  0.55061434339E+02 -0.82744697315E+03 -0.83534735960E+03  0.11807202839E+04  0.92708806521E+02 0.  0.
    5000000    2    1    2    0    0 -0.55061434339E+02  0.82744697315E+03 -0.19002600566E+03  0.10411497586E+04  0.60015221574E+03 0.  0.
         23    2    4    4    0    0 -0.21621292287E+03  0.19489236243E+03 -0.22843673886E+03  0.38114077344E+03  0.91399587329E+02 0.  0.
         23    2    4    4    0    0  0.16115148854E+03  0.63255461072E+03  0.38410733200E+02  0.66000898515E+03  0.89673509203E+02 0.  0.
          2    1    3    3  502    0 -0.18990415277E+02 -0.34656560210E+03 -0.37353986017E+03  0.50990232356E+03  0.00000000000E+00 0. -1.
         -2    1    3    3    0  502  0.74051849617E+02 -0.48088137104E+03 -0.46180749943E+03  0.67081796039E+03  0.00000000000E+00 0.  1.
         13    1    5    5    0    0 -0.15878141830E+03  0.17621873452E+03 -0.14454514738E+03  0.27777307434E+03  0.00000000000E+00 0.  1.
        -13    1    5    5    0    0 -0.57431504572E+02  0.18673627905E+02 -0.83891591477E+02  0.10336769910E+03  0.00000000000E+00 0. -1.
          3    1    6    6  503    0  0.10131632641E+03  0.33944526437E+03  0.63172006885E+02  0.35983161055E+03  0.00000000000E+00 0. -1.
         -3    1    6    6    0  503  0.59835162129E+02  0.29310934635E+03 -0.24761273685E+02  0.30017737460E+03  0.00000000000E+00 0.  1.
<mgrwt>
<rscale>  0 0.89231258E+03</rscale>
<asrwt>0</asrwt>
<pdfrwt beam="1">  1        2 0.92038207E-01 0.89231258E+03</pdfrwt>
<pdfrwt beam="2">  1       -2 0.24978795E+00 0.89231258E+03</pdfrwt>
<totfact> 0.32435773E+00</totfact>
</mgrwt>
</event>
<event>
12    1  0.1418317E-007  0.8543105E+03  0.7818608E-02  0.9484570E-01
          2   -1    0    0  501    0  0.00000000000E+00  0.00000000000E+00  0.96406556441E+03  0.96406556441E+03  0.00000000000E+00 0. -1.
         -2   -1    0    0    0  501 -0.00000000000E+00 -0.00000000000E+00 -0.12578446859E+04  0.12578446859E+04  0.00000000000E+00 0.  1.
         23    2    1    2    0    0  0.59186516793E+03 -0.46842696398E+03  0.55214181171E+03  0.93914936207E+03  0.86097308045E+02 0.  0.
    5000000    2    1    2    0    0 -0.59186516793E+03  0.46842696398E+03 -0.84592093318E+03  0.12827608882E+04  0.60013754554E+03 0.  0.
         23    2    4    4    0    0 -0.63458500673E+03  0.18832879492E+03 -0.58355695361E+03  0.88705776224E+03  0.90370845293E+02 0.  0.
         23    2    4    4    0    0  0.42719838797E+02  0.28009816906E+03 -0.26236397956E+03  0.39570312598E+03  0.86406812222E+02 0.  0.
          4    1    3    3  502    0  0.89203342896E+02 -0.11225236502E+03  0.11394794006E+03  0.18314465016E+03  0.00000000000E+00 0. -1.
         -4    1    3    3    0  502  0.50266182504E+03 -0.35617459896E+03  0.43819387164E+03  0.75600471191E+03  0.00000000000E+00 0.  1.
         11    1    5    5    0    0 -0.48089989498E+03  0.16065517724E+03 -0.48951900734E+03  0.70477205784E+03  0.00000000000E+00 0.  1.
        -11    1    5    5    0    0 -0.15368511175E+03  0.27673617672E+02 -0.94037946271E+02  0.18228570440E+03  0.00000000000E+00 0. -1.
          4    1    6    6  503    0  0.31101853048E+02  0.84260259421E+02 -0.37616129267E+02  0.97376022520E+02  0.00000000000E+00 0. -1.
         -4    1    6    6    0  503  0.11617985749E+02  0.19583790964E+03 -0.22474785030E+03  0.29832710346E+03  0.00000000000E+00 0.  1.
<mgrwt>
<rscale>  0 0.85431053E+03</rscale>
<asrwt>0</asrwt>
<pdfrwt beam="1">  1        2 0.14831778E+00 0.85431053E+03</pdfrwt>
<pdfrwt beam="2">  1       -2 0.19351457E+00 0.85431053E+03</pdfrwt>
<totfact> 0.39359747E+00</totfact>
</mgrwt>
</event>
<event>
12    1  0.1418317E-007  0.7931989E+03  0.7818608E-02  0.9569914E-01
          1   -1    0    0  501    0  0.00000000000E+00  0.00000000000E+00  0.19740382677E+04  0.19740382677E+04  0.00000000000E+00 0. -1.
         -1   -1    0    0    0  501 -0.00000000000E+00 -0.00000000000E+00 -0.45934286656E+03  0.45934286656E+03  0.00000000000E+00 0.  1.
         23    2    1    2    0    0  0.70301303211E+03  0.37374084195E+02  0.63970964346E+02  0.71289206860E+03  0.92188240616E+02 0.  0.
    5000000    2    1    2    0    0 -0.70301303211E+03 -0.37374084195E+02  0.14507244368E+04  0.17204890656E+04  0.59988089486E+03 0.  0.
         23    2    4    4    0    0 -0.30701911044E+03 -0.27771451174E+03  0.47625758123E+03  0.63768846586E+03  0.91865181640E+02 0.  0.
         23    2    4    4    0    0 -0.39599392167E+03  0.24034042754E+03  0.97446685552E+03  0.10828005998E+04  0.91086657739E+02 0.  0.
          3    1    3    3  502    0  0.47810533897E+03  0.48320772216E+02  0.79973348774E+02  0.48715023216E+03  0.00000000000E+00 0. -1.
         -3    1    3    3    0  502  0.22490769314E+03 -0.10946688021E+02 -0.16002384428E+02  0.22574183644E+03  0.00000000000E+00 0.  1.
         11    1    5    5    0    0 -0.24503022032E+03 -0.21660527197E+03  0.42639231916E+03  0.53737143816E+03  0.00000000000E+00 0. -1.
        -11    1    5    5    0    0 -0.61988890123E+02 -0.61109239767E+02  0.49865262075E+02  0.10031702769E+03  0.00000000000E+00 0.  1.
          4    1    6    6  503    0 -0.31806347167E+03  0.16549634461E+03  0.67290902281E+03  0.76246964862E+03  0.00000000000E+00 0. -1.
         -4    1    6    6    0  503 -0.77930450002E+02  0.74844082928E+02  0.30155783271E+03  0.32033095114E+03  0.00000000000E+00 0.  1.
<mgrwt>
<rscale>  0 0.79319893E+03</rscale>
<asrwt>0</asrwt>
<pdfrwt beam="1">  1        1 0.30369819E+00 0.79319893E+03</pdfrwt>
<pdfrwt beam="2">  1       -1 0.70668134E-01 0.79319893E+03</pdfrwt>
<totfact> 0.65341420E+00</totfact>
</mgrwt>
</event>
<event>
12    1  0.1418317E-007  0.3198188E+03  0.7818608E-02  0.1075733E+00
          1   -1    0    0  501    0  0.00000000000E+00  0.00000000000E+00  0.37261757281E+03  0.37261757281E+03  0.00000000000E+00 0. -1.
         -1   -1    0    0    0  501 -0.00000000000E+00 -0.00000000000E+00 -0.68711958674E+03  0.68711958674E+03  0.00000000000E+00 0.  1.
         23    2    1    2    0    0  0.17309871609E+03 -0.15312086041E+03  0.12749956352E+03  0.27946940074E+03  0.91857737020E+02 0.  0.
    5000000    2    1    2    0    0 -0.17309871609E+03  0.15312086041E+03 -0.44200157745E+03  0.78026775880E+03  0.60003601355E+03 0.  0.
         23    2    4    4    0    0  0.66553293455E+02  0.74585963788E+02 -0.48970866648E+03  0.50796377840E+03  0.90665402860E+02 0.  0.
         23    2    4    4    0    0 -0.23965200954E+03  0.78534896618E+02  0.47707089029E+02  0.27230398041E+03  0.90954250793E+02 0.  0.
          1    1    3    3  502    0  0.84201642010E+01 -0.47728232431E+02  0.48593789997E+02  0.68631186515E+02  0.00000000000E+00 0. -1.
         -1    1    3    3    0  502  0.16467855189E+03 -0.10539262797E+03  0.78905773520E+02  0.21083821422E+03  0.00000000000E+00 0.  1.
         11    1    5    5    0    0  0.89431406917E+02  0.59266770323E+02 -0.38029565050E+03  0.39513960621E+03  0.00000000000E+00 0.  1.
        -11    1    5    5    0    0 -0.22878113462E+02  0.15319193465E+02 -0.10941301598E+03  0.11282417219E+03  0.00000000000E+00 0. -1.
          3    1    6    6  503    0 -0.10427064892E+03 -0.10614739140E+00 -0.11532848122E+02  0.10490655880E+03  0.00000000000E+00 0. -1.
         -3    1    6    6    0  503 -0.13538136062E+03  0.78641044009E+02  0.59239937151E+02  0.16739742161E+03  0.00000000000E+00 0.  1.
<mgrwt>
<rscale>  0 0.31981878E+03</rscale>
<asrwt>0</asrwt>
<pdfrwt beam="1">  1        1 0.57325781E-01 0.31981878E+03</pdfrwt>
<pdfrwt beam="2">  1       -1 0.10571070E+00 0.31981878E+03</pdfrwt>
<totfact> 0.59192730E+01</totfact>
</mgrwt>
</event>
<event>
12    1  0.1418317E-007  0.5883712E+03  0.7818608E-02  0.9929830E-01
          1   -1    0    0  501    0  0.00000000000E+00  0.00000000000E+00  0.24082042096E+04  0.24082042096E+04  0.00000000000E+00 0. -1.
         -1   -1    0    0    0  501 -0.00000000000E+00 -0.00000000000E+00 -0.19954524980E+03  0.19954524980E+03  0.00000000000E+00 0.  1.
         23    2    1    2    0    0  0.29809946377E+03  0.43086325009E+03  0.12685966518E+04  0.13754822303E+04  0.90041492652E+02 0.  0.
    5000000    2    1    2    0    0 -0.29809946377E+03 -0.43086325009E+03  0.94006230806E+03  0.12322672291E+04  0.60021575319E+03 0.  0.
         23    2    4    4    0    0 -0.19092697586E+03 -0.17553926014E+02  0.70375117634E+03  0.73617472395E+03  0.99630595506E+02 0.  0.
         23    2    4    4    0    0 -0.10717248791E+03 -0.41330932408E+03  0.23631113172E+03  0.49609250518E+03  0.89186788186E+02 0.  0.
          3    1    3    3  502    0  0.16731998528E+03  0.31506127362E+03  0.83375485584E+03  0.90686644179E+03  0.00000000000E+00 0. -1.
         -3    1    3    3    0  502  0.13077947849E+03  0.11580197647E+03  0.43484179593E+03  0.46861578850E+03  0.00000000000E+00 0.  1.
         13    1    5    5    0    0 -0.13711445517E+03 -0.50412528519E+02  0.39736977043E+03  0.42337280415E+03  0.00000000000E+00 0. -1.
        -13    1    5    5    0    0 -0.53812520688E+02  0.32858602505E+02  0.30638140591E+03  0.31280191980E+03  0.00000000000E+00 0.  1.
          4    1    6    6  503    0  0.12225007420E+02 -0.10261980541E+03  0.57118214802E+02  0.11807948904E+03  0.00000000000E+00 0. -1.
         -4    1    6    6    0  503 -0.11939749533E+03 -0.31068951867E+03  0.17919291692E+03  0.37801301615E+03  0.00000000000E+00 0.  1.
<mgrwt>
<rscale>  0 0.58837120E+03</rscale>
<asrwt>0</asrwt>
<pdfrwt beam="1">  1        1 0.37049294E+00 0.58837120E+03</pdfrwt>
<pdfrwt beam="2">  1       -1 0.30699271E-01 0.58837120E+03</pdfrwt>
<totfact> 0.16553923E+01</totfact>
</mgrwt>
</event>
<event>
12    1  0.1418317E-007  0.1726897E+04  0.7818608E-02  0.8746171E-01
         -2   -1    0    0    0  501 -0.00000000000E+00  0.00000000000E+00  0.91998588555E+03  0.91998588555E+03  0.00000000000E+00 0.  1.
          2   -1    0    0  501    0  0.00000000000E+00 -0.00000000000E+00 -0.39680447175E+04  0.39680447175E+04  0.00000000000E+00 0. -1.
         23    2    1    2    0    0 -0.16221292127E+04  0.52336815561E+03 -0.24482038206E+04  0.29844602289E+04  0.89908294049E+02 0.  0.
    5000000    2    1    2    0    0  0.16221292127E+04 -0.52336815561E+03 -0.59985501132E+03  0.19035703742E+04  0.59877936329E+03 0.  0.
         23    2    4    4    0    0  0.15623227810E+04 -0.50422990669E+03 -0.42425313216E+03  0.16975254211E+04  0.80632278134E+02 0.  0.
         23    2    4    4    0    0  0.59806431654E+02 -0.19138248921E+02 -0.17560187915E+03  0.20604495306E+03  0.87609479392E+02 0.  0.
          2    1    3    3  502    0 -0.97996830263E+03  0.28723558217E+03 -0.15257294471E+04  0.18359445797E+04  0.00000000000E+00 0. -1.
         -2    1    3    3    0  502 -0.64216091006E+03  0.23613257344E+03 -0.92247437353E+03  0.11485156492E+04  0.00000000000E+00 0.  1.
         13    1    5    5    0    0  0.11222939505E+04 -0.37237758676E+03 -0.34137567161E+03  0.12307502296E+04  0.00000000000E+00 0.  1.
        -13    1    5    5    0    0  0.44002883051E+03 -0.13185231993E+03 -0.82877460550E+02  0.46677519152E+03  0.00000000000E+00 0. -1.
          1    1    6    6  503    0  0.83614138913E+01 -0.47230096959E+02 -0.63908288933E+02  0.79905348353E+02  0.00000000000E+00 0. -1.
         -1    1    6    6    0  503  0.51445017763E+02  0.28091848038E+02 -0.11169359022E+03  0.12613960471E+03  0.00000000000E+00 0.  1.
<mgrwt>
<rscale>  0 0.17268967E+04</rscale>
<asrwt>0</asrwt>
<pdfrwt beam="1">  1        2 0.61046842E+00 0.17268967E+04</pdfrwt>
<pdfrwt beam="2">  1       -2 0.14153629E+00 0.17268967E+04</pdfrwt>
<totfact> 0.11841833E-01</totfact>
</mgrwt>
</event>
<event>
12    1  0.1418317E-007  0.4862986E+03  0.7818608E-02  0.1017418E+00
         -1   -1    0    0    0  501 -0.00000000000E+00  0.00000000000E+00  0.86798201853E+03  0.86798201853E+03  0.00000000000E+00 0.  1.
          1   -1    0    0  501    0  0.00000000000E+00 -0.00000000000E+00 -0.49016674602E+03  0.49016674602E+03  0.00000000000E+00 0. -1.
         23    2    1    2    0    0 -0.43091031982E+03  0.19481018806E+03  0.34673986352E+03  0.59349795942E+03  0.91523667860E+02 0.  0.
    5000000    2    1    2    0    0  0.43091031982E+03 -0.19481018806E+03  0.31075408984E+02  0.76465080513E+03  0.60007537830E+03 0.  0.
         23    2    4    4    0    0  0.22982484781E+03 -0.97359058528E+02  0.30275533153E+03  0.40263579627E+03  0.90313602087E+02 0.  0.
         23    2    4    4    0    0  0.20108547201E+03 -0.97451129536E+02 -0.27167992254E+03  0.36201500886E+03  0.85514891270E+02 0.  0.
          3    1    3    3  502    0 -0.49173590212E+02 -0.73353578339E+01  0.36321952215E+02  0.61572182531E+02  0.00000000000E+00 0. -1.
         -3    1    3    3    0  502 -0.38173672961E+03  0.20214554590E+03  0.31041791130E+03  0.53192577689E+03  0.00000000000E+00 0.  1.
         13    1    5    5    0    0  0.28687993848E+02 -0.50833630760E+02  0.55752491478E+02  0.80718023473E+02  0.00000000000E+00 0. -1.
        -13    1    5    5    0    0  0.20113685397E+03 -0.46525427767E+02  0.24700284005E+03  0.32191777280E+03  0.00000000000E+00 0.  1.
          1    1    6    6  503    0  0.52173843258E+02 -0.91134517727E+01 -0.12253953283E+03  0.13349570041E+03  0.00000000000E+00 0. -1.
         -1    1    6    6    0  503  0.14891162875E+03 -0.88337677763E+02 -0.14914038971E+03  0.22851930845E+03  0.00000000000E+00 0.  1.
<mgrwt>
<rscale>  0 0.48629857E+03</rscale>
<asrwt>0</asrwt>
<pdfrwt beam="1">  1        1 0.75410269E-01 0.48629857E+03</pdfrwt>
<pdfrwt beam="2">  1       -1 0.13353570E+00 0.48629857E+03</pdfrwt>
<totfact> 0.22892501E+01</totfact>
</mgrwt>
</event>
<event>
12    1  0.1418317E-007  0.3476336E+03  0.7818608E-02  0.1063591E+00
         -1   -1    0    0    0  501 -0.00000000000E+00  0.00000000000E+00  0.22977124507E+03  0.22977124507E+03  0.00000000000E+00 0.  1.
          1   -1    0    0  501    0  0.00000000000E+00 -0.00000000000E+00 -0.95235358286E+03  0.95235358286E+03  0.00000000000E+00 0. -1.
         23    2    1    2    0    0 -0.23340381838E+03 -0.38576866362E+02 -0.66689846711E+02  0.26242609017E+03  0.91947811795E+02 0.  0.
    5000000    2    1    2    0    0  0.23340381838E+03  0.38576866362E+02 -0.65589249108E+03  0.91969873776E+03  0.59973768544E+03 0.  0.
         23    2    4    4    0    0  0.27658675418E+03  0.12840674794E+03 -0.70818799401E+03  0.77644565392E+03  0.91373372100E+02 0.  0.
         23    2    4    4    0    0 -0.43182935794E+02 -0.89829881581E+02  0.52295502927E+02  0.14325308385E+03  0.88614066812E+02 0.  0.
          2    1    3    3  502    0 -0.96570630166E+02 -0.61131961966E+02 -0.40753671386E+02  0.12134193470E+03  0.00000000000E+00 0. -1.
         -2    1    3    3    0  502 -0.13683318822E+03  0.22555095604E+02 -0.25936175325E+02  0.14108415547E+03  0.00000000000E+00 0.  1.
         11    1    5    5    0    0  0.13562062757E+03  0.35382430238E+02 -0.41575078919E+03  0.43874091410E+03  0.00000000000E+00 0.  1.
        -11    1    5    5    0    0  0.14096612661E+03  0.93024317705E+02 -0.29243720481E+03  0.33770473982E+03  0.00000000000E+00 0. -1.
          1    1    6    6  503    0 -0.16682518800E+02  0.16615916740E+02  0.11649282691E+02  0.26269771789E+02  0.00000000000E+00 0. -1.
         -1    1    6    6    0  503 -0.26500416994E+02 -0.10644579832E+03  0.40646220236E+02  0.11698331206E+03  0.00000000000E+00 0.  1.
<mgrwt>
<rscale>  0 0.34763363E+03</rscale>
<asrwt>0</asrwt>
<pdfrwt beam="1">  1        1 0.14651594E+00 0.34763363E+03</pdfrwt>
<pdfrwt beam="2">  1       -1 0.35349422E-01 0.34763363E+03</pdfrwt>
<totfact> 0.13339945E+02</totfact>
</mgrwt>
</event>
<event>
12    1  0.1418317E-007  0.3788438E+03  0.7818608E-02  0.1051362E+00
         -2   -1    0    0    0  501 -0.00000000000E+00  0.00000000000E+00  0.25346390849E+03  0.25346390849E+03  0.00000000000E+00 0.  1.
          2   -1    0    0  501    0  0.00000000000E+00 -0.00000000000E+00 -0.29975737530E+04  0.29975737530E+04  0.00000000000E+00 0. -1.
         23    2    1    2    0    0  0.20842701407E+03  0.26821085385E+03  0.65713119110E+02  0.35782549158E+03  0.91334473694E+02 0.  0.
    5000000    2    1    2    0    0 -0.20842701407E+03 -0.26821085385E+03 -0.28098229636E+04  0.28932121699E+04  0.60016055426E+03 0.  0.
         23    2    4    4    0    0 -0.73665481569E+01 -0.16233220357E+03 -0.24573844828E+04  0.24643059933E+04  0.87518694585E+02 0.  0.
         23    2    4    4    0    0 -0.20106046591E+03 -0.10587865027E+03 -0.35243848077E+03  0.42890617657E+03  0.90066786522E+02 0.  0.
          2    1    3    3  502    0  0.57344561497E+02  0.13521946438E+03  0.53001885481E+02  0.15614705295E+03  0.00000000000E+00 0. -1.
         -2    1    3    3    0  502  0.15108245257E+03  0.13299138947E+03  0.12711233629E+02  0.20167843863E+03  0.00000000000E+00 0.  1.
         13    1    5    5    0    0 -0.30538029285E+02 -0.11781375912E+03 -0.12584620910E+04  0.12643336141E+04  0.00000000000E+00 0.  1.
        -13    1    5    5    0    0  0.23171481128E+02 -0.44518444451E+02 -0.11989223918E+04  0.11999723792E+04  0.00000000000E+00 0. -1.
          2    1    6    6  503    0 -0.12835262766E+03 -0.28536216450E+02 -0.14403415558E+03  0.19502448731E+03  0.00000000000E+00 0.  1.
         -2    1    6    6    0  503 -0.72707838253E+02 -0.77342433824E+02 -0.20840432519E+03  0.23388168926E+03  0.00000000000E+00 0. -1.
<mgrwt>
<rscale>  0 0.37884382E+03</rscale>
<asrwt>0</asrwt>
<pdfrwt beam="1">  1        2 0.46116521E+00 0.37884382E+03</pdfrwt>
<pdfrwt beam="2">  1       -2 0.38994446E-01 0.37884382E+03</pdfrwt>
<totfact> 0.12654455E+01</totfact>
</mgrwt>
</event>
<event>
12    1  0.1418317E-007  0.1074543E+04  0.7818608E-02  0.9230366E-01
         -2   -1    0    0    0  501 -0.00000000000E+00  0.00000000000E+00  0.43424076454E+03  0.43424076454E+03  0.00000000000E+00 0.  1.
          2   -1    0    0  501    0  0.00000000000E+00 -0.00000000000E+00 -0.28490370028E+04  0.28490370028E+04  0.00000000000E+00 0. -1.
         23    2    1    2    0    0  0.79704577426E+03 -0.59296088255E+03 -0.15216503766E+04  0.18196161657E+04  0.93266002718E+02 0.  0.
    5000000    2    1    2    0    0 -0.79704577426E+03  0.59296088255E+03 -0.89314586166E+03  0.14636616017E+04  0.59808960826E+03 0.  0.
         23    2    4    4    0    0 -0.16288998582E+03  0.47181436554E+03 -0.39138066494E+03  0.64060101425E+03  0.89715614878E+02 0.  0.
         23    2    4    4    0    0 -0.63415578843E+03  0.12114651701E+03 -0.50176519672E+03  0.82306058742E+03  0.93970076854E+02 0.  0.
          1    1    3    3  502    0  0.43006392219E+03 -0.35613157701E+03 -0.78757456846E+03  0.96543170561E+03  0.00000000000E+00 0. -1.
         -1    1    3    3    0  502  0.36698185207E+03 -0.23682930554E+03 -0.73407580816E+03  0.85418446007E+03  0.00000000000E+00 0.  1.
         13    1    5    5    0    0 -0.15046248848E+03  0.46219823145E+03 -0.35791568804E+03  0.60363052056E+03  0.00000000000E+00 0. -1.
        -13    1    5    5    0    0 -0.12427497343E+02  0.96161340872E+01 -0.33464976901E+02  0.36970493694E+02  0.00000000000E+00 0.  1.
          4    1    6    6  503    0 -0.36056092209E+03  0.11513411133E+03 -0.27952629876E+03  0.47052629452E+03  0.00000000000E+00 0. -1.
         -4    1    6    6    0  503 -0.27359486634E+03  0.60124056800E+01 -0.22223889796E+03  0.35253429291E+03  0.00000000000E+00 0.  1.
<mgrwt>
<rscale>  0 0.10745428E+04</rscale>
<asrwt>0</asrwt>
<pdfrwt beam="1">  1        2 0.43831340E+00 0.10745428E+04</pdfrwt>
<pdfrwt beam="2">  1       -2 0.66806270E-01 0.10745428E+04</pdfrwt>
<totfact> 0.44800506E+00</totfact>
</mgrwt>
</event>
<event>
12    1  0.1418317E-007  0.3856644E+03  0.7818608E-02  0.1048860E+00
          2   -1    0    0  501    0  0.00000000000E+00  0.00000000000E+00  0.15680577196E+04  0.15680577196E+04  0.00000000000E+00 0. -1.
         -2   -1    0    0    0  501 -0.00000000000E+00 -0.00000000000E+00 -0.19862802036E+03  0.19862802036E+03  0.00000000000E+00 0.  1.
         23    2    1    2    0    0 -0.80712060006E+02 -0.20324165695E+03  0.10026599529E+04  0.10302499241E+04  0.90919289469E+02 0.  0.
    5000000    2    1    2    0    0  0.80712060006E+02  0.20324165695E+03  0.36676974636E+03  0.73643581588E+03  0.59999671359E+03 0.  0.
         23    2    4    4    0    0 -0.55696418916E+02 -0.14160097414E+03 -0.39590700609E+02  0.17869568297E+03  0.84922297311E+02 0.  0.
         23    2    4    4    0    0  0.13640847892E+03  0.34484263109E+03  0.40636044697E+03  0.55774013291E+03  0.91768892664E+02 0.  0.
          3    1    3    3  502    0 -0.13831530714E+02 -0.58189215874E+01  0.21346420170E+03  0.21399097293E+03  0.00000000000E+00 0. -1.
         -3    1    3    3    0  502 -0.66880529293E+02 -0.19742273536E+03  0.78919575123E+03  0.81625895119E+03  0.00000000000E+00 0.  1.
         11    1    5    5    0    0  0.40896851646E+01 -0.10235744479E+03 -0.28462999366E+02  0.10631986814E+03  0.00000000000E+00 0. -1.
        -11    1    5    5    0    0 -0.59786104081E+02 -0.39243529342E+02 -0.11127701243E+02  0.72375814823E+02  0.00000000000E+00 0.  1.
          4    1    6    6  503    0 -0.32961908890E+01  0.20658925926E+02  0.58550006495E+02  0.62175231044E+02  0.00000000000E+00 0. -1.
         -4    1    6    6    0  503  0.13970466981E+03  0.32418370516E+03  0.34781044048E+03  0.49556490187E+03  0.00000000000E+00 0.  1.
<mgrwt>
<rscale>  0 0.38566442E+03</rscale>
<asrwt>0</asrwt>
<pdfrwt beam="1">  1        2 0.24123964E+00 0.38566442E+03</pdfrwt>
<pdfrwt beam="2">  1       -2 0.30558158E-01 0.38566442E+03</pdfrwt>
<totfact> 0.12251738E+02</totfact>
</mgrwt>
</event>
<event>
12    1  0.1418317E-007  0.8376366E+03  0.7818608E-02  0.9507083E-01
          2   -1    0    0  501    0  0.00000000000E+00  0.00000000000E+00  0.42501429486E+04  0.42501429486E+04  0.00000000000E+00 0. -1.
         -2   -1    0    0    0  501 -0.00000000000E+00 -0.00000000000E+00 -0.19934418722E+03  0.19934418722E+03  0.00000000000E+00 0.  1.
         23    2    1    2    0    0  0.46596792417E+03  0.65621863915E+03  0.21937421851E+04  0.23384783978E+04  0.90705201329E+02 0.  0.
    5000000    2    1    2    0    0 -0.46596792417E+03 -0.65621863915E+03  0.18570565762E+04  0.21110087380E+04  0.59995812831E+03 0.  0.
         23    2    4    4    0    0 -0.24253870083E+03 -0.12019999750E+03  0.11808237323E+04  0.12149544370E+04  0.92176659687E+02 0.  0.
         23    2    4    4    0    0 -0.22342922334E+03 -0.53601864165E+03  0.67623284397E+03  0.89605430094E+03  0.91574280921E+02 0.  0.
          4    1    3    3  502    0  0.21849495732E+03  0.29009460865E+03  0.11178243668E+04  0.11753409051E+04  0.00000000000E+00 0.  1.
         -4    1    3    3    0  502  0.24747296685E+03  0.36612403050E+03  0.10759178184E+04  0.11631374927E+04  0.00000000000E+00 0. -1.
         11    1    5    5    0    0 -0.19861645097E+03 -0.57664165567E+02  0.78274274992E+03  0.80960475736E+03  0.00000000000E+00 0. -1.
        -11    1    5    5    0    0 -0.43922249864E+02 -0.62535831938E+02  0.39808098235E+03  0.40534967969E+03  0.00000000000E+00 0.  1.
          2    1    6    6  503    0 -0.12055273518E+03 -0.18217060054E+03  0.27657232739E+03  0.35243629486E+03  0.00000000000E+00 0. -1.
         -2    1    6    6    0  503 -0.10287648816E+03 -0.35384804111E+03  0.39966051659E+03  0.54361800608E+03  0.00000000000E+00 0.  1.
<mgrwt>
<rscale>  0 0.83763656E+03</rscale>
<asrwt>0</asrwt>
<pdfrwt beam="1">  1        2 0.65386808E+00 0.83763656E+03</pdfrwt>
<pdfrwt beam="2">  1       -2 0.30668340E-01 0.83763656E+03</pdfrwt>
<totfact> 0.22710686E+00</totfact>
</mgrwt>
</event>
<event>
12    1  0.1418317E-007  0.1166148E+04  0.7818608E-02  0.9143014E-01
         -1   -1    0    0    0  501 -0.00000000000E+00  0.00000000000E+00  0.22615898249E+04  0.22615898249E+04  0.00000000000E+00 0.  1.
          1   -1    0    0  501    0  0.00000000000E+00 -0.00000000000E+00 -0.66716263823E+03  0.66716263823E+03  0.00000000000E+00 0. -1.
         23    2    1    2    0    0 -0.50791298283E+03 -0.96799182513E+03  0.11889923005E+04  0.16176324665E+04  0.89712510305E+02 0.  0.
    5000000    2    1    2    0    0  0.50791298283E+03  0.96799182513E+03  0.40543488616E+03  0.13111199966E+04  0.59972862768E+03 0.  0.
         23    2    4    4    0    0  0.33525380040E+03  0.10623589202E+03  0.12841280667E+03  0.38464360163E+03  0.88202471174E+02 0.  0.
         23    2    4    4    0    0  0.17265918243E+03  0.86175593311E+03  0.27702207950E+03  0.92647639495E+03  0.95826908255E+02 0.  0.
          2    1    3    3  502    0 -0.19122985244E+03 -0.41719795851E+03  0.55347740670E+03  0.71899946647E+03  0.00000000000E+00 0. -1.
         -2    1    3    3    0  502 -0.31668313039E+03 -0.55079386662E+03  0.63551489379E+03  0.89863300006E+03  0.00000000000E+00 0.  1.
         11    1    5    5    0    0  0.19593322957E+03  0.27902732689E+02  0.10198371351E+03  0.22264112550E+03  0.00000000000E+00 0. -1.
        -11    1    5    5    0    0  0.13932057083E+03  0.78333159333E+02  0.26429093156E+02  0.16200247613E+03  0.00000000000E+00 0.  1.
          1    1    6    6  503    0  0.17443988951E+03  0.81389692710E+03  0.28071806818E+03  0.87844186876E+03  0.00000000000E+00 0. -1.
         -1    1    6    6    0  503 -0.17807070746E+01  0.47859006007E+02 -0.36959886795E+01  0.48034526187E+02  0.00000000000E+00 0.  1.
<mgrwt>
<rscale>  0 0.11661479E+04</rscale>
<asrwt>0</asrwt>
<pdfrwt beam="1">  1        1 0.10264041E+00 0.11661479E+04</pdfrwt>
<pdfrwt beam="2">  1       -1 0.34793689E+00 0.11661479E+04</pdfrwt>
<totfact> 0.46809693E-01</totfact>
</mgrwt>
</event>
<event>
12    1  0.1418317E-007  0.1296064E+04  0.7818608E-02  0.9032693E-01
         -2   -1    0    0    0  501 -0.00000000000E+00  0.00000000000E+00  0.50915980858E+03  0.50915980858E+03  0.00000000000E+00 0. -1.
          2   -1    0    0  501    0  0.00000000000E+00 -0.00000000000E+00 -0.37672864870E+04  0.37672864870E+04  0.00000000000E+00 0.  1.
         23    2    1    2    0    0  0.42134468208E+03  0.11623940849E+04 -0.22593333857E+04  0.25771242806E+04  0.91054161255E+02 0.  0.
    5000000    2    1    2    0    0 -0.42134468208E+03 -0.11623940849E+04 -0.99879329271E+03  0.16993220150E+04  0.60117877484E+03 0.  0.
         23    2    4    4    0    0 -0.18374377925E+03 -0.26372048097E+02 -0.17325887326E+03  0.27207458719E+03  0.97717360263E+02 0.  0.
         23    2    4    4    0    0 -0.23760090282E+03 -0.11360220368E+04 -0.82553441945E+03  0.14272474278E+04  0.92346550211E+02 0.  0.
          4    1    3    3  502    0  0.26855468672E+03  0.60821215710E+03 -0.12204150193E+04  0.13897684940E+04  0.00000000000E+00 0. -1.
         -4    1    3    3    0  502  0.15278999535E+03  0.55418192776E+03 -0.10389183664E+04  0.11873557865E+04  0.00000000000E+00 0.  1.
         11    1    5    5    0    0 -0.10822669396E+03  0.85625779137E+01 -0.41467256681E+02  0.11621475123E+03  0.00000000000E+00 0. -1.
        -11    1    5    5    0    0 -0.75517085290E+02 -0.34934626011E+02 -0.13179161658E+03  0.15585983596E+03  0.00000000000E+00 0.  1.
          3    1    6    6  503    0 -0.23580940268E+02 -0.10101443976E+03 -0.43527967904E+02  0.11249294099E+03  0.00000000000E+00 0. -1.
         -3    1    6    6    0  503 -0.21401996256E+03 -0.10350075970E+04 -0.78200645154E+03  0.13147544868E+04  0.00000000000E+00 0.  1.
<mgrwt>
<rscale>  0 0.12960636E+04</rscale>
<asrwt>0</asrwt>
<pdfrwt beam="1">  1        2 0.57958254E+00 0.12960636E+04</pdfrwt>
<pdfrwt beam="2">  1       -2 0.78332277E-01 0.12960636E+04</pdfrwt>
<totfact> 0.75082997E-01</totfact>
</mgrwt>
</event>
<event>
12    1  0.1418317E-007  0.1393471E+04  0.7818608E-02  0.8958558E-01
          2   -1    0    0  501    0  0.00000000000E+00  0.00000000000E+00  0.12911179756E+04  0.12911179756E+04  0.00000000000E+00 0.  1.
         -2   -1    0    0    0  501 -0.00000000000E+00 -0.00000000000E+00 -0.20765663663E+04  0.20765663663E+04  0.00000000000E+00 0. -1.
         23    2    1    2    0    0 -0.12645864782E+04 -0.52202918781E+03  0.43484931081E+03  0.14383895953E+04  0.90428264117E+02 0.  0.
    5000000    2    1    2    0    0  0.12645864782E+04  0.52202918781E+03 -0.12202977014E+04  0.19292947466E+04  0.60113085529E+03 0.  0.
         23    2    4    4    0    0  0.42572239610E+03  0.36756045660E+03 -0.77774128921E+03  0.96412013470E+03  0.91136564552E+02 0.  0.
         23    2    4    4    0    0  0.83886408213E+03  0.15446873121E+03 -0.44255641224E+03  0.96517461188E+03  0.90290177749E+02 0.  0.
          1    1    3    3  502    0 -0.35503545555E+03 -0.19070978732E+03  0.12205268199E+03  0.42109055423E+03  0.00000000000E+00 0. -1.
         -1    1    3    3    0  502 -0.90955102268E+03 -0.33131940049E+03  0.31279662882E+03  0.10172990411E+04  0.00000000000E+00 0.  1.
         13    1    5    5    0    0  0.98434118281E+02  0.89397776287E+02 -0.25465353301E+03  0.28727975899E+03  0.00000000000E+00 0. -1.
        -13    1    5    5    0    0  0.32728827781E+03  0.27816268031E+03 -0.52308775619E+03  0.67684037571E+03  0.00000000000E+00 0.  1.
          1    1    6    6  503    0  0.72522467543E+03  0.12385793058E+03 -0.41345047326E+03  0.84393892591E+03  0.00000000000E+00 0. -1.
         -1    1    6    6    0  503  0.11363940670E+03  0.30610800629E+02 -0.29105938980E+02  0.12123568598E+03  0.00000000000E+00 0.  1.
<mgrwt>
<rscale>  0 0.13934710E+04</rscale>
<asrwt>0</asrwt>
<pdfrwt beam="1">  1        2 0.19863353E+00 0.13934710E+04</pdfrwt>
<pdfrwt beam="2">  1       -2 0.31947175E+00 0.13934710E+04</pdfrwt>
<totfact> 0.38541511E-01</totfact>
</mgrwt>
</event>
<event>
12    1  0.1418317E-007  0.3279165E+03  0.7818608E-02  0.1072063E+00
          1   -1    0    0  501    0  0.00000000000E+00  0.00000000000E+00  0.53828534637E+03  0.53828534637E+03  0.00000000000E+00 0. -1.
         -1   -1    0    0    0  501 -0.00000000000E+00 -0.00000000000E+00 -0.77982532560E+03  0.77982532560E+03  0.00000000000E+00 0.  1.
         23    2    1    2    0    0 -0.72137105791E+02  0.29472910226E+03 -0.50298001489E+03  0.59684683940E+03  0.10567993457E+03 0.  0.
    5000000    2    1    2    0    0  0.72137105791E+02 -0.29472910226E+03  0.26144003565E+03  0.72126383257E+03  0.59983465903E+03 0.  0.
         23    2    4    4    0    0  0.82669314062E+02 -0.99840877107E+02 -0.17595715652E+03  0.23393925426E+03  0.83452007319E+02 0.  0.
         23    2    4    4    0    0 -0.10532208272E+02 -0.19488822515E+03  0.43739719217E+03  0.48732457831E+03  0.89869868073E+02 0.  0.
          3    1    3    3  502    0 -0.55890164992E+02  0.97764950305E+02 -0.26208955559E+03  0.28525888452E+03  0.00000000000E+00 0. -1.
         -3    1    3    3    0  502 -0.16246940799E+02  0.19696415195E+03 -0.24089045930E+03  0.31158795487E+03  0.00000000000E+00 0.  1.
         13    1    5    5    0    0  0.49564978969E+02 -0.88445424894E+02 -0.72289580841E+02  0.12451933112E+03  0.00000000000E+00 0. -1.
        -13    1    5    5    0    0  0.33104335093E+02 -0.11395452213E+02 -0.10366757568E+03  0.10941992314E+03  0.00000000000E+00 0.  1.
          2    1    6    6  503    0 -0.41101163447E+02 -0.14470221054E+03  0.35986655683E+03  0.39004099027E+03  0.00000000000E+00 0. -1.
         -2    1    6    6    0  503  0.30568955175E+02 -0.50186014618E+02  0.77530635345E+02  0.97283588034E+02  0.00000000000E+00 0.  1.
<mgrwt>
<rscale>  0 0.32791646E+03</rscale>
<asrwt>0</asrwt>
<pdfrwt beam="1">  1        1 0.82813130E-01 0.32791646E+03</pdfrwt>
<pdfrwt beam="2">  1       -1 0.11997313E+00 0.32791646E+03</pdfrwt>
<totfact> 0.27058710E+01</totfact>
</mgrwt>
</event>
<event>
12    1  0.1418317E-007  0.7071842E+03  0.7818608E-02  0.9705025E-01
         -2   -1    0    0    0  501 -0.00000000000E+00  0.00000000000E+00  0.19847280446E+03  0.19847280446E+03  0.00000000000E+00 0.  1.
          2   -1    0    0  501    0  0.00000000000E+00 -0.00000000000E+00 -0.30244118697E+04  0.30244118697E+04  0.00000000000E+00 0. -1.
         23    2    1    2    0    0  0.54440949652E+03 -0.22616409685E+03 -0.17992843424E+04  0.18956473045E+04  0.92318253087E+02 0.  0.
    5000000    2    1    2    0    0 -0.54440949652E+03  0.22616409685E+03 -0.10266547228E+04  0.13272373696E+04  0.60000601390E+03 0.  0.
         23    2    4    4    0    0 -0.37225099216E+03 -0.15176518071E+03 -0.45190031356E+03  0.61212103516E+03  0.94206141252E+02 0.  0.
         23    2    4    4    0    0 -0.17215850436E+03  0.37792927757E+03 -0.57475440927E+03  0.71511633443E+03  0.92626407292E+02 0.  0.
          2    1    3    3  502    0  0.44633389283E+03 -0.16527555085E+03 -0.15388991115E+04  0.16108197996E+04  0.00000000000E+00 0. -1.
         -2    1    3    3    0  502  0.98075603698E+02 -0.60888546008E+02 -0.26038523089E+03  0.28482750489E+03  0.00000000000E+00 0.  1.
         13    1    5    5    0    0 -0.11876409658E+03 -0.74515352160E+02 -0.10289107624E+03  0.17390808467E+03  0.00000000000E+00 0.  1.
        -13    1    5    5    0    0 -0.25348689558E+03 -0.77249828552E+02 -0.34900923732E+03  0.43821295048E+03  0.00000000000E+00 0. -1.
          2    1    6    6  503    0 -0.26195397114E+02  0.10555109620E+03 -0.21440310833E+03  0.24040783182E+03  0.00000000000E+00 0. -1.
         -2    1    6    6    0  503 -0.14596310725E+03  0.27237818136E+03 -0.36035130094E+03  0.47470850261E+03  0.00000000000E+00 0.  1.
<mgrwt>
<rscale>  0 0.70718419E+03</rscale>
<asrwt>0</asrwt>
<pdfrwt beam="1">  1        2 0.46529413E+00 0.70718419E+03</pdfrwt>
<pdfrwt beam="2">  1       -2 0.30534278E-01 0.70718419E+03</pdfrwt>
<totfact> 0.17813588E+01</totfact>
</mgrwt>
</event>
<event>
12    1  0.1418317E-007  0.6712012E+03  0.7818608E-02  0.9767790E-01
         -2   -1    0    0    0  501 -0.00000000000E+00  0.00000000000E+00  0.75085159754E+03  0.75085159754E+03  0.00000000000E+00 0.  1.
          2   -1    0    0  501    0  0.00000000000E+00 -0.00000000000E+00 -0.70914341765E+03  0.70914341765E+03  0.00000000000E+00 0. -1.
         23    2    1    2    0    0  0.27593203943E+03 -0.47624227800E+03  0.26236349285E+03  0.61653994406E+03  0.91332921277E+02 0.  0.
    5000000    2    1    2    0    0 -0.27593203943E+03  0.47624227800E+03 -0.22065531296E+03  0.84345507112E+03  0.59981871605E+03 0.  0.
         23    2    4    4    0    0  0.16375599136E+03  0.10573695499E+03  0.15375799265E+02  0.21540294017E+03  0.90364169204E+02 0.  0.
         23    2    4    4    0    0 -0.43968803079E+03  0.37050532301E+03 -0.23603111223E+03  0.62805213095E+03  0.90216597423E+02 0.  0.
          1    1    3    3  502    0  0.13920799644E+03 -0.18766468862E+03  0.70759802331E+02  0.24413899986E+03  0.00000000000E+00 0. -1.
         -1    1    3    3    0  502  0.13672404300E+03 -0.28857758938E+03  0.19160369052E+03  0.37240094420E+03  0.00000000000E+00 0.  1.
         11    1    5    5    0    0  0.85035428726E+02  0.36104005649E+01 -0.29458100514E+01  0.85163002106E+02  0.00000000000E+00 0.  1.
        -11    1    5    5    0    0  0.78720562631E+02  0.10212655442E+03  0.18321609316E+02  0.13023993806E+03  0.00000000000E+00 0. -1.
          1    1    6    6  503    0 -0.32082850115E+03  0.28228985156E+03 -0.13246281287E+03  0.44739790370E+03  0.00000000000E+00 0. -1.
         -1    1    6    6    0  503 -0.11885952964E+03  0.88215471452E+02 -0.10356829936E+03  0.18065422725E+03  0.00000000000E+00 0.  1.
<mgrwt>
<rscale>  0 0.67120122E+03</rscale>
<asrwt>0</asrwt>
<pdfrwt beam="1">  1        2 0.10909899E+00 0.67120122E+03</pdfrwt>
<pdfrwt beam="2">  1       -2 0.11551563E+00 0.67120122E+03</pdfrwt>
<totfact> 0.24008012E+01</totfact>
</mgrwt>
</event>
<event>
12    1  0.1418317E-007  0.1026465E+04  0.7818608E-02  0.9279985E-01
         -1   -1    0    0    0  501 -0.00000000000E+00  0.00000000000E+00  0.78203269356E+03  0.78203269356E+03  0.00000000000E+00 0.  1.
          1   -1    0    0  501    0  0.00000000000E+00 -0.00000000000E+00 -0.18432269646E+04  0.18432269646E+04  0.00000000000E+00 0. -1.
         23    2    1    2    0    0 -0.94761585743E+03  0.31922673164E+03 -0.10585573847E+04  0.14590660770E+04  0.91916053396E+02 0.  0.
    5000000    2    1    2    0    0  0.94761585743E+03 -0.31922673164E+03 -0.26368863243E+01  0.11661935811E+04  0.60009915520E+03 0.  0.
         23    2    4    4    0    0  0.38068435063E+03 -0.28677578564E+03  0.24151577304E+03  0.54214860219E+03  0.91838511445E+02 0.  0.
         23    2    4    4    0    0  0.56693150681E+03 -0.32450945992E+02 -0.24415265937E+03  0.62404497895E+03  0.85774223221E+02 0.  0.
          4    1    3    3  502    0 -0.66125496347E+03  0.19120497837E+03 -0.77047819958E+03  0.10331767160E+04  0.00000000000E+00 0.  1.
         -4    1    3    3    0  502 -0.28636089397E+03  0.12802175326E+03 -0.28807918511E+03  0.42588936098E+03  0.00000000000E+00 0. -1.
         13    1    5    5    0    0  0.22042700022E+03 -0.16725049612E+03  0.19014639955E+03  0.33573269745E+03  0.00000000000E+00 0. -1.
        -13    1    5    5    0    0  0.16025735041E+03 -0.11952528952E+03  0.51369373497E+02  0.20641590474E+03  0.00000000000E+00 0.  1.
          3    1    6    6  503    0  0.18181117776E+03  0.29604979709E+02 -0.79780234394E+02  0.20074024256E+03  0.00000000000E+00 0. -1.
         -3    1    6    6    0  503  0.38512032905E+03 -0.62055925702E+02 -0.16437242497E+03  0.42330473639E+03  0.00000000000E+00 0.  1.
<mgrwt>
<rscale>  0 0.10264654E+04</rscale>
<asrwt>0</asrwt>
<pdfrwt beam="1">  1        1 0.28357338E+00 0.10264654E+04</pdfrwt>
<pdfrwt beam="2">  1       -1 0.12031272E+00 0.10264654E+04</pdfrwt>
<totfact> 0.23545539E+00</totfact>
</mgrwt>
</event>
<event>
12    1  0.1418317E-007  0.8336756E+03  0.7818608E-02  0.9512513E-01
          2   -1    0    0  501    0  0.00000000000E+00  0.00000000000E+00  0.14171588566E+04  0.14171588566E+04  0.00000000000E+00 0. -1.
         -2   -1    0    0    0  501 -0.00000000000E+00 -0.00000000000E+00 -0.53658099396E+03  0.53658099396E+03  0.00000000000E+00 0.  1.
         23    2    1    2    0    0 -0.37016055346E+02 -0.74300723726E+03  0.59094091260E+03  0.95435299995E+03  0.90269282494E+02 0.  0.
    5000000    2    1    2    0    0  0.37016055346E+02  0.74300723726E+03  0.28963695009E+03  0.99938685065E+03  0.60121092091E+03 0.  0.
         23    2    4    4    0    0  0.21533938826E+02  0.82681865117E+03  0.22625117395E+03  0.86192724832E+03  0.87385326230E+02 0.  0.
         23    2    4    4    0    0  0.15482116521E+02 -0.83811413915E+02  0.63385776133E+02  0.13745960232E+03  0.87254436104E+02 0.  0.
          4    1    3    3  502    0 -0.19532274280E+02 -0.61586287521E+03  0.44532699128E+03  0.76025306311E+03  0.00000000000E+00 0.  1.
         -4    1    3    3    0  502 -0.17483781066E+02 -0.12714436205E+03  0.14561392132E+03  0.19409993685E+03  0.00000000000E+00 0. -1.
         13    1    5    5    0    0  0.46205332164E+02  0.41449083861E+03  0.14021039217E+03  0.43999607053E+03  0.00000000000E+00 0. -1.
        -13    1    5    5    0    0 -0.24671393338E+02  0.41232781257E+03  0.86040781780E+02  0.42193117779E+03  0.00000000000E+00 0.  1.
          1    1    6    6  503    0 -0.96108786820E+01 -0.69500622160E+01  0.54894538103E+02  0.56161220316E+02  0.00000000000E+00 0. -1.
         -1    1    6    6    0  503  0.25092995203E+02 -0.76861351699E+02  0.84912380300E+01  0.81298382005E+02  0.00000000000E+00 0.  1.
<mgrwt>
<rscale>  0 0.83367557E+03</rscale>
<asrwt>0</asrwt>
<pdfrwt beam="1">  1        2 0.21802444E+00 0.83367557E+03</pdfrwt>
<pdfrwt beam="2">  1       -2 0.82550923E-01 0.83367557E+03</pdfrwt>
<totfact> 0.18451168E+01</totfact>
</mgrwt>
</event>
<event>
12    1  0.1418317E-007  0.6100554E+03  0.7818608E-02  0.9884761E-01
          1   -1    0    0  501    0  0.00000000000E+00  0.00000000000E+00  0.71054224185E+03  0.71054224185E+03  0.00000000000E+00 0. -1.
         -1   -1    0    0    0  501 -0.00000000000E+00 -0.00000000000E+00 -0.72991183595E+03  0.72991183595E+03  0.00000000000E+00 0.  1.
         23    2    1    2    0    0  0.15366715472E+02  0.55738369804E+03  0.18770937841E+03  0.59576547112E+03  0.93749469599E+02 0.  0.
    5000000    2    1    2    0    0 -0.15366715472E+02 -0.55738369804E+03 -0.20707897250E+03  0.84468860668E+03  0.59975363159E+03 0.  0.
         23    2    4    4    0    0 -0.16578156464E+03 -0.32397452631E+03  0.13001332986E+03  0.39696416026E+03  0.90741708840E+02 0.  0.
         23    2    4    4    0    0  0.15041484917E+03 -0.23340917174E+03 -0.33709230236E+03  0.44772444641E+03  0.98597623207E+02 0.  0.
          3    1    3    3  502    0 -0.32284591304E+02  0.30625311981E+03  0.78474654540E+02  0.31779166074E+03  0.00000000000E+00 0. -1.
         -3    1    3    3    0  502  0.47651306777E+02  0.25113057823E+03  0.10923472387E+03  0.27797381038E+03  0.00000000000E+00 0.  1.
         13    1    5    5    0    0 -0.12696768249E+03 -0.19647903416E+03  0.12103344328E+03  0.26338925121E+03  0.00000000000E+00 0. -1.
        -13    1    5    5    0    0 -0.38813882147E+02 -0.12749549215E+03  0.89798865776E+01  0.13357490905E+03  0.00000000000E+00 0.  1.
          2    1    6    6  503    0  0.11972028866E+03 -0.11140139003E+03 -0.23173022299E+03  0.28362318922E+03  0.00000000000E+00 0. -1.
         -2    1    6    6    0  503  0.30694560505E+02 -0.12200778170E+03 -0.10536207937E+03  0.16410125719E+03  0.00000000000E+00 0.  1.
<mgrwt>
<rscale>  0 0.61005537E+03</rscale>
<asrwt>0</asrwt>
<pdfrwt beam="1">  1        1 0.10931419E+00 0.61005537E+03</pdfrwt>
<pdfrwt beam="2">  1       -1 0.11229413E+00 0.61005537E+03</pdfrwt>
<totfact> 0.20225269E+01</totfact>
</mgrwt>
</event>
<event>
12    1  0.1418317E-007  0.1109709E+04  0.7818608E-02  0.9195781E-01
          2   -1    0    0  501    0  0.00000000000E+00  0.00000000000E+00  0.11466446026E+04  0.11466446026E+04  0.00000000000E+00 0. -1.
         -2   -1    0    0    0  501 -0.00000000000E+00 -0.00000000000E+00 -0.10925730572E+04  0.10925730572E+04  0.00000000000E+00 0.  1.
         23    2    1    2    0    0 -0.99113783640E+03 -0.29980734192E+03  0.75275559578E+02  0.10422930801E+04  0.92031527269E+02 0.  0.
    5000000    2    1    2    0    0  0.99113783640E+03  0.29980734192E+03 -0.21204014087E+02  0.11969245797E+04  0.59995015305E+03 0.  0.
         23    2    4    4    0    0  0.42984188211E+03 -0.15156256463E+03  0.50076434259E+02  0.46735759721E+03  0.90444567517E+02 0.  0.
         23    2    4    4    0    0  0.56129595430E+03  0.45136990655E+03 -0.71280448346E+02  0.72956698244E+03  0.91646815012E+02 0.  0.
          1    1    3    3  502    0 -0.46562852751E+03 -0.12089643931E+03  0.76811923497E+02  0.48716110915E+03  0.00000000000E+00 0. -1.
         -1    1    3    3    0  502 -0.52550930889E+03 -0.17891090261E+03 -0.15363639191E+01  0.55513197099E+03  0.00000000000E+00 0.  1.
         13    1    5    5    0    0  0.10547532504E+03 -0.20725170545E+01 -0.67361309798E+01  0.10571052445E+03  0.00000000000E+00 0.  1.
        -13    1    5    5    0    0  0.32436655707E+03 -0.14949004758E+03  0.56812565239E+02  0.36164707276E+03  0.00000000000E+00 0. -1.
          1    1    6    6  503    0  0.22133110085E+03  0.19104322721E+03 -0.73083816115E+02  0.30137387916E+03  0.00000000000E+00 0. -1.
         -1    1    6    6    0  503  0.33996485345E+03  0.26032667934E+03  0.18033677689E+01  0.42819310328E+03  0.00000000000E+00 0.  1.
<mgrwt>
<rscale>  0 0.11097086E+04</rscale>
<asrwt>0</asrwt>
<pdfrwt beam="1">  1        2 0.17640686E+00 0.11097086E+04</pdfrwt>
<pdfrwt beam="2">  1       -2 0.16808816E+00 0.11097086E+04</pdfrwt>
<totfact> 0.43979874E+00</totfact>
</mgrwt>
</event>
<event>
12    1  0.1651837E-007  0.1077766E+04  0.7818608E-02  0.9227137E-01
          2   -1    0    0  501    0  0.00000000000E+00  0.00000000000E+00  0.83493794980E+03  0.83493794980E+03  0.00000000000E+00 0. -1.
         -2   -1    0    0    0  501 -0.00000000000E+00 -0.00000000000E+00 -0.15778197391E+04  0.15778197391E+04  0.00000000000E+00 0.  1.
         23    2    1    2    0    0 -0.91716098457E+03  0.51416390771E+03 -0.53857855648E+03  0.11850629209E+04  0.93586694278E+02 0.  0.
    5000000    2    1    2    0    0  0.91716098457E+03 -0.51416390771E+03 -0.20430323277E+03  0.12276947680E+04  0.59995486227E+03 0.  0.
         23    2    4    4    0    0  0.56591878480E+03 -0.47111797863E+03 -0.36615097166E+03  0.82748793859E+03  0.91943100250E+02 0.  0.
         23    2    4    4    0    0  0.35124219977E+03 -0.43045929078E+02  0.16184773889E+03  0.40020682938E+03  0.93524225691E+02 0.  0.
          1    1    3    3  502    0 -0.44138866239E+03  0.25230025734E+03 -0.20819221988E+03  0.54938453888E+03  0.00000000000E+00 0. -1.
         -1    1    3    3    0  502 -0.47577232218E+03  0.26186365037E+03 -0.33038633660E+03  0.63567838201E+03  0.00000000000E+00 0.  1.
         13    1    5    5    0    0  0.25559639874E+03 -0.24845210328E+03 -0.13570609953E+03  0.38141068695E+03  0.00000000000E+00 0.  1.
        -13    1    5    5    0    0  0.31032238607E+03 -0.22266587535E+03 -0.23044487213E+03  0.44607725164E+03  0.00000000000E+00 0. -1.
          4    1    6    6  503    0  0.61538936282E+02  0.27625075023E+02  0.23008858220E+02  0.71271263531E+02  0.00000000000E+00 0. -1.
         -4    1    6    6    0  503  0.28970326349E+03 -0.70671004101E+02  0.13883888067E+03  0.32893556585E+03  0.00000000000E+00 0.  1.
<mgrwt>
<rscale>  0 0.10777665E+04</rscale>
<asrwt>0</asrwt>
<pdfrwt beam="1">  1        2 0.12845199E+00 0.10777665E+04</pdfrwt>
<pdfrwt beam="2">  1       -2 0.24274150E+00 0.10777665E+04</pdfrwt>
<totfact> 0.22886452E+00</totfact>
</mgrwt>
</event>
<event>
12    1  0.1418317E-007  0.6125896E+03  0.7818608E-02  0.9879625E-01
         -2   -1    0    0    0  501 -0.00000000000E+00  0.00000000000E+00  0.13161439224E+04  0.13161439224E+04  0.00000000000E+00 0.  1.
          2   -1    0    0  501    0  0.00000000000E+00 -0.00000000000E+00 -0.37203894318E+03  0.37203894318E+03  0.00000000000E+00 0. -1.
         23    2    1    2    0    0  0.36642616709E+03 -0.43245456989E+03  0.38979692956E+03  0.69392451738E+03  0.91129021617E+02 0.  0.
    5000000    2    1    2    0    0 -0.36642616709E+03  0.43245456989E+03  0.55430804970E+03  0.99425834824E+03  0.60000596509E+03 0.  0.
         23    2    4    4    0    0 -0.39861134150E+03  0.28629562428E+03  0.63035035173E+03  0.80399353036E+03  0.90597157092E+02 0.  0.
         23    2    4    4    0    0  0.32185174408E+02  0.14615894560E+03 -0.76042302032E+02  0.19026481788E+03  0.89554153418E+02 0.  0.
          1    1    3    3  502    0  0.13762634941E+03 -0.15027304428E+03  0.89365376337E+02  0.22250656255E+03  0.00000000000E+00 0. -1.
         -1    1    3    3    0  502  0.22879981767E+03 -0.28218152561E+03  0.30043155323E+03  0.47141795483E+03  0.00000000000E+00 0.  1.
         13    1    5    5    0    0 -0.12838026792E+03  0.12310569890E+03  0.28637377323E+03  0.33711488292E+03  0.00000000000E+00 0.  1.
        -13    1    5    5    0    0 -0.27023107358E+03  0.16318992538E+03  0.34397657850E+03  0.46687864744E+03  0.00000000000E+00 0. -1.
          3    1    6    6  503    0  0.13813427975E+02 -0.31253220889E+01 -0.29655720115E+02  0.32863964553E+02  0.00000000000E+00 0. -1.
         -3    1    6    6    0  503  0.18371746434E+02  0.14928426769E+03 -0.46386581917E+02  0.15740085333E+03  0.00000000000E+00 0.  1.
<mgrwt>
<rscale>  0 0.61258963E+03</rscale>
<asrwt>0</asrwt>
<pdfrwt beam="1">  1        2 0.57236761E-01 0.61258963E+03</pdfrwt>
<pdfrwt beam="2">  1       -2 0.20248368E+00 0.61258963E+03</pdfrwt>
<totfact> 0.11431820E+01</totfact>
</mgrwt>
</event>
<event>
12    1  0.1418317E-007  0.4099342E+03  0.7818608E-02  0.1040393E+00
         -2   -1    0    0    0  501 -0.00000000000E+00  0.00000000000E+00  0.10878870134E+03  0.10878870134E+03  0.00000000000E+00 0.  1.
          2   -1    0    0  501    0  0.00000000000E+00 -0.00000000000E+00 -0.22880338695E+04  0.22880338695E+04  0.00000000000E+00 0. -1.
         23    2    1    2    0    0  0.44161870775E+02  0.23710464145E+03 -0.11768178523E+04  0.12040566294E+04  0.81751008876E+02 0.  0.
    5000000    2    1    2    0    0 -0.44161870775E+02 -0.23710464145E+03 -0.10024273159E+04  0.11927659415E+04  0.59971758828E+03 0.  0.
         23    2    4    4    0    0 -0.17366056735E+02 -0.39261262496E+03 -0.89206437357E+03  0.97894644996E+03  0.90061379595E+02 0.  0.
         23    2    4    4    0    0 -0.26795814040E+02  0.15550798351E+03 -0.11036294229E+03  0.21381949150E+03  0.92941096021E+02 0.  0.
          2    1    3    3  502    0  0.66695489676E+02  0.17238559568E+03 -0.80187852135E+03  0.82290597576E+03  0.00000000000E+00 0. -1.
         -2    1    3    3    0  502 -0.22533618901E+02  0.64719045767E+02 -0.37493933099E+03  0.38115065367E+03  0.00000000000E+00 0.  1.
         11    1    5    5    0    0 -0.76454515292E+01 -0.45608794191E+02 -0.49858343139E+02  0.68003451509E+02  0.00000000000E+00 0.  1.
        -11    1    5    5    0    0 -0.97206052056E+01 -0.34700383077E+03 -0.84220603043E+03  0.91094299845E+03  0.00000000000E+00 0. -1.
          3    1    6    6  503    0  0.41620402607E+01  0.13696674543E+03 -0.54830924437E+02  0.14759282573E+03  0.00000000000E+00 0. -1.
         -3    1    6    6    0  503 -0.30957854301E+02  0.18541238082E+02 -0.55532017852E+02  0.66226665772E+02  0.00000000000E+00 0.  1.
<mgrwt>
<rscale>  0 0.40993415E+03</rscale>
<asrwt>0</asrwt>
<pdfrwt beam="1">  1        2 0.35200515E+00 0.40993415E+03</pdfrwt>
<pdfrwt beam="2">  1       -2 0.16736726E-01 0.40993415E+03</pdfrwt>
<totfact> 0.14485167E+02</totfact>
</mgrwt>
</event>
<event>
12    1  0.1418317E-007  0.1889962E+04  0.7818608E-02  0.8659869E-01
          1   -1    0    0  501    0  0.00000000000E+00  0.00000000000E+00  0.23431869331E+04  0.23431869331E+04  0.00000000000E+00 0. -1.
         -1   -1    0    0    0  501 -0.00000000000E+00 -0.00000000000E+00 -0.16936247164E+04  0.16936247164E+04  0.00000000000E+00 0.  1.
         23    2    1    2    0    0 -0.41268902582E+03  0.17987356815E+04  0.94301173113E+03  0.20741997681E+04  0.85271736144E+02 0.  0.
    5000000    2    1    2    0    0  0.41268902582E+03 -0.17987356815E+04 -0.29344951442E+03  0.19626118815E+04  0.59997541276E+03 0.  0.
         23    2    4    4    0    0  0.49108291391E+03 -0.90357278286E+03 -0.80458210889E+02  0.10349839569E+04  0.84333061048E+02 0.  0.
         23    2    4    4    0    0 -0.78393888090E+02 -0.89516289861E+03 -0.21299130353E+03  0.92762792451E+03  0.87556006150E+02 0.  0.
          1    1    3    3  502    0 -0.20076030884E+03  0.10627895731E+04  0.55353057809E+03  0.12149989626E+04  0.00000000000E+00 0. -1.
         -1    1    3    3    0  502 -0.21192871699E+03  0.73594610840E+03  0.38948115303E+03  0.85920080547E+03  0.00000000000E+00 0.  1.
         11    1    5    5    0    0  0.32615531351E+03 -0.67205374680E+03 -0.42778636774E+02  0.74824029488E+03  0.00000000000E+00 0. -1.
        -11    1    5    5    0    0  0.16492760040E+03 -0.23151903606E+03 -0.37679574115E+02  0.28674366207E+03  0.00000000000E+00 0.  1.
          4    1    6    6  503    0 -0.50694055318E+02 -0.23214078950E+03 -0.31757417895E+02  0.23972435626E+03  0.00000000000E+00 0. -1.
         -4    1    6    6    0  503 -0.27699832772E+02 -0.66302210911E+03 -0.18123388564E+03  0.68790356824E+03  0.00000000000E+00 0.  1.
<mgrwt>
<rscale>  0 0.18899618E+04</rscale>
<asrwt>0</asrwt>
<pdfrwt beam="1">  1        1 0.36049030E+00 0.18899618E+04</pdfrwt>
<pdfrwt beam="2">  1       -1 0.26055765E+00 0.18899618E+04</pdfrwt>
<totfact> 0.93257023E-02</totfact>
</mgrwt>
</event>
<event>
12    1  0.1418317E-007  0.1554050E+04  0.7818608E-02  0.8849285E-01
          1   -1    0    0  501    0  0.00000000000E+00  0.00000000000E+00  0.15312226783E+04  0.15312226783E+04  0.00000000000E+00 0. -1.
         -1   -1    0    0    0  501 -0.00000000000E+00 -0.00000000000E+00 -0.16918268831E+04  0.16918268831E+04  0.00000000000E+00 0.  1.
         23    2    1    2    0    0  0.35564831332E+03  0.15094878915E+04 -0.14993825819E+03  0.15608481010E+04  0.93412502339E+02 0.  0.
    5000000    2    1    2    0    0 -0.35564831332E+03 -0.15094878915E+04 -0.10665946633E+02  0.16622014605E+04  0.59813085154E+03 0.  0.
         23    2    4    4    0    0 -0.22698514662E+03 -0.97464501505E+03  0.26713269453E+03  0.10394913201E+04  0.87904299721E+02 0.  0.
         23    2    4    4    0    0 -0.12866316670E+03 -0.53484287646E+03 -0.27779864116E+03  0.62271014043E+03  0.89357266059E+02 0.  0.
          1    1    3    3  502    0  0.32795285075E+03  0.13917187621E+04 -0.11273159834E+03  0.14342742410E+04  0.00000000000E+00 0. -1.
         -1    1    3    3    0  502  0.27695462570E+02  0.11776912941E+03 -0.37206659851E+02  0.12657385996E+03  0.00000000000E+00 0.  1.
         13    1    5    5    0    0 -0.17465097527E+03 -0.64281566344E+03  0.14253806030E+03  0.68119897164E+03  0.00000000000E+00 0. -1.
        -13    1    5    5    0    0 -0.52334171354E+02 -0.33182935161E+03  0.12459463423E+03  0.35829234845E+03  0.00000000000E+00 0.  1.
          4    1    6    6  503    0 -0.19840422115E+02 -0.17154483558E+02 -0.25656460362E+02  0.36690225049E+02  0.00000000000E+00 0. -1.
         -4    1    6    6    0  503 -0.10882274458E+03 -0.51768839290E+03 -0.25214218080E+03  0.58601991538E+03  0.00000000000E+00 0.  1.
<mgrwt>
<rscale>  0 0.15540500E+04</rscale>
<asrwt>0</asrwt>
<pdfrwt beam="1">  1        1 0.23557272E+00 0.15540500E+04</pdfrwt>
<pdfrwt beam="2">  1       -1 0.26028106E+00 0.15540500E+04</pdfrwt>
<totfact> 0.34950044E-01</totfact>
</mgrwt>
</event>
<event>
12    1  0.1418317E-007  0.4662195E+03  0.7818608E-02  0.1022993E+00
         -2   -1    0    0    0  501 -0.00000000000E+00  0.00000000000E+00  0.28450573482E+03  0.28450573482E+03  0.00000000000E+00 0.  1.
          2   -1    0    0  501    0  0.00000000000E+00 -0.00000000000E+00 -0.85656817902E+03  0.85656817902E+03  0.00000000000E+00 0. -1.
         23    2    1    2    0    0 -0.24867868075E+03 -0.16147219936E+03 -0.15235894483E+03  0.35117774625E+03  0.11044547961E+03 0.  0.
    5000000    2    1    2    0    0  0.24867868075E+03  0.16147219936E+03 -0.41970349937E+03  0.78989616760E+03  0.59989213261E+03 0.  0.
         23    2    4    4    0    0  0.40572658916E+03  0.20002537856E+03 -0.38288609474E+03  0.59997963692E+03  0.93539221422E+02 0.  0.
         23    2    4    4    0    0 -0.15704790841E+03 -0.38553179205E+02 -0.36817404628E+02  0.18991653068E+03  0.92533097752E+02 0.  0.
          3    1    3    3  502    0 -0.10290376999E+03 -0.12626180830E+03 -0.10547860461E+03  0.19405402893E+03  0.00000000000E+00 0. -1.
         -3    1    3    3    0  502 -0.14577491076E+03 -0.35210391058E+02 -0.46880340224E+02  0.15712371732E+03  0.00000000000E+00 0.  1.
         13    1    5    5    0    0  0.55499005868E+02  0.57041528508E+02 -0.38503530979E+02  0.88410392628E+02  0.00000000000E+00 0. -1.
        -13    1    5    5    0    0  0.35022758329E+03  0.14298385006E+03 -0.34438256377E+03  0.51156924429E+03  0.00000000000E+00 0.  1.
          2    1    6    6  503    0 -0.21466543161E+02 -0.50874429586E+01  0.28256614063E+02  0.35848720889E+02  0.00000000000E+00 0. -1.
         -2    1    6    6    0  503 -0.13558136525E+03 -0.33465736247E+02 -0.65074018691E+02  0.15406780979E+03  0.00000000000E+00 0.  1.
<mgrwt>
<rscale>  0 0.46621947E+03</rscale>
<asrwt>0</asrwt>
<pdfrwt beam="1">  1        2 0.13177972E+00 0.46621947E+03</pdfrwt>
<pdfrwt beam="2">  1       -2 0.43770114E-01 0.46621947E+03</pdfrwt>
<totfact> 0.16042492E+02</totfact>
</mgrwt>
</event>
<event>
12    1  0.1418317E-007  0.1469997E+04  0.7818608E-02  0.8904654E-01
         -2   -1    0    0    0  501 -0.00000000000E+00  0.00000000000E+00  0.10977509539E+04  0.10977509539E+04  0.00000000000E+00 0.  1.
          2   -1    0    0  501    0  0.00000000000E+00 -0.00000000000E+00 -0.20046065317E+04  0.20046065317E+04  0.00000000000E+00 0. -1.
         23    2    1    2    0    0 -0.60691941267E+03  0.12813514818E+04 -0.35062274632E+03  0.14653337568E+04  0.11854921010E+03 0.  0.
    5000000    2    1    2    0    0  0.60691941267E+03 -0.12813514818E+04 -0.55623283153E+03  0.16370237288E+04  0.60019907737E+03 0.  0.
         23    2    4    4    0    0  0.63831860354E+03 -0.75790243655E+03 -0.45842079479E+03  0.10957928715E+04  0.93518175679E+02 0.  0.
         23    2    4    4    0    0 -0.31399190870E+02 -0.52344904523E+03 -0.97812036737E+02  0.54123085731E+03  0.91535972331E+02 0.  0.
          1    1    3    3  502    0 -0.48344024731E+03  0.97141812913E+03 -0.22057657133E+03  0.11072586320E+04  0.00000000000E+00 0. -1.
         -1    1    3    3    0  502 -0.12347916535E+03  0.30993335266E+03 -0.13004617499E+03  0.35807512479E+03  0.00000000000E+00 0.  1.
         13    1    5    5    0    0  0.53852108049E+02 -0.85045161342E+02 -0.20363114263E+02  0.10270046461E+03  0.00000000000E+00 0. -1.
        -13    1    5    5    0    0  0.58446649549E+03 -0.67285727521E+03 -0.43805768053E+03  0.99309240689E+03  0.00000000000E+00 0.  1.
          3    1    6    6  503    0  0.23409458837E+02 -0.19399234943E+03 -0.63642975957E+02  0.20550295081E+03  0.00000000000E+00 0. -1.
         -3    1    6    6    0  503 -0.54808649707E+02 -0.32945669580E+03 -0.34169060780E+02  0.33572790650E+03  0.00000000000E+00 0.  1.
<mgrwt>
<rscale>  0 0.14699965E+04</rscale>
<asrwt>0</asrwt>
<pdfrwt beam="1">  1        2 0.30840101E+00 0.14699965E+04</pdfrwt>
<pdfrwt beam="2">  1       -2 0.16888476E+00 0.14699965E+04</pdfrwt>
<totfact> 0.13623165E+00</totfact>
</mgrwt>
</event>
<event>
12    1  0.1418317E-007  0.4386476E+03  0.7818608E-02  0.1031163E+00
         -1   -1    0    0    0  501 -0.00000000000E+00  0.00000000000E+00  0.15862024572E+03  0.15862024572E+03  0.00000000000E+00 0.  1.
          1   -1    0    0  501    0  0.00000000000E+00 -0.00000000000E+00 -0.17593580650E+04  0.17593580650E+04  0.00000000000E+00 0. -1.
         23    2    1    2    0    0  0.33527913788E+03  0.12839709280E+02 -0.73278471152E+03  0.81073989987E+03  0.88027230858E+02 0.  0.
    5000000    2    1    2    0    0 -0.33527913788E+03 -0.12839709280E+02 -0.86795310777E+03  0.11072384109E+04  0.60004778374E+03 0.  0.
         23    2    4    4    0    0  0.68448313326E+02 -0.45260307017E+02 -0.60107105068E+03  0.61358755441E+03  0.92030494822E+02 0.  0.
         23    2    4    4    0    0 -0.40372745121E+03  0.32420597737E+02 -0.26688205710E+03  0.49365085646E+03  0.91750671197E+02 0.  0.
          2    1    3    3  502    0  0.18440667399E+03 -0.25735753095E+02 -0.33007017438E+03  0.37896499894E+03  0.00000000000E+00 0. -1.
         -2    1    3    3    0  502  0.15087246389E+03  0.38575462375E+02 -0.40271453713E+03  0.43177490093E+03  0.00000000000E+00 0.  1.
         13    1    5    5    0    0  0.73826589269E+02  0.35876357223E+01 -0.37971784398E+03  0.38684477178E+03  0.00000000000E+00 0. -1.
        -13    1    5    5    0    0 -0.53782759438E+01 -0.48847942740E+02 -0.22135320670E+03  0.22674278263E+03  0.00000000000E+00 0.  1.
          1    1    6    6  503    0 -0.18394618422E+03  0.53394118715E+02 -0.15350909732E+03  0.24546318169E+03  0.00000000000E+00 0. -1.
         -1    1    6    6    0  503 -0.21978126699E+03 -0.20973520978E+02 -0.11337295977E+03  0.24818767477E+03  0.00000000000E+00 0.  1.
<mgrwt>
<rscale>  0 0.43864761E+03</rscale>
<asrwt>0</asrwt>
<pdfrwt beam="1">  1        1 0.27067048E+00 0.43864761E+03</pdfrwt>
<pdfrwt beam="2">  1       -1 0.24403114E-01 0.43864761E+03</pdfrwt>
<totfact> 0.68070618E+01</totfact>
</mgrwt>
</event>
<event>
12    1  0.1418317E-007  0.9416782E+03  0.7818608E-02  0.9374931E-01
         -1   -1    0    0    0  501 -0.00000000000E+00  0.00000000000E+00  0.11749436880E+04  0.11749436880E+04  0.00000000000E+00 0.  1.
          1   -1    0    0  501    0  0.00000000000E+00 -0.00000000000E+00 -0.14470388253E+04  0.14470388253E+04  0.00000000000E+00 0. -1.
         23    2    1    2    0    0 -0.80012634127E+03  0.42594880689E+03  0.71154566091E+03  0.11559629286E+04  0.91205902558E+02 0.  0.
    5000000    2    1    2    0    0  0.80012634127E+03 -0.42594880689E+03 -0.98364079816E+03  0.14660195847E+04  0.60002471192E+03 0.  0.
         23    2    4    4    0    0  0.74551847035E+03 -0.28009873595E+03 -0.48580563131E+03  0.93621627031E+03  0.78998112969E+02 0.  0.
         23    2    4    4    0    0  0.54607870920E+02 -0.14585007093E+03 -0.49783516685E+03  0.52980331442E+03  0.92722359027E+02 0.  0.
          3    1    3    3  502    0 -0.53619375777E+03  0.28524364607E+03  0.42109536350E+03  0.73904599901E+03  0.00000000000E+00 0. -1.
         -3    1    3    3    0  502 -0.26393258350E+03  0.14070516082E+03  0.29045029741E+03  0.41691692959E+03  0.00000000000E+00 0.  1.
         13    1    5    5    0    0  0.43333316301E+03 -0.12116989159E+03 -0.27789747233E+03  0.52885421235E+03  0.00000000000E+00 0. -1.
        -13    1    5    5    0    0  0.31218530734E+03 -0.15892884437E+03 -0.20790815898E+03  0.40736205795E+03  0.00000000000E+00 0.  1.
          1    1    6    6  503    0 -0.11416926467E+02 -0.88384308137E+02 -0.31035041503E+03  0.32289241590E+03  0.00000000000E+00 0. -1.
         -1    1    6    6    0  503  0.66024797386E+02 -0.57465762796E+02 -0.18748475182E+03  0.20691089852E+03  0.00000000000E+00 0.  1.
<mgrwt>
<rscale>  0 0.94167823E+03</rscale>
<asrwt>0</asrwt>
<pdfrwt beam="1">  1        1 0.22262136E+00 0.94167823E+03</pdfrwt>
<pdfrwt beam="2">  1       -1 0.18076057E+00 0.94167823E+03</pdfrwt>
<totfact> 0.14849153E+00</totfact>
</mgrwt>
</event>
<event>
12    1  0.1418317E-007  0.4373143E+03  0.7818608E-02  0.1031574E+00
          1   -1    0    0  501    0  0.00000000000E+00  0.00000000000E+00  0.16082247352E+04  0.16082247352E+04  0.00000000000E+00 0.  1.
         -1   -1    0    0    0  501 -0.00000000000E+00 -0.00000000000E+00 -0.27462262279E+03  0.27462262279E+03  0.00000000000E+00 0. -1.
         23    2    1    2    0    0  0.35516293078E+03 -0.17535223474E+03  0.10211944011E+04  0.10990868749E+04  0.90911165951E+02 0.  0.
    5000000    2    1    2    0    0 -0.35516293078E+03  0.17535223474E+03  0.31240771135E+03  0.78376048314E+03  0.59982731114E+03 0.  0.
         23    2    4    4    0    0 -0.84185710970E+02  0.16995022064E+03 -0.13685172160E+03  0.25104495076E+03  0.91240682636E+02 0.  0.
         23    2    4    4    0    0 -0.27097721981E+03  0.54020140972E+01  0.44925943295E+03  0.53271553238E+03  0.92162709026E+02 0.  0.
          4    1    3    3  502    0  0.24901189636E+03 -0.14417710237E+03  0.82648986774E+03  0.87514539526E+03  0.00000000000E+00 0.  1.
         -4    1    3    3    0  502  0.10615103442E+03 -0.31175132373E+02  0.19470453335E+03  0.22394147962E+03  0.00000000000E+00 0. -1.
         11    1    5    5    0    0 -0.70792817624E+02  0.62257706462E+02 -0.97458363530E+02  0.13559416530E+03  0.00000000000E+00 0. -1.
        -11    1    5    5    0    0 -0.13392893346E+02  0.10769251418E+03 -0.39393358065E+02  0.11545078546E+03  0.00000000000E+00 0.  1.
          2    1    6    6  503    0 -0.20299116181E+02 -0.93454343418E+01  0.10053076008E+03  0.10298458614E+03  0.00000000000E+00 0. -1.
         -2    1    6    6    0  503 -0.25067810363E+03  0.14747448439E+02  0.34872867287E+03  0.42973094624E+03  0.00000000000E+00 0.  1.
<mgrwt>
<rscale>  0 0.43731431E+03</rscale>
<asrwt>0</asrwt>
<pdfrwt beam="1">  1        1 0.24741919E+00 0.43731431E+03</pdfrwt>
<pdfrwt beam="2">  1       -1 0.42249635E-01 0.43731431E+03</pdfrwt>
<totfact> 0.32936471E+01</totfact>
</mgrwt>
</event>
<event>
12    1  0.1418317E-007  0.6589613E+03  0.7818608E-02  0.9790108E-01
          2   -1    0    0  501    0  0.00000000000E+00  0.00000000000E+00  0.14292431962E+04  0.14292431962E+04  0.00000000000E+00 0. -1.
         -2   -1    0    0    0  501 -0.00000000000E+00 -0.00000000000E+00 -0.34693302101E+03  0.34693302101E+03  0.00000000000E+00 0.  1.
         23    2    1    2    0    0 -0.30376672657E+03  0.46191922702E+03  0.25960755389E+03  0.61756142451E+03  0.91336928682E+02 0.  0.
    5000000    2    1    2    0    0  0.30376672657E+03 -0.46191922702E+03  0.82270262127E+03  0.11586147927E+04  0.59992086004E+03 0.  0.
         23    2    4    4    0    0  0.15222566353E+03  0.81201297248E+02  0.52600369736E+02  0.19978623018E+03  0.85915281303E+02 0.  0.
         23    2    4    4    0    0  0.15154106304E+03 -0.54312052427E+03  0.77010225153E+03  0.95882856250E+03  0.91379082832E+02 0.  0.
          1    1    3    3  502    0 -0.25337690006E+03  0.34239664547E+03  0.23166581537E+03  0.48487561944E+03  0.00000000000E+00 0. -1.
         -1    1    3    3    0  502 -0.50389826506E+02  0.11952258154E+03  0.27941738524E+02  0.13268580507E+03  0.00000000000E+00 0.  1.
         13    1    5    5    0    0 -0.90510001134E+01 -0.39291781046E+01 -0.39843715122E+00  0.98751099130E+01  0.00000000000E+00 0.  1.
        -13    1    5    5    0    0  0.16127666364E+03  0.85130475352E+02  0.52998806888E+02  0.18991112027E+03  0.00000000000E+00 0. -1.
          2    1    6    6  503    0  0.14805110419E+03 -0.39451005859E+03  0.54126938623E+03  0.68595179441E+03  0.00000000000E+00 0. -1.
         -2    1    6    6    0  503  0.34899588540E+01 -0.14861046567E+03  0.22883286530E+03  0.27287676809E+03  0.00000000000E+00 0.  1.
<mgrwt>
<rscale>  0 0.65896132E+03</rscale>
<asrwt>0</asrwt>
<pdfrwt beam="1">  1        2 0.21988357E+00 0.65896132E+03</pdfrwt>
<pdfrwt beam="2">  1       -2 0.53374312E-01 0.65896132E+03</pdfrwt>
<totfact> 0.47509966E+01</totfact>
</mgrwt>
</event>
<event>
12    1  0.1755401E-007  0.1817938E+04  0.7818608E-02  0.8696818E-01
          2   -1    0    0  501    0  0.00000000000E+00  0.00000000000E+00  0.21861079025E+04  0.21861079025E+04  0.00000000000E+00 0. -1.
         -2   -1    0    0    0  501 -0.00000000000E+00 -0.00000000000E+00 -0.16480950898E+04  0.16480950898E+04  0.00000000000E+00 0.  1.
         23    2    1    2    0    0 -0.34962902965E+03 -0.17750946808E+04 -0.12569694269E+03  0.18158880267E+04  0.91913110098E+02 0.  0.
    5000000    2    1    2    0    0  0.34962902965E+03  0.17750946808E+04  0.66370975535E+03  0.20183149657E+04  0.59990255643E+03 0.  0.
         23    2    4    4    0    0  0.20118833081E+02  0.60714411062E+03 -0.34914623372E+02  0.61501104365E+03  0.89391355204E+02 0.  0.
         23    2    4    4    0    0  0.32951019657E+03  0.11679505702E+04  0.69862437872E+03  0.14033039220E+04  0.92197456771E+02 0.  0.
          4    1    3    3  502    0 -0.16082185185E+03 -0.90851635505E+03 -0.10655625767E+03  0.92877331544E+03  0.00000000000E+00 0. -1.
         -4    1    3    3    0  502 -0.18880717780E+03 -0.86657832576E+03 -0.19140685018E+02  0.88711471123E+03  0.00000000000E+00 0.  1.
         13    1    5    5    0    0  0.36246256170E+02  0.31588751566E+03 -0.54729497724E+02  0.32263606674E+03  0.00000000000E+00 0. -1.
        -13    1    5    5    0    0 -0.16127423089E+02  0.29125659495E+03  0.19814874353E+02  0.29237497691E+03  0.00000000000E+00 0.  1.
          2    1    6    6  503    0  0.16655785284E+03  0.43450211130E+03  0.25030177960E+03  0.52837920468E+03  0.00000000000E+00 0. -1.
         -2    1    6    6    0  503  0.16295234373E+03  0.73344845888E+03  0.44832259913E+03  0.87492471736E+03  0.00000000000E+00 0.  1.
<mgrwt>
<rscale>  0 0.18179379E+04</rscale>
<asrwt>0</asrwt>
<pdfrwt beam="1">  1        2 0.33632429E+00 0.18179379E+04</pdfrwt>
<pdfrwt beam="2">  1       -2 0.25355309E+00 0.18179379E+04</pdfrwt>
<totfact> 0.29134694E-01</totfact>
</mgrwt>
</event>
<event>
12    1  0.1418317E-007  0.9077385E+03  0.7818608E-02  0.9415959E-01
          2   -1    0    0  501    0  0.00000000000E+00  0.00000000000E+00  0.17676859862E+04  0.17676859862E+04  0.00000000000E+00 0. -1.
         -2   -1    0    0    0  501 -0.00000000000E+00 -0.00000000000E+00 -0.47600341813E+03  0.47600341813E+03  0.00000000000E+00 0.  1.
         23    2    1    2    0    0 -0.75853836976E+03  0.30050267428E+03  0.61395156693E+03  0.10251231399E+04  0.90876893377E+02 0.  0.
    5000000    2    1    2    0    0  0.75853836976E+03 -0.30050267428E+03  0.67773100115E+03  0.12185662645E+04  0.59991842389E+03 0.  0.
         23    2    4    4    0    0  0.22480242162E+03 -0.39445258127E+03  0.29345339305E+03  0.54801114103E+03  0.89846252922E+02 0.  0.
         23    2    4    4    0    0  0.53373594814E+03  0.93949906983E+02  0.38427760810E+03  0.67055512343E+03  0.90962883200E+02 0.  0.
          4    1    3    3  502    0 -0.44344023415E+03  0.19682839771E+03  0.41410473463E+03  0.63785844092E+03  0.00000000000E+00 0. -1.
         -4    1    3    3    0  502 -0.31509813561E+03  0.10367427658E+03  0.19984683230E+03  0.38726469897E+03  0.00000000000E+00 0.  1.
         13    1    5    5    0    0  0.22684376094E+02 -0.21467846315E+02  0.49821890842E+02  0.58801957036E+02  0.00000000000E+00 0. -1.
        -13    1    5    5    0    0  0.20211804553E+03 -0.37298473495E+03  0.24363150221E+03  0.48920918399E+03  0.00000000000E+00 0.  1.
          3    1    6    6  503    0  0.47717601625E+03  0.72510099482E+02  0.37064851367E+03  0.60855154728E+03  0.00000000000E+00 0. -1.
         -3    1    6    6    0  503  0.56559931884E+02  0.21439807501E+02  0.13629094427E+02  0.62003576149E+02  0.00000000000E+00 0.  1.
<mgrwt>
<rscale>  0 0.90773848E+03</rscale>
<asrwt>0</asrwt>
<pdfrwt beam="1">  1        2 0.27195169E+00 0.90773848E+03</pdfrwt>
<pdfrwt beam="2">  1       -2 0.73231296E-01 0.90773848E+03</pdfrwt>
<totfact> 0.15286920E+01</totfact>
</mgrwt>
</event>
<event>
12    1  0.1418317E-007  0.6003321E+03  0.7818608E-02  0.9904717E-01
         -2   -1    0    0    0  501 -0.00000000000E+00  0.00000000000E+00  0.60628229956E+03  0.60628229956E+03  0.00000000000E+00 0.  1.
          2   -1    0    0  501    0  0.00000000000E+00 -0.00000000000E+00 -0.27356623663E+04  0.27356623663E+04  0.00000000000E+00 0. -1.
         23    2    1    2    0    0 -0.55270355373E+03 -0.18828670890E+03 -0.23925822684E+04  0.24643741633E+04  0.88073847556E+02 0.  0.
    5000000    2    1    2    0    0  0.55270355373E+03  0.18828670890E+03  0.26320220164E+03  0.87757050259E+03  0.59993456727E+03 0.  0.
         23    2    4    4    0    0  0.39149267518E+03  0.11656485267E+03  0.44193295662E+03  0.60877954294E+03  0.91945169257E+02 0.  0.
         23    2    4    4    0    0  0.16121087855E+03  0.71721856234E+02 -0.17873075499E+03  0.26879095965E+03  0.95764947593E+02 0.  0.
          3    1    3    3  502    0 -0.46447152963E+02 -0.22569609811E-01 -0.12497972002E+03  0.13333142519E+03  0.00000000000E+00 0. -1.
         -3    1    3    3    0  502 -0.50625640077E+03 -0.18826413929E+03 -0.22676025484E+04  0.23310427381E+04  0.00000000000E+00 0.  1.
         13    1    5    5    0    0  0.82913926375E+02 -0.22751283349E+01  0.12992951686E+03  0.15414789894E+03  0.00000000000E+00 0.  1.
        -13    1    5    5    0    0  0.30857874881E+03  0.11883998100E+03  0.31200343977E+03  0.45463164400E+03  0.00000000000E+00 0. -1.
          2    1    6    6  503    0  0.52787737479E+02  0.75334603289E+02 -0.74877742646E+02  0.11861080905E+03  0.00000000000E+00 0. -1.
         -2    1    6    6    0  503  0.10842314107E+03 -0.36127470545E+01 -0.10385301234E+03  0.15018015060E+03  0.00000000000E+00 0.  1.
<mgrwt>
<rscale>  0 0.60033213E+03</rscale>
<asrwt>0</asrwt>
<pdfrwt beam="1">  1        2 0.42087112E+00 0.60033213E+03</pdfrwt>
<pdfrwt beam="2">  1       -2 0.93274202E-01 0.60033213E+03</pdfrwt>
<totfact> 0.26904492E+00</totfact>
</mgrwt>
</event>
<event>
12    1  0.1418317E-007  0.4839522E+03  0.7818608E-02  0.1018055E+00
         -2   -1    0    0    0  501 -0.00000000000E+00  0.00000000000E+00  0.12312674901E+03  0.12312674901E+03  0.00000000000E+00 0.  1.
          2   -1    0    0  501    0  0.00000000000E+00 -0.00000000000E+00 -0.20410988817E+04  0.20410988817E+04  0.00000000000E+00 0. -1.
         23    2    1    2    0    0  0.23345029177E+03 -0.20871581849E+03 -0.59770314419E+03  0.68081152652E+03  0.90520464255E+02 0.  0.
    5000000    2    1    2    0    0 -0.23345029177E+03  0.20871581849E+03 -0.13202689885E+04  0.14834141042E+04  0.59945464457E+03 0.  0.
         23    2    4    4    0    0  0.76003543256E+02 -0.14764483985E+03 -0.47058270080E+03  0.50710000469E+03  0.90148761150E+02 0.  0.
         23    2    4    4    0    0 -0.30945383503E+03  0.35636065834E+03 -0.84968628766E+03  0.97631409947E+03  0.92020859356E+02 0.  0.
          3    1    3    3  502    0  0.11311090786E+03 -0.15813404955E+03 -0.33102168269E+03  0.38389557111E+03  0.00000000000E+00 0. -1.
         -3    1    3    3    0  502  0.12033938392E+03 -0.50581768934E+02 -0.26668146150E+03  0.29691595541E+03  0.00000000000E+00 0.  1.
         13    1    5    5    0    0  0.74497569501E+02 -0.14195233959E+03 -0.33493332941E+03  0.37132289147E+03  0.00000000000E+00 0. -1.
        -13    1    5    5    0    0  0.15059737552E+01 -0.56925002680E+01 -0.13564937139E+03  0.13577711322E+03  0.00000000000E+00 0.  1.
          1    1    6    6  503    0 -0.11663978756E+03  0.87137419808E+02 -0.20352159583E+03  0.25023750706E+03  0.00000000000E+00 0. -1.
         -1    1    6    6    0  503 -0.19281404747E+03  0.26922323853E+03 -0.64616469184E+03  0.72607659241E+03  0.00000000000E+00 0.  1.
<mgrwt>
<rscale>  0 0.48395217E+03</rscale>
<asrwt>0</asrwt>
<pdfrwt beam="1">  1        2 0.31401522E+00 0.48395217E+03</pdfrwt>
<pdfrwt beam="2">  1       -2 0.18942577E-01 0.48395217E+03</pdfrwt>
<totfact> 0.15745026E+02</totfact>
</mgrwt>
</event>
<event>
12    1  0.1418317E-007  0.4642701E+03  0.7818608E-02  0.1023550E+00
         -1   -1    0    0    0  501 -0.00000000000E+00  0.00000000000E+00  0.45418548232E+03  0.45418548232E+03  0.00000000000E+00 0.  1.
          1   -1    0    0  501    0  0.00000000000E+00 -0.00000000000E+00 -0.60614711097E+03  0.60614711097E+03  0.00000000000E+00 0. -1.
         23    2    1    2    0    0  0.32605330044E+03  0.96678099905E+02  0.23631539094E+02  0.34870611263E+03  0.73349121442E+02 0.  0.
    5000000    2    1    2    0    0 -0.32605330044E+03 -0.96678099905E+02 -0.17559316774E+03  0.71162648065E+03  0.59993489453E+03 0.  0.
         23    2    4    4    0    0 -0.35362327965E+03 -0.23468146609E+03  0.46189875954E+02  0.43557290200E+03  0.86402742315E+02 0.  0.
         23    2    4    4    0    0  0.27569979207E+02  0.13800336619E+03 -0.22178304370E+03  0.27605357865E+03  0.84928363816E+02 0.  0.
          4    1    3    3  502    0  0.13992608078E+03  0.46962011884E+02  0.46387055066E+02  0.15471424472E+03  0.00000000000E+00 0. -1.
         -4    1    3    3    0  502  0.18612721967E+03  0.49716088021E+02 -0.22755515973E+02  0.19399186791E+03  0.00000000000E+00 0.  1.
         13    1    5    5    0    0 -0.21080046468E+03 -0.15370780915E+03 -0.12578236627E+02  0.26119176583E+03  0.00000000000E+00 0.  1.
        -13    1    5    5    0    0 -0.14282281497E+03 -0.80973656943E+02  0.58768112581E+02  0.17438113617E+03  0.00000000000E+00 0. -1.
          3    1    6    6  503    0  0.50296803435E+02  0.45022126118E+02 -0.75940738751E+02  0.10160588604E+03  0.00000000000E+00 0. -1.
         -3    1    6    6    0  503 -0.22726824228E+02  0.92981240069E+02 -0.14584230494E+03  0.17444769261E+03  0.00000000000E+00 0.  1.
<mgrwt>
<rscale>  0 0.46427008E+03</rscale>
<asrwt>0</asrwt>
<pdfrwt beam="1">  1        1 0.93253401E-01 0.46427008E+03</pdfrwt>
<pdfrwt beam="2">  1       -1 0.69874690E-01 0.46427008E+03</pdfrwt>
<totfact> 0.73313360E+01</totfact>
</mgrwt>
</event>
<event>
12    1  0.1418317E-007  0.5773849E+03  0.7818608E-02  0.9953469E-01
          2   -1    0    0  501    0  0.00000000000E+00  0.00000000000E+00  0.10442176836E+04  0.10442176836E+04  0.00000000000E+00 0. -1.
         -2   -1    0    0    0  501 -0.00000000000E+00 -0.00000000000E+00 -0.35726262072E+03  0.35726262072E+03  0.00000000000E+00 0.  1.
         23    2    1    2    0    0 -0.19010655156E+03  0.41710137858E+03  0.25195478126E+03  0.53008268288E+03  0.85978938847E+02 0.  0.
    5000000    2    1    2    0    0  0.19010655156E+03 -0.41710137858E+03  0.43500028159E+03  0.87139762141E+03  0.59999542387E+03 0.  0.
         23    2    4    4    0    0  0.36230698433E+03 -0.32386082322E+03  0.43328430270E+03  0.65711986772E+03  0.88989043579E+02 0.  0.
         23    2    4    4    0    0 -0.17220043277E+03 -0.93240555356E+02  0.17159788919E+01  0.21427775369E+03  0.86978278526E+02 0.  0.
          3    1    3    3  502    0 -0.14608571807E+03  0.32347608584E+03  0.15161704902E+03  0.38596054810E+03  0.00000000000E+00 0. -1.
         -3    1    3    3    0  502 -0.44020833490E+02  0.93625292737E+02  0.10033773224E+03  0.14412213477E+03  0.00000000000E+00 0.  1.
         11    1    5    5    0    0  0.29140228243E+03 -0.29297879441E+03  0.39142812724E+03  0.56918173106E+03  0.00000000000E+00 0.  1.
        -11    1    5    5    0    0  0.70904701900E+02 -0.30882028813E+02  0.41856175453E+02  0.87938136657E+02  0.00000000000E+00 0. -1.
          4    1    6    6  503    0 -0.91214885370E+02 -0.13578286248E+02  0.30421293895E+02  0.97108085619E+02  0.00000000000E+00 0. -1.
         -4    1    6    6    0  503 -0.80985547400E+02 -0.79662269108E+02 -0.28705315004E+02  0.11716966807E+03  0.00000000000E+00 0.  1.
<mgrwt>
<rscale>  0 0.57738489E+03</rscale>
<asrwt>0</asrwt>
<pdfrwt beam="1">  1        2 0.16064887E+00 0.57738489E+03</pdfrwt>
<pdfrwt beam="2">  1       -2 0.54963480E-01 0.57738489E+03</pdfrwt>
<totfact> 0.75777715E+01</totfact>
</mgrwt>
</event>
<event>
12    1  0.1418317E-007  0.3877989E+03  0.7818608E-02  0.1048088E+00
          1   -1    0    0  501    0  0.00000000000E+00  0.00000000000E+00  0.82922769576E+03  0.82922769576E+03  0.00000000000E+00 0. -1.
         -1   -1    0    0    0  501 -0.00000000000E+00 -0.00000000000E+00 -0.28561223115E+03  0.28561223115E+03  0.00000000000E+00 0.  1.
         23    2    1    2    0    0 -0.24316579600E+02  0.16535337015E+03  0.44574090729E+03  0.48429034919E+03  0.88989621982E+02 0.  0.
    5000000    2    1    2    0    0  0.24316579600E+02 -0.16535337015E+03  0.97874557322E+02  0.63054957773E+03  0.60006691955E+03 0.  0.
         23    2    4    4    0    0 -0.26439252788E+03 -0.16248620364E+02  0.87928821625E+02  0.29350924608E+03  0.90822758150E+02 0.  0.
         23    2    4    4    0    0  0.28870910748E+03 -0.14910474978E+03  0.99457356969E+01  0.33704033165E+03  0.88949942965E+02 0.  0.
          3    1    3    3  502    0 -0.22002215897E+02  0.16718514668E+02  0.15821665202E+03  0.16061169077E+03  0.00000000000E+00 0. -1.
         -3    1    3    3    0  502 -0.23143637028E+01  0.14863485548E+03  0.28752425527E+03  0.32367865842E+03  0.00000000000E+00 0.  1.
         11    1    5    5    0    0 -0.15228285686E+03 -0.20695897088E+02  0.45990155383E+01  0.15375155152E+03  0.00000000000E+00 0. -1.
        -11    1    5    5    0    0 -0.11210967102E+03  0.44472767241E+01  0.83329806087E+02  0.13975769456E+03  0.00000000000E+00 0.  1.
          2    1    6    6  503    0  0.15639781303E+03 -0.12204329571E+03  0.29567798885E+02  0.20057192396E+03  0.00000000000E+00 0. -1.
         -2    1    6    6    0  503  0.13231129445E+03 -0.27061454067E+02 -0.19622063188E+02  0.13646840769E+03  0.00000000000E+00 0.  1.
<mgrwt>
<rscale>  0 0.38779891E+03</rscale>
<asrwt>0</asrwt>
<pdfrwt beam="1">  1        1 0.12757349E+00 0.38779891E+03</pdfrwt>
<pdfrwt beam="2">  1       -1 0.43940344E-01 0.38779891E+03</pdfrwt>
<totfact> 0.11275518E+02</totfact>
</mgrwt>
</event>
<event>
12    1  0.1418317E-007  0.1278784E+04  0.7818608E-02  0.9046561E-01
          1   -1    0    0  501    0  0.00000000000E+00  0.00000000000E+00  0.28638824338E+04  0.28638824338E+04  0.00000000000E+00 0. -1.
         -1   -1    0    0    0  501 -0.00000000000E+00 -0.00000000000E+00 -0.62491042976E+03  0.62491042976E+03  0.00000000000E+00 0.  1.
         23    2    1    2    0    0  0.21575121334E+03  0.12456233595E+04  0.12047800640E+04  0.17487442053E+04  0.92114890025E+02 0.  0.
    5000000    2    1    2    0    0 -0.21575121334E+03 -0.12456233595E+04  0.10341919400E+04  0.17400486583E+04  0.60007518247E+03 0.  0.
         23    2    4    4    0    0 -0.51416332786E+02 -0.83723935748E+03  0.97045690463E+03  0.12860678481E+04  0.92577131004E+02 0.  0.
         23    2    4    4    0    0 -0.16433488056E+03 -0.40838400203E+03  0.63735035398E+02  0.45398081020E+03  0.90845887128E+02 0.  0.
          2    1    3    3  502    0  0.10069490979E+03  0.77557768359E+03  0.70242350572E+03  0.10512178602E+04  0.00000000000E+00 0. -1.
         -2    1    3    3    0  502  0.11505630355E+03  0.47004567593E+03  0.50235655833E+03  0.69752634513E+03  0.00000000000E+00 0.  1.
         11    1    5    5    0    0  0.16230798036E+02 -0.35018951228E+03  0.44347467949E+03  0.56530162273E+03  0.00000000000E+00 0.  1.
        -11    1    5    5    0    0 -0.67647130822E+02 -0.48704984521E+03  0.52698222514E+03  0.72076622537E+03  0.00000000000E+00 0. -1.
          3    1    6    6  503    0 -0.13572762304E+03 -0.21838236101E+03  0.43454988787E+02  0.26077035742E+03  0.00000000000E+00 0. -1.
         -3    1    6    6    0  503 -0.28607257515E+02 -0.19000164102E+03  0.20280046611E+02  0.19321045278E+03  0.00000000000E+00 0.  1.
<mgrwt>
<rscale>  0 0.12787837E+04</rscale>
<asrwt>0</asrwt>
<pdfrwt beam="1">  1        1 0.44059729E+00 0.12787837E+04</pdfrwt>
<pdfrwt beam="2">  1       -1 0.96140068E-01 0.12787837E+04</pdfrwt>
<totfact> 0.76951210E-01</totfact>
</mgrwt>
</event>
<event>
12    1  0.1418317E-007  0.5517223E+03  0.7818608E-02  0.1001096E+00
          2   -1    0    0  501    0  0.00000000000E+00  0.00000000000E+00  0.11279530510E+04  0.11279530510E+04  0.00000000000E+00 0. -1.
         -2   -1    0    0    0  501 -0.00000000000E+00 -0.00000000000E+00 -0.40377827244E+03  0.40377827244E+03  0.00000000000E+00 0.  1.
         23    2    1    2    0    0  0.53010466778E+03 -0.71413728212E+02  0.34185144413E+03  0.64163138184E+03  0.93367772438E+02 0.  0.
    5000000    2    1    2    0    0 -0.53010466778E+03  0.71413728212E+02  0.38232333445E+03  0.89009994162E+03  0.59999657885E+03 0.  0.
         23    2    4    4    0    0 -0.39481549621E+03 -0.87236430420E+00 -0.62830526319E+02  0.41021704539E+03  0.91925579822E+02 0.  0.
         23    2    4    4    0    0 -0.13528917156E+03  0.72286092517E+02  0.44515386077E+03  0.47988289622E+03  0.92721061336E+02 0.  0.
          1    1    3    3  502    0  0.35490812755E+03 -0.23280056908E+02  0.26874480537E+03  0.44578639556E+03  0.00000000000E+00 0.  1.
         -1    1    3    3    0  502  0.17519654023E+03 -0.48133671304E+02  0.73106638761E+02  0.19584498628E+03  0.00000000000E+00 0. -1.
         11    1    5    5    0    0 -0.27016068418E+03 -0.26503813801E+02 -0.78103681159E+01  0.27156997123E+03  0.00000000000E+00 0. -1.
        -11    1    5    5    0    0 -0.12465481203E+03  0.25631449497E+02 -0.55020158203E+02  0.13864707416E+03  0.00000000000E+00 0.  1.
          1    1    6    6  503    0 -0.36617220478E+02  0.56661424909E+02  0.26941578889E+03  0.27773405483E+03  0.00000000000E+00 0. -1.
         -1    1    6    6    0  503 -0.98671951086E+02  0.15624667608E+02  0.17573807188E+03  0.20214884139E+03  0.00000000000E+00 0.  1.
<mgrwt>
<rscale>  0 0.55172227E+03</rscale>
<asrwt>0</asrwt>
<pdfrwt beam="1">  1        2 0.17353124E+00 0.55172227E+03</pdfrwt>
<pdfrwt beam="2">  1       -2 0.62119735E-01 0.55172227E+03</pdfrwt>
<totfact> 0.52312297E+01</totfact>
</mgrwt>
</event>
<event>
12    1  0.1418317E-007  0.8161725E+03  0.7818608E-02  0.9536899E-01
          1   -1    0    0  501    0  0.00000000000E+00  0.00000000000E+00  0.40643066304E+03  0.40643066304E+03  0.00000000000E+00 0. -1.
         -1   -1    0    0    0  501 -0.00000000000E+00 -0.00000000000E+00 -0.19914988791E+04  0.19914988791E+04  0.00000000000E+00 0.  1.
         23    2    1    2    0    0 -0.76407081901E+03  0.18469993842E+03 -0.88379679345E+03  0.11863118756E+04  0.91218476290E+02 0.  0.
    5000000    2    1    2    0    0  0.76407081901E+03 -0.18469993842E+03 -0.70127142259E+03  0.12116176665E+04  0.59859625615E+03 0.  0.
         23    2    4    4    0    0  0.62396022708E+03 -0.25091363599E+03 -0.76332575664E+03  0.10213598234E+04  0.90695426481E+02 0.  0.
         23    2    4    4    0    0  0.14011059193E+03  0.66213697572E+02  0.62054334051E+02  0.19025784309E+03  0.91280199206E+02 0.  0.
          4    1    3    3  502    0 -0.18787293944E+03  0.84746260836E+02 -0.21304071120E+03  0.29641949113E+03  0.00000000000E+00 0.  1.
         -4    1    3    3    0  502 -0.57619787958E+03  0.99953677581E+02 -0.67075608225E+03  0.88989238449E+03  0.00000000000E+00 0. -1.
         13    1    5    5    0    0  0.36551362109E+03 -0.15352372968E+03 -0.51525109943E+03  0.65011801870E+03  0.00000000000E+00 0. -1.
        -13    1    5    5    0    0  0.25844660600E+03 -0.97389906312E+02 -0.24807465721E+03  0.37124180470E+03  0.00000000000E+00 0.  1.
          2    1    6    6  503    0  0.76531084802E+02  0.71854451146E+02  0.69646025798E+02  0.12597872042E+03  0.00000000000E+00 0. -1.
         -2    1    6    6    0  503  0.63579507125E+02 -0.56407535748E+01 -0.75916917469E+01  0.64279122666E+02  0.00000000000E+00 0.  1.
<mgrwt>
<rscale>  0 0.81617248E+03</rscale>
<asrwt>0</asrwt>
<pdfrwt beam="1">  1        1 0.62527795E-01 0.81617248E+03</pdfrwt>
<pdfrwt beam="2">  1       -1 0.30638444E+00 0.81617248E+03</pdfrwt>
<totfact> 0.18364242E+00</totfact>
</mgrwt>
</event>
<event>
12    1  0.1418317E-007  0.8634552E+03  0.7818608E-02  0.9472454E-01
          2   -1    0    0  501    0  0.00000000000E+00  0.00000000000E+00  0.23509232827E+04  0.23509232827E+04  0.00000000000E+00 0. -1.
         -2   -1    0    0    0  501 -0.00000000000E+00 -0.00000000000E+00 -0.40095020868E+03  0.40095020868E+03  0.00000000000E+00 0.  1.
         23    2    1    2    0    0  0.53428329415E+03  0.65258338918E+03  0.55004226726E+03  0.10110508474E+04  0.91398041132E+02 0.  0.
    5000000    2    1    2    0    0 -0.53428329415E+03 -0.65258338918E+03  0.13999308068E+04  0.17408226441E+04  0.59944432267E+03 0.  0.
         23    2    4    4    0    0 -0.55202801121E+03 -0.59513743231E+03  0.84308215014E+03  0.11738125823E+04  0.90138659355E+02 0.  0.
         23    2    4    4    0    0  0.17744717057E+02 -0.57445956875E+02  0.55684865665E+03  0.56701006178E+03  0.88346311761E+02 0.  0.
          2    1    3    3  502    0  0.30138533444E+03  0.43276059699E+03  0.32196153881E+03  0.61787869893E+03  0.00000000000E+00 0. -1.
         -2    1    3    3    0  502  0.23289795972E+03  0.21982279219E+03  0.22808072845E+03  0.39317214843E+03  0.00000000000E+00 0.  1.
         13    1    5    5    0    0 -0.25345510176E+03 -0.33088533050E+03  0.39892244639E+03  0.57694341905E+03  0.00000000000E+00 0.  1.
        -13    1    5    5    0    0 -0.29857290945E+03 -0.26425210181E+03  0.44415970374E+03  0.59686916322E+03  0.00000000000E+00 0. -1.
          3    1    6    6  503    0 -0.46918629839E+01 -0.15571398795E+02  0.44740421218E+03  0.44769968854E+03  0.00000000000E+00 0. -1.
         -3    1    6    6    0  503  0.22436580041E+02 -0.41874558080E+02  0.10944444447E+03  0.11931037325E+03  0.00000000000E+00 0.  1.
<mgrwt>
<rscale>  0 0.86345517E+03</rscale>
<asrwt>0</asrwt>
<pdfrwt beam="1">  1        2 0.36168050E+00 0.86345517E+03</pdfrwt>
<pdfrwt beam="2">  1       -2 0.61684649E-01 0.86345517E+03</pdfrwt>
<totfact> 0.10633062E+01</totfact>
</mgrwt>
</event>
<event>
12    1  0.1418317E-007  0.1698120E+04  0.7818608E-02  0.8762437E-01
          2   -1    0    0  501    0  0.00000000000E+00  0.00000000000E+00  0.19697515610E+04  0.19697515610E+04  0.00000000000E+00 0. -1.
         -2   -1    0    0    0  501 -0.00000000000E+00 -0.00000000000E+00 -0.16172205430E+04  0.16172205430E+04  0.00000000000E+00 0.  1.
         23    2    1    2    0    0 -0.14128361239E+04  0.85467506174E+03  0.70134103535E+03  0.17958001302E+04  0.80271326133E+02 0.  0.
    5000000    2    1    2    0    0  0.14128361239E+04 -0.85467506174E+03 -0.34881001731E+03  0.17911719738E+04  0.60004436280E+03 0.  0.
         23    2    4    4    0    0  0.72332117421E+03 -0.75052251369E+03 -0.12481515807E+03  0.10532047238E+04  0.84757312137E+02 0.  0.
         23    2    4    4    0    0  0.68951494966E+03 -0.10415254805E+03 -0.22399485924E+03  0.73796724994E+03  0.90240489535E+02 0.  0.
          2    1    3    3  502    0 -0.39792916651E+03  0.19912597641E+03  0.18899576397E+03  0.48344407623E+03  0.00000000000E+00 0. -1.
         -2    1    3    3    0  502 -0.10149069574E+04  0.65554908533E+03  0.51234527138E+03  0.13123560540E+04  0.00000000000E+00 0.  1.
         13    1    5    5    0    0  0.18081528336E+03 -0.13823313584E+03 -0.33969993369E+02  0.23012285195E+03  0.00000000000E+00 0. -1.
        -13    1    5    5    0    0  0.54250589084E+03 -0.61228937786E+03 -0.90845164701E+02  0.82308187186E+03  0.00000000000E+00 0.  1.
          3    1    6    6  503    0  0.10159740308E+03 -0.18744334824E+02 -0.74113045229E+00  0.10331472148E+03  0.00000000000E+00 0.  1.
         -3    1    6    6    0  503  0.58791754658E+03 -0.85408213222E+02 -0.22325372879E+03  0.63465252846E+03  0.00000000000E+00 0. -1.
<mgrwt>
<rscale>  0 0.16981201E+04</rscale>
<asrwt>0</asrwt>
<pdfrwt beam="1">  1        2 0.30303870E+00 0.16981201E+04</pdfrwt>
<pdfrwt beam="2">  1       -2 0.24880316E+00 0.16981201E+04</pdfrwt>
<totfact> 0.41717048E-01</totfact>
</mgrwt>
</event>
<event>
12    1  0.1418317E-007  0.1184838E+04  0.7818608E-02  0.9126233E-01
          2   -1    0    0  501    0  0.00000000000E+00  0.00000000000E+00  0.12147255609E+04  0.12147255609E+04  0.00000000000E+00 0. -1.
         -2   -1    0    0    0  501 -0.00000000000E+00 -0.00000000000E+00 -0.15550371281E+04  0.15550371281E+04  0.00000000000E+00 0.  1.
         23    2    1    2    0    0 -0.62900894831E+03  0.91619119730E+03  0.53104816801E+03  0.12352851800E+04  0.94120943475E+02 0.  0.
    5000000    2    1    2    0    0  0.62900894831E+03 -0.91619119730E+03 -0.87135973521E+03  0.15344775091E+04  0.60024567538E+03 0.  0.
         23    2    4    4    0    0 -0.87346187741E+02 -0.55126050600E+02 -0.13592752038E+03  0.19126791432E+03  0.86248978450E+02 0.  0.
         23    2    4    4    0    0  0.71635513605E+03 -0.86106514670E+03 -0.73543221484E+03  0.13432095948E+04  0.93560703148E+02 0.  0.
          2    1    3    3  502    0 -0.13051245309E+03  0.18477770373E+03  0.15113230087E+03  0.27206115594E+03  0.00000000000E+00 0. -1.
         -2    1    3    3    0  502 -0.49849649522E+03  0.73141349357E+03  0.37991586714E+03  0.96322402401E+03  0.00000000000E+00 0.  1.
         11    1    5    5    0    0 -0.41680032648E+02  0.20305994856E+02 -0.48461256734E+02  0.67067517867E+02  0.00000000000E+00 0. -1.
        -11    1    5    5    0    0 -0.45666155093E+02 -0.75432045456E+02 -0.87466263641E+02  0.12420039645E+03  0.00000000000E+00 0.  1.
          3    1    6    6  503    0  0.66131842995E+02 -0.43440190157E+02 -0.45215030538E+02  0.91131058182E+02  0.00000000000E+00 0. -1.
         -3    1    6    6    0  503  0.65022329306E+03 -0.81762495654E+03 -0.69021718430E+03  0.12520785366E+04  0.00000000000E+00 0.  1.
<mgrwt>
<rscale>  0 0.11848376E+04</rscale>
<asrwt>0</asrwt>
<pdfrwt beam="1">  1        2 0.18688086E+00 0.11848376E+04</pdfrwt>
<pdfrwt beam="2">  1       -2 0.23923648E+00 0.11848376E+04</pdfrwt>
<totfact> 0.13533404E+00</totfact>
</mgrwt>
</event>
<event>
12    1  0.1418317E-007  0.7710443E+03  0.7818608E-02  0.9602902E-01
          2   -1    0    0  501    0  0.00000000000E+00  0.00000000000E+00  0.20243437934E+04  0.20243437934E+04  0.00000000000E+00 0. -1.
         -2   -1    0    0    0  501 -0.00000000000E+00 -0.00000000000E+00 -0.78042051807E+03  0.78042051807E+03  0.00000000000E+00 0.  1.
         23    2    1    2    0    0 -0.35123160039E+03 -0.59415050508E+03  0.16599255919E+04  0.17999984200E+04  0.90900393529E+02 0.  0.
    5000000    2    1    2    0    0  0.35123160039E+03  0.59415050508E+03 -0.41600231653E+03  0.10047658915E+04  0.60009841659E+03 0.  0.
         23    2    4    4    0    0  0.47142837342E+03  0.38646722960E+03 -0.42595852385E+03  0.74907160097E+03  0.89810737242E+02 0.  0.
         23    2    4    4    0    0 -0.12019677303E+03  0.20768327548E+03  0.99562073179E+01  0.25569429054E+03  0.87754412936E+02 0.  0.
          1    1    3    3  502    0 -0.28521309267E+03 -0.46037604084E+03  0.12015472623E+04  0.13179561566E+04  0.00000000000E+00 0. -1.
         -1    1    3    3    0  502 -0.66018507715E+02 -0.13377446424E+03  0.45837832951E+03  0.48204226330E+03  0.00000000000E+00 0.  1.
         11    1    5    5    0    0  0.12712055179E+03  0.10033099376E+03 -0.67034429762E+02  0.17526995684E+03  0.00000000000E+00 0. -1.
        -11    1    5    5    0    0  0.34430782163E+03  0.28613623584E+03 -0.35892409409E+03  0.57380164414E+03  0.00000000000E+00 0.  1.
          1    1    6    6  503    0 -0.95935144932E+02  0.13915019763E+03  0.45121895274E+02  0.17493517361E+03  0.00000000000E+00 0. -1.
         -1    1    6    6    0  503 -0.24261628098E+02  0.68533077848E+02 -0.35165687956E+02  0.80759116926E+02  0.00000000000E+00 0.  1.
<mgrwt>
<rscale>  0 0.77104434E+03</rscale>
<asrwt>0</asrwt>
<pdfrwt beam="1">  1        2 0.31143750E+00 0.77104434E+03</pdfrwt>
<pdfrwt beam="2">  1       -2 0.12006470E+00 0.77104434E+03</pdfrwt>
<totfact> 0.35487215E+00</totfact>
</mgrwt>
</event>
<event>
12    1  0.1418317E-007  0.4461288E+03  0.7818608E-02  0.1028883E+00
          2   -1    0    0  501    0  0.00000000000E+00  0.00000000000E+00  0.16301661432E+04  0.16301661432E+04  0.00000000000E+00 0. -1.
         -2   -1    0    0    0  501 -0.00000000000E+00 -0.00000000000E+00 -0.22446145761E+03  0.22446145761E+03  0.00000000000E+00 0.  1.
         23    2    1    2    0    0  0.41227044897E+03 -0.13763833193E+03  0.71983638489E+03  0.84519820413E+03  0.85348402097E+02 0.  0.
    5000000    2    1    2    0    0 -0.41227044897E+03  0.13763833193E+03  0.68586830072E+03  0.10094293967E+04  0.59968420645E+03 0.  0.
         23    2    4    4    0    0 -0.12427501379E+03  0.10351730303E+03  0.68021573620E+03  0.70526289799E+03  0.92424003532E+02 0.  0.
         23    2    4    4    0    0 -0.28799543517E+03  0.34121028904E+02  0.56525645197E+01  0.30416649870E+03  0.91540658469E+02 0.  0.
          1    1    3    3  502    0  0.20941480900E+03 -0.89129219266E+02  0.44868010588E+03  0.50310279006E+03  0.00000000000E+00 0. -1.
         -1    1    3    3    0  502  0.20285563997E+03 -0.48509112666E+02  0.27115627901E+03  0.34209541406E+03  0.00000000000E+00 0.  1.
         11    1    5    5    0    0 -0.48537677970E+02  0.57125694541E+02  0.48543140419E+03  0.49118519861E+03  0.00000000000E+00 0. -1.
        -11    1    5    5    0    0 -0.75737335825E+02  0.46391608486E+02  0.19478433201E+03  0.21407769938E+03  0.00000000000E+00 0.  1.
          1    1    6    6  503    0 -0.24299569722E+03  0.42083544650E+02 -0.26875819323E+02  0.24807306033E+03  0.00000000000E+00 0. -1.
         -1    1    6    6    0  503 -0.44999737951E+02 -0.79625157451E+01  0.32528383843E+02  0.56093438369E+02  0.00000000000E+00 0.  1.
<mgrwt>
<rscale>  0 0.44612883E+03</rscale>
<asrwt>0</asrwt>
<pdfrwt beam="1">  1        2 0.25079478E+00 0.44612883E+03</pdfrwt>
<pdfrwt beam="2">  1       -2 0.34532533E-01 0.44612883E+03</pdfrwt>
<totfact> 0.89408171E+01</totfact>
</mgrwt>
</event>
<event>
12    1  0.1418317E-007  0.8706966E+03  0.7818608E-02  0.9462972E-01
          1   -1    0    0  501    0  0.00000000000E+00  0.00000000000E+00  0.76384047662E+03  0.76384047662E+03  0.00000000000E+00 0. -1.
         -1   -1    0    0    0  501 -0.00000000000E+00 -0.00000000000E+00 -0.11507051548E+04  0.11507051548E+04  0.00000000000E+00 0.  1.
         23    2    1    2    0    0 -0.78279113928E+03  0.29360389885E+03 -0.24546438502E+03  0.87595374064E+03  0.89871988210E+02 0.  0.
    5000000    2    1    2    0    0  0.78279113928E+03 -0.29360389885E+03 -0.14140029320E+03  0.10385918908E+04  0.59976149894E+03 0.  0.
         23    2    4    4    0    0  0.49853241993E+03 -0.33361334738E+03 -0.32301071585E+03  0.68718934289E+03  0.89782131618E+02 0.  0.
         23    2    4    4    0    0  0.28425871936E+03  0.40009448531E+02  0.18161042265E+03  0.35140254794E+03  0.89986830036E+02 0.  0.
          2    1    3    3  502    0 -0.60199785468E+03  0.18774976300E+03 -0.20024805681E+03  0.66162729297E+03  0.00000000000E+00 0. -1.
         -2    1    3    3    0  502 -0.18079328461E+03  0.10585413584E+03 -0.45216328210E+02  0.21432644767E+03  0.00000000000E+00 0.  1.
         11    1    5    5    0    0  0.19449196185E+03 -0.82258175652E+02 -0.13043346133E+03  0.24820640306E+03  0.00000000000E+00 0. -1.
        -11    1    5    5    0    0  0.30404045808E+03 -0.25135517173E+03 -0.19257725452E+03  0.43898293983E+03  0.00000000000E+00 0.  1.
          3    1    6    6  503    0  0.13185753696E+03  0.54227257568E+02  0.12019682229E+03  0.18647863579E+03  0.00000000000E+00 0. -1.
         -3    1    6    6    0  503  0.15240118239E+03 -0.14217809037E+02  0.61413600357E+02  0.16492391215E+03  0.00000000000E+00 0.  1.
<mgrwt>
<rscale>  0 0.87069659E+03</rscale>
<asrwt>0</asrwt>
<pdfrwt beam="1">  1        1 0.11751392E+00 0.87069659E+03</pdfrwt>
<pdfrwt beam="2">  1       -1 0.17703156E+00 0.87069659E+03</pdfrwt>
<totfact> 0.52985407E+00</totfact>
</mgrwt>
</event>
<event>
12    1  0.2670267E-007  0.1211002E+04  0.7818608E-02  0.9103281E-01
         -2   -1    0    0    0  501 -0.00000000000E+00  0.00000000000E+00  0.14545224130E+04  0.14545224130E+04  0.00000000000E+00 0.  1.
          2   -1    0    0  501    0  0.00000000000E+00 -0.00000000000E+00 -0.13073011271E+04  0.13073011271E+04  0.00000000000E+00 0. -1.
         23    2    1    2    0    0  0.59245639454E+03  0.99497746562E+03  0.68763760081E+03  0.13499165538E+04  0.91893937651E+02 0.  0.
    5000000    2    1    2    0    0 -0.59245639454E+03 -0.99497746562E+03 -0.54041631486E+03  0.14119069862E+04  0.60037222438E+03 0.  0.
         23    2    4    4    0    0 -0.64619962069E+03 -0.68785857903E+03 -0.53170503382E+03  0.10867682993E+04  0.87359709429E+02 0.  0.
         23    2    4    4    0    0  0.53743226146E+02 -0.30711888659E+03 -0.87112810461E+01  0.32513868692E+03  0.91809228605E+02 0.  0.
          2    1    3    3  502    0  0.26159049248E+03  0.48705409915E+03  0.28291156750E+03  0.62103964147E+03  0.00000000000E+00 0. -1.
         -2    1    3    3    0  502  0.33086590207E+03  0.50792336647E+03  0.40472603331E+03  0.72887691238E+03  0.00000000000E+00 0.  1.
         11    1    5    5    0    0 -0.41173069824E+03 -0.39209341483E+03 -0.28632200359E+03  0.63658440412E+03  0.00000000000E+00 0. -1.
        -11    1    5    5    0    0 -0.23446892244E+03 -0.29576516421E+03 -0.24538303022E+03  0.45018389517E+03  0.00000000000E+00 0.  1.
          1    1    6    6  503    0  0.19146748432E+02 -0.24599818236E+03  0.23524867158E+02  0.24786109633E+03  0.00000000000E+00 0. -1.
         -1    1    6    6    0  503  0.34596477714E+02 -0.61120704225E+02 -0.32236148205E+02  0.77277590583E+02  0.00000000000E+00 0.  1.
<mgrwt>
<rscale>  0 0.12110020E+04</rscale>
<asrwt>0</asrwt>
<pdfrwt beam="1">  1        2 0.20112325E+00 0.12110020E+04</pdfrwt>
<pdfrwt beam="2">  1       -2 0.22377268E+00 0.12110020E+04</pdfrwt>
<totfact> 0.14851831E+00</totfact>
</mgrwt>
</event>
<event>
12    1  0.1418317E-007  0.1131322E+04  0.7818608E-02  0.9175189E-01
         -3   -1    0    0    0  501 -0.00000000000E+00  0.00000000000E+00  0.10131856985E+04  0.10131856985E+04  0.00000000000E+00 0.  1.
          3   -1    0    0  501    0  0.00000000000E+00 -0.00000000000E+00 -0.19636861462E+04  0.19636861462E+04  0.00000000000E+00 0. -1.
         23    2    1    2    0    0  0.83163112697E+03 -0.68538300290E+03 -0.13036929077E+04  0.16938702386E+04  0.90669706447E+02 0.  0.
    5000000    2    1    2    0    0 -0.83163112697E+03  0.68538300290E+03  0.35319246002E+03  0.12830016060E+04  0.59999001257E+03 0.  0.
         23    2    4    4    0    0 -0.17703334119E+03 -0.45315190472E+02  0.19988646931E+03  0.28587495068E+03  0.91518393961E+02 0.  0.
         23    2    4    4    0    0 -0.65459778577E+03  0.73069819337E+03  0.15330599071E+03  0.99712665532E+03  0.91327591810E+02 0.  0.
          1    1    3    3  502    0  0.50749845473E+03 -0.46117647022E+03 -0.87187438383E+03  0.11092354842E+04  0.00000000000E+00 0. -1.
         -1    1    3    3    0  502  0.32413267224E+03 -0.22420653268E+03 -0.43181852391E+03  0.58463475444E+03  0.00000000000E+00 0.  1.
         13    1    5    5    0    0 -0.16583824098E+03 -0.11706453360E+02  0.14527710659E+03  0.22078224775E+03  0.00000000000E+00 0.  1.
        -13    1    5    5    0    0 -0.11195100217E+02 -0.33608737112E+02  0.54609362715E+02  0.65092702934E+02  0.00000000000E+00 0. -1.
          2    1    6    6  503    0 -0.44586107526E+03  0.48882236284E+03  0.60236681611E+02  0.66435522024E+03  0.00000000000E+00 0. -1.
         -2    1    6    6    0  503 -0.20873671052E+03  0.24187583052E+03  0.93069309096E+02  0.33277143508E+03  0.00000000000E+00 0.  1.
<mgrwt>
<rscale>  0 0.11313225E+04</rscale>
<asrwt>0</asrwt>
<pdfrwt beam="1">  1        3 0.30210556E+00 0.11313225E+04</pdfrwt>
<pdfrwt beam="2">  1       -3 0.15587472E+00 0.11313225E+04</pdfrwt>
<totfact> 0.27528879E-02</totfact>
</mgrwt>
</event>
<event>
12    1  0.1418317E-007  0.4129831E+03  0.7818608E-02  0.1039375E+00
          2   -1    0    0  501    0  0.00000000000E+00  0.00000000000E+00  0.76285820981E+03  0.76285820981E+03  0.00000000000E+00 0.  1.
         -2   -1    0    0    0  501 -0.00000000000E+00 -0.00000000000E+00 -0.45529092627E+03  0.45529092627E+03  0.00000000000E+00 0. -1.
         23    2    1    2    0    0  0.13667457332E+03 -0.37253597968E+03  0.28878387029E+03  0.49903480282E+03  0.90424640115E+02 0.  0.
    5000000    2    1    2    0    0 -0.13667457332E+03  0.37253597968E+03  0.18783413245E+02  0.71911433326E+03  0.59942440102E+03 0.  0.
         23    2    4    4    0    0 -0.43773732095E+02  0.24852853447E+03  0.29064560931E+03  0.39366924554E+03  0.82571378847E+02 0.  0.
         23    2    4    4    0    0 -0.92900841225E+02  0.12400744521E+03 -0.27186219606E+03  0.32544508772E+03  0.89426163428E+02 0.  0.
          3    1    3    3  502    0  0.68106736861E+02 -0.21702428712E+03  0.21756836703E+03  0.31476032650E+03  0.00000000000E+00 0. -1.
         -3    1    3    3    0  502  0.68567836459E+02 -0.15551169256E+03  0.71215503260E+02  0.18427447632E+03  0.00000000000E+00 0.  1.
         13    1    5    5    0    0 -0.29134391779E+02  0.11033476859E+03  0.19163118339E+03  0.22303606074E+03  0.00000000000E+00 0.  1.
        -13    1    5    5    0    0 -0.14639340315E+02  0.13819376588E+03  0.99014425919E+02  0.17063318480E+03  0.00000000000E+00 0. -1.
          4    1    6    6  503    0 -0.22589815349E+02  0.97886508425E+02 -0.18631093612E+03  0.21166915979E+03  0.00000000000E+00 0. -1.
         -4    1    6    6    0  503 -0.70311025876E+02  0.26120936787E+02 -0.85551259944E+02  0.11377592793E+03  0.00000000000E+00 0.  1.
<mgrwt>
<rscale>  0 0.41298313E+03</rscale>
<asrwt>0</asrwt>
<pdfrwt beam="1">  1        2 0.11736280E+00 0.41298313E+03</pdfrwt>
<pdfrwt beam="2">  1       -2 0.70044758E-01 0.41298313E+03</pdfrwt>
<totfact> 0.71187487E+01</totfact>
</mgrwt>
</event>
<event>
12    1  0.1418317E-007  0.6766250E+03  0.7818608E-02  0.9758063E-01
         -2   -1    0    0    0  501 -0.00000000000E+00  0.00000000000E+00  0.20792540499E+03  0.20792540499E+03  0.00000000000E+00 0.  1.
          2   -1    0    0  501    0  0.00000000000E+00 -0.00000000000E+00 -0.23457948828E+04  0.23457948828E+04  0.00000000000E+00 0. -1.
         23    2    1    2    0    0 -0.43313032938E+03  0.35035601936E+03 -0.71103749973E+03  0.90867858259E+03  0.98849470927E+02 0.  0.
    5000000    2    1    2    0    0  0.43313032938E+03 -0.35035601936E+03 -0.14268319781E+04  0.16450417052E+04  0.59996791222E+03 0.  0.
         23    2    4    4    0    0  0.43634593419E+03 -0.37538590757E+01 -0.94443340672E+03  0.10445047762E+04  0.92864966134E+02 0.  0.
         23    2    4    4    0    0 -0.32156048115E+01 -0.34660216028E+03 -0.48239857139E+03  0.60053692908E+03  0.88276972588E+02 0.  0.
          3    1    3    3  502    0 -0.19615734680E+03  0.19475352635E+03 -0.28577567682E+03  0.39758568660E+03  0.00000000000E+00 0. -1.
         -3    1    3    3    0  502 -0.23697298258E+03  0.15560249301E+03 -0.42526182291E+03  0.51109289599E+03  0.00000000000E+00 0.  1.
         11    1    5    5    0    0  0.24584238508E+01  0.93422650077E+01 -0.87526421334E+01  0.13035739627E+02  0.00000000000E+00 0.  1.
        -11    1    5    5    0    0  0.43388751034E+03 -0.13096124083E+02 -0.93568076459E+03  0.10314690365E+04  0.00000000000E+00 0. -1.
          1    1    6    6  503    0 -0.24299770904E+02 -0.16702975610E+03 -0.16982213086E+03  0.23943469761E+03  0.00000000000E+00 0. -1.
         -1    1    6    6    0  503  0.21084166093E+02 -0.17957240419E+03 -0.31257644053E+03  0.36110223148E+03  0.00000000000E+00 0.  1.
<mgrwt>
<rscale>  0 0.67662503E+03</rscale>
<asrwt>0</asrwt>
<pdfrwt beam="1">  1        2 0.36089151E+00 0.67662503E+03</pdfrwt>
<pdfrwt beam="2">  1       -2 0.31988525E-01 0.67662503E+03</pdfrwt>
<totfact> 0.40707569E+01</totfact>
</mgrwt>
</event>
<event>
12    1  0.1418317E-007  0.6578119E+03  0.7818608E-02  0.9792230E-01
          1   -1    0    0  501    0  0.00000000000E+00  0.00000000000E+00  0.11186340514E+04  0.11186340514E+04  0.00000000000E+00 0. -1.
         -1   -1    0    0    0  501 -0.00000000000E+00 -0.00000000000E+00 -0.73075417380E+03  0.73075417380E+03  0.00000000000E+00 0.  1.
         23    2    1    2    0    0 -0.35517804193E+03  0.42114075532E+03  0.76865123698E+03  0.95023919114E+03  0.92837594722E+02 0.  0.
    5000000    2    1    2    0    0  0.35517804193E+03 -0.42114075532E+03 -0.38077135934E+03  0.89914903410E+03  0.59997598299E+03 0.  0.
         23    2    4    4    0    0 -0.12849324141E+03 -0.15277117229E+03 -0.22866737594E+03  0.31788568177E+03  0.94408652596E+02 0.  0.
         23    2    4    4    0    0  0.48367128334E+03 -0.26836958304E+03 -0.15210398340E+03  0.58126335233E+03  0.93655323213E+02 0.  0.
          4    1    3    3  502    0 -0.19208102742E+03  0.24353302511E+03  0.50759773583E+03  0.59486041795E+03  0.00000000000E+00 0.  1.
         -4    1    3    3    0  502 -0.16309701450E+03  0.17760773022E+03  0.26105350115E+03  0.35537877319E+03  0.00000000000E+00 0. -1.
         11    1    5    5    0    0 -0.25350583930E+02 -0.59388003080E+02 -0.13646810280E+03  0.15097393847E+03  0.00000000000E+00 0. -1.
        -11    1    5    5    0    0 -0.10314265748E+03 -0.93383169207E+02 -0.92199273137E+02  0.16691174330E+03  0.00000000000E+00 0.  1.
          4    1    6    6  503    0  0.14400608429E+03 -0.12946237378E+03 -0.62925956405E+02  0.20361221606E+03  0.00000000000E+00 0.  1.
         -4    1    6    6    0  503  0.33966519905E+03 -0.13890720926E+03 -0.89178026998E+02  0.37765113627E+03  0.00000000000E+00 0. -1.
<mgrwt>
<rscale>  0 0.65781189E+03</rscale>
<asrwt>0</asrwt>
<pdfrwt beam="1">  1        1 0.17209755E+00 0.65781189E+03</pdfrwt>
<pdfrwt beam="2">  1       -1 0.11242372E+00 0.65781189E+03</pdfrwt>
<totfact> 0.93310990E+00</totfact>
</mgrwt>
</event>
<event>
12    1  0.1418317E-007  0.4454782E+03  0.7818608E-02  0.1029079E+00
         -2   -1    0    0    0  501 -0.00000000000E+00  0.00000000000E+00  0.11785854840E+03  0.11785854840E+03  0.00000000000E+00 0.  1.
          2   -1    0    0  501    0  0.00000000000E+00 -0.00000000000E+00 -0.19254496744E+04  0.19254496744E+04  0.00000000000E+00 0. -1.
         23    2    1    2    0    0 -0.29408212439E+02  0.24970073979E+03 -0.30055998793E+03  0.40192201295E+03  0.89385097964E+02 0.  0.
    5000000    2    1    2    0    0  0.29408212439E+02 -0.24970073979E+03 -0.15070311381E+04  0.16413862099E+04  0.59982542161E+03 0.  0.
         23    2    4    4    0    0  0.26090173857E+03 -0.28335633596E+03 -0.10132976703E+04  0.10878586503E+04  0.91124881970E+02 0.  0.
         23    2    4    4    0    0 -0.23149352613E+03  0.33655596168E+02 -0.49373346782E+03  0.55352755959E+03  0.88871087471E+02 0.  0.
          1    1    3    3  502    0  0.30670748700E+01  0.14573486535E+03 -0.22947493866E+03  0.27185806113E+03  0.00000000000E+00 0. -1.
         -1    1    3    3    0  502 -0.32475287309E+02  0.10396587444E+03 -0.71085049270E+02  0.13006395182E+03  0.00000000000E+00 0.  1.
         13    1    5    5    0    0  0.18168370224E+03 -0.22718324960E+03 -0.65613041009E+03  0.71772439808E+03  0.00000000000E+00 0. -1.
        -13    1    5    5    0    0  0.79218036335E+02 -0.56173086361E+02 -0.35716726018E+03  0.37013425221E+03  0.00000000000E+00 0.  1.
          1    1    6    6  503    0 -0.16959224088E+02 -0.20882228568E+02 -0.78423024275E+02  0.82908705743E+02  0.00000000000E+00 0. -1.
         -1    1    6    6    0  503 -0.21453430205E+03  0.54537824736E+02 -0.41531044354E+03  0.47061885385E+03  0.00000000000E+00 0.  1.
<mgrwt>
<rscale>  0 0.44547823E+03</rscale>
<asrwt>0</asrwt>
<pdfrwt beam="1">  1        2 0.29622303E+00 0.44547823E+03</pdfrwt>
<pdfrwt beam="2">  1       -2 0.18132084E-01 0.44547823E+03</pdfrwt>
<totfact> 0.19695008E+02</totfact>
</mgrwt>
</event>
<event>
12    1  0.1418317E-007  0.4570877E+03  0.7818608E-02  0.1025629E+00
          2   -1    0    0  501    0  0.00000000000E+00  0.00000000000E+00  0.13798881539E+04  0.13798881539E+04  0.00000000000E+00 0. -1.
         -2   -1    0    0    0  501 -0.00000000000E+00 -0.00000000000E+00 -0.21035997101E+03  0.21035997101E+03  0.00000000000E+00 0.  1.
         23    2    1    2    0    0 -0.15633369923E+03 -0.21711751940E+03  0.44281349817E+02  0.28728483022E+03  0.94823483325E+02 0.  0.
    5000000    2    1    2    0    0  0.15633369923E+03  0.21711751940E+03  0.11252468331E+04  0.13029632947E+04  0.59996055641E+03 0.  0.
         23    2    4    4    0    0  0.13864078995E+03  0.40928359335E+03  0.71130766553E+03  0.83712792544E+03  0.89945761844E+02 0.  0.
         23    2    4    4    0    0  0.17692909270E+02 -0.19216607395E+03  0.41393916758E+03  0.46583536929E+03  0.91739401630E+02 0.  0.
          1    1    3    3  502    0 -0.43425946585E+02 -0.25906262215E+02 -0.22580291370E+02  0.55378848102E+02  0.00000000000E+00 0. -1.
         -1    1    3    3    0  502 -0.11290775264E+03 -0.19121125718E+03  0.66861641187E+02  0.23190598212E+03  0.00000000000E+00 0.  1.
         13    1    5    5    0    0  0.19414629151E+02  0.17254134926E+03  0.23728722037E+03  0.29402834894E+03  0.00000000000E+00 0.  1.
        -13    1    5    5    0    0  0.11922616080E+03  0.23674224409E+03  0.47402044516E+03  0.54309957650E+03  0.00000000000E+00 0. -1.
          3    1    6    6  503    0  0.37384116936E+02 -0.72450597998E+02  0.24228449931E+03  0.25563340930E+03  0.00000000000E+00 0. -1.
         -3    1    6    6    0  503 -0.19691207666E+02 -0.11971547596E+03  0.17165466828E+03  0.21020195999E+03  0.00000000000E+00 0.  1.
<mgrwt>
<rscale>  0 0.45708766E+03</rscale>
<asrwt>0</asrwt>
<pdfrwt beam="1">  1        2 0.21229048E+00 0.45708766E+03</pdfrwt>
<pdfrwt beam="2">  1       -2 0.32363073E-01 0.45708766E+03</pdfrwt>
<totfact> 0.13818467E+02</totfact>
</mgrwt>
</event>
<event>
12    1  0.1418317E-007  0.7858375E+03  0.7818608E-02  0.9580746E-01
          1   -1    0    0  501    0  0.00000000000E+00  0.00000000000E+00  0.21200919228E+04  0.21200919228E+04  0.00000000000E+00 0. -1.
         -1   -1    0    0    0  501 -0.00000000000E+00 -0.00000000000E+00 -0.50858175141E+03  0.50858175141E+03  0.00000000000E+00 0.  1.
         23    2    1    2    0    0 -0.61982580677E+03  0.38337037359E+03 -0.29757688548E+02  0.73531221545E+03  0.92960529726E+02 0.  0.
    5000000    2    1    2    0    0  0.61982580677E+03 -0.38337037359E+03  0.16412678599E+04  0.18933614587E+04  0.59991712040E+03 0.  0.
         23    2    4    4    0    0  0.63112713531E+03 -0.44180625613E+03  0.15948800330E+04  0.17735837202E+04  0.91883970604E+02 0.  0.
         23    2    4    4    0    0 -0.11301328548E+02  0.58435882537E+02  0.46387826948E+02  0.11977773855E+03  0.93018298032E+02 0.  0.
          2    1    3    3  502    0 -0.10986727405E+03  0.10398933712E+03  0.15564001579E+02  0.15207510738E+03  0.00000000000E+00 0. -1.
         -2    1    3    3    0  502 -0.50995853272E+03  0.27938103648E+03 -0.45321690127E+02  0.58323710807E+03  0.00000000000E+00 0.  1.
         13    1    5    5    0    0  0.59995564472E+03 -0.43408631104E+03  0.14896198551E+04  0.16635338932E+04  0.00000000000E+00 0. -1.
        -13    1    5    5    0    0  0.31171490592E+02 -0.77199450933E+01  0.10526017786E+03  0.11004982699E+03  0.00000000000E+00 0.  1.
          4    1    6    6  503    0  0.85394691401E+01  0.66297072457E+01  0.61369790478E+02  0.62314739305E+02  0.00000000000E+00 0.  1.
         -4    1    6    6    0  503 -0.19840797688E+02  0.51806175291E+02 -0.14981963530E+02  0.57462999246E+02  0.00000000000E+00 0. -1.
<mgrwt>
<rscale>  0 0.78583753E+03</rscale>
<asrwt>0</asrwt>
<pdfrwt beam="1">  1        1 0.32616798E+00 0.78583753E+03</pdfrwt>
<pdfrwt beam="2">  1       -1 0.78243347E-01 0.78583753E+03</pdfrwt>
<totfact> 0.42251532E+00</totfact>
</mgrwt>
</event>
<event>
12    1  0.1418317E-007  0.1961848E+04  0.7818608E-02  0.8624669E-01
         -1   -1    0    0    0  501 -0.00000000000E+00  0.00000000000E+00  0.15949979425E+04  0.15949979425E+04  0.00000000000E+00 0.  1.
          1   -1    0    0  501    0  0.00000000000E+00 -0.00000000000E+00 -0.26063075935E+04  0.26063075935E+04  0.00000000000E+00 0. -1.
         23    2    1    2    0    0  0.14063981595E+04 -0.13082773637E+04  0.55111205030E+02  0.19238442938E+04  0.92704791448E+02 0.  0.
    5000000    2    1    2    0    0 -0.14063981595E+04  0.13082773637E+04 -0.10664208561E+04  0.22774612422E+04  0.60002568615E+03 0.  0.
         23    2    4    4    0    0 -0.48736865827E+03  0.13183355936E+03 -0.20778040536E+03  0.55282292420E+03  0.86788203294E+02 0.  0.
         23    2    4    4    0    0 -0.91902950119E+03  0.11764438044E+04 -0.85864045074E+03  0.17246383180E+04  0.92079614439E+02 0.  0.
          1    1    3    3  502    0  0.11915731715E+04 -0.10976140198E+04  0.13643959536E+02  0.16201201552E+04  0.00000000000E+00 0. -1.
         -1    1    3    3    0  502  0.21482498793E+03 -0.21066334388E+03  0.41467245494E+02  0.30372413856E+03  0.00000000000E+00 0.  1.
         11    1    5    5    0    0 -0.19002958707E+03  0.20608733251E+02 -0.46387230068E+02  0.19669199008E+03  0.00000000000E+00 0.  1.
        -11    1    5    5    0    0 -0.29733907120E+03  0.11122482611E+03 -0.16139317529E+03  0.35613093412E+03  0.00000000000E+00 0. -1.
          3    1    6    6  503    0 -0.52544059437E+03  0.72199873549E+03 -0.55147513699E+03  0.10495212332E+04  0.00000000000E+00 0. -1.
         -3    1    6    6    0  503 -0.39358890682E+03  0.45444506888E+03 -0.30716531374E+03  0.67511708478E+03  0.00000000000E+00 0.  1.
<mgrwt>
<rscale>  0 0.19618480E+04</rscale>
<asrwt>0</asrwt>
<pdfrwt beam="1">  1        1 0.40097039E+00 0.19618480E+04</pdfrwt>
<pdfrwt beam="2">  1       -1 0.24538430E+00 0.19618480E+04</pdfrwt>
<totfact> 0.76386522E-02</totfact>
</mgrwt>
</event>
<event>
12    1  0.1418317E-007  0.3459737E+03  0.7818608E-02  0.1064280E+00
         -1   -1    0    0    0  501 -0.00000000000E+00  0.00000000000E+00  0.19536896794E+03  0.19536896794E+03  0.00000000000E+00 0.  1.
          1   -1    0    0  501    0  0.00000000000E+00 -0.00000000000E+00 -0.78196501851E+03  0.78196501851E+03  0.00000000000E+00 0. -1.
         23    2    1    2    0    0 -0.86072041094E+02  0.10146148850E+03 -0.79478987949E+02  0.18049740575E+03  0.92517966088E+02 0.  0.
    5000000    2    1    2    0    0  0.86072041094E+02 -0.10146148850E+03 -0.50711706263E+03  0.79683658070E+03  0.60006498918E+03 0.  0.
         23    2    4    4    0    0 -0.21933001552E+03 -0.18928128535E+02 -0.37045980738E+03  0.44040467014E+03  0.90839830689E+02 0.  0.
         23    2    4    4    0    0  0.30540205661E+03 -0.82533359967E+02 -0.13665725525E+03  0.35643191057E+03  0.91029279732E+02 0.  0.
          1    1    3    3  502    0 -0.63159782479E+02  0.10498517077E+03 -0.92857650817E+02  0.15373219415E+03  0.00000000000E+00 0. -1.
         -1    1    3    3    0  502 -0.22912258615E+02 -0.35236822654E+01  0.13378662869E+02  0.26765211594E+02  0.00000000000E+00 0.  1.
         11    1    5    5    0    0 -0.91698782161E+02  0.20604715435E+02 -0.21969040895E+03  0.23894998793E+03  0.00000000000E+00 0.  1.
        -11    1    5    5    0    0 -0.12763123336E+03 -0.39532843970E+02 -0.15076939843E+03  0.20145468221E+03  0.00000000000E+00 0. -1.
          1    1    6    6  503    0  0.20917193480E+03 -0.74655967586E+02 -0.52185583111E+02  0.22814413622E+03  0.00000000000E+00 0. -1.
         -1    1    6    6    0  503  0.96230121807E+02 -0.78773923809E+01 -0.84471672138E+02  0.12828777435E+03  0.00000000000E+00 0.  1.
<mgrwt>
<rscale>  0 0.34597373E+03</rscale>
<asrwt>0</asrwt>
<pdfrwt beam="1">  1        1 0.12030231E+00 0.34597373E+03</pdfrwt>
<pdfrwt beam="2">  1       -1 0.30056764E-01 0.34597373E+03</pdfrwt>
<totfact> 0.24313506E+02</totfact>
</mgrwt>
</event>
<event>
12    1  0.1418317E-007  0.5604856E+03  0.7818608E-02  0.9990957E-01
         -1   -1    0    0    0  501 -0.00000000000E+00  0.00000000000E+00  0.39500668428E+03  0.39500668428E+03  0.00000000000E+00 0.  1.
          1   -1    0    0  501    0  0.00000000000E+00 -0.00000000000E+00 -0.98039800921E+03  0.98039800921E+03  0.00000000000E+00 0. -1.
         23    2    1    2    0    0  0.48726382865E+02  0.46782917666E+03 -0.18082790298E+03  0.51223273400E+03  0.91898010648E+02 0.  0.
    5000000    2    1    2    0    0 -0.48726382865E+02 -0.46782917666E+03 -0.40456342194E+03  0.86317195949E+03  0.60012987790E+03 0.  0.
         23    2    4    4    0    0 -0.15196239783E+03 -0.17374587178E+02  0.74188681730E+02  0.19158224612E+03  0.88347891310E+02 0.  0.
         23    2    4    4    0    0  0.10323601497E+03 -0.45045458948E+03 -0.47875210367E+03  0.67158971336E+03  0.90896393496E+02 0.  0.
          3    1    3    3  502    0 -0.20632032430E+02  0.20981979988E+03 -0.98186992108E+02  0.23257410561E+03  0.00000000000E+00 0. -1.
         -3    1    3    3    0  502  0.69358415295E+02  0.25800937678E+03 -0.82640910876E+02  0.27965862839E+03  0.00000000000E+00 0.  1.
         13    1    5    5    0    0 -0.87143227871E+02 -0.50726262132E+02  0.25776713565E+02  0.10407465972E+03  0.00000000000E+00 0.  1.
        -13    1    5    5    0    0 -0.64819169960E+02  0.33351674954E+02  0.48411968165E+02  0.87507586404E+02  0.00000000000E+00 0. -1.
          4    1    6    6  503    0 -0.16811027607E+01 -0.16675850354E+03 -0.14300064864E+03  0.21968252119E+03  0.00000000000E+00 0. -1.
         -4    1    6    6    0  503  0.10491711773E+03 -0.28369608595E+03 -0.33575145504E+03  0.45190719217E+03  0.00000000000E+00 0.  1.
<mgrwt>
<rscale>  0 0.56048558E+03</rscale>
<asrwt>0</asrwt>
<pdfrwt beam="1">  1        1 0.15083046E+00 0.56048558E+03</pdfrwt>
<pdfrwt beam="2">  1       -1 0.60770259E-01 0.56048558E+03</pdfrwt>
<totfact> 0.45099254E+01</totfact>
</mgrwt>
</event>
<event>
12    1  0.1418317E-007  0.1704224E+04  0.7818608E-02  0.8758959E-01
          2   -1    0    0  501    0  0.00000000000E+00  0.00000000000E+00  0.29290462495E+04  0.29290462495E+04  0.00000000000E+00 0. -1.
         -2   -1    0    0    0  501 -0.00000000000E+00 -0.00000000000E+00 -0.12817155991E+04  0.12817155991E+04  0.00000000000E+00 0.  1.
         23    2    1    2    0    0 -0.16555895224E+04 -0.28700221695E+03 -0.13593751382E+03  0.16881906811E+04  0.90342842504E+02 0.  0.
    5000000    2    1    2    0    0  0.16555895224E+04  0.28700221695E+03  0.17832681642E+04  0.25225711674E+04  0.59997750815E+03 0.  0.
         23    2    4    4    0    0  0.89538568265E+03  0.35603457159E+03  0.12765303480E+04  0.16018919934E+04  0.89733451769E+02 0.  0.
         23    2    4    4    0    0  0.76020383970E+03 -0.69032354638E+02  0.50673781624E+03  0.92067917405E+03  0.90507365628E+02 0.  0.
          1    1    3    3  502    0 -0.99820965685E+03 -0.20039640232E+03 -0.11738507001E+03  0.10248709635E+04  0.00000000000E+00 0. -1.
         -1    1    3    3    0  502 -0.65737986550E+03 -0.86605814633E+02 -0.18552443811E+02  0.66331971768E+03  0.00000000000E+00 0.  1.
         13    1    5    5    0    0  0.57113125719E+03  0.23948094310E+03  0.88735950341E+03  0.10821039337E+04  0.00000000000E+00 0. -1.
        -13    1    5    5    0    0  0.32425442546E+03  0.11655362849E+03  0.38917084455E+03  0.51978805969E+03  0.00000000000E+00 0.  1.
          3    1    6    6  503    0  0.23458379875E+03 -0.17029904040E+02  0.10761086301E+03  0.25864971314E+03  0.00000000000E+00 0. -1.
         -3    1    6    6    0  503  0.52562004095E+03 -0.52002450599E+02  0.39912695324E+03  0.66202946091E+03  0.00000000000E+00 0.  1.
<mgrwt>
<rscale>  0 0.17042238E+04</rscale>
<asrwt>0</asrwt>
<pdfrwt beam="1">  1        2 0.45062250E+00 0.17042238E+04</pdfrwt>
<pdfrwt beam="2">  1       -2 0.19718702E+00 0.17042238E+04</pdfrwt>
<totfact> 0.24634568E-01</totfact>
</mgrwt>
</event>
<event>
12    1  0.1418317E-007  0.3393416E+03  0.7818608E-02  0.1067077E+00
          1   -1    0    0  501    0  0.00000000000E+00  0.00000000000E+00  0.73272164673E+03  0.73272164673E+03  0.00000000000E+00 0. -1.
         -1   -1    0    0    0  501 -0.00000000000E+00 -0.00000000000E+00 -0.40423459505E+03  0.40423459505E+03  0.00000000000E+00 0.  1.
         23    2    1    2    0    0  0.20781302643E+03 -0.80878889176E+02  0.42592380626E+03  0.48946720551E+03  0.91866249855E+02 0.  0.
    5000000    2    1    2    0    0 -0.20781302643E+03  0.80878889176E+02 -0.97436754581E+02  0.64748903627E+03  0.60001706833E+03 0.  0.
         23    2    4    4    0    0 -0.11040914275E+03 -0.14768574049E+03  0.17311086377E+03  0.26892541498E+03  0.91390650072E+02 0.  0.
         23    2    4    4    0    0 -0.97403883679E+02  0.22856462966E+03 -0.27054761836E+03  0.37856362129E+03  0.91570164789E+02 0.  0.
          2    1    3    3  502    0  0.15284873170E+03 -0.28895520913E+02  0.34630513595E+03  0.37963789734E+03  0.00000000000E+00 0. -1.
         -2    1    3    3    0  502  0.54964294731E+02 -0.51983368263E+02  0.79618670309E+02  0.10982930817E+03  0.00000000000E+00 0.  1.
         11    1    5    5    0    0 -0.67185195048E+02 -0.53295872045E+02  0.27428318131E+02  0.90036731650E+02  0.00000000000E+00 0. -1.
        -11    1    5    5    0    0 -0.43223947704E+02 -0.94389868440E+02  0.14568254564E+03  0.17888868333E+03  0.00000000000E+00 0.  1.
          3    1    6    6  503    0 -0.10657195858E+03  0.18606877138E+03 -0.18757657011E+03  0.28489320752E+03  0.00000000000E+00 0. -1.
         -3    1    6    6    0  503  0.91680749034E+01  0.42495858282E+02 -0.82971048246E+02  0.93670413769E+02  0.00000000000E+00 0.  1.
<mgrwt>
<rscale>  0 0.33934157E+03</rscale>
<asrwt>0</asrwt>
<pdfrwt beam="1">  1        1 0.11272641E+00 0.33934157E+03</pdfrwt>
<pdfrwt beam="2">  1       -1 0.62189938E-01 0.33934157E+03</pdfrwt>
<totfact> 0.71434126E+01</totfact>
</mgrwt>
</event>
<event>
12    1  0.1418317E-007  0.1168357E+04  0.7818608E-02  0.9141013E-01
          2   -1    0    0  501    0  0.00000000000E+00  0.00000000000E+00  0.39156370797E+04  0.39156370797E+04  0.00000000000E+00 0. -1.
         -2   -1    0    0    0  501 -0.00000000000E+00 -0.00000000000E+00 -0.37233770812E+03  0.37233770812E+03  0.00000000000E+00 0.  1.
         23    2    1    2    0    0  0.62122958332E+03 -0.94493200885E+03  0.16931620879E+04  0.20380865642E+04  0.90422843744E+02 0.  0.
    5000000    2    1    2    0    0 -0.62122958332E+03  0.94493200885E+03  0.18501372837E+04  0.22498882236E+04  0.60013861220E+03 0.  0.
         23    2    4    4    0    0 -0.27535327603E+02  0.35735107757E+03  0.94488679762E+03  0.10148132744E+04  0.92611742045E+02 0.  0.
         23    2    4    4    0    0 -0.59369425572E+03  0.58758093128E+03  0.90525048606E+03  0.12350749492E+04  0.90595074554E+02 0.  0.
          3    1    3    3  502    0  0.29767409719E+03 -0.37436470365E+03  0.73514769153E+03  0.87704100693E+03  0.00000000000E+00 0. -1.
         -3    1    3    3    0  502  0.32355548613E+03 -0.57056730520E+03  0.95801439637E+03  0.11610455573E+04  0.00000000000E+00 0.  1.
         11    1    5    5    0    0 -0.52200601754E+02  0.16284514021E+03  0.50623370146E+03  0.53433697515E+03  0.00000000000E+00 0.  1.
        -11    1    5    5    0    0  0.24665274151E+02  0.19450593736E+03  0.43865309616E+03  0.48047629930E+03  0.00000000000E+00 0. -1.
          4    1    6    6  503    0 -0.28992790972E+03  0.29748572238E+03  0.38447375337E+03  0.56601768072E+03  0.00000000000E+00 0. -1.
         -4    1    6    6    0  503 -0.30376634600E+03  0.29009520890E+03  0.52077673269E+03  0.66905726847E+03  0.00000000000E+00 0.  1.
<mgrwt>
<rscale>  0 0.11683573E+04</rscale>
<asrwt>0</asrwt>
<pdfrwt beam="1">  1        2 0.60240568E+00 0.11683573E+04</pdfrwt>
<pdfrwt beam="2">  1       -2 0.57282727E-01 0.11683573E+04</pdfrwt>
<totfact> 0.11667926E+00</totfact>
</mgrwt>
</event>
<event>
12    1  0.1418317E-007  0.1184296E+04  0.7818608E-02  0.9126715E-01
          2   -1    0    0  501    0  0.00000000000E+00  0.00000000000E+00  0.83143439784E+03  0.83143439784E+03  0.00000000000E+00 0. -1.
         -2   -1    0    0    0  501 -0.00000000000E+00 -0.00000000000E+00 -0.18942419405E+04  0.18942419405E+04  0.00000000000E+00 0.  1.
         23    2    1    2    0    0 -0.11624540539E+03 -0.11272911501E+04 -0.13941580505E+03  0.11454191010E+04  0.90828513951E+02 0.  0.
    5000000    2    1    2    0    0  0.11624540539E+03  0.11272911501E+04 -0.92339173758E+03  0.15802572373E+04  0.60021854657E+03 0.  0.
         23    2    4    4    0    0 -0.14150414473E+03  0.10673680968E+03 -0.40922340332E+02  0.20352811955E+03  0.91284653670E+02 0.  0.
         23    2    4    4    0    0  0.25774955011E+03  0.10205543404E+04 -0.88246939724E+03  0.13767291177E+04  0.93085091385E+02 0.  0.
          1    1    3    3  502    0 -0.33786595462E+02 -0.41928285676E+03 -0.95041045997E+02  0.43124523003E+03  0.00000000000E+00 0. -1.
         -1    1    3    3    0  502 -0.82458809928E+02 -0.70800829334E+03 -0.44374759057E+02  0.71417387099E+03  0.00000000000E+00 0.  1.
         13    1    5    5    0    0 -0.73923927323E+02  0.77779653285E+02 -0.65844173349E+02  0.12589629327E+03  0.00000000000E+00 0. -1.
        -13    1    5    5    0    0 -0.67580217402E+02  0.28957156392E+02  0.24921833016E+02  0.77631826278E+02  0.00000000000E+00 0.  1.
          4    1    6    6  503    0  0.35970748022E+01  0.78775992198E+02 -0.92130166402E+02  0.12127062074E+03  0.00000000000E+00 0. -1.
         -4    1    6    6    0  503  0.25415247531E+03  0.94177834822E+03 -0.79033923084E+03  0.12554584970E+04  0.00000000000E+00 0.  1.
<mgrwt>
<rscale>  0 0.11842956E+04</rscale>
<asrwt>0</asrwt>
<pdfrwt beam="1">  1        2 0.12791299E+00 0.11842956E+04</pdfrwt>
<pdfrwt beam="2">  1       -2 0.29142183E+00 0.11842956E+04</pdfrwt>
<totfact> 0.11508642E+00</totfact>
</mgrwt>
</event>
<event>
12    1  0.1418317E-007  0.1181904E+04  0.7818608E-02  0.9128845E-01
         -2   -1    0    0    0  501 -0.00000000000E+00  0.00000000000E+00  0.76100347572E+03  0.76100347572E+03  0.00000000000E+00 0.  1.
          2   -1    0    0  501    0  0.00000000000E+00 -0.00000000000E+00 -0.31089677208E+04  0.31089677208E+04  0.00000000000E+00 0. -1.
         23    2    1    2    0    0  0.60157388930E+03 -0.99200807721E+03 -0.22828233115E+04  0.25623787577E+04  0.92365885914E+02 0.  0.
    5000000    2    1    2    0    0 -0.60157388930E+03  0.99200807721E+03 -0.65140933572E+02  0.13075924388E+04  0.59965279559E+03 0.  0.
         23    2    4    4    0    0  0.15431387636E+02  0.18743188111E+03  0.16141011821E+03  0.26467077139E+03  0.92890005854E+02 0.  0.
         23    2    4    4    0    0 -0.61700527694E+03  0.80457619610E+03 -0.22655105178E+03  0.10429216674E+04  0.91224219377E+02 0.  0.
          3    1    3    3  502    0  0.29189473506E+03 -0.51219940172E+03 -0.12548411763E+04  0.13864260316E+04  0.00000000000E+00 0. -1.
         -3    1    3    3    0  502  0.30967915425E+03 -0.47980867549E+03 -0.10279821352E+04  0.11759527260E+04  0.00000000000E+00 0.  1.
         13    1    5    5    0    0  0.11817311099E+02  0.17025413575E+03  0.93642285486E+02  0.19466637412E+03  0.00000000000E+00 0. -1.
        -13    1    5    5    0    0  0.36140765372E+01  0.17177745354E+02  0.67767832725E+02  0.70004397268E+02  0.00000000000E+00 0.  1.
          4    1    6    6  503    0 -0.32238386205E+03  0.45839175829E+03 -0.16499754701E+03  0.58419050754E+03  0.00000000000E+00 0. -1.
         -4    1    6    6    0  503 -0.29462141489E+03  0.34618443781E+03 -0.61553504773E+02  0.45873115988E+03  0.00000000000E+00 0.  1.
<mgrwt>
<rscale>  0 0.11819036E+04</rscale>
<asrwt>0</asrwt>
<pdfrwt beam="1">  1        2 0.47830272E+00 0.11819036E+04</pdfrwt>
<pdfrwt beam="2">  1       -2 0.11707746E+00 0.11819036E+04</pdfrwt>
<totfact> 0.83203141E-01</totfact>
</mgrwt>
</event>
<event>
12    1  0.1418317E-007  0.1274773E+04  0.7818608E-02  0.9049813E-01
          1   -1    0    0  501    0  0.00000000000E+00  0.00000000000E+00  0.72775015692E+03  0.72775015692E+03  0.00000000000E+00 0. -1.
         -1   -1    0    0    0  501 -0.00000000000E+00 -0.00000000000E+00 -0.28915425979E+04  0.28915425979E+04  0.00000000000E+00 0.  1.
         23    2    1    2    0    0  0.83070342173E+03  0.87365224868E+03 -0.18092490725E+03  0.12224170307E+04  0.90736697514E+02 0.  0.
    5000000    2    1    2    0    0 -0.83070342173E+03 -0.87365224868E+03 -0.19828675337E+04  0.23968757241E+04  0.59992762419E+03 0.  0.
         23    2    4    4    0    0 -0.71391111797E+03 -0.34697113740E+03 -0.11470677006E+04  0.13979139749E+04  0.91329715565E+02 0.  0.
         23    2    4    4    0    0 -0.11679230376E+03 -0.52668111128E+03 -0.83579983312E+03  0.99896174925E+03  0.91267629585E+02 0.  0.
          1    1    3    3  502    0  0.33813056143E+03  0.37965825864E+03 -0.11843562447E+03  0.52201500656E+03  0.00000000000E+00 0. -1.
         -1    1    3    3    0  502  0.49257286030E+03  0.49399399004E+03 -0.62489282783E+02  0.70040202410E+03  0.00000000000E+00 0.  1.
         11    1    5    5    0    0 -0.57189661746E+03 -0.23577604082E+03 -0.89387561822E+03  0.10870463207E+04  0.00000000000E+00 0. -1.
        -11    1    5    5    0    0 -0.14201450051E+03 -0.11119509658E+03 -0.25319208233E+03  0.31086765418E+03  0.00000000000E+00 0.  1.
          1    1    6    6  503    0 -0.26723130691E+02 -0.29173647649E+03 -0.49750120164E+03  0.57734889197E+03  0.00000000000E+00 0. -1.
         -1    1    6    6    0  503 -0.90069173071E+02 -0.23494463480E+03 -0.33829863148E+03  0.42161285728E+03  0.00000000000E+00 0.  1.
<mgrwt>
<rscale>  0 0.12747730E+04</rscale>
<asrwt>0</asrwt>
<pdfrwt beam="1">  1        1 0.11196157E+00 0.12747730E+04</pdfrwt>
<pdfrwt beam="2">  1       -1 0.44485270E+00 0.12747730E+04</pdfrwt>
<totfact> 0.88676980E-02</totfact>
</mgrwt>
</event>
<event>
12    1  0.1418317E-007  0.2641808E+04  0.7818608E-02  0.8354137E-01
         -1   -1    0    0    0  501 -0.00000000000E+00  0.00000000000E+00  0.32153733482E+04  0.32153733482E+04  0.00000000000E+00 0.  1.
          1   -1    0    0  501    0  0.00000000000E+00 -0.00000000000E+00 -0.22343475872E+04  0.22343475872E+04  0.00000000000E+00 0. -1.
         23    2    1    2    0    0 -0.15773991286E+04 -0.21148821584E+04  0.68667623607E+03  0.27280363459E+04  0.98709150397E+02 0.  0.
    5000000    2    1    2    0    0  0.15773991286E+04  0.21148821584E+04  0.29434952492E+03  0.27216845896E+04  0.60000900614E+03 0.  0.
         23    2    4    4    0    0  0.16540385127E+03  0.21452773148E+03 -0.13124790399E+03  0.31471109723E+03  0.91850317518E+02 0.  0.
         23    2    4    4    0    0  0.14119952773E+04  0.19003544269E+04  0.42559742890E+03  0.24069734923E+04  0.85502106581E+02 0.  0.
          1    1    3    3  502    0 -0.32369185554E+03 -0.40118307591E+03  0.99356714938E+02  0.52497241313E+03  0.00000000000E+00 0. -1.
         -1    1    3    3    0  502 -0.12537072730E+04 -0.17136990825E+04  0.58731952113E+03  0.22030639327E+04  0.00000000000E+00 0.  1.
         13    1    5    5    0    0  0.12229635542E+03  0.11492931712E+03 -0.39049278207E+02  0.17230784257E+03  0.00000000000E+00 0. -1.
        -13    1    5    5    0    0  0.43107495852E+02  0.99598414363E+02 -0.92198625779E+02  0.14240325466E+03  0.00000000000E+00 0.  1.
          2    1    6    6  503    0  0.68015775795E+03  0.85958540723E+03  0.16991560098E+03  0.11092217810E+04  0.00000000000E+00 0. -1.
         -2    1    6    6    0  503  0.73183751935E+03  0.10407690197E+04  0.25568182792E+03  0.12977517113E+04  0.00000000000E+00 0.  1.
<mgrwt>
<rscale>  0 0.26418078E+04</rscale>
<asrwt>0</asrwt>
<pdfrwt beam="1">  1        1 0.34374578E+00 0.26418078E+04</pdfrwt>
<pdfrwt beam="2">  1       -1 0.49467282E+00 0.26418078E+04</pdfrwt>
<totfact> 0.27422166E-03</totfact>
</mgrwt>
</event>
<event>
12    1  0.1418317E-007  0.7713037E+03  0.7818608E-02  0.9602509E-01
         -1   -1    0    0    0  501 -0.00000000000E+00  0.00000000000E+00  0.87515834863E+03  0.87515834863E+03  0.00000000000E+00 0.  1.
          1   -1    0    0  501    0  0.00000000000E+00 -0.00000000000E+00 -0.82315343387E+03  0.82315343387E+03  0.00000000000E+00 0. -1.
         23    2    1    2    0    0 -0.17214715287E+03  0.71893707975E+03 -0.21968419052E+02  0.74342508811E+03  0.75452523638E+02 0.  0.
    5000000    2    1    2    0    0  0.17214715287E+03 -0.71893707975E+03  0.73973333808E+02  0.95488669439E+03  0.59985946531E+03 0.  0.
         23    2    4    4    0    0 -0.63226560009E+02 -0.71719967652E+02 -0.17272295705E+03  0.21764907360E+03  0.91632678119E+02 0.  0.
         23    2    4    4    0    0  0.23537371288E+03 -0.64721711210E+03  0.24669629085E+03  0.73723762078E+03  0.91484833019E+02 0.  0.
          1    1    3    3  502    0 -0.39093990271E+02  0.67026399000E+02 -0.69593002114E+01  0.77905777049E+02  0.00000000000E+00 0. -1.
         -1    1    3    3    0  502 -0.13305316260E+03  0.65191068075E+03 -0.15009118840E+02  0.66551931107E+03  0.00000000000E+00 0.  1.
         11    1    5    5    0    0 -0.26886169149E+02 -0.25463662724E+01 -0.12091865056E+03  0.12389782131E+03  0.00000000000E+00 0. -1.
        -11    1    5    5    0    0 -0.36340390860E+02 -0.69173601379E+02 -0.51804306486E+02  0.93751252291E+02  0.00000000000E+00 0.  1.
          4    1    6    6  503    0  0.14100419040E+03 -0.50122569248E+03  0.19293742733E+03  0.55527851334E+03  0.00000000000E+00 0. -1.
         -4    1    6    6    0  503  0.94369522476E+02 -0.14599141962E+03  0.53758863520E+02  0.18195910745E+03  0.00000000000E+00 0.  1.
<mgrwt>
<rscale>  0 0.77130366E+03</rscale>
<asrwt>0</asrwt>
<pdfrwt beam="1">  1        1 0.12663899E+00 0.77130366E+03</pdfrwt>
<pdfrwt beam="2">  1       -1 0.13463975E+00 0.77130366E+03</pdfrwt>
<totfact> 0.10069382E+01</totfact>
</mgrwt>
</event>
<event>
12    1  0.1418317E-007  0.4739308E+03  0.7818608E-02  0.1020817E+00
          2   -1    0    0  501    0  0.00000000000E+00  0.00000000000E+00  0.79290541314E+03  0.79290541314E+03  0.00000000000E+00 0. -1.
         -2   -1    0    0    0  501 -0.00000000000E+00 -0.00000000000E+00 -0.55723397566E+03  0.55723397566E+03  0.00000000000E+00 0.  1.
         23    2    1    2    0    0  0.23636263343E+03 -0.16684913613E+03 -0.34818104141E+03  0.46453203263E+03  0.10418273866E+03 0.  0.
    5000000    2    1    2    0    0 -0.23636263343E+03  0.16684913613E+03  0.58385247889E+03  0.88560735616E+03  0.59975890445E+03 0.  0.
         23    2    4    4    0    0 -0.11379102973E+03 -0.21090844696E+03  0.19131087464E+03  0.31996311804E+03  0.91355211704E+02 0.  0.
         23    2    4    4    0    0 -0.12257160370E+03  0.37775758309E+03  0.39254160426E+03  0.56564423812E+03  0.90221413388E+02 0.  0.
          1    1    3    3  502    0  0.22941045907E+03 -0.12021399136E+03 -0.27770161177E+03  0.37973510192E+03  0.00000000000E+00 0. -1.
         -1    1    3    3    0  502  0.69521743598E+01 -0.46635144774E+02 -0.70479429637E+02  0.84796930713E+02  0.00000000000E+00 0.  1.
         11    1    5    5    0    0 -0.90015425429E+02 -0.16745431379E+03  0.19231003515E+03  0.27041981000E+03  0.00000000000E+00 0.  1.
        -11    1    5    5    0    0 -0.23775604302E+02 -0.43454133167E+02 -0.99916051716E+00  0.49543308034E+02  0.00000000000E+00 0. -1.
          4    1    6    6  503    0  0.12405171202E+01  0.74429979549E+02  0.11110443035E+03  0.13373688788E+03  0.00000000000E+00 0. -1.
         -4    1    6    6    0  503 -0.12381212082E+03  0.30332760354E+03  0.28143717391E+03  0.43190735024E+03  0.00000000000E+00 0.  1.
<mgrwt>
<rscale>  0 0.47393080E+03</rscale>
<asrwt>0</asrwt>
<pdfrwt beam="1">  1        2 0.12198545E+00 0.47393080E+03</pdfrwt>
<pdfrwt beam="2">  1       -2 0.85728303E-01 0.47393080E+03</pdfrwt>
<totfact> 0.42954644E+01</totfact>
</mgrwt>
</event>
<event>
12    1  0.1418317E-007  0.4249327E+03  0.7818608E-02  0.1035473E+00
         -1   -1    0    0    0  501 -0.00000000000E+00  0.00000000000E+00  0.38788186751E+03  0.38788186751E+03  0.00000000000E+00 0.  1.
          1   -1    0    0  501    0  0.00000000000E+00 -0.00000000000E+00 -0.62203480196E+03  0.62203480196E+03  0.00000000000E+00 0. -1.
         23    2    1    2    0    0  0.22468330457E+03  0.31986490651E+02  0.12555912927E+03  0.27453239664E+03  0.89984548249E+02 0.  0.
    5000000    2    1    2    0    0 -0.22468330457E+03 -0.31986490651E+02 -0.35971206372E+03  0.73538427283E+03  0.59990960736E+03 0.  0.
         23    2    4    4    0    0 -0.14395536471E+03  0.26281801443E+03 -0.24460737609E+03  0.39659963953E+03  0.87533136007E+02 0.  0.
         23    2    4    4    0    0 -0.80727939863E+02 -0.29480450508E+03 -0.11510468763E+03  0.33878463330E+03  0.89995789638E+02 0.  0.
          4    1    3    3  502    0  0.14817726979E+03  0.60975146136E+02  0.65796457915E+02  0.17321560439E+03  0.00000000000E+00 0. -1.
         -4    1    3    3    0  502  0.76506034778E+02 -0.28988655485E+02  0.59762671350E+02  0.10131679225E+03  0.00000000000E+00 0.  1.
         11    1    5    5    0    0 -0.37065217997E+02  0.93026140756E+02 -0.13466259185E+03  0.16781450143E+03  0.00000000000E+00 0.  1.
        -11    1    5    5    0    0 -0.10689014671E+03  0.16979187368E+03 -0.10994478424E+03  0.22878513809E+03  0.00000000000E+00 0. -1.
          3    1    6    6  503    0  0.79078488681E+00 -0.29224619771E+02  0.14031776522E+02  0.32428297733E+02  0.00000000000E+00 0. -1.
         -3    1    6    6    0  503 -0.81518724750E+02 -0.26557988531E+03 -0.12913646415E+03  0.30635633557E+03  0.00000000000E+00 0.  1.
<mgrwt>
<rscale>  0 0.42493267E+03</rscale>
<asrwt>0</asrwt>
<pdfrwt beam="1">  1        1 0.95697661E-01 0.42493267E+03</pdfrwt>
<pdfrwt beam="2">  1       -1 0.59674134E-01 0.42493267E+03</pdfrwt>
<totfact> 0.97138218E+01</totfact>
</mgrwt>
</event>
<event>
12    1  0.1418317E-007  0.4440726E+03  0.7818608E-02  0.1029505E+00
         -2   -1    0    0    0  501 -0.00000000000E+00  0.00000000000E+00  0.13999463155E+03  0.13999463155E+03  0.00000000000E+00 0.  1.
          2   -1    0    0  501    0  0.00000000000E+00 -0.00000000000E+00 -0.20922364983E+04  0.20922364983E+04  0.00000000000E+00 0. -1.
         23    2    1    2    0    0  0.18909634788E+02  0.25108825708E+03 -0.12352362651E+04  0.12639119508E+04  0.90895002400E+02 0.  0.
    5000000    2    1    2    0    0 -0.18909634788E+02 -0.25108825708E+03 -0.71700560162E+03  0.96831917908E+03  0.60011841555E+03 0.  0.
         23    2    4    4    0    0  0.56452011176E+02 -0.41638222497E+03 -0.37015492953E+03  0.56724016942E+03  0.90475140880E+02 0.  0.
         23    2    4    4    0    0 -0.75361645964E+02  0.16529396788E+03 -0.34685067209E+03  0.40107900966E+03  0.86933939049E+02 0.  0.
          4    1    3    3  502    0 -0.15864479979E+02  0.15415254524E+03 -0.56738041662E+03  0.58816258475E+03  0.00000000000E+00 0. -1.
         -4    1    3    3    0  502  0.34774114767E+02  0.96935711841E+02 -0.66785584850E+03  0.67574936601E+03  0.00000000000E+00 0.  1.
         13    1    5    5    0    0  0.59238713467E+02 -0.13521824194E+03 -0.10915734117E+03  0.18359881062E+03  0.00000000000E+00 0.  1.
        -13    1    5    5    0    0 -0.27867022914E+01 -0.28116398302E+03 -0.26099758836E+03  0.38364135881E+03  0.00000000000E+00 0. -1.
          1    1    6    6  503    0 -0.83278385327E+02  0.79173314359E+02 -0.19714142208E+03  0.22818510790E+03  0.00000000000E+00 0. -1.
         -1    1    6    6    0  503  0.79167393631E+01  0.86120653523E+02 -0.14970925001E+03  0.17289390175E+03  0.00000000000E+00 0.  1.
<mgrwt>
<rscale>  0 0.44407259E+03</rscale>
<asrwt>0</asrwt>
<pdfrwt beam="1">  1        2 0.32188251E+00 0.44407259E+03</pdfrwt>
<pdfrwt beam="2">  1       -2 0.21537637E-01 0.44407259E+03</pdfrwt>
<totfact> 0.11899930E+02</totfact>
</mgrwt>
</event>
<event>
12    1  0.1418317E-007  0.1067582E+04  0.7818608E-02  0.9237378E-01
         -1   -1    0    0    0  501 -0.00000000000E+00  0.00000000000E+00  0.78849158202E+03  0.78849158202E+03  0.00000000000E+00 0.  1.
          1   -1    0    0  501    0  0.00000000000E+00 -0.00000000000E+00 -0.20430478396E+04  0.20430478396E+04  0.00000000000E+00 0. -1.
         23    2    1    2    0    0  0.52185878884E+03  0.84141995527E+03  0.15612824584E+03  0.10066830166E+04  0.93330220526E+02 0.  0.
    5000000    2    1    2    0    0 -0.52185878884E+03 -0.84141995527E+03 -0.14106845034E+04  0.18248564050E+04  0.59978829124E+03 0.  0.
         23    2    4    4    0    0  0.35109324985E+02 -0.46799464962E+03 -0.63425964830E+03  0.79479275786E+03  0.95700416481E+02 0.  0.
         23    2    4    4    0    0 -0.55696811382E+03 -0.37342530564E+03 -0.77642485510E+03  0.10300636472E+04  0.92388434996E+02 0.  0.
          4    1    3    3  502    0  0.23542660068E+03  0.38708308806E+03  0.11839433424E+03  0.46826938801E+03  0.00000000000E+00 0. -1.
         -4    1    3    3    0  502  0.28643218816E+03  0.45433686721E+03  0.37733911603E+02  0.53841362854E+03  0.00000000000E+00 0.  1.
         11    1    5    5    0    0  0.56502027496E+01 -0.34483686363E+03 -0.52154731943E+03  0.62526473890E+03  0.00000000000E+00 0. -1.
        -11    1    5    5    0    0  0.29459122236E+02 -0.12315778600E+03 -0.11271232887E+03  0.16952801897E+03  0.00000000000E+00 0.  1.
          1    1    6    6  503    0 -0.37665906998E+03 -0.28706363447E+03 -0.59150887728E+03  0.75773368483E+03  0.00000000000E+00 0. -1.
         -1    1    6    6    0  503 -0.18030904384E+03 -0.86361671177E+02 -0.18491597782E+03  0.27232996235E+03  0.00000000000E+00 0.  1.
<mgrwt>
<rscale>  0 0.10675819E+04</rscale>
<asrwt>0</asrwt>
<pdfrwt beam="1">  1        1 0.31431505E+00 0.10675819E+04</pdfrwt>
<pdfrwt beam="2">  1       -1 0.12130640E+00 0.10675819E+04</pdfrwt>
<totfact> 0.16824450E+00</totfact>
</mgrwt>
</event>
<event>
12    1  0.1418317E-007  0.3535062E+03  0.7818608E-02  0.1061185E+00
         -2   -1    0    0    0  501 -0.00000000000E+00  0.00000000000E+00  0.86685658248E+03  0.86685658248E+03  0.00000000000E+00 0.  1.
          2   -1    0    0  501    0  0.00000000000E+00 -0.00000000000E+00 -0.32240613434E+03  0.32240613434E+03  0.00000000000E+00 0. -1.
         23    2    1    2    0    0  0.33740622205E+03  0.60754478098E+02  0.28433712414E+03  0.45086502308E+03  0.69982880652E+02 0.  0.
    5000000    2    1    2    0    0 -0.33740622205E+03 -0.60754478098E+02  0.26011332399E+03  0.73839769374E+03  0.60003178876E+03 0.  0.
         23    2    4    4    0    0 -0.22709754674E+03 -0.45829328599E+02  0.44152599561E+03  0.50682475921E+03  0.90843319250E+02 0.  0.
         23    2    4    4    0    0 -0.11030867531E+03 -0.14925149498E+02 -0.18141267162E+03  0.23157293453E+03  0.91239808462E+02 0.  0.
          4    1    3    3  502    0  0.32055482757E+03  0.44903426606E+02  0.24791931957E+03  0.40772012977E+03  0.00000000000E+00 0. -1.
         -4    1    3    3    0  502  0.16851394478E+02  0.15851051492E+02  0.36417804569E+02  0.43144893312E+02  0.00000000000E+00 0.  1.
         13    1    5    5    0    0  0.86664323235E+01 -0.25330787596E+01  0.19092616009E+02  0.21119931896E+02  0.00000000000E+00 0. -1.
        -13    1    5    5    0    0 -0.23576397906E+03 -0.43296249840E+02  0.42243337960E+03  0.48570482731E+03  0.00000000000E+00 0.  1.
          4    1    6    6  503    0 -0.34001980763E+02 -0.19725525209E+01 -0.13941392344E+03  0.14351399830E+03  0.00000000000E+00 0. -1.
         -4    1    6    6    0  503 -0.76306694551E+02 -0.12952596978E+02 -0.41998748175E+02  0.88058936230E+02  0.00000000000E+00 0.  1.
<mgrwt>
<rscale>  0 0.35350622E+03</rscale>
<asrwt>0</asrwt>
<pdfrwt beam="1">  1        2 0.49600944E-01 0.35350622E+03</pdfrwt>
<pdfrwt beam="2">  1       -2 0.13336255E+00 0.35350622E+03</pdfrwt>
<totfact> 0.43170824E+01</totfact>
</mgrwt>
</event>
<event>
12    1  0.1418317E-007  0.8351068E+03  0.7818608E-02  0.9510547E-01
          2   -1    0    0  501    0  0.00000000000E+00  0.00000000000E+00  0.17610135835E+04  0.17610135835E+04  0.00000000000E+00 0. -1.
         -2   -1    0    0    0  501 -0.00000000000E+00 -0.00000000000E+00 -0.47152404784E+03  0.47152404784E+03  0.00000000000E+00 0.  1.
         23    2    1    2    0    0  0.57946538891E+01  0.72859792994E+03  0.10089824209E+04  0.12478998849E+04  0.91214448230E+02 0.  0.
    5000000    2    1    2    0    0 -0.57946538891E+01 -0.72859792994E+03  0.28050711479E+03  0.98463774644E+03  0.59994893844E+03 0.  0.
         23    2    4    4    0    0  0.15808062214E+03 -0.73193831104E+03  0.24242518847E+03  0.79240980212E+03  0.91761365614E+02 0.  0.
         23    2    4    4    0    0 -0.16387527603E+03  0.33403810983E+01  0.38081926315E+02  0.19222794432E+03  0.92925159282E+02 0.  0.
          4    1    3    3  502    0 -0.10455783289E+02  0.44811837042E+03  0.54701850634E+03  0.70721188027E+03  0.00000000000E+00 0. -1.
         -4    1    3    3    0  502  0.16250437178E+02  0.28047955952E+03  0.46196391458E+03  0.54068800467E+03  0.00000000000E+00 0.  1.
         11    1    5    5    0    0  0.66122819770E+02 -0.15485262254E+03  0.32541577744E+02  0.17149494536E+03  0.00000000000E+00 0. -1.
        -11    1    5    5    0    0  0.91957802369E+02 -0.57708568851E+03  0.20988361073E+03  0.62091485676E+03  0.00000000000E+00 0.  1.
          2    1    6    6  503    0 -0.14279922548E+03  0.37949827012E+02  0.26819950669E+02  0.15017029640E+03  0.00000000000E+00 0. -1.
         -2    1    6    6    0  503 -0.21076050549E+02 -0.34609445913E+02  0.11261975646E+02  0.42057647921E+02  0.00000000000E+00 0.  1.
<mgrwt>
<rscale>  0 0.83510679E+03</rscale>
<asrwt>0</asrwt>
<pdfrwt beam="1">  1        2 0.27092516E+00 0.83510679E+03</pdfrwt>
<pdfrwt beam="2">  1       -2 0.72542162E-01 0.83510679E+03</pdfrwt>
<totfact> 0.15874558E+01</totfact>
</mgrwt>
</event>
<event>
12    1  0.1418317E-007  0.3874583E+03  0.7818608E-02  0.1048211E+00
          2   -1    0    0  501    0  0.00000000000E+00  0.00000000000E+00  0.15262555961E+04  0.15262555961E+04  0.00000000000E+00 0.  1.
         -2   -1    0    0    0  501 -0.00000000000E+00 -0.00000000000E+00 -0.17499421366E+03  0.17499421366E+03  0.00000000000E+00 0. -1.
         23    2    1    2    0    0 -0.97032127527E+02 -0.17543044756E+03  0.89365054934E+03  0.92047597005E+03  0.92052329695E+02 0.  0.
    5000000    2    1    2    0    0  0.97032127527E+02  0.17543044756E+03  0.45761083313E+03  0.78077383975E+03  0.60000753207E+03 0.  0.
         23    2    4    4    0    0 -0.19240075225E+03  0.18067837709E+03  0.37166419706E+03  0.46533794765E+03  0.93500827415E+02 0.  0.
         23    2    4    4    0    0  0.28943287978E+03 -0.52479295327E+01  0.85946636076E+02  0.31543589211E+03  0.91181385792E+02 0.  0.
          3    1    3    3  502    0 -0.17450911512E+02 -0.58086907289E+02  0.12595459001E+03  0.13979693078E+03  0.00000000000E+00 0. -1.
         -3    1    3    3    0  502 -0.79581216015E+02 -0.11734354027E+03  0.76769595932E+03  0.78067903927E+03  0.00000000000E+00 0.  1.
         13    1    5    5    0    0 -0.78158005329E+02  0.11409880343E+03  0.12971088082E+03  0.18961045157E+03  0.00000000000E+00 0. -1.
        -13    1    5    5    0    0 -0.11424274692E+03  0.66579573665E+02  0.24195331624E+03  0.27572749608E+03  0.00000000000E+00 0.  1.
          2    1    6    6  503    0  0.18165114151E+03 -0.44882253124E+02  0.37696395357E+02  0.19087318324E+03  0.00000000000E+00 0.  1.
         -2    1    6    6    0  503  0.10778173827E+03  0.39634323591E+02  0.48250240719E+02  0.12456270887E+03  0.00000000000E+00 0. -1.
<mgrwt>
<rscale>  0 0.38745827E+03</rscale>
<asrwt>0</asrwt>
<pdfrwt beam="1">  1        2 0.23480854E+00 0.38745827E+03</pdfrwt>
<pdfrwt beam="2">  1       -2 0.26922188E-01 0.38745827E+03</pdfrwt>
<totfact> 0.16253152E+02</totfact>
</mgrwt>
</event>
<event>
12    1  0.1418317E-007  0.1536959E+04  0.7818608E-02  0.8860241E-01
          2   -1    0    0  501    0  0.00000000000E+00  0.00000000000E+00  0.14480936922E+04  0.14480936922E+04  0.00000000000E+00 0.  1.
         -2   -1    0    0    0  501 -0.00000000000E+00 -0.00000000000E+00 -0.19466092775E+04  0.19466092775E+04  0.00000000000E+00 0. -1.
         23    2    1    2    0    0  0.15143063967E+04 -0.10948971328E+02  0.35156022025E+03  0.15573219692E+04  0.91724502670E+02 0.  0.
    5000000    2    1    2    0    0 -0.15143063967E+04  0.10948971328E+02 -0.85007580555E+03  0.18373810005E+04  0.60008026368E+03 0.  0.
         23    2    4    4    0    0 -0.79045809355E+03 -0.16802602084E+03 -0.18527450570E+03  0.83411793118E+03  0.91484093290E+02 0.  0.
         23    2    4    4    0    0 -0.72384830313E+03  0.17897499217E+03 -0.66480129985E+03  0.10032630693E+04  0.92669327316E+02 0.  0.
          3    1    3    3  502    0  0.82858825920E+03 -0.51637910598E+02  0.19339963928E+03  0.85242500993E+03  0.00000000000E+00 0. -1.
         -3    1    3    3    0  502  0.68571813748E+03  0.40688939270E+02  0.15816058098E+03  0.70489695929E+03  0.00000000000E+00 0.  1.
         13    1    5    5    0    0 -0.55439457926E+03 -0.14300035838E+03 -0.96178305389E+02  0.58056241563E+03  0.00000000000E+00 0. -1.
        -13    1    5    5    0    0 -0.23606351428E+03 -0.25025662456E+02 -0.89096200313E+02  0.25355551555E+03  0.00000000000E+00 0.  1.
          4    1    6    6  503    0 -0.45034564160E+03  0.13262676414E+03 -0.46992443970E+03  0.66425148438E+03  0.00000000000E+00 0. -1.
         -4    1    6    6    0  503 -0.27350266153E+03  0.46348228022E+02 -0.19487686015E+03  0.33901158494E+03  0.00000000000E+00 0.  1.
<mgrwt>
<rscale>  0 0.15369588E+04</rscale>
<asrwt>0</asrwt>
<pdfrwt beam="1">  1        2 0.22278365E+00 0.15369588E+04</pdfrwt>
<pdfrwt beam="2">  1       -2 0.29947835E+00 0.15369588E+04</pdfrwt>
<totfact> 0.40786636E-01</totfact>
</mgrwt>
</event>
<event>
12    1  0.1418317E-007  0.1273238E+04  0.7818608E-02  0.9051061E-01
         -2   -1    0    0    0  501 -0.00000000000E+00  0.00000000000E+00  0.11315595856E+04  0.11315595856E+04  0.00000000000E+00 0.  1.
          2   -1    0    0  501    0  0.00000000000E+00 -0.00000000000E+00 -0.19107752807E+04  0.19107752807E+04  0.00000000000E+00 0. -1.
         23    2    1    2    0    0 -0.12173129516E+04  0.38968383687E+02 -0.11038792526E+04  0.16463488081E+04  0.92442612469E+02 0.  0.
    5000000    2    1    2    0    0  0.12173129516E+04 -0.38968383687E+02  0.32466355760E+03  0.13959860582E+04  0.60000107664E+03 0.  0.
         23    2    4    4    0    0  0.13313537210E+03 -0.16664459778E+03  0.17323264489E+03  0.28965725902E+03  0.91631485701E+02 0.  0.
         23    2    4    4    0    0  0.10841775795E+04  0.12767621410E+03  0.15143091270E+03  0.11063287992E+04  0.96383873185E+02 0.  0.
          4    1    3    3  502    0 -0.67902602522E+03  0.66980086720E+02 -0.62730244011E+03  0.92686084517E+03  0.00000000000E+00 0. -1.
         -4    1    3    3    0  502 -0.53828692637E+03 -0.28011703033E+02 -0.47657681252E+03  0.71948796296E+03  0.00000000000E+00 0.  1.
         13    1    5    5    0    0  0.12215726850E+03 -0.82849728923E+02  0.11249118488E+03  0.18558217184E+03  0.00000000000E+00 0. -1.
        -13    1    5    5    0    0  0.10978103594E+02 -0.83794868861E+02  0.60741460009E+02  0.10407508717E+03  0.00000000000E+00 0.  1.
          3    1    6    6  503    0  0.92339620862E+03  0.89130962211E+02  0.15709225541E+03  0.94089471421E+03  0.00000000000E+00 0. -1.
         -3    1    6    6    0  503  0.16078137088E+03  0.38545251886E+02 -0.56613427023E+01  0.16543408496E+03  0.00000000000E+00 0.  1.
<mgrwt>
<rscale>  0 0.12732376E+04</rscale>
<asrwt>0</asrwt>
<pdfrwt beam="1">  1        2 0.29396543E+00 0.12732376E+04</pdfrwt>
<pdfrwt beam="2">  1       -2 0.17408609E+00 0.12732376E+04</pdfrwt>
<totfact> 0.14388864E+00</totfact>
</mgrwt>
</event>
<event>
12    1  0.1418317E-007  0.5562517E+03  0.7818608E-02  0.1000057E+00
         -2   -1    0    0    0  501 -0.00000000000E+00  0.00000000000E+00  0.59736835375E+03  0.59736835375E+03  0.00000000000E+00 0.  1.
          2   -1    0    0  501    0  0.00000000000E+00 -0.00000000000E+00 -0.93814056303E+03  0.93814056303E+03  0.00000000000E+00 0. -1.
         23    2    1    2    0    0  0.38172730501E+03  0.32289464603E+03  0.24043926450E+03  0.56210458622E+03  0.90409281092E+02 0.  0.
    5000000    2    1    2    0    0 -0.38172730501E+03 -0.32289464603E+03 -0.58121147379E+03  0.97340433056E+03  0.59977706330E+03 0.  0.
         23    2    4    4    0    0 -0.23038140863E+03 -0.37742242889E+03 -0.63577522930E+03  0.77975803055E+03  0.91044828228E+02 0.  0.
         23    2    4    4    0    0 -0.15134589638E+03  0.54527782859E+02  0.54563755513E+02  0.19364630001E+03  0.92966803949E+02 0.  0.
          3    1    3    3  502    0  0.17328309065E+03  0.96556597046E+02  0.70012299513E+02  0.21036142237E+03  0.00000000000E+00 0. -1.
         -3    1    3    3    0  502  0.20844421436E+03  0.22633804899E+03  0.17042696499E+03  0.35174316384E+03  0.00000000000E+00 0.  1.
         13    1    5    5    0    0 -0.98806691643E+02 -0.16047134341E+03 -0.19507522105E+03  0.27123450414E+03  0.00000000000E+00 0. -1.
        -13    1    5    5    0    0 -0.13157471699E+03 -0.21695108548E+03 -0.44070000825E+03  0.50852352642E+03  0.00000000000E+00 0.  1.
          1    1    6    6  503    0 -0.35401705270E+02 -0.16021051201E+01 -0.23965346944E+02  0.42780665388E+02  0.00000000000E+00 0. -1.
         -1    1    6    6    0  503 -0.11594419111E+03  0.56129887979E+02  0.78529102458E+02  0.15086563462E+03  0.00000000000E+00 0.  1.
<mgrwt>
<rscale>  0 0.55625169E+03</rscale>
<asrwt>0</asrwt>
<pdfrwt beam="1">  1        2 0.14432932E+00 0.55625169E+03</pdfrwt>
<pdfrwt beam="2">  1       -2 0.91902824E-01 0.55625169E+03</pdfrwt>
<totfact> 0.28878229E+01</totfact>
</mgrwt>
</event>
<event>
12    1  0.1418317E-007  0.9787190E+03  0.7818608E-02  0.9332198E-01
          1   -1    0    0  501    0  0.00000000000E+00  0.00000000000E+00  0.18298475336E+04  0.18298475336E+04  0.00000000000E+00 0. -1.
         -1   -1    0    0    0  501 -0.00000000000E+00 -0.00000000000E+00 -0.62216296996E+03  0.62216296996E+03  0.00000000000E+00 0.  1.
         23    2    1    2    0    0  0.84818822291E+03  0.43309320000E+03  0.82321223619E+03  0.12625987182E+04  0.97386631595E+02 0.  0.
    5000000    2    1    2    0    0 -0.84818822291E+03 -0.43309320000E+03  0.38447232743E+03  0.11894117853E+04  0.59990702879E+03 0.  0.
         23    2    4    4    0    0 -0.26037071332E+03  0.12322657586E+02 -0.10981117032E+03  0.29714706320E+03  0.91066611866E+02 0.  0.
         23    2    4    4    0    0 -0.58781750959E+03 -0.44541585759E+03  0.49428349775E+03  0.89226472215E+03  0.88856330501E+02 0.  0.
          1    1    3    3  502    0  0.28320497482E+03  0.94003572308E+02  0.25621882185E+03  0.39330625985E+03  0.00000000000E+00 0. -1.
         -1    1    3    3    0  502  0.56498324809E+03  0.33908962770E+03  0.56699341434E+03  0.86929245835E+03  0.00000000000E+00 0.  1.
         11    1    5    5    0    0 -0.64486147010E+02 -0.42615463559E+01 -0.72373610396E+02  0.97028673161E+02  0.00000000000E+00 0.  1.
        -11    1    5    5    0    0 -0.19588456631E+03  0.16584203942E+02 -0.37437559920E+02  0.20011839004E+03  0.00000000000E+00 0. -1.
          3    1    6    6  503    0 -0.35892459802E+03 -0.29932738652E+03  0.26763347521E+03  0.53856422870E+03  0.00000000000E+00 0. -1.
         -3    1    6    6    0  503 -0.22889291157E+03 -0.14608847107E+03  0.22665002254E+03  0.35370049345E+03  0.00000000000E+00 0.  1.
<mgrwt>
<rscale>  0 0.97871902E+03</rscale>
<asrwt>0</asrwt>
<pdfrwt beam="1">  1        1 0.28151500E+00 0.97871902E+03</pdfrwt>
<pdfrwt beam="2">  1       -1 0.95717381E-01 0.97871902E+03</pdfrwt>
<totfact> 0.41419946E+00</totfact>
</mgrwt>
</event>
<event>
12    1  0.1418317E-007  0.7388123E+03  0.7818608E-02  0.9653067E-01
          2   -1    0    0  501    0  0.00000000000E+00  0.00000000000E+00  0.61708014342E+03  0.61708014342E+03  0.00000000000E+00 0. -1.
         -2   -1    0    0    0  501 -0.00000000000E+00 -0.00000000000E+00 -0.99719150680E+03  0.99719150680E+03  0.00000000000E+00 0.  1.
         23    2    1    2    0    0 -0.62084828848E+03 -0.20367511206E+03 -0.29670827966E+03  0.72325436012E+03  0.90138325028E+02 0.  0.
    5000000    2    1    2    0    0  0.62084828848E+03  0.20367511206E+03 -0.83403083723E+02  0.89101729010E+03  0.60001632336E+03 0.  0.
         23    2    4    4    0    0 -0.50439075125E+02 -0.72336062142E+02  0.74492392795E+02  0.14285984991E+03  0.84161831887E+02 0.  0.
         23    2    4    4    0    0  0.67128736360E+03  0.27601117420E+03 -0.15789547652E+03  0.74815744019E+03  0.89440935747E+02 0.  0.
          2    1    3    3  502    0 -0.52033516180E+03 -0.13641993768E+03 -0.22884086264E+03  0.58457439254E+03  0.00000000000E+00 0. -1.
         -2    1    3    3    0  502 -0.10051312668E+03 -0.67255174377E+02 -0.67867417020E+02  0.13867996758E+03  0.00000000000E+00 0.  1.
         11    1    5    5    0    0 -0.46591704226E+02 -0.43581646726E+02  0.89724283701E+02  0.11009356893E+03  0.00000000000E+00 0. -1.
        -11    1    5    5    0    0 -0.38473708998E+01 -0.28754415416E+02 -0.15231890906E+02  0.32766280981E+02  0.00000000000E+00 0.  1.
          4    1    6    6  503    0  0.29318641770E+03  0.11289742572E+03 -0.23727388521E+02  0.31506680756E+03  0.00000000000E+00 0. -1.
         -4    1    6    6    0  503  0.37810094590E+03  0.16311374848E+03 -0.13416808800E+03  0.43309063263E+03  0.00000000000E+00 0.  1.
<mgrwt>
<rscale>  0 0.73881229E+03</rscale>
<asrwt>0</asrwt>
<pdfrwt beam="1">  1        2 0.94935407E-01 0.73881229E+03</pdfrwt>
<pdfrwt beam="2">  1       -2 0.15341408E+00 0.73881229E+03</pdfrwt>
<totfact> 0.13741372E+01</totfact>
</mgrwt>
</event>
<event>
12    1  0.1418317E-007  0.7953319E+03  0.7818608E-02  0.9566799E-01
          2   -1    0    0  501    0  0.00000000000E+00  0.00000000000E+00  0.19930994054E+04  0.19930994054E+04  0.00000000000E+00 0. -1.
         -2   -1    0    0    0  501 -0.00000000000E+00 -0.00000000000E+00 -0.48732886618E+03  0.48732886618E+03  0.00000000000E+00 0.  1.
         23    2    1    2    0    0  0.61054529956E+02  0.72671657669E+03  0.39063384604E+02  0.73594897712E+03  0.90831219536E+02 0.  0.
    5000000    2    1    2    0    0 -0.61054529956E+02 -0.72671657669E+03  0.14667071547E+04  0.17444792945E+04  0.60011123381E+03 0.  0.
         23    2    4    4    0    0  0.12866001827E+03 -0.62981352422E+03  0.13181308497E+04  0.14693286928E+04  0.90771112750E+02 0.  0.
         23    2    4    4    0    0 -0.18971454823E+03 -0.96903052466E+02  0.14857630496E+03  0.27515060171E+03  0.90835696963E+02 0.  0.
          1    1    3    3  502    0  0.20692306278E+02  0.30608678042E+03  0.61109085047E+02  0.31281241818E+03  0.00000000000E+00 0. -1.
         -1    1    3    3    0  502  0.40362223679E+02  0.42062979626E+03 -0.22045700444E+02  0.42313655894E+03  0.00000000000E+00 0.  1.
         11    1    5    5    0    0 -0.90401569262E+01 -0.11503034232E+03  0.26594961264E+03  0.28990153597E+03  0.00000000000E+00 0.  1.
        -11    1    5    5    0    0  0.13770017520E+03 -0.51478318190E+03  0.10521812371E+04  0.11794271568E+04  0.00000000000E+00 0. -1.
          1    1    6    6  503    0 -0.88835848743E+02 -0.46995835152E+02  0.16871980747E+02  0.10190721406E+03  0.00000000000E+00 0. -1.
         -1    1    6    6    0  503 -0.10087869948E+03 -0.49907217314E+02  0.13170432421E+03  0.17324338765E+03  0.00000000000E+00 0.  1.
<mgrwt>
<rscale>  0 0.79533191E+03</rscale>
<asrwt>0</asrwt>
<pdfrwt beam="1">  1        2 0.30663067E+00 0.79533191E+03</pdfrwt>
<pdfrwt beam="2">  1       -2 0.74973673E-01 0.79533191E+03</pdfrwt>
<totfact> 0.11077000E+01</totfact>
</mgrwt>
</event>
<event>
12    1  0.1418317E-007  0.3386439E+03  0.7818608E-02  0.1067375E+00
          2   -1    0    0  501    0  0.00000000000E+00  0.00000000000E+00  0.12756007963E+04  0.12756007963E+04  0.00000000000E+00 0.  1.
         -2   -1    0    0    0  501 -0.00000000000E+00 -0.00000000000E+00 -0.14924913521E+03  0.14924913521E+03  0.00000000000E+00 0. -1.
         23    2    1    2    0    0 -0.74811847299E+02  0.18871072748E+02  0.63267664976E+03  0.64380222679E+03  0.90821991741E+02 0.  0.
    5000000    2    1    2    0    0  0.74811847299E+02 -0.18871072748E+02  0.49367501137E+03  0.78104770475E+03  0.60030623049E+03 0.  0.
         23    2    4    4    0    0  0.31787054744E+03  0.42680640341E+02  0.32609497482E+03  0.46596386516E+03  0.89000387846E+02 0.  0.
         23    2    4    4    0    0 -0.24305870014E+03 -0.61551713090E+02  0.16758003655E+03  0.31508383959E+03  0.91261230681E+02 0.  0.
          4    1    3    3  502    0 -0.84208831556E+02  0.80070006370E+01  0.32619984144E+03  0.33698898487E+03  0.00000000000E+00 0. -1.
         -4    1    3    3    0  502  0.93969842572E+01  0.10864072111E+02  0.30647680832E+03  0.30681324192E+03  0.00000000000E+00 0.  1.
         13    1    5    5    0    0  0.11530024840E+03  0.48039503569E+02  0.16581795291E+03  0.20759945735E+03  0.00000000000E+00 0. -1.
        -13    1    5    5    0    0  0.20257029904E+03 -0.53588632273E+01  0.16027702191E+03  0.25836440780E+03  0.00000000000E+00 0.  1.
          2    1    6    6  503    0 -0.17015520584E+03 -0.45563610333E+02  0.16350159453E+03  0.24033644766E+03  0.00000000000E+00 0. -1.
         -2    1    6    6    0  503 -0.72903494307E+02 -0.15988102757E+02  0.40784420176E+01  0.74747391936E+02  0.00000000000E+00 0.  1.
<mgrwt>
<rscale>  0 0.33864394E+03</rscale>
<asrwt>0</asrwt>
<pdfrwt beam="1">  1        2 0.19624627E+00 0.33864394E+03</pdfrwt>
<pdfrwt beam="2">  1       -2 0.22961406E-01 0.33864394E+03</pdfrwt>
<totfact> 0.29864329E+02</totfact>
</mgrwt>
</event>
<event>
12    1  0.1418317E-007  0.9943908E+03  0.7818608E-02  0.9314718E-01
          2   -1    0    0  501    0  0.00000000000E+00  0.00000000000E+00  0.68079213561E+03  0.68079213561E+03  0.00000000000E+00 0. -1.
         -2   -1    0    0    0  501 -0.00000000000E+00 -0.00000000000E+00 -0.29179717199E+04  0.29179717199E+04  0.00000000000E+00 0.  1.
         23    2    1    2    0    0 -0.36348944335E+01 -0.91111035599E+03  0.19210978376E+03  0.93567664900E+03  0.91920232887E+02 0.  0.
    5000000    2    1    2    0    0  0.36348944335E+01  0.91111035599E+03 -0.24292893681E+04  0.26630872065E+04  0.60037600097E+03 0.  0.
         23    2    4    4    0    0 -0.26048364417E+03  0.27634399056E+03 -0.10223206724E+04  0.10942634816E+04  0.89751212113E+02 0.  0.
         23    2    4    4    0    0  0.26411853860E+03  0.63476636543E+03 -0.14069686957E+04  0.15688237249E+04  0.94657424611E+02 0.  0.
          3    1    3    3  502    0  0.20508884122E+02 -0.47918504828E+02  0.79067132789E+01  0.52719195250E+02  0.00000000000E+00 0. -1.
         -3    1    3    3    0  502 -0.24143778556E+02 -0.86319185116E+03  0.18420307049E+03  0.88295745375E+03  0.00000000000E+00 0.  1.
         13    1    5    5    0    0 -0.95331376102E+02  0.14221946225E+03 -0.36062334607E+03  0.39920376306E+03  0.00000000000E+00 0. -1.
        -13    1    5    5    0    0 -0.16515226806E+03  0.13412452830E+03 -0.66169732630E+03  0.69505971857E+03  0.00000000000E+00 0.  1.
          4    1    6    6  503    0  0.93748540221E+02  0.28661948115E+03 -0.52504060289E+03  0.60548092493E+03  0.00000000000E+00 0. -1.
         -4    1    6    6    0  503  0.17036999838E+03  0.34814688428E+03 -0.88192809283E+03  0.96334279999E+03  0.00000000000E+00 0.  1.
<mgrwt>
<rscale>  0 0.99439083E+03</rscale>
<asrwt>0</asrwt>
<pdfrwt beam="1">  1        2 0.10473725E+00 0.99439083E+03</pdfrwt>
<pdfrwt beam="2">  1       -2 0.44891872E+00 0.99439083E+03</pdfrwt>
<totfact> 0.15274520E-01</totfact>
</mgrwt>
</event>
<event>
12    1  0.1418317E-007  0.6329924E+03  0.7818608E-02  0.9839227E-01
         -4   -1    0    0    0  501 -0.00000000000E+00  0.00000000000E+00  0.26993985660E+04  0.26993985660E+04  0.00000000000E+00 0. -1.
          4   -1    0    0  501    0  0.00000000000E+00 -0.00000000000E+00 -0.28433348973E+03  0.28433348973E+03  0.00000000000E+00 0.  1.
         23    2    1    2    0    0  0.52444263748E+03 -0.10017351783E+03  0.12406638575E+03  0.55600780683E+03  0.93152560347E+02 0.  0.
    5000000    2    1    2    0    0 -0.52444263748E+03  0.10017351783E+03  0.22909986905E+04  0.24277242489E+04  0.60007934058E+03 0.  0.
         23    2    4    4    0    0  0.64485952472E+01  0.17916791133E+03  0.28317199948E+03  0.34735327120E+03  0.91242473089E+02 0.  0.
         23    2    4    4    0    0 -0.53089123273E+03 -0.78994393494E+02  0.20078266910E+04  0.20803709777E+04  0.92139939011E+02 0.  0.
          4    1    3    3  502    0  0.25025381041E+03 -0.76351174681E+02  0.98624133041E+02  0.27961257325E+03  0.00000000000E+00 0. -1.
         -4    1    3    3    0  502  0.27418882707E+03 -0.23822343150E+02  0.25442252704E+02  0.27639523358E+03  0.00000000000E+00 0.  1.
         11    1    5    5    0    0  0.18810165004E+02  0.17119680712E+03  0.28451616066E+03  0.33258324485E+03  0.00000000000E+00 0.  1.
        -11    1    5    5    0    0 -0.12361569757E+02  0.79711042044E+01 -0.13441611857E+01  0.14770026350E+02  0.00000000000E+00 0. -1.
          2    1    6    6  503    0 -0.13994788715E+03  0.13042698880E+02  0.43911513048E+03  0.46106140689E+03  0.00000000000E+00 0.  1.
         -2    1    6    6    0  503 -0.39094334558E+03 -0.92037092374E+02  0.15687115606E+04  0.16193095708E+04  0.00000000000E+00 0. -1.
<mgrwt>
<rscale>  0 0.63299244E+03</rscale>
<asrwt>0</asrwt>
<pdfrwt beam="1">  1        4 0.43743616E-01 0.63299244E+03</pdfrwt>
<pdfrwt beam="2">  1       -4 0.41529207E+00 0.63299244E+03</pdfrwt>
<totfact> 0.57135541E-02</totfact>
</mgrwt>
</event>
<event>
12    1  0.1499117E-007  0.1318144E+04  0.7818608E-02  0.9015299E-01
          2   -1    0    0  501    0  0.00000000000E+00  0.00000000000E+00  0.18050824531E+04  0.18050824531E+04  0.00000000000E+00 0.  1.
         -2   -1    0    0    0  501 -0.00000000000E+00 -0.00000000000E+00 -0.13003755088E+04  0.13003755088E+04  0.00000000000E+00 0. -1.
         23    2    1    2    0    0  0.22542679133E+03  0.12381523456E+04 -0.53036693498E+03  0.13690194096E+04  0.95323600271E+02 0.  0.
    5000000    2    1    2    0    0 -0.22542679133E+03 -0.12381523456E+04  0.10350738793E+04  0.17364385524E+04  0.60000203461E+03 0.  0.
         23    2    4    4    0    0  0.13816913521E+03 -0.13581924762E+03  0.26287214096E+03  0.33921887141E+03  0.91815588433E+02 0.  0.
         23    2    4    4    0    0 -0.36359592653E+03 -0.11023330980E+04  0.77220173830E+03  0.13972196810E+04  0.92666367075E+02 0.  0.
          1    1    3    3  502    0  0.26911637797E+02  0.35847154622E+03 -0.17371225151E+03  0.39925184035E+03  0.00000000000E+00 0. -1.
         -1    1    3    3    0  502  0.19851515353E+03  0.87968079941E+03 -0.35665468347E+03  0.96976756920E+03  0.00000000000E+00 0.  1.
         13    1    5    5    0    0  0.76748988678E+02 -0.13092126847E+03  0.17139135486E+03  0.22892309259E+03  0.00000000000E+00 0.  1.
        -13    1    5    5    0    0  0.61420146529E+02 -0.48979791485E+01  0.91480786098E+02  0.11029577882E+03  0.00000000000E+00 0. -1.
          1    1    6    6  503    0 -0.23724140218E+03 -0.64830619303E+03  0.41091803143E+03  0.80339158036E+03  0.00000000000E+00 0. -1.
         -1    1    6    6    0  503 -0.12635452435E+03 -0.45402690498E+03  0.36128370687E+03  0.59382810065E+03  0.00000000000E+00 0.  1.
<mgrwt>
<rscale>  0 0.13181442E+04</rscale>
<asrwt>0</asrwt>
<pdfrwt beam="1">  1        2 0.27770499E+00 0.13181442E+04</pdfrwt>
<pdfrwt beam="2">  1       -2 0.20005777E+00 0.13181442E+04</pdfrwt>
<totfact> 0.10908336E+00</totfact>
</mgrwt>
</event>
<event>
12    1  0.1418317E-007  0.5028858E+03  0.7818608E-02  0.1013028E+00
          2   -1    0    0  501    0  0.00000000000E+00  0.00000000000E+00  0.13141067030E+04  0.13141067030E+04  0.00000000000E+00 0. -1.
         -2   -1    0    0    0  501 -0.00000000000E+00 -0.00000000000E+00 -0.34000808712E+03  0.34000808712E+03  0.00000000000E+00 0.  1.
         23    2    1    2    0    0  0.29438961940E+03  0.20522922982E+03  0.87081045766E+03  0.94643621230E+03  0.92985837636E+02 0.  0.
    5000000    2    1    2    0    0 -0.29438961940E+03 -0.20522922982E+03  0.10328815818E+03  0.70767857778E+03  0.60112913842E+03 0.  0.
         23    2    4    4    0    0 -0.88147570142E+02 -0.35895238714E+03  0.18466067624E+03  0.42357022717E+03  0.93248922979E+02 0.  0.
         23    2    4    4    0    0 -0.20624204925E+03  0.15372315732E+03 -0.81372518067E+02  0.28410835062E+03  0.89047606471E+02 0.  0.
          2    1    3    3  502    0  0.53407626526E+02 -0.10520717661E+01  0.13277261370E+03  0.14311550710E+03  0.00000000000E+00 0. -1.
         -2    1    3    3    0  502  0.24098199287E+03  0.20628130158E+03  0.73803784397E+03  0.80332070520E+03  0.00000000000E+00 0.  1.
         13    1    5    5    0    0 -0.84062498381E+02 -0.32627857705E+03  0.13284453089E+03  0.36217659072E+03  0.00000000000E+00 0. -1.
        -13    1    5    5    0    0 -0.40850717609E+01 -0.32673810083E+02  0.51816145353E+02  0.61393636445E+02  0.00000000000E+00 0.  1.
          4    1    6    6  503    0 -0.13882889296E+03  0.63526568146E+02 -0.78019798069E+02  0.17145312849E+03  0.00000000000E+00 0. -1.
         -4    1    6    6    0  503 -0.67413156297E+02  0.90196589174E+02 -0.33527199987E+01  0.11265522212E+03  0.00000000000E+00 0.  1.
<mgrwt>
<rscale>  0 0.50288575E+03</rscale>
<asrwt>0</asrwt>
<pdfrwt beam="1">  1        2 0.20217026E+00 0.50288575E+03</pdfrwt>
<pdfrwt beam="2">  1       -2 0.52308937E-01 0.50288575E+03</pdfrwt>
<totfact> 0.58661915E+01</totfact>
</mgrwt>
</event>
<event>
12    1  0.1418317E-007  0.3114471E+03  0.7818608E-02  0.1079654E+00
         -2   -1    0    0    0  501 -0.00000000000E+00  0.00000000000E+00  0.39607587007E+03  0.39607587007E+03  0.00000000000E+00 0.  1.
          2   -1    0    0  501    0  0.00000000000E+00 -0.00000000000E+00 -0.41213811321E+03  0.41213811321E+03  0.00000000000E+00 0. -1.
         23    2    1    2    0    0  0.13694874903E+03 -0.50783309972E+02 -0.74266187865E+02  0.18654661468E+03  0.89164277363E+02 0.  0.
    5000000    2    1    2    0    0 -0.13694874903E+03  0.50783309972E+02  0.58203944727E+02  0.62166736860E+03  0.60145549592E+03 0.  0.
         23    2    4    4    0    0 -0.91538930596E+02  0.25170579925E+03  0.20797973766E+03  0.35126073763E+03  0.91615224337E+02 0.  0.
         23    2    4    4    0    0 -0.45409818432E+02 -0.20092248928E+03 -0.14977579294E+03  0.27040663097E+03  0.90857358631E+02 0.  0.
          2    1    3    3  502    0  0.10394148030E+03 -0.49478063025E+02 -0.93515605815E+02  0.14831412131E+03  0.00000000000E+00 0. -1.
         -2    1    3    3    0  502  0.33007268727E+02 -0.13052469461E+01  0.19249417950E+02  0.38232493377E+02  0.00000000000E+00 0.  1.
         11    1    5    5    0    0 -0.47624746400E+02  0.10344581379E+03  0.14481606877E+03  0.18423041723E+03  0.00000000000E+00 0. -1.
        -11    1    5    5    0    0 -0.43914184196E+02  0.14825998546E+03  0.63163668891E+02  0.16703032039E+03  0.00000000000E+00 0.  1.
          4    1    6    6  503    0 -0.22062493788E+02 -0.12002637635E+03 -0.13987457338E+03  0.18562861021E+03  0.00000000000E+00 0.  1.
         -4    1    6    6    0  503 -0.23347324644E+02 -0.80896112929E+02 -0.99012195543E+01  0.84778020759E+02  0.00000000000E+00 0. -1.
<mgrwt>
<rscale>  0 0.31144709E+03</rscale>
<asrwt>0</asrwt>
<pdfrwt beam="1">  1        2 0.63405864E-01 0.31144709E+03</pdfrwt>
<pdfrwt beam="2">  1       -2 0.60934749E-01 0.31144709E+03</pdfrwt>
<totfact> 0.19885929E+02</totfact>
</mgrwt>
</event>
<event>
12    1  0.1418317E-007  0.4072903E+03  0.7818608E-02  0.1041284E+00
         -1   -1    0    0    0  501 -0.00000000000E+00  0.00000000000E+00  0.15684669704E+03  0.15684669704E+03  0.00000000000E+00 0.  1.
          1   -1    0    0  501    0  0.00000000000E+00 -0.00000000000E+00 -0.14197750632E+04  0.14197750632E+04  0.00000000000E+00 0. -1.
         23    2    1    2    0    0 -0.22180297040E+03 -0.11909769963E+03 -0.21659983403E+03  0.34445034540E+03  0.91376871324E+02 0.  0.
    5000000    2    1    2    0    0  0.22180297040E+03  0.11909769963E+03 -0.10463285322E+04  0.12321714149E+04  0.60005181330E+03 0.  0.
         23    2    4    4    0    0 -0.16961062770E+02 -0.16120947317E+03 -0.97127192797E+02  0.21004335881E+03  0.91697050720E+02 0.  0.
         23    2    4    4    0    0  0.23876403317E+03  0.28030717280E+03 -0.94920133937E+03  0.10221280561E+04  0.90455545138E+02 0.  0.
          4    1    3    3  502    0 -0.29190925213E+02 -0.78152144898E+01 -0.74740604578E+02  0.80618519368E+02  0.00000000000E+00 0. -1.
         -4    1    3    3    0  502 -0.19261204518E+03 -0.11128248514E+03 -0.14185922945E+03  0.26383182603E+03  0.00000000000E+00 0.  1.
         13    1    5    5    0    0  0.15277988802E+02 -0.14960426455E+03 -0.67873551662E+02  0.16498991463E+03  0.00000000000E+00 0. -1.
        -13    1    5    5    0    0 -0.32239051572E+02 -0.11605208619E+02 -0.29253641135E+02  0.45053444186E+02  0.00000000000E+00 0.  1.
          1    1    6    6  503    0  0.15419406067E+03  0.11769929790E+03 -0.43693117159E+03  0.47805625378E+03  0.00000000000E+00 0. -1.
         -1    1    6    6    0  503  0.84569972498E+02  0.16260787490E+03 -0.51227016778E+03  0.54407180227E+03  0.00000000000E+00 0.  1.
<mgrwt>
<rscale>  0 0.40729028E+03</rscale>
<asrwt>0</asrwt>
<pdfrwt beam="1">  1        1 0.21842693E+00 0.40729028E+03</pdfrwt>
<pdfrwt beam="2">  1       -1 0.24130262E-01 0.40729028E+03</pdfrwt>
<totfact> 0.11762190E+02</totfact>
</mgrwt>
</event>
<event>
12    1  0.1418317E-007  0.7312077E+03  0.7818608E-02  0.9665303E-01
          2   -1    0    0  501    0  0.00000000000E+00  0.00000000000E+00  0.66601167221E+03  0.66601167221E+03  0.00000000000E+00 0. -1.
         -2   -1    0    0    0  501 -0.00000000000E+00 -0.00000000000E+00 -0.89803576268E+03  0.89803576268E+03  0.00000000000E+00 0.  1.
         23    2    1    2    0    0  0.50763236319E+03  0.41148127545E+03 -0.10981243084E+03  0.66860042587E+03  0.89220531802E+02 0.  0.
    5000000    2    1    2    0    0 -0.50763236319E+03 -0.41148127545E+03 -0.12221165962E+03  0.89544700902E+03  0.59990182531E+03 0.  0.
         23    2    4    4    0    0 -0.30484007621E+03 -0.48974454804E+03 -0.24049222503E+03  0.63177209705E+03  0.92316184452E+02 0.  0.
         23    2    4    4    0    0 -0.20279228698E+03  0.78263272586E+02  0.11828056541E+03  0.26367491197E+03  0.91018215503E+02 0.  0.
          3    1    3    3  502    0  0.45930971638E+03  0.33980241203E+03 -0.11158553370E+03  0.58213608900E+03  0.00000000000E+00 0. -1.
         -3    1    3    3    0  502  0.48322646804E+02  0.71678863421E+02  0.17731028560E+01  0.86464336863E+02  0.00000000000E+00 0.  1.
         13    1    5    5    0    0 -0.41640840651E+02 -0.10230483447E+03 -0.81023740604E+02  0.13698571206E+03  0.00000000000E+00 0. -1.
        -13    1    5    5    0    0 -0.26319923556E+03 -0.38743971357E+03 -0.15946848443E+03  0.49478638499E+03  0.00000000000E+00 0.  1.
          4    1    6    6  503    0 -0.49862209230E+02  0.49341138326E+02  0.34045986572E+01  0.70230898703E+02  0.00000000000E+00 0. -1.
         -4    1    6    6    0  503 -0.15293007775E+03  0.28922134260E+02  0.11487596675E+03  0.19344401326E+03  0.00000000000E+00 0.  1.
<mgrwt>
<rscale>  0 0.73120769E+03</rscale>
<asrwt>0</asrwt>
<pdfrwt beam="1">  1        2 0.10246333E+00 0.73120769E+03</pdfrwt>
<pdfrwt beam="2">  1       -2 0.13815935E+00 0.73120769E+03</pdfrwt>
<totfact> 0.16475548E+01</totfact>
</mgrwt>
</event>
<event>
12    1  0.1418317E-007  0.1123726E+04  0.7818608E-02  0.9182370E-01
         -2   -1    0    0    0  501 -0.00000000000E+00  0.00000000000E+00  0.80251408843E+03  0.80251408843E+03  0.00000000000E+00 0.  1.
          2   -1    0    0  501    0  0.00000000000E+00 -0.00000000000E+00 -0.18046646432E+04  0.18046646432E+04  0.00000000000E+00 0. -1.
         23    2    1    2    0    0 -0.16030076555E+03 -0.10730562379E+04 -0.80013800393E+03  0.13510283328E+04  0.88942146439E+02 0.  0.
    5000000    2    1    2    0    0  0.16030076555E+03  0.10730562379E+04 -0.20201255090E+03  0.12561503989E+04  0.59996560636E+03 0.  0.
         23    2    4    4    0    0  0.26917368232E+03  0.91057604584E+03  0.10788316880E+02  0.95368087075E+03  0.88247430192E+02 0.  0.
         23    2    4    4    0    0 -0.10887291677E+03  0.16248019208E+03 -0.21280086777E+03  0.30246952817E+03  0.89165471596E+02 0.  0.
          1    1    3    3  502    0 -0.11278212004E+03 -0.82191480077E+03 -0.65562368424E+03  0.10574053914E+04  0.00000000000E+00 0. -1.
         -1    1    3    3    0  502 -0.47518645511E+02 -0.25114143715E+03 -0.14451431968E+03  0.29362294140E+03  0.00000000000E+00 0.  1.
         13    1    5    5    0    0  0.13863638573E+03  0.36129225677E+03 -0.26384156192E+02  0.38787661175E+03  0.00000000000E+00 0.  1.
        -13    1    5    5    0    0  0.13053729659E+03  0.54928378907E+03  0.37172473072E+02  0.56580425899E+03  0.00000000000E+00 0. -1.
          1    1    6    6  503    0 -0.76794990977E+02  0.45242585363E+02 -0.12033268088E+03  0.14974750835E+03  0.00000000000E+00 0. -1.
         -1    1    6    6    0  503 -0.32077925790E+02  0.11723760671E+03 -0.92468186893E+02  0.15272201982E+03  0.00000000000E+00 0.  1.
<mgrwt>
<rscale>  0 0.11237261E+04</rscale>
<asrwt>0</asrwt>
<pdfrwt beam="1">  1        2 0.27764071E+00 0.11237261E+04</pdfrwt>
<pdfrwt beam="2">  1       -2 0.12346371E+00 0.11237261E+04</pdfrwt>
<totfact> 0.41688300E+00</totfact>
</mgrwt>
</event>
<event>
12    1  0.1559477E-007  0.1060035E+04  0.7818608E-02  0.9245044E-01
          2   -1    0    0  501    0  0.00000000000E+00  0.00000000000E+00  0.15920422172E+04  0.15920422172E+04  0.00000000000E+00 0. -1.
         -2   -1    0    0    0  501 -0.00000000000E+00 -0.00000000000E+00 -0.13456584440E+04  0.13456584440E+04  0.00000000000E+00 0.  1.
         23    2    1    2    0    0 -0.10158430983E+04  0.27145510209E+03 -0.81040863894E+03  0.13306570297E+04  0.90889471222E+02 0.  0.
    5000000    2    1    2    0    0  0.10158430983E+04 -0.27145510209E+03  0.10567924122E+04  0.16070436315E+04  0.60012828483E+03 0.  0.
         23    2    4    4    0    0  0.72269429687E+03 -0.15464950591E+03  0.10393675528E+04  0.12785400611E+04  0.90422683588E+02 0.  0.
         23    2    4    4    0    0  0.29314880140E+03 -0.11680559618E+03  0.17424859418E+02  0.32850357036E+03  0.89616979167E+02 0.  0.
          3    1    3    3  502    0 -0.39832481473E+03  0.11526887307E+03 -0.37513240863E+03  0.55917250928E+03  0.00000000000E+00 0. -1.
         -3    1    3    3    0  502 -0.61751828354E+03  0.15618622902E+03 -0.43527623031E+03  0.77148452046E+03  0.00000000000E+00 0.  1.
         11    1    5    5    0    0  0.27258935957E+03 -0.10339075070E+03  0.40312127896E+03  0.49749509730E+03  0.00000000000E+00 0. -1.
        -11    1    5    5    0    0  0.45010493730E+03 -0.51258755213E+02  0.63624627381E+03  0.78104496382E+03  0.00000000000E+00 0.  1.
          3    1    6    6  503    0  0.15530315513E+03 -0.10072219474E+03  0.35725266373E+02  0.18852141831E+03  0.00000000000E+00 0. -1.
         -3    1    6    6    0  503  0.13784564627E+03 -0.16083401442E+02 -0.18300406955E+02  0.13998215205E+03  0.00000000000E+00 0.  1.
<mgrwt>
<rscale>  0 0.10600354E+04</rscale>
<asrwt>0</asrwt>
<pdfrwt beam="1">  1        2 0.24492957E+00 0.10600354E+04</pdfrwt>
<pdfrwt beam="2">  1       -2 0.20702438E+00 0.10600354E+04</pdfrwt>
<totfact> 0.13305827E+00</totfact>
</mgrwt>
</event>
<event>
12    1  0.1418317E-007  0.5344270E+03  0.7818608E-02  0.1005164E+00
         -1   -1    0    0    0  501 -0.00000000000E+00  0.00000000000E+00  0.48712470034E+03  0.48712470034E+03  0.00000000000E+00 0.  1.
          1   -1    0    0  501    0  0.00000000000E+00 -0.00000000000E+00 -0.71794703986E+03  0.71794703986E+03  0.00000000000E+00 0. -1.
         23    2    1    2    0    0  0.21314562743E+02  0.42681413317E+03 -0.15387330648E+02  0.43750508990E+03  0.92462526910E+02 0.  0.
    5000000    2    1    2    0    0 -0.21314562743E+02 -0.42681413317E+03 -0.21543500886E+03  0.76756665030E+03  0.60010141206E+03 0.  0.
         23    2    4    4    0    0  0.17459575465E+03 -0.32637080348E+02  0.95067474312E+02  0.22113839647E+03  0.91189413679E+02 0.  0.
         23    2    4    4    0    0 -0.19591031739E+03 -0.39417705282E+03 -0.31050248318E+03  0.54642825383E+03  0.91736814285E+02 0.  0.
          3    1    3    3  502    0  0.23691974776E+02  0.33246195953E+03  0.26269826388E+02  0.33433870249E+03  0.00000000000E+00 0. -1.
         -3    1    3    3    0  502 -0.23774120337E+01  0.94352173640E+02 -0.41657157036E+02  0.10316638741E+03  0.00000000000E+00 0.  1.
         11    1    5    5    0    0  0.87081606630E+02  0.28926074132E+02  0.54387823884E+02  0.10666751785E+03  0.00000000000E+00 0. -1.
        -11    1    5    5    0    0  0.87514148018E+02 -0.61563154480E+02  0.40679650428E+02  0.11447087862E+03  0.00000000000E+00 0.  1.
          2    1    6    6  503    0 -0.58428039714E+02 -0.16635305675E+03 -0.76943616927E+02  0.19237332325E+03  0.00000000000E+00 0. -1.
         -2    1    6    6    0  503 -0.13748227768E+03 -0.22782399608E+03 -0.23355886625E+03  0.35405493058E+03  0.00000000000E+00 0.  1.
<mgrwt>
<rscale>  0 0.53442704E+03</rscale>
<asrwt>0</asrwt>
<pdfrwt beam="1">  1        1 0.11045339E+00 0.53442704E+03</pdfrwt>
<pdfrwt beam="2">  1       -1 0.74942262E-01 0.53442704E+03</pdfrwt>
<totfact> 0.49127421E+01</totfact>
</mgrwt>
</event>
<event>
12    1  0.1418317E-007  0.4596314E+03  0.7818608E-02  0.1024888E+00
         -2   -1    0    0    0  501 -0.00000000000E+00  0.00000000000E+00  0.19020135515E+03  0.19020135515E+03  0.00000000000E+00 0.  1.
          2   -1    0    0  501    0  0.00000000000E+00 -0.00000000000E+00 -0.26784116496E+04  0.26784116496E+04  0.00000000000E+00 0. -1.
         23    2    1    2    0    0 -0.32122809716E+02 -0.32140490923E+03 -0.52837952165E+02  0.33971224149E+03  0.90992127386E+02 0.  0.
    5000000    2    1    2    0    0  0.32122809716E+02  0.32140490923E+03 -0.24353723423E+04  0.25289007633E+04  0.59997302794E+03 0.  0.
         23    2    4    4    0    0  0.22024706397E+03  0.30294514227E+03 -0.20681107223E+04  0.21037066817E+04  0.90638372123E+02 0.  0.
         23    2    4    4    0    0 -0.18812425426E+03  0.18459766960E+02 -0.36726161998E+03  0.42519408156E+03  0.10088315739E+03 0.  0.
          4    1    3    3  502    0 -0.31541817608E+02 -0.48752609534E+02  0.12371795483E+02  0.59369727284E+02  0.00000000000E+00 0. -1.
         -4    1    3    3    0  502 -0.58099210824E+00 -0.27265229970E+03 -0.65209747647E+02  0.28034251420E+03  0.00000000000E+00 0.  1.
         11    1    5    5    0    0  0.13945856339E+03  0.14082092020E+03 -0.89394698610E+03  0.91565301093E+03  0.00000000000E+00 0.  1.
        -11    1    5    5    0    0  0.80788500580E+02  0.16212422207E+03 -0.11741637362E+04  0.11880536708E+04  0.00000000000E+00 0. -1.
          3    1    6    6  503    0 -0.32472971685E+02 -0.31998746555E+02 -0.12314152149E+03  0.13130974064E+03  0.00000000000E+00 0. -1.
         -3    1    6    6    0  503 -0.15565128257E+03  0.50458513514E+02 -0.24412009849E+03  0.29388434092E+03  0.00000000000E+00 0.  1.
<mgrwt>
<rscale>  0 0.45963136E+03</rscale>
<asrwt>0</asrwt>
<pdfrwt beam="1">  1        2 0.41206329E+00 0.45963136E+03</pdfrwt>
<pdfrwt beam="2">  1       -2 0.29261750E-01 0.45963136E+03</pdfrwt>
<totfact> 0.32516661E+01</totfact>
</mgrwt>
</event>
<event>
12    1  0.1418317E-007  0.6323756E+03  0.7818608E-02  0.9840424E-01
          2   -1    0    0  501    0  0.00000000000E+00  0.00000000000E+00  0.28060096782E+04  0.28060096782E+04  0.00000000000E+00 0. -1.
         -2   -1    0    0    0  501 -0.00000000000E+00 -0.00000000000E+00 -0.20452034071E+03  0.20452034071E+03  0.00000000000E+00 0.  1.
         23    2    1    2    0    0  0.32241698169E+03  0.38900240909E+03  0.33999638086E+03  0.61686521114E+03  0.98232201251E+02 0.  0.
    5000000    2    1    2    0    0 -0.32241698169E+03 -0.38900240909E+03  0.22614929566E+04  0.23936648078E+04  0.60000436220E+03 0.  0.
         23    2    4    4    0    0  0.15985419798E+03 -0.61432040009E+02  0.55230948717E+03  0.58541905662E+03  0.91336969987E+02 0.  0.
         23    2    4    4    0    0 -0.48227117968E+03 -0.32757036908E+03  0.17091834695E+04  0.18082457511E+04  0.92502577151E+02 0.  0.
          2    1    3    3  502    0  0.25617543341E+02  0.32011935730E+02  0.66257382350E+02  0.77917028125E+02  0.00000000000E+00 0. -1.
         -2    1    3    3    0  502  0.29679943835E+03  0.35699047336E+03  0.27373899851E+03  0.53894818302E+03  0.00000000000E+00 0.  1.
         11    1    5    5    0    0  0.13419823404E+03 -0.51934952616E+02  0.53261227605E+03  0.55170847548E+03  0.00000000000E+00 0.  1.
        -11    1    5    5    0    0  0.25655963941E+02 -0.94970873928E+01  0.19697211119E+02  0.33710581136E+02  0.00000000000E+00 0. -1.
          3    1    6    6  503    0 -0.18184415158E+03 -0.78786735166E+02  0.50656076514E+03  0.54394710577E+03  0.00000000000E+00 0. -1.
         -3    1    6    6    0  503 -0.30042702809E+03 -0.24878363392E+03  0.12026227043E+04  0.12642986454E+04  0.00000000000E+00 0.  1.
<mgrwt>
<rscale>  0 0.63237559E+03</rscale>
<asrwt>0</asrwt>
<pdfrwt beam="1">  1        2 0.43169377E+00 0.63237559E+03</pdfrwt>
<pdfrwt beam="2">  1       -2 0.31464670E-01 0.63237559E+03</pdfrwt>
<totfact> 0.23102742E+01</totfact>
</mgrwt>
</event>
<event>
12    1  0.1418317E-007  0.5758063E+03  0.7818608E-02  0.9956912E-01
         -1   -1    0    0    0  501 -0.00000000000E+00  0.00000000000E+00  0.19764547443E+03  0.19764547443E+03  0.00000000000E+00 0.  1.
          1   -1    0    0  501    0  0.00000000000E+00 -0.00000000000E+00 -0.20478404386E+04  0.20478404386E+04  0.00000000000E+00 0. -1.
         23    2    1    2    0    0 -0.48112284705E+03  0.68599695719E+02 -0.62486958058E+03  0.79701429189E+03  0.92653529581E+02 0.  0.
    5000000    2    1    2    0    0  0.48112284705E+03 -0.68599695719E+02 -0.12253253836E+04  0.14484716212E+04  0.60038540072E+03 0.  0.
         23    2    4    4    0    0  0.10984014802E+03 -0.21657266557E+03 -0.15297836878E+03  0.30063153261E+03  0.89489437902E+02 0.  0.
         23    2    4    4    0    0  0.37128269903E+03  0.14797296985E+03 -0.10723470148E+04  0.11478400886E+04  0.88667391259E+02 0.  0.
          2    1    3    3  502    0 -0.15128233067E+03  0.49145685808E+02 -0.15099043413E+03  0.21931655935E+03  0.00000000000E+00 0. -1.
         -2    1    3    3    0  502 -0.32984051638E+03  0.19454009911E+02 -0.47387914644E+03  0.57769773254E+03  0.00000000000E+00 0.  1.
         13    1    5    5    0    0 -0.10173597337E+02 -0.24798580485E+02  0.12452086587E+01  0.26833229799E+02  0.00000000000E+00 0. -1.
        -13    1    5    5    0    0  0.12001374535E+03 -0.19177408508E+03 -0.15422357743E+03  0.27379830281E+03  0.00000000000E+00 0.  1.
          1    1    6    6  503    0  0.13155566640E+03  0.98436964058E+02 -0.45246088621E+03  0.48137052549E+03  0.00000000000E+00 0. -1.
         -1    1    6    6    0  503  0.23972703263E+03  0.49536005793E+02 -0.61988612863E+03  0.66646956308E+03  0.00000000000E+00 0.  1.
<mgrwt>
<rscale>  0 0.57580626E+03</rscale>
<asrwt>0</asrwt>
<pdfrwt beam="1">  1        1 0.31505239E+00 0.57580626E+03</pdfrwt>
<pdfrwt beam="2">  1       -1 0.30406994E-01 0.57580626E+03</pdfrwt>
<totfact> 0.29376341E+01</totfact>
</mgrwt>
</event>
<event>
12    1  0.1418317E-007  0.9301798E+03  0.7818608E-02  0.9388622E-01
         -1   -1    0    0    0  501 -0.00000000000E+00  0.00000000000E+00  0.10366150171E+04  0.10366150171E+04  0.00000000000E+00 0.  1.
          1   -1    0    0  501    0  0.00000000000E+00 -0.00000000000E+00 -0.12523456129E+04  0.12523456129E+04  0.00000000000E+00 0. -1.
         23    2    1    2    0    0 -0.90490370009E+03  0.10305846365E+03  0.43951150481E+03  0.10166414374E+04  0.10448777947E+03 0.  0.
    5000000    2    1    2    0    0  0.90490370009E+03 -0.10305846365E+03 -0.65524210061E+03  0.12723191927E+04  0.59998513667E+03 0.  0.
         23    2    4    4    0    0  0.81045894174E+03 -0.22303696145E+02 -0.73673940737E+03  0.10986924662E+04  0.83660204821E+02 0.  0.
         23    2    4    4    0    0  0.94444758357E+02 -0.80754767501E+02  0.81497306764E+02  0.17362672643E+03  0.89795792027E+02 0.  0.
          1    1    3    3  502    0 -0.46992508996E+03  0.55100796994E+02  0.17034932112E+03  0.50287630607E+03  0.00000000000E+00 0. -1.
         -1    1    3    3    0  502 -0.43497861014E+03  0.47957666652E+02  0.26916218369E+03  0.51376513136E+03  0.00000000000E+00 0.  1.
         13    1    5    5    0    0  0.40412456817E+03 -0.29483963465E+02 -0.41849708489E+03  0.58251676436E+03  0.00000000000E+00 0.  1.
        -13    1    5    5    0    0  0.40633437357E+03  0.71802673195E+01 -0.31824232249E+03  0.51617570187E+03  0.00000000000E+00 0. -1.
          3    1    6    6  503    0  0.33046323506E+02 -0.67552502233E+02  0.60262080533E+01  0.75443457229E+02  0.00000000000E+00 0. -1.
         -3    1    6    6    0  503  0.61398434851E+02 -0.13202265268E+02  0.75471098710E+02  0.98183269201E+02  0.00000000000E+00 0.  1.
<mgrwt>
<rscale>  0 0.93017976E+03</rscale>
<asrwt>0</asrwt>
<pdfrwt beam="1">  1        1 0.19266855E+00 0.93017976E+03</pdfrwt>
<pdfrwt beam="2">  1       -1 0.15947923E+00 0.93017976E+03</pdfrwt>
<totfact> 0.29250673E+00</totfact>
</mgrwt>
</event>
<event>
12    1  0.1418317E-007  0.4383692E+03  0.7818608E-02  0.1031248E+00
          1   -1    0    0  501    0  0.00000000000E+00  0.00000000000E+00  0.10152951137E+04  0.10152951137E+04  0.00000000000E+00 0. -1.
         -1   -1    0    0    0  501 -0.00000000000E+00 -0.00000000000E+00 -0.83342883543E+03  0.83342883543E+03  0.00000000000E+00 0.  1.
         23    2    1    2    0    0 -0.20195278400E+03 -0.12894802541E+03  0.86812658591E+03  0.90553327090E+03  0.94520978242E+02 0.  0.
    5000000    2    1    2    0    0  0.20195278400E+03  0.12894802541E+03 -0.68626030766E+03  0.94319067820E+03  0.60103487865E+03 0.  0.
         23    2    4    4    0    0  0.14067616036E+03 -0.22241214249E+03 -0.30941887142E+03  0.41637944283E+03  0.91514256810E+02 0.  0.
         23    2    4    4    0    0  0.61276623638E+02  0.35136016791E+03 -0.37684143624E+03  0.52681123537E+03  0.91169169406E+02 0.  0.
          1    1    3    3  502    0 -0.10286121158E+02  0.99522131091E+01  0.12006811028E+03  0.12091816216E+03  0.00000000000E+00 0. -1.
         -1    1    3    3    0  502 -0.19166666284E+03 -0.13890023852E+03  0.74805847563E+03  0.78461510874E+03  0.00000000000E+00 0.  1.
         11    1    5    5    0    0  0.70281518419E+02 -0.65213776390E+02 -0.16837355985E+03  0.19375753952E+03  0.00000000000E+00 0.  1.
        -11    1    5    5    0    0  0.70394641940E+02 -0.15719836610E+03 -0.14104531156E+03  0.22262190331E+03  0.00000000000E+00 0. -1.
          4    1    6    6  503    0  0.28099896292E+02  0.23277008355E+03 -0.30338179987E+03  0.38342148148E+03  0.00000000000E+00 0.  1.
         -4    1    6    6    0  503  0.33176727346E+02  0.11859008436E+03 -0.73459636366E+02  0.14338975389E+03  0.00000000000E+00 0. -1.
<mgrwt>
<rscale>  0 0.43836916E+03</rscale>
<asrwt>0</asrwt>
<pdfrwt beam="1">  1        1 0.15619925E+00 0.43836916E+03</pdfrwt>
<pdfrwt beam="2">  1       -1 0.12821982E+00 0.43836916E+03</pdfrwt>
<totfact> 0.84764650E+00</totfact>
</mgrwt>
</event>
<event>
12    1  0.1418317E-007  0.7439424E+03  0.7818608E-02  0.9644902E-01
          2   -1    0    0  501    0  0.00000000000E+00  0.00000000000E+00  0.10975322269E+04  0.10975322269E+04  0.00000000000E+00 0. -1.
         -2   -1    0    0    0  501 -0.00000000000E+00 -0.00000000000E+00 -0.56569541105E+03  0.56569541105E+03  0.00000000000E+00 0.  1.
         23    2    1    2    0    0  0.64819337811E+03  0.10362696276E+02  0.48920191406E+02  0.65656004516E+03  0.91738034013E+02 0.  0.
    5000000    2    1    2    0    0 -0.64819337811E+03 -0.10362696276E+02  0.48291662446E+03  0.10066675928E+04  0.59992427466E+03 0.  0.
         23    2    4    4    0    0 -0.56012039000E+03 -0.20124944049E+03  0.18784141134E+03  0.63064739420E+03  0.90529284788E+02 0.  0.
         23    2    4    4    0    0 -0.88072988103E+02  0.19088674421E+03  0.29507521312E+03  0.37602019861E+03  0.10063403008E+03 0.  0.
          3    1    3    3  502    0  0.17768472104E+03  0.43761867384E+02  0.10108877530E+02  0.18327343107E+03  0.00000000000E+00 0. -1.
         -3    1    3    3    0  502  0.47050865706E+03 -0.33399171108E+02  0.38811313876E+02  0.47328661410E+03  0.00000000000E+00 0.  1.
         11    1    5    5    0    0 -0.32660327551E+03 -0.15836063392E+03  0.13612711673E+03  0.38765755746E+03  0.00000000000E+00 0. -1.
        -11    1    5    5    0    0 -0.23351711450E+03 -0.42888806567E+02  0.51714294605E+02  0.24298983674E+03  0.00000000000E+00 0.  1.
          2    1    6    6  503    0  0.21456056267E+02  0.17351731010E+02  0.41051560659E+02  0.49463881288E+02  0.00000000000E+00 0. -1.
         -2    1    6    6    0  503 -0.10952904437E+03  0.17353501320E+03  0.25402365246E+03  0.32655631732E+03  0.00000000000E+00 0.  1.
<mgrwt>
<rscale>  0 0.74394240E+03</rscale>
<asrwt>0</asrwt>
<pdfrwt beam="1">  1        2 0.16885111E+00 0.74394240E+03</pdfrwt>
<pdfrwt beam="2">  1       -2 0.87030064E-01 0.74394240E+03</pdfrwt>
<totfact> 0.25411646E+01</totfact>
</mgrwt>
</event>
<event>
12    1  0.1418317E-007  0.7303509E+03  0.7818608E-02  0.9666691E-01
          2   -1    0    0  501    0  0.00000000000E+00  0.00000000000E+00  0.31379598193E+04  0.31379598193E+04  0.00000000000E+00 0. -1.
         -2   -1    0    0    0  501 -0.00000000000E+00 -0.00000000000E+00 -0.36186929980E+03  0.36186929980E+03  0.00000000000E+00 0.  1.
         23    2    1    2    0    0 -0.26917055432E+02  0.60794652837E+03  0.21195163392E+02  0.61544191851E+03  0.89420416444E+02 0.  0.
    5000000    2    1    2    0    0  0.26917055432E+02 -0.60794652837E+03  0.27548953561E+04  0.28843872006E+04  0.59993132154E+03 0.  0.
         23    2    4    4    0    0 -0.23365055251E+03 -0.88578189189E+02  0.81104414230E+03  0.85353850590E+03  0.91086244935E+02 0.  0.
         23    2    4    4    0    0  0.26056760794E+03 -0.51936833918E+03  0.19438512138E+04  0.20308486947E+04  0.90276958323E+02 0.  0.
          1    1    3    3  502    0  0.23086498392E+02  0.40185547008E+03  0.22195157640E+01  0.40252419989E+03  0.00000000000E+00 0. -1.
         -1    1    3    3    0  502 -0.50003553824E+02  0.20609105829E+03  0.18975647628E+02  0.21291771863E+03  0.00000000000E+00 0.  1.
         13    1    5    5    0    0 -0.78112971677E+02  0.13052134952E+02  0.27690126378E+03  0.28800400076E+03  0.00000000000E+00 0. -1.
        -13    1    5    5    0    0 -0.15553758083E+03 -0.10163032414E+03  0.53414287851E+03  0.56553450514E+03  0.00000000000E+00 0.  1.
          4    1    6    6  503    0  0.14798439235E+03 -0.28627119056E+03  0.12298727487E+04  0.12713919746E+04  0.00000000000E+00 0. -1.
         -4    1    6    6    0  503  0.11258321560E+03 -0.23309714862E+03  0.71397846509E+03  0.75945672012E+03  0.00000000000E+00 0.  1.
<mgrwt>
<rscale>  0 0.73035093E+03</rscale>
<asrwt>0</asrwt>
<pdfrwt beam="1">  1        2 0.48276303E+00 0.73035093E+03</pdfrwt>
<pdfrwt beam="2">  1       -2 0.55672202E-01 0.73035093E+03</pdfrwt>
<totfact> 0.46370911E+00</totfact>
</mgrwt>
</event>
<event>
12    1  0.1418317E-007  0.7682885E+03  0.7818608E-02  0.9607088E-01
         -2   -1    0    0    0  501 -0.00000000000E+00  0.00000000000E+00  0.19466288640E+03  0.19466288640E+03  0.00000000000E+00 0.  1.
          2   -1    0    0  501    0  0.00000000000E+00 -0.00000000000E+00 -0.34506776197E+04  0.34506776197E+04  0.00000000000E+00 0. -1.
         23    2    1    2    0    0  0.55164127658E+03  0.44090963216E+03 -0.13673436412E+04  0.15412626211E+04  0.84572054577E+02 0.  0.
    5000000    2    1    2    0    0 -0.55164127658E+03 -0.44090963216E+03 -0.18886710921E+04  0.21040778850E+04  0.60112881323E+03 0.  0.
         23    2    4    4    0    0  0.41198636614E+01  0.43673795232E+02 -0.36057640504E+02  0.10800006729E+03  0.91866682911E+02 0.  0.
         23    2    4    4    0    0 -0.55576114024E+03 -0.48458342739E+03 -0.18526134516E+04  0.19960778177E+04  0.91970158583E+02 0.  0.
          1    1    3    3  502    0  0.23652544272E+03  0.24089248840E+03 -0.67538805333E+03  0.75506456585E+03  0.00000000000E+00 0. -1.
         -1    1    3    3    0  502  0.31511583385E+03  0.20001714375E+03 -0.69195558785E+03  0.78619805526E+03  0.00000000000E+00 0.  1.
         13    1    5    5    0    0  0.38246570031E+02  0.28068036777E+02 -0.49098024685E+02  0.68273207305E+02  0.00000000000E+00 0. -1.
        -13    1    5    5    0    0 -0.34126706370E+02  0.15605758454E+02  0.13040384181E+02  0.39726859984E+02  0.00000000000E+00 0.  1.
          4    1    6    6  503    0 -0.30362868170E+03 -0.31119075760E+03 -0.11634946360E+04  0.12420748093E+04  0.00000000000E+00 0. -1.
         -4    1    6    6    0  503 -0.25213245854E+03 -0.17339266979E+03 -0.68911881565E+03  0.75400300839E+03  0.00000000000E+00 0.  1.
<mgrwt>
<rscale>  0 0.76828851E+03</rscale>
<asrwt>0</asrwt>
<pdfrwt beam="1">  1        2 0.53087346E+00 0.76828851E+03</pdfrwt>
<pdfrwt beam="2">  1       -2 0.29948138E-01 0.76828851E+03</pdfrwt>
<totfact> 0.97231524E+00</totfact>
</mgrwt>
</event>
<event>
12    1  0.1418317E-007  0.4194902E+03  0.7818608E-02  0.1037232E+00
          2   -1    0    0  501    0  0.00000000000E+00  0.00000000000E+00  0.23809131697E+04  0.23809131697E+04  0.00000000000E+00 0. -1.
         -2   -1    0    0    0  501 -0.00000000000E+00 -0.00000000000E+00 -0.10570328956E+03  0.10570328956E+03  0.00000000000E+00 0.  1.
         23    2    1    2    0    0 -0.34587240676E+02 -0.25888801428E+03  0.31814835762E+03  0.42305707218E+03  0.97671017791E+02 0.  0.
    5000000    2    1    2    0    0  0.34587240676E+02  0.25888801428E+03  0.19570615225E+04  0.20635593870E+04  0.59997354934E+03 0.  0.
         23    2    4    4    0    0  0.22953794975E+03  0.28973315346E+03  0.79728383160E+03  0.88362905688E+03  0.92227064595E+02 0.  0.
         23    2    4    4    0    0 -0.19495070907E+03 -0.30845139179E+02  0.11597776909E+04  0.11799303302E+04  0.90521214020E+02 0.  0.
          3    1    3    3  502    0  0.58117530046E+01 -0.63704200158E+02  0.25250652317E+02  0.68772065791E+02  0.00000000000E+00 0. -1.
         -3    1    3    3    0  502 -0.40398993681E+02 -0.19518381412E+03  0.29289770530E+03  0.35428500639E+03  0.00000000000E+00 0.  1.
         13    1    5    5    0    0  0.22961589023E+03  0.25903163483E+03  0.68883158819E+03  0.77091491215E+03  0.00000000000E+00 0. -1.
        -13    1    5    5    0    0 -0.77940486314E-01  0.30701518622E+02  0.10845224341E+03  0.11271414473E+03  0.00000000000E+00 0.  1.
          3    1    6    6  503    0 -0.16957288991E+03 -0.34930379835E+02  0.76634321451E+03  0.78565706187E+03  0.00000000000E+00 0. -1.
         -3    1    6    6    0  503 -0.25377819157E+02  0.40852406567E+01  0.39343447637E+03  0.39427326830E+03  0.00000000000E+00 0.  1.
<mgrwt>
<rscale>  0 0.41949020E+03</rscale>
<asrwt>0</asrwt>
<pdfrwt beam="1">  1        2 0.36629429E+00 0.41949020E+03</pdfrwt>
<pdfrwt beam="2">  1       -2 0.16262046E-01 0.41949020E+03</pdfrwt>
<totfact> 0.13505022E+02</totfact>
</mgrwt>
</event>
<event>
12    1  0.1418317E-007  0.8113636E+03  0.7818608E-02  0.9543713E-01
          1   -1    0    0  501    0  0.00000000000E+00  0.00000000000E+00  0.20453708764E+04  0.20453708764E+04  0.00000000000E+00 0. -1.
         -1   -1    0    0    0  501 -0.00000000000E+00 -0.00000000000E+00 -0.46596499769E+03  0.46596499769E+03  0.00000000000E+00 0.  1.
         23    2    1    2    0    0 -0.73678163683E+03  0.22782030613E+03  0.12660936305E+04  0.14858088382E+04  0.99426104147E+02 0.  0.
    5000000    2    1    2    0    0  0.73678163683E+03 -0.22782030613E+03  0.31331224821E+03  0.10255270359E+04  0.59899237410E+03 0.  0.
         23    2    4    4    0    0  0.45199301099E+03  0.23264982824E+02 -0.84351119955E+02  0.46814927702E+03  0.84909909479E+02 0.  0.
         23    2    4    4    0    0  0.28478862584E+03 -0.25108528895E+03  0.39766336816E+03  0.55737775888E+03  0.91571982500E+02 0.  0.
          1    1    3    3  502    0 -0.18239450891E+03  0.12416299669E+02  0.29615724497E+03  0.34803884141E+03  0.00000000000E+00 0. -1.
         -1    1    3    3    0  502 -0.55438712792E+03  0.21540400646E+03  0.96993638550E+03  0.11377699968E+04  0.00000000000E+00 0.  1.
         11    1    5    5    0    0  0.22867227258E+03 -0.10462954150E+02 -0.56653741619E+01  0.22898161088E+03  0.00000000000E+00 0.  1.
        -11    1    5    5    0    0  0.22332073841E+03  0.33727936974E+02 -0.78685745793E+02  0.23916766614E+03  0.00000000000E+00 0. -1.
          3    1    6    6  503    0  0.10411503024E+03 -0.15224040665E+03  0.17958700057E+03  0.25742682788E+03  0.00000000000E+00 0. -1.
         -3    1    6    6    0  503  0.18067359560E+03 -0.98844882297E+02  0.21807636760E+03  0.29995093100E+03  0.00000000000E+00 0.  1.
<mgrwt>
<rscale>  0 0.81136363E+03</rscale>
<asrwt>0</asrwt>
<pdfrwt beam="1">  1        1 0.31467244E+00 0.81136363E+03</pdfrwt>
<pdfrwt beam="2">  1       -1 0.71686924E-01 0.81136363E+03</pdfrwt>
<totfact> 0.56673615E+00</totfact>
</mgrwt>
</event>
<event>
12    1  0.1418317E-007  0.3766279E+03  0.7818608E-02  0.1052187E+00
          1   -1    0    0  501    0  0.00000000000E+00  0.00000000000E+00  0.78995313121E+03  0.78995313121E+03  0.00000000000E+00 0. -1.
         -1   -1    0    0    0  501 -0.00000000000E+00 -0.00000000000E+00 -0.19123181295E+03  0.19123181295E+03  0.00000000000E+00 0.  1.
         23    2    1    2    0    0  0.13357168249E+03  0.22760041172E+02  0.12529149332E+03  0.20497040359E+03  0.89193577189E+02 0.  0.
    5000000    2    1    2    0    0 -0.13357168249E+03 -0.22760041172E+02  0.47342982494E+03  0.77621454057E+03  0.60001149990E+03 0.  0.
         23    2    4    4    0    0  0.61806229805E+02 -0.26470022289E+03  0.27003697256E+03  0.39455252874E+03  0.94156854989E+02 0.  0.
         23    2    4    4    0    0 -0.19537791230E+03  0.24194018172E+03  0.20339285238E+03  0.38166201183E+03  0.87118647452E+02 0.  0.
          1    1    3    3  502    0  0.71901262623E+02 -0.31512641204E+02  0.75444649340E+02  0.10887944359E+03  0.00000000000E+00 0. -1.
         -1    1    3    3    0  502  0.61670419868E+02  0.54272682376E+02  0.49846843981E+02  0.96090960001E+02  0.00000000000E+00 0.  1.
         13    1    5    5    0    0  0.21475272963E+02 -0.19501657908E+02  0.20427784939E+01  0.29080490951E+02  0.00000000000E+00 0.  1.
        -13    1    5    5    0    0  0.40330956842E+02 -0.24519856498E+03  0.26799419407E+03  0.36547203779E+03  0.00000000000E+00 0. -1.
          2    1    6    6  503    0 -0.98384550824E+02  0.16141691008E+03  0.80024225923E+02  0.20527741092E+03  0.00000000000E+00 0.  1.
         -2    1    6    6    0  503 -0.96993361472E+02  0.80523271643E+02  0.12336862645E+03  0.17638460091E+03  0.00000000000E+00 0. -1.
<mgrwt>
<rscale>  0 0.37662788E+03</rscale>
<asrwt>0</asrwt>
<pdfrwt beam="1">  1        1 0.12153125E+00 0.37662788E+03</pdfrwt>
<pdfrwt beam="2">  1       -1 0.29420279E-01 0.37662788E+03</pdfrwt>
<totfact> 0.24750931E+02</totfact>
</mgrwt>
</event>
<event>
12    1  0.1418317E-007  0.5893545E+03  0.7818608E-02  0.9927742E-01
          2   -1    0    0  501    0  0.00000000000E+00  0.00000000000E+00  0.49820606185E+03  0.49820606185E+03  0.00000000000E+00 0. -1.
         -2   -1    0    0    0  501 -0.00000000000E+00 -0.00000000000E+00 -0.86442199257E+03  0.86442199257E+03  0.00000000000E+00 0.  1.
         23    2    1    2    0    0 -0.32144409116E+03 -0.37110898224E+03 -0.30500600966E+03  0.58492056713E+03  0.89750896845E+02 0.  0.
    5000000    2    1    2    0    0  0.32144409116E+03  0.37110898224E+03 -0.61209921057E+02  0.77770748729E+03  0.60002841674E+03 0.  0.
         23    2    4    4    0    0  0.39312906034E+03  0.39307691857E+03  0.10458086939E+03  0.57294394016E+03  0.90926774586E+02 0.  0.
         23    2    4    4    0    0 -0.71684969173E+02 -0.21967936329E+02 -0.16579079044E+03  0.20476354712E+03  0.93915914530E+02 0.  0.
          3    1    3    3  502    0 -0.20454860653E+03 -0.17461538826E+03 -0.14202419236E+03  0.30414065408E+03  0.00000000000E+00 0. -1.
         -3    1    3    3    0  502 -0.11689548464E+03 -0.19649359398E+03 -0.16298181730E+03  0.28077991306E+03  0.00000000000E+00 0.  1.
         13    1    5    5    0    0  0.20573118558E+03  0.26612741857E+03  0.49612288880E+02  0.34001544501E+03  0.00000000000E+00 0.  1.
        -13    1    5    5    0    0  0.18739787476E+03  0.12694950000E+03  0.54968580506E+02  0.23292849516E+03  0.00000000000E+00 0. -1.
          1    1    6    6  503    0  0.21843411182E+02 -0.10300397970E+02 -0.49467256044E+02  0.55047636016E+02  0.00000000000E+00 0. -1.
         -1    1    6    6    0  503 -0.93528380354E+02 -0.11667538359E+02 -0.11632353440E+03  0.14971591111E+03  0.00000000000E+00 0.  1.
<mgrwt>
<rscale>  0 0.58935446E+03</rscale>
<asrwt>0</asrwt>
<pdfrwt beam="1">  1        2 0.76647087E-01 0.58935446E+03</pdfrwt>
<pdfrwt beam="2">  1       -2 0.13298800E+00 0.58935446E+03</pdfrwt>
<totfact> 0.26047403E+01</totfact>
</mgrwt>
</event>
<event>
12    1  0.1418317E-007  0.9250883E+03  0.7818608E-02  0.9394752E-01
         -2   -1    0    0    0  501 -0.00000000000E+00  0.00000000000E+00  0.21353060959E+03  0.21353060959E+03  0.00000000000E+00 0.  1.
          2   -1    0    0  501    0  0.00000000000E+00 -0.00000000000E+00 -0.41173178317E+04  0.41173178317E+04  0.00000000000E+00 0. -1.
         23    2    1    2    0    0  0.24179932882E+03 -0.79330394370E+03 -0.14632147985E+04  0.16842728677E+04  0.89327956126E+02 0.  0.
    5000000    2    1    2    0    0 -0.24179932882E+03  0.79330394370E+03 -0.24405724236E+04  0.26465755736E+04  0.60014202438E+03 0.  0.
         23    2    4    4    0    0  0.34203358850E+01  0.75768380747E+03 -0.18637926256E+04  0.20137655877E+04  0.86211600327E+02 0.  0.
         23    2    4    4    0    0 -0.24521966471E+03  0.35620136230E+02 -0.57677979799E+03  0.63280998592E+03  0.79825214361E+02 0.  0.
          4    1    3    3  502    0  0.15426414029E+03 -0.35746070973E+03 -0.66224933844E+03  0.76821206073E+03  0.00000000000E+00 0.  1.
         -4    1    3    3    0  502  0.87535188530E+02 -0.43584323397E+03 -0.80096546004E+03  0.91606080694E+03  0.00000000000E+00 0. -1.
         11    1    5    5    0    0 -0.38690806365E+02  0.41854542563E+03 -0.10644046011E+04  0.11443925929E+04  0.00000000000E+00 0. -1.
        -11    1    5    5    0    0  0.42111142250E+02  0.33913838184E+03 -0.79938802457E+03  0.86937299485E+03  0.00000000000E+00 0.  1.
          1    1    6    6  503    0 -0.19428830536E+03  0.51286971985E+02 -0.50422132205E+03  0.54278673594E+03  0.00000000000E+00 0. -1.
         -1    1    6    6    0  503 -0.50931359347E+02 -0.15666835755E+02 -0.72558475934E+02  0.90023249982E+02  0.00000000000E+00 0.  1.
<mgrwt>
<rscale>  0 0.92508830E+03</rscale>
<asrwt>0</asrwt>
<pdfrwt beam="1">  1        2 0.63343348E+00 0.92508830E+03</pdfrwt>
<pdfrwt beam="2">  1       -2 0.32850865E-01 0.92508830E+03</pdfrwt>
<totfact> 0.25389413E+00</totfact>
</mgrwt>
</event>
<event>
12    1  0.1418317E-007  0.6121389E+03  0.7818608E-02  0.9880537E-01
          1   -1    0    0  501    0  0.00000000000E+00  0.00000000000E+00  0.16390228585E+04  0.16390228585E+04  0.00000000000E+00 0. -1.
         -1   -1    0    0    0  501 -0.00000000000E+00 -0.00000000000E+00 -0.33743321271E+03  0.33743321271E+03  0.00000000000E+00 0.  1.
         23    2    1    2    0    0  0.43661476680E+02 -0.46159591680E+03  0.10923797383E+04  0.11901474464E+04  0.90445213094E+02 0.  0.
    5000000    2    1    2    0    0 -0.43661476680E+02  0.46159591680E+03  0.20920990740E+03  0.78630862473E+03  0.59961266916E+03 0.  0.
         23    2    4    4    0    0  0.26248223502E+03  0.25869895665E+03  0.11737972331E+03  0.39747078457E+03  0.91558458202E+02 0.  0.
         23    2    4    4    0    0 -0.30614371170E+03  0.20289696015E+03  0.91830184094E+02  0.38883784016E+03  0.88718287740E+02 0.  0.
          2    1    3    3  502    0  0.67620576899E+02 -0.31116202066E+03  0.69117406787E+03  0.76099667385E+03  0.00000000000E+00 0.  1.
         -2    1    3    3    0  502 -0.23959100218E+02 -0.15043389615E+03  0.40120567047E+03  0.42915077258E+03  0.00000000000E+00 0. -1.
         11    1    5    5    0    0  0.22319680108E+03  0.17619804387E+03  0.63415418826E+02  0.29134872236E+03  0.00000000000E+00 0.  1.
        -11    1    5    5    0    0  0.39285433943E+02  0.82500912779E+02  0.53964304481E+02  0.10612206221E+03  0.00000000000E+00 0. -1.
          2    1    6    6  503    0 -0.22452048160E+03  0.19202822425E+03  0.74567854158E+02  0.30470420155E+03  0.00000000000E+00 0. -1.
         -2    1    6    6    0  503 -0.81623230101E+02  0.10868735903E+02  0.17262329936E+02  0.84133638618E+02  0.00000000000E+00 0.  1.
<mgrwt>
<rscale>  0 0.61213894E+03</rscale>
<asrwt>0</asrwt>
<pdfrwt beam="1">  1        1 0.25215736E+00 0.61213894E+03</pdfrwt>
<pdfrwt beam="2">  1       -1 0.51912803E-01 0.61213894E+03</pdfrwt>
<totfact> 0.20728636E+01</totfact>
</mgrwt>
</event>
<event>
12    1  0.1418317E-007  0.7769077E+03  0.7818608E-02  0.9594057E-01
          1   -1    0    0  501    0  0.00000000000E+00  0.00000000000E+00  0.66060676450E+03  0.66060676450E+03  0.00000000000E+00 0. -1.
         -1   -1    0    0    0  501 -0.00000000000E+00 -0.00000000000E+00 -0.14266453653E+04  0.14266453653E+04  0.00000000000E+00 0.  1.
         23    2    1    2    0    0 -0.26378014364E+02  0.73167199326E+03 -0.86297866804E+03  0.11355697543E+04  0.93524221978E+02 0.  0.
    5000000    2    1    2    0    0  0.26378014364E+02 -0.73167199326E+03  0.96940067230E+02  0.95168237548E+03  0.60021851171E+03 0.  0.
         23    2    4    4    0    0  0.18612553109E+03 -0.31867222993E+03  0.27206966532E+03  0.46757673945E+03  0.91713690553E+02 0.  0.
         23    2    4    4    0    0 -0.15974751673E+03 -0.41299976333E+03 -0.17512959809E+03  0.48410563603E+03  0.87176929812E+02 0.  0.
          1    1    3    3  502    0 -0.16721483443E+02  0.52856853330E+03 -0.55577678532E+03  0.76717151766E+03  0.00000000000E+00 0. -1.
         -1    1    3    3    0  502 -0.96565309208E+01  0.20310345996E+03 -0.30720188272E+03  0.36839823667E+03  0.00000000000E+00 0.  1.
         11    1    5    5    0    0  0.15844310074E+03 -0.29737757530E+03  0.21201696585E+03  0.39810655894E+03  0.00000000000E+00 0.  1.
        -11    1    5    5    0    0  0.27682430352E+02 -0.21294654626E+02  0.60052699474E+02  0.69470180509E+02  0.00000000000E+00 0. -1.
          1    1    6    6  503    0 -0.14529380238E+03 -0.41003505564E+03 -0.16152440182E+03  0.46403574027E+03  0.00000000000E+00 0. -1.
         -1    1    6    6    0  503 -0.14453714349E+02 -0.29647076923E+01 -0.13605196267E+02  0.20069895756E+02  0.00000000000E+00 0.  1.
<mgrwt>
<rscale>  0 0.77690771E+03</rscale>
<asrwt>0</asrwt>
<pdfrwt beam="1">  1        1 0.10163181E+00 0.77690771E+03</pdfrwt>
<pdfrwt beam="2">  1       -1 0.21948390E+00 0.77690771E+03</pdfrwt>
<totfact> 0.34155018E+00</totfact>
</mgrwt>
</event>
<event>
12    1  0.1418317E-007  0.4016355E+03  0.7818608E-02  0.1043215E+00
          1   -1    0    0  501    0  0.00000000000E+00  0.00000000000E+00  0.17636067957E+03  0.17636067957E+03  0.00000000000E+00 0. -1.
         -1   -1    0    0    0  501 -0.00000000000E+00 -0.00000000000E+00 -0.12958083281E+04  0.12958083281E+04  0.00000000000E+00 0.  1.
         23    2    1    2    0    0  0.17838312714E+03  0.20601150394E+02 -0.14481708335E+02  0.20205587169E+03  0.91498130931E+02 0.  0.
    5000000    2    1    2    0    0 -0.17838312714E+03 -0.20601150394E+02 -0.11049659402E+04  0.12701131360E+04  0.59999391810E+03 0.  0.
         23    2    4    4    0    0 -0.37529226056E+03  0.51840045268E+02 -0.80007801233E+03  0.88983167962E+03  0.90243676312E+02 0.  0.
         23    2    4    4    0    0  0.19690913342E+03 -0.72441195662E+02 -0.30488792789E+03  0.38028145638E+03  0.87386519818E+02 0.  0.
          4    1    3    3  502    0  0.78051316120E+02  0.48207054531E+02  0.17079203492E+02  0.93314667907E+02  0.00000000000E+00 0. -1.
         -4    1    3    3    0  502  0.10033181102E+03 -0.27605904137E+02 -0.31560911827E+02  0.10874120379E+03  0.00000000000E+00 0.  1.
         11    1    5    5    0    0 -0.14870371314E+03 -0.16267877423E+02 -0.36741711067E+03  0.39670237124E+03  0.00000000000E+00 0. -1.
        -11    1    5    5    0    0 -0.22658854742E+03  0.68107922692E+02 -0.43266090165E+03  0.49312930837E+03  0.00000000000E+00 0.  1.
          3    1    6    6  503    0  0.38796960936E+02 -0.47305959140E+02 -0.12693950326E+03  0.14091378724E+03  0.00000000000E+00 0. -1.
         -3    1    6    6    0  503  0.15811217248E+03 -0.25135236522E+02 -0.17794842463E+03  0.23936766914E+03  0.00000000000E+00 0.  1.
<mgrwt>
<rscale>  0 0.40163546E+03</rscale>
<asrwt>0</asrwt>
<pdfrwt beam="1">  1        1 0.27132413E-01 0.40163546E+03</pdfrwt>
<pdfrwt beam="2">  1       -1 0.19935512E+00 0.40163546E+03</pdfrwt>
<totfact> 0.28509092E+01</totfact>
</mgrwt>
</event>
<event>
12    1  0.1418317E-007  0.6960437E+03  0.7818608E-02  0.9724022E-01
          1   -1    0    0  501    0  0.00000000000E+00  0.00000000000E+00  0.24897704841E+04  0.24897704841E+04  0.00000000000E+00 0. -1.
         -1   -1    0    0    0  501 -0.00000000000E+00 -0.00000000000E+00 -0.31231349870E+03  0.31231349870E+03  0.00000000000E+00 0.  1.
         23    2    1    2    0    0  0.65271590767E+03 -0.19221107560E+03  0.37043397261E+03  0.78012330938E+03  0.91585457692E+02 0.  0.
    5000000    2    1    2    0    0 -0.65271590767E+03  0.19221107560E+03  0.18070230127E+04  0.20219606734E+04  0.60000803527E+03 0.  0.
         23    2    4    4    0    0 -0.37268155645E+03  0.18420324980E+03  0.16177935432E+04  0.16727426791E+04  0.89385358353E+02 0.  0.
         23    2    4    4    0    0 -0.28003435122E+03  0.80078257967E+01  0.18922946957E+03  0.34921799431E+03  0.87533149493E+02 0.  0.
          3    1    3    3  502    0  0.41554998900E+03 -0.14999635185E+03  0.19951827197E+03  0.48475585584E+03  0.00000000000E+00 0. -1.
         -3    1    3    3    0  502  0.23716591867E+03 -0.42214723744E+02  0.17091570064E+03  0.29536745353E+03  0.00000000000E+00 0.  1.
         11    1    5    5    0    0 -0.20409201026E+03  0.14870894588E+03  0.99751318022E+03  0.10289802933E+04  0.00000000000E+00 0.  1.
        -11    1    5    5    0    0 -0.16858954619E+03  0.35494303918E+02  0.62028036295E+03  0.64376238579E+03  0.00000000000E+00 0. -1.
          4    1    6    6  503    0 -0.94101828011E+02 -0.20984939238E+02  0.10649315795E+03  0.14365345245E+03  0.00000000000E+00 0. -1.
         -4    1    6    6    0  503 -0.18593252321E+03  0.28992765034E+02  0.82736311619E+02  0.20556454186E+03  0.00000000000E+00 0.  1.
<mgrwt>
<rscale>  0 0.69604373E+03</rscale>
<asrwt>0</asrwt>
<pdfrwt beam="1">  1        1 0.38304160E+00 0.69604373E+03</pdfrwt>
<pdfrwt beam="2">  1       -1 0.48048232E-01 0.69604373E+03</pdfrwt>
<totfact> 0.63631958E+00</totfact>
</mgrwt>
</event>
<event>
12    1  0.1418317E-007  0.1292545E+04  0.7818608E-02  0.9035498E-01
          1   -1    0    0  501    0  0.00000000000E+00  0.00000000000E+00  0.22980533611E+04  0.22980533611E+04  0.00000000000E+00 0. -1.
         -1   -1    0    0    0  501 -0.00000000000E+00 -0.00000000000E+00 -0.98873352425E+03  0.98873352425E+03  0.00000000000E+00 0.  1.
         23    2    1    2    0    0  0.11644728152E+04  0.44075217628E+03  0.14312865367E+04  0.18992969872E+04  0.92132931159E+02 0.  0.
    5000000    2    1    2    0    0 -0.11644728152E+04 -0.44075217628E+03 -0.12196669988E+03  0.13874898981E+04  0.59999410265E+03 0.  0.
         23    2    4    4    0    0 -0.10906024134E+04 -0.51154650314E+03 -0.55600277142E+01  0.12079824099E+04  0.89984108449E+02 0.  0.
         23    2    4    4    0    0 -0.73870401823E+02  0.70794326858E+02 -0.11640667216E+03  0.17950748820E+03  0.90574566049E+02 0.  0.
          4    1    3    3  502    0  0.77415713935E+03  0.28690732587E+03  0.88208493858E+03  0.12081841453E+04  0.00000000000E+00 0. -1.
         -4    1    3    3    0  502  0.39031567590E+03  0.15384485041E+03  0.54920159812E+03  0.69111284189E+03  0.00000000000E+00 0.  1.
         13    1    5    5    0    0 -0.60136083431E+03 -0.29275199042E+03 -0.46745725332E+02  0.67046531885E+03  0.00000000000E+00 0. -1.
        -13    1    5    5    0    0 -0.48924157911E+03 -0.21879451272E+03  0.41185697618E+02  0.53751709109E+03  0.00000000000E+00 0.  1.
          1    1    6    6  503    0 -0.93641240880E+02  0.66724526483E+02 -0.10763130230E+03  0.15749711637E+03  0.00000000000E+00 0. -1.
         -1    1    6    6    0  503  0.19770839057E+02  0.40698003757E+01 -0.87753698584E+01  0.22010371834E+02  0.00000000000E+00 0.  1.
<mgrwt>
<rscale>  0 0.12925454E+04</rscale>
<asrwt>0</asrwt>
<pdfrwt beam="1">  1        1 0.35354667E+00 0.12925454E+04</pdfrwt>
<pdfrwt beam="2">  1       -1 0.15211285E+00 0.12925454E+04</pdfrwt>
<totfact> 0.61011899E-01</totfact>
</mgrwt>
</event>
<event>
12    1  0.1418317E-007  0.5845943E+03  0.7818608E-02  0.9937894E-01
          2   -1    0    0  501    0  0.00000000000E+00  0.00000000000E+00  0.18457050939E+04  0.18457050939E+04  0.00000000000E+00 0. -1.
         -2   -1    0    0    0  501 -0.00000000000E+00 -0.00000000000E+00 -0.36654782393E+03  0.36654782393E+03  0.00000000000E+00 0.  1.
         23    2    1    2    0    0 -0.39617036870E+03  0.38668329641E+03  0.12409069296E+04  0.13618202199E+04  0.90715878295E+02 0.  0.
    5000000    2    1    2    0    0  0.39617036870E+03 -0.38668329641E+03  0.23825034032E+03  0.85043269790E+03  0.59999801352E+03 0.  0.
         23    2    4    4    0    0  0.14976082117E+03 -0.70793080409E+01  0.33513788866E+03  0.37881077642E+03  0.93283330511E+02 0.  0.
         23    2    4    4    0    0  0.24640954753E+03 -0.37960398837E+03 -0.96887548347E+02  0.47162192148E+03  0.90681788124E+02 0.  0.
          1    1    3    3  502    0 -0.31137562898E+03  0.34532839652E+03  0.98983659310E+03  0.10936100607E+04  0.00000000000E+00 0. -1.
         -1    1    3    3    0  502 -0.84794739721E+02  0.41354899891E+02  0.25107033652E+03  0.26821015922E+03  0.00000000000E+00 0.  1.
         13    1    5    5    0    0  0.83581617594E+02  0.38648815194E+01  0.27920523210E+03  0.29147278731E+03  0.00000000000E+00 0. -1.
        -13    1    5    5    0    0  0.66179203577E+02 -0.10944189560E+02  0.55932656561E+02  0.87337989107E+02  0.00000000000E+00 0.  1.
          1    1    6    6  503    0  0.53213715988E+02 -0.33905165682E+02  0.31018135807E+01  0.63173420650E+02  0.00000000000E+00 0. -1.
         -1    1    6    6    0  503  0.19319583154E+03 -0.34569882268E+03 -0.99989361928E+02  0.40844850083E+03  0.00000000000E+00 0.  1.
<mgrwt>
<rscale>  0 0.58459433E+03</rscale>
<asrwt>0</asrwt>
<pdfrwt beam="1">  1        2 0.28395463E+00 0.58459433E+03</pdfrwt>
<pdfrwt beam="2">  1       -2 0.56391974E-01 0.58459433E+03</pdfrwt>
<totfact> 0.25350614E+01</totfact>
</mgrwt>
</event>
<event>
12    1  0.1418317E-007  0.1051858E+04  0.7818608E-02  0.9253428E-01
         -1   -1    0    0    0  501 -0.00000000000E+00  0.00000000000E+00  0.91754573734E+03  0.91754573734E+03  0.00000000000E+00 0.  1.
          1   -1    0    0  501    0  0.00000000000E+00 -0.00000000000E+00 -0.21315561355E+04  0.21315561355E+04  0.00000000000E+00 0. -1.
         23    2    1    2    0    0 -0.50386490376E+02  0.97178608214E+03  0.41264722714E+03  0.10609350394E+04  0.91642980437E+02 0.  0.
    5000000    2    1    2    0    0  0.50386490376E+02 -0.97178608214E+03 -0.16266576253E+04  0.19881668335E+04  0.59990444223E+03 0.  0.
         23    2    4    4    0    0 -0.25831215785E+03 -0.44570663545E+03 -0.80636967968E+03  0.96191031879E+03  0.98284410226E+02 0.  0.
         23    2    4    4    0    0  0.30869864823E+03 -0.52607944669E+03 -0.82028794565E+03  0.10262565147E+04  0.90970767348E+02 0.  0.
          2    1    3    3  502    0  0.21425801432E+02  0.24029769329E+03  0.12433385622E+03  0.27140551610E+03  0.00000000000E+00 0. -1.
         -2    1    3    3    0  502 -0.71812291808E+02  0.73148838886E+03  0.28831337093E+03  0.78952952329E+03  0.00000000000E+00 0.  1.
         13    1    5    5    0    0 -0.17171523210E+03 -0.25813975290E+03 -0.40043712361E+03  0.50643078790E+03  0.00000000000E+00 0. -1.
        -13    1    5    5    0    0 -0.86596925749E+02 -0.18756688255E+03 -0.40593255607E+03  0.45547953089E+03  0.00000000000E+00 0.  1.
          1    1    6    6  503    0  0.21362111428E+03 -0.33332124275E+03 -0.59691370355E+03  0.71627020099E+03  0.00000000000E+00 0. -1.
         -1    1    6    6    0  503  0.95077533948E+02 -0.19275820394E+03 -0.22337424209E+03  0.30998631370E+03  0.00000000000E+00 0.  1.
<mgrwt>
<rscale>  0 0.10518578E+04</rscale>
<asrwt>0</asrwt>
<pdfrwt beam="1">  1        1 0.32793171E+00 0.10518578E+04</pdfrwt>
<pdfrwt beam="2">  1       -1 0.14116089E+00 0.10518578E+04</pdfrwt>
<totfact> 0.99950588E-01</totfact>
</mgrwt>
</event>
<event>
12    1  0.1418317E-007  0.8056621E+03  0.7818608E-02  0.9551857E-01
         -2   -1    0    0    0  501 -0.00000000000E+00  0.00000000000E+00  0.13333192160E+04  0.13333192160E+04  0.00000000000E+00 0.  1.
          2   -1    0    0  501    0  0.00000000000E+00 -0.00000000000E+00 -0.75163906044E+03  0.75163906044E+03  0.00000000000E+00 0. -1.
         23    2    1    2    0    0  0.53064400610E+03 -0.57845953554E+03 -0.21137241298E+03  0.81803232767E+03  0.91104866385E+02 0.  0.
    5000000    2    1    2    0    0 -0.53064400610E+03  0.57845953554E+03  0.79305256850E+03  0.12669259487E+04  0.59997540592E+03 0.  0.
         23    2    4    4    0    0 -0.45143218634E+02  0.13313180605E+03  0.52248165410E+03  0.54894064275E+03  0.92664785207E+02 0.  0.
         23    2    4    4    0    0 -0.48550078747E+03  0.44532772949E+03  0.27057091441E+03  0.71798530599E+03  0.90920177172E+02 0.  0.
          1    1    3    3  502    0  0.13635136370E+03 -0.93976020258E+02 -0.44142695611E+02  0.17138192536E+03  0.00000000000E+00 0. -1.
         -1    1    3    3    0  502  0.39429264241E+03 -0.48448351528E+03 -0.16722971737E+03  0.64665040231E+03  0.00000000000E+00 0.  1.
         13    1    5    5    0    0  0.14760740566E+02  0.78156468464E+02  0.33975844218E+03  0.34894428217E+03  0.00000000000E+00 0. -1.
        -13    1    5    5    0    0 -0.59903959200E+02  0.54975337590E+02  0.18272321192E+03  0.19999636058E+03  0.00000000000E+00 0.  1.
          2    1    6    6  503    0 -0.13625760355E+03  0.99393840912E+02  0.32340059134E+02  0.17172987382E+03  0.00000000000E+00 0. -1.
         -2    1    6    6    0  503 -0.34924318392E+03  0.34593388858E+03  0.23823085527E+03  0.54625543218E+03  0.00000000000E+00 0.  1.
<mgrwt>
<rscale>  0 0.80566209E+03</rscale>
<asrwt>0</asrwt>
<pdfrwt beam="1">  1        2 0.11563678E+00 0.80566209E+03</pdfrwt>
<pdfrwt beam="2">  1       -2 0.20512603E+00 0.80566209E+03</pdfrwt>
<totfact> 0.46732908E+00</totfact>
</mgrwt>
</event>
<event>
12    1  0.1418317E-007  0.5311303E+03  0.7818608E-02  0.1005958E+00
         -2   -1    0    0    0  501 -0.00000000000E+00  0.00000000000E+00  0.98770549571E+02  0.98770549571E+02  0.00000000000E+00 0. -1.
          2   -1    0    0  501    0  0.00000000000E+00 -0.00000000000E+00 -0.32805371402E+04  0.32805371402E+04  0.00000000000E+00 0.  1.
         23    2    1    2    0    0  0.10285530050E+03 -0.35141895023E+03 -0.64879771472E+03  0.75067132062E+03  0.92165424980E+02 0.  0.
    5000000    2    1    2    0    0 -0.10285530050E+03  0.35141895023E+03 -0.25329688760E+04  0.26286363692E+04  0.59976940858E+03 0.  0.
         23    2    4    4    0    0 -0.26096212562E+03 -0.31416619989E+02 -0.97497217074E+03  0.10138422258E+04  0.90648166148E+02 0.  0.
         23    2    4    4    0    0  0.15810682513E+03  0.38283557022E+03 -0.15579967052E+04  0.16147941434E+04  0.92981450713E+02 0.  0.
          2    1    3    3  502    0  0.55590169560E+02 -0.28290520000E+03 -0.55388618783E+03  0.62443216462E+03  0.00000000000E+00 0. -1.
         -2    1    3    3    0  502  0.47265130935E+02 -0.68513750232E+02 -0.94911526887E+02  0.12623915601E+03  0.00000000000E+00 0.  1.
         13    1    5    5    0    0 -0.93247012184E+02  0.29535290116E+02 -0.29223445743E+03  0.30816929885E+03  0.00000000000E+00 0. -1.
        -13    1    5    5    0    0 -0.16771511344E+03 -0.60951910105E+02 -0.68273771330E+03  0.70567292692E+03  0.00000000000E+00 0.  1.
          3    1    6    6  503    0  0.11272618452E+03  0.28932261160E+03 -0.99644788160E+03  0.10437064468E+04  0.00000000000E+00 0. -1.
         -3    1    6    6    0  503  0.45380640614E+02  0.93512958617E+02 -0.56154882362E+03  0.57108769667E+03  0.00000000000E+00 0.  1.
<mgrwt>
<rscale>  0 0.53113033E+03</rscale>
<asrwt>0</asrwt>
<pdfrwt beam="1">  1        2 0.50469809E+00 0.53113033E+03</pdfrwt>
<pdfrwt beam="2">  1       -2 0.15195467E-01 0.53113033E+03</pdfrwt>
<totfact> 0.43669246E+01</totfact>
</mgrwt>
</event>
<event>
12    1  0.1604462E-007  0.7535459E+03  0.7818608E-02  0.9629804E-01
         -2   -1    0    0    0  501 -0.00000000000E+00  0.00000000000E+00  0.62406263453E+03  0.62406263453E+03  0.00000000000E+00 0.  1.
          2   -1    0    0  501    0  0.00000000000E+00 -0.00000000000E+00 -0.22146305782E+04  0.22146305782E+04  0.00000000000E+00 0. -1.
         23    2    1    2    0    0  0.64895079317E+03  0.23106573900E+03  0.28610014868E+03  0.75150789492E+03  0.91554974583E+02 0.  0.
    5000000    2    1    2    0    0 -0.64895079317E+03 -0.23106573900E+03 -0.18766680923E+04  0.20871853178E+04  0.59994242584E+03 0.  0.
         23    2    4    4    0    0 -0.12306578119E+03  0.12003384314E+03 -0.89595417102E+03  0.91689784513E+03  0.91730430236E+02 0.  0.
         23    2    4    4    0    0 -0.52588501197E+03 -0.35109958213E+03 -0.98071392129E+03  0.11702874726E+04  0.89146008402E+02 0.  0.
          2    1    3    3  502    0  0.29131744068E+03  0.75823596058E+02  0.16489555015E+03  0.34322822061E+03  0.00000000000E+00 0. -1.
         -2    1    3    3    0  502  0.35763335249E+03  0.15524214294E+03  0.12120459853E+03  0.40827967432E+03  0.00000000000E+00 0.  1.
         13    1    5    5    0    0 -0.15748534456E+02 -0.13089804150E+01 -0.26533633706E+03  0.26580651145E+03  0.00000000000E+00 0. -1.
        -13    1    5    5    0    0 -0.10731724674E+03  0.12134282355E+03 -0.63061783396E+03  0.65109133368E+03  0.00000000000E+00 0.  1.
          4    1    6    6  503    0 -0.98787992266E+02 -0.11040557605E+03 -0.23914628218E+03  0.28131726381E+03  0.00000000000E+00 0. -1.
         -4    1    6    6    0  503 -0.42709701971E+03 -0.24069400609E+03 -0.74156763911E+03  0.88897020883E+03  0.00000000000E+00 0.  1.
<mgrwt>
<rscale>  0 0.75354586E+03</rscale>
<asrwt>0</asrwt>
<pdfrwt beam="1">  1        2 0.34071239E+00 0.75354586E+03</pdfrwt>
<pdfrwt beam="2">  1       -2 0.96009638E-01 0.75354586E+03</pdfrwt>
<totfact> 0.47958259E+00</totfact>
</mgrwt>
</event>
<event>
12    1  0.1418317E-007  0.1285567E+04  0.7818608E-02  0.9041090E-01
          2   -1    0    0  501    0  0.00000000000E+00  0.00000000000E+00  0.31380004765E+04  0.31380004765E+04  0.00000000000E+00 0. -1.
         -2   -1    0    0    0  501 -0.00000000000E+00 -0.00000000000E+00 -0.59838199387E+03  0.59838199387E+03  0.00000000000E+00 0.  1.
         23    2    1    2    0    0 -0.12371913380E+04 -0.18425981511E+03  0.17077137811E+04  0.21187257098E+04  0.90100993851E+02 0.  0.
    5000000    2    1    2    0    0  0.12371913380E+04  0.18425981511E+03  0.83190470156E+03  0.16176567605E+04  0.60012821632E+03 0.  0.
         23    2    4    4    0    0  0.12080723002E+04  0.17280037016E+03  0.88209768313E+03  0.15086179880E+04  0.92375650652E+02 0.  0.
         23    2    4    4    0    0  0.29119037860E+02  0.11459444955E+02 -0.50192981575E+02  0.10903877250E+03  0.91601753608E+02 0.  0.
          1    1    3    3  502    0 -0.83204770613E+03 -0.14976563300E+03  0.12088573958E+04  0.14751506139E+04  0.00000000000E+00 0. -1.
         -1    1    3    3    0  502 -0.40514363190E+03 -0.34494182115E+02  0.49885638522E+03  0.64357509596E+03  0.00000000000E+00 0.  1.
         11    1    5    5    0    0  0.25417918248E+03  0.73965627706E+02  0.20018143535E+03  0.33188940620E+03  0.00000000000E+00 0. -1.
        -11    1    5    5    0    0  0.95389311769E+03  0.98834742449E+02  0.68191624778E+03  0.11767285818E+04  0.00000000000E+00 0.  1.
          4    1    6    6  503    0 -0.10579129761E+01  0.47989238554E+02 -0.15962784074E+02  0.50585538173E+02  0.00000000000E+00 0. -1.
         -4    1    6    6    0  503  0.30176950836E+02 -0.36529793599E+02 -0.34230197501E+02  0.58453234326E+02  0.00000000000E+00 0.  1.
<mgrwt>
<rscale>  0 0.12855668E+04</rscale>
<asrwt>0</asrwt>
<pdfrwt beam="1">  1        2 0.48276930E+00 0.12855668E+04</pdfrwt>
<pdfrwt beam="2">  1       -2 0.92058770E-01 0.12855668E+04</pdfrwt>
<totfact> 0.14028031E+00</totfact>
</mgrwt>
</event>
<event>
12    1  0.1418317E-007  0.5488375E+03  0.7818608E-02  0.1001763E+00
         -2   -1    0    0    0  501 -0.00000000000E+00  0.00000000000E+00  0.85533095546E+03  0.85533095546E+03  0.00000000000E+00 0.  1.
          2   -1    0    0  501    0  0.00000000000E+00 -0.00000000000E+00 -0.41301114549E+03  0.41301114549E+03  0.00000000000E+00 0. -1.
         23    2    1    2    0    0 -0.26912310460E+03  0.28767220951E+03  0.36809956189E+03  0.54681584233E+03  0.91256410216E+02 0.  0.
    5000000    2    1    2    0    0  0.26912310460E+03 -0.28767220951E+03  0.74220248078E+02  0.72152625862E+03  0.59992412112E+03 0.  0.
         23    2    4    4    0    0 -0.16639083141E+03 -0.42806651466E+02  0.88172215037E+02  0.21325609812E+03  0.90473784568E+02 0.  0.
         23    2    4    4    0    0  0.43551393601E+03 -0.24486555804E+03 -0.13951966959E+02  0.50827016051E+03  0.92262498927E+02 0.  0.
          1    1    3    3  502    0 -0.13077322016E+03  0.86779758219E+02  0.17982848389E+03  0.23868524287E+03  0.00000000000E+00 0. -1.
         -1    1    3    3    0  502 -0.13834988444E+03  0.20089245129E+03  0.18827107800E+03  0.30813059946E+03  0.00000000000E+00 0.  1.
         11    1    5    5    0    0 -0.14975461821E+03 -0.16290453955E+01  0.68007710349E+02  0.16448145224E+03  0.00000000000E+00 0.  1.
        -11    1    5    5    0    0 -0.16636213197E+02 -0.41177606071E+02  0.20164504688E+02  0.48774645879E+02  0.00000000000E+00 0. -1.
          1    1    6    6  503    0  0.36524914330E+03 -0.18082168285E+03  0.18046842837E+02  0.40795723576E+03  0.00000000000E+00 0. -1.
         -1    1    6    6    0  503  0.70264792707E+02 -0.64043875186E+02 -0.31998809796E+02  0.10031292475E+03  0.00000000000E+00 0.  1.
<mgrwt>
<rscale>  0 0.54883753E+03</rscale>
<asrwt>0</asrwt>
<pdfrwt beam="1">  1        2 0.63540176E-01 0.54883753E+03</pdfrwt>
<pdfrwt beam="2">  1       -2 0.13158938E+00 0.54883753E+03</pdfrwt>
<totfact> 0.33235007E+01</totfact>
</mgrwt>
</event>
<event>
12    1  0.1418317E-007  0.1160891E+04  0.7818608E-02  0.9147794E-01
         -1   -1    0    0    0  501 -0.00000000000E+00  0.00000000000E+00  0.81041437882E+03  0.81041437882E+03  0.00000000000E+00 0.  1.
          1   -1    0    0  501    0  0.00000000000E+00 -0.00000000000E+00 -0.19835005646E+04  0.19835005646E+04  0.00000000000E+00 0. -1.
         23    2    1    2    0    0  0.18313710322E+03  0.10771214275E+04 -0.20647264085E+02  0.10962912895E+04  0.87741175302E+02 0.  0.
    5000000    2    1    2    0    0 -0.18313710322E+03 -0.10771214275E+04 -0.11524389217E+04  0.16976236539E+04  0.60006735791E+03 0.  0.
         23    2    4    4    0    0 -0.18527112105E+03 -0.57005344214E+02 -0.27270001637E+03  0.34747262005E+03  0.93791924988E+02 0.  0.
         23    2    4    4    0    0  0.21340178283E+01 -0.10201160833E+04 -0.87973890536E+03  0.13501510339E+04  0.91246344457E+02 0.  0.
          4    1    3    3  502    0  0.85548918056E+02  0.71872961116E+03  0.68352773492E+01  0.72383533511E+03  0.00000000000E+00 0. -1.
         -4    1    3    3    0  502  0.97588185161E+02  0.35839181632E+03 -0.27482541434E+02  0.37245595440E+03  0.00000000000E+00 0.  1.
         13    1    5    5    0    0 -0.85097512319E+02  0.10129816852E+02 -0.65998514807E+02  0.10816655559E+03  0.00000000000E+00 0. -1.
        -13    1    5    5    0    0 -0.10017360873E+03 -0.67135161066E+02 -0.20670150156E+03  0.23930606445E+03  0.00000000000E+00 0.  1.
          3    1    6    6  503    0  0.87048382610E+01 -0.76555721156E+03 -0.60719983003E+03  0.97716183510E+03  0.00000000000E+00 0. -1.
         -3    1    6    6    0  503 -0.65708204328E+01 -0.25455887171E+03 -0.27253907533E+03  0.37298919881E+03  0.00000000000E+00 0.  1.
<mgrwt>
<rscale>  0 0.11608910E+04</rscale>
<asrwt>0</asrwt>
<pdfrwt beam="1">  1        1 0.30515393E+00 0.11608910E+04</pdfrwt>
<pdfrwt beam="2">  1       -1 0.12467914E+00 0.11608910E+04</pdfrwt>
<totfact> 0.17032670E+00</totfact>
</mgrwt>
</event>
<event>
12    1  0.1418317E-007  0.5364315E+03  0.7818608E-02  0.1004684E+00
          1   -1    0    0  501    0  0.00000000000E+00  0.00000000000E+00  0.29734718734E+03  0.29734718734E+03  0.00000000000E+00 0. -1.
         -1   -1    0    0    0  501 -0.00000000000E+00 -0.00000000000E+00 -0.14772909915E+04  0.14772909915E+04  0.00000000000E+00 0.  1.
         23    2    1    2    0    0  0.93851363602E+02 -0.38849671536E+03 -0.92236118092E+03  0.10090686885E+04  0.87930050715E+02 0.  0.
    5000000    2    1    2    0    0 -0.93851363602E+02  0.38849671536E+03 -0.25758262327E+03  0.76556949032E+03  0.60000838362E+03 0.  0.
         23    2    4    4    0    0 -0.30718232007E+03  0.27343535336E+03 -0.28024051103E+03  0.50586000765E+03  0.90728898827E+02 0.  0.
         23    2    4    4    0    0  0.21333095647E+03  0.11506136201E+03  0.22657887765E+02  0.25970948268E+03  0.90478845594E+02 0.  0.
          2    1    3    3  502    0  0.10110863910E+03 -0.28948430504E+03 -0.63767999714E+03  0.70757324605E+03  0.00000000000E+00 0. -1.
         -2    1    3    3    0  502 -0.72572754939E+01 -0.99012410320E+02 -0.28468118377E+03  0.30149544248E+03  0.00000000000E+00 0.  1.
         11    1    5    5    0    0 -0.32147330222E+02  0.52636013708E+02 -0.12209885768E+02  0.62873540460E+02  0.00000000000E+00 0. -1.
        -11    1    5    5    0    0 -0.27503498985E+03  0.22079933965E+03 -0.26803062526E+03  0.44298646719E+03  0.00000000000E+00 0.  1.
          2    1    6    6  503    0  0.20721470757E+03  0.88505089956E+02  0.37893024959E+02  0.22848844024E+03  0.00000000000E+00 0.  1.
         -2    1    6    6    0  503  0.61162489010E+01  0.26556272051E+02 -0.15235137194E+02  0.31221042443E+02  0.00000000000E+00 0. -1.
<mgrwt>
<rscale>  0 0.53643152E+03</rscale>
<asrwt>0</asrwt>
<pdfrwt beam="1">  1        1 0.45745722E-01 0.53643152E+03</pdfrwt>
<pdfrwt beam="2">  1       -1 0.22727553E+00 0.53643152E+03</pdfrwt>
<totfact> 0.93063771E+00</totfact>
</mgrwt>
</event>
<event>
12    1  0.1418317E-007  0.9532755E+03  0.7818608E-02  0.9361330E-01
         -2   -1    0    0    0  501 -0.00000000000E+00  0.00000000000E+00  0.14157766664E+04  0.14157766664E+04  0.00000000000E+00 0.  1.
          2   -1    0    0  501    0  0.00000000000E+00 -0.00000000000E+00 -0.71799465351E+03  0.71799465351E+03  0.00000000000E+00 0. -1.
         23    2    1    2    0    0  0.55617249334E+03 -0.72538927479E+03  0.38448976595E+03  0.99556716848E+03  0.88341182374E+02 0.  0.
    5000000    2    1    2    0    0 -0.55617249334E+03  0.72538927479E+03  0.31329224698E+03  0.11382041515E+04  0.60153072745E+03 0.  0.
         23    2    4    4    0    0  0.17310988109E+02  0.51913474612E+02  0.21860332783E+03  0.24346981193E+03  0.92170793789E+02 0.  0.
         23    2    4    4    0    0 -0.57348348145E+03  0.67347580017E+03  0.94688919146E+02  0.89473433953E+03  0.95554120850E+02 0.  0.
          4    1    3    3  502    0  0.23910955932E+03 -0.34855374991E+03  0.21884169204E+03  0.47597771388E+03  0.00000000000E+00 0. -1.
         -4    1    3    3    0  502  0.31706293402E+03 -0.37683552488E+03  0.16564807391E+03  0.51958945460E+03  0.00000000000E+00 0.  1.
         13    1    5    5    0    0  0.11687530939E+02 -0.26086424569E+02  0.49530452852E+02  0.57187111188E+02  0.00000000000E+00 0.  1.
        -13    1    5    5    0    0  0.56234571693E+01  0.77999899182E+02  0.16907287498E+03  0.18628270074E+03  0.00000000000E+00 0. -1.
          3    1    6    6  503    0 -0.44278320907E+03  0.52518832115E+03  0.11321591046E+03  0.69620225889E+03  0.00000000000E+00 0. -1.
         -3    1    6    6    0  503 -0.13070027238E+03  0.14828747902E+03 -0.18526991313E+02  0.19853208064E+03  0.00000000000E+00 0.  1.
<mgrwt>
<rscale>  0 0.95327549E+03</rscale>
<asrwt>0</asrwt>
<pdfrwt beam="1">  1        2 0.11046072E+00 0.95327549E+03</pdfrwt>
<pdfrwt beam="2">  1       -2 0.21781179E+00 0.95327549E+03</pdfrwt>
<totfact> 0.40461693E+00</totfact>
</mgrwt>
</event>
<event>
12    1  0.1418317E-007  0.8360789E+03  0.7818608E-02  0.9509214E-01
          2   -1    0    0  501    0  0.00000000000E+00  0.00000000000E+00  0.27038836210E+04  0.27038836210E+04  0.00000000000E+00 0. -1.
         -2   -1    0    0    0  501 -0.00000000000E+00 -0.00000000000E+00 -0.38258282755E+03  0.38258282755E+03  0.00000000000E+00 0.  1.
         23    2    1    2    0    0  0.78297830763E+03  0.20062814145E+03  0.37554551842E+03  0.89575264765E+03  0.89619685328E+02 0.  0.
    5000000    2    1    2    0    0 -0.78297830763E+03 -0.20062814145E+03  0.19457552750E+04  0.21907138009E+04  0.59996390372E+03 0.  0.
         23    2    4    4    0    0 -0.18698224604E+03 -0.17139326777E+03  0.12039892639E+04  0.12338206730E+04  0.91571245249E+02 0.  0.
         23    2    4    4    0    0 -0.59599606159E+03 -0.29234873682E+02  0.74176601113E+03  0.95689312790E+03  0.96755670030E+02 0.  0.
          3    1    3    3  502    0  0.38975834161E+03  0.59887427349E+02  0.20717710513E+03  0.44544407247E+03  0.00000000000E+00 0. -1.
         -3    1    3    3    0  502  0.39321996602E+03  0.14074071410E+03  0.16836841329E+03  0.45030857518E+03  0.00000000000E+00 0.  1.
         11    1    5    5    0    0 -0.55416252802E+02 -0.93469769005E+02  0.35816203705E+03  0.37428278557E+03  0.00000000000E+00 0.  1.
        -11    1    5    5    0    0 -0.13156599324E+03 -0.77923498766E+02  0.84582722683E+03  0.85953788740E+03  0.00000000000E+00 0. -1.
          4    1    6    6  503    0 -0.28346494718E+03 -0.37683788459E+02  0.28804115627E+03  0.40588194330E+03  0.00000000000E+00 0.  1.
         -4    1    6    6    0  503 -0.31253111442E+03  0.84489147765E+01  0.45372485486E+03  0.55101118460E+03  0.00000000000E+00 0. -1.
<mgrwt>
<rscale>  0 0.83607894E+03</rscale>
<asrwt>0</asrwt>
<pdfrwt beam="1">  1        2 0.41598208E+00 0.83607894E+03</pdfrwt>
<pdfrwt beam="2">  1       -2 0.58858898E-01 0.83607894E+03</pdfrwt>
<totfact> 0.74106384E+00</totfact>
</mgrwt>
</event>
<event>
12    1  0.1418317E-007  0.4137963E+03  0.7818608E-02  0.1039105E+00
         -1   -1    0    0    0  501 -0.00000000000E+00  0.00000000000E+00  0.29641372215E+03  0.29641372215E+03  0.00000000000E+00 0.  1.
          1   -1    0    0  501    0  0.00000000000E+00 -0.00000000000E+00 -0.10473799585E+04  0.10473799585E+04  0.00000000000E+00 0. -1.
         23    2    1    2    0    0 -0.32238603445E+03 -0.21644739689E+03 -0.26725921537E+03  0.48047993843E+03  0.93012107836E+02 0.  0.
    5000000    2    1    2    0    0  0.32238603445E+03  0.21644739689E+03 -0.48370702093E+03  0.86331374217E+03  0.60046307505E+03 0.  0.
         23    2    4    4    0    0  0.29026721327E+03  0.93205050033E+02 -0.59300272163E+03  0.67300599418E+03  0.91337855710E+02 0.  0.
         23    2    4    4    0    0  0.32118821180E+02  0.12324234685E+03  0.10929570070E+03  0.19030774800E+03  0.89728446017E+02 0.  0.
          3    1    3    3  502    0 -0.14602352043E+03 -0.13172654054E+03 -0.17867017587E+03  0.26570243083E+03  0.00000000000E+00 0. -1.
         -3    1    3    3    0  502 -0.17636251403E+03 -0.84720856343E+02 -0.88589039501E+02  0.21477750760E+03  0.00000000000E+00 0.  1.
         11    1    5    5    0    0  0.24056890977E+03  0.88799995233E+02 -0.41229305763E+03  0.48553517367E+03  0.00000000000E+00 0. -1.
        -11    1    5    5    0    0  0.49698303506E+02  0.44050548000E+01 -0.18070966400E+03  0.18747082051E+03  0.00000000000E+00 0.  1.
          4    1    6    6  503    0  0.23793971684E+02  0.11422478277E+03  0.45326114879E+02  0.12517152542E+03  0.00000000000E+00 0. -1.
         -4    1    6    6    0  503  0.83248494958E+01  0.90175640835E+01  0.63969585817E+02  0.65136222571E+02  0.00000000000E+00 0.  1.
<mgrwt>
<rscale>  0 0.41379632E+03</rscale>
<asrwt>0</asrwt>
<pdfrwt beam="1">  1        1 0.16113538E+00 0.41379632E+03</pdfrwt>
<pdfrwt beam="2">  1       -1 0.45602111E-01 0.41379632E+03</pdfrwt>
<totfact> 0.70732583E+01</totfact>
</mgrwt>
</event>
<event>
12    1  0.1418317E-007  0.7042166E+03  0.7818608E-02  0.9710048E-01
         -1   -1    0    0    0  501 -0.00000000000E+00  0.00000000000E+00  0.31161676295E+03  0.31161676295E+03  0.00000000000E+00 0. -1.
          1   -1    0    0  501    0  0.00000000000E+00 -0.00000000000E+00 -0.24771381550E+04  0.24771381550E+04  0.00000000000E+00 0.  1.
         23    2    1    2    0    0 -0.35543921400E+03  0.48802443611E+03 -0.19269579925E+03  0.64012398929E+03  0.90123057696E+02 0.  0.
    5000000    2    1    2    0    0  0.35543921400E+03 -0.48802443611E+03 -0.19728255928E+04  0.21486309286E+04  0.60005763298E+03 0.  0.
         23    2    4    4    0    0  0.13082780605E+02  0.99563111116E+02 -0.58988806421E+03  0.60484996572E+03  0.88269929707E+02 0.  0.
         23    2    4    4    0    0  0.34235643339E+03 -0.58758754723E+03 -0.13829375285E+04  0.15437809629E+04  0.90974724023E+02 0.  0.
          4    1    3    3  502    0 -0.27300653885E+03  0.33729552042E+03 -0.10161242919E+03  0.44567468417E+03  0.00000000000E+00 0. -1.
         -4    1    3    3    0  502 -0.82432675148E+02  0.15072891569E+03 -0.91083370067E+02  0.19444930512E+03  0.00000000000E+00 0.  1.
         13    1    5    5    0    0  0.23561111169E+01  0.10470599085E+03 -0.36718559731E+03  0.38183001277E+03  0.00000000000E+00 0. -1.
        -13    1    5    5    0    0  0.10726669488E+02 -0.51428797370E+01 -0.22270246690E+03  0.22301995295E+03  0.00000000000E+00 0.  1.
          4    1    6    6  503    0  0.26063119188E+03 -0.36143634523E+03 -0.90578694712E+03  0.10094626508E+04  0.00000000000E+00 0. -1.
         -4    1    6    6    0  503  0.81725241507E+02 -0.22615120200E+03 -0.47715058142E+03  0.53431831207E+03  0.00000000000E+00 0.  1.
<mgrwt>
<rscale>  0 0.70421663E+03</rscale>
<asrwt>0</asrwt>
<pdfrwt beam="1">  1        1 0.38109819E+00 0.70421663E+03</pdfrwt>
<pdfrwt beam="2">  1       -1 0.47941039E-01 0.70421663E+03</pdfrwt>
<totfact> 0.65076061E+00</totfact>
</mgrwt>
</event>
<event>
12    1  0.1418317E-007  0.1485275E+04  0.7818608E-02  0.8894304E-01
         -2   -1    0    0    0  501 -0.00000000000E+00  0.00000000000E+00  0.20135353760E+04  0.20135353760E+04  0.00000000000E+00 0. -1.
          2   -1    0    0  501    0  0.00000000000E+00 -0.00000000000E+00 -0.14706628090E+04  0.14706628090E+04  0.00000000000E+00 0.  1.
         23    2    1    2    0    0  0.67757290996E+03  0.12863930492E+04 -0.56247428915E+03  0.15618505896E+04  0.95330020644E+02 0.  0.
    5000000    2    1    2    0    0 -0.67757290996E+03 -0.12863930492E+04  0.11053468561E+04  0.19223475954E+04  0.59976368676E+03 0.  0.
         23    2    4    4    0    0 -0.53508917399E+02 -0.16821270093E+01  0.21908770322E+03  0.23897004019E+03  0.79001421583E+02 0.  0.
         23    2    4    4    0    0 -0.62406399256E+03 -0.12847109222E+04  0.88625915291E+03  0.16833775553E+04  0.91469595844E+02 0.  0.
          4    1    3    3  502    0  0.35582757553E+03  0.59586354764E+03 -0.23622266325E+03  0.73312193907E+03  0.00000000000E+00 0. -1.
         -4    1    3    3    0  502  0.32174533443E+03  0.69052950158E+03 -0.32625162590E+03  0.82872865052E+03  0.00000000000E+00 0.  1.
         13    1    5    5    0    0 -0.13346224540E+01  0.26020646832E+02  0.25065482363E+02  0.36154303820E+02  0.00000000000E+00 0.  1.
        -13    1    5    5    0    0 -0.52174294945E+02 -0.27702773841E+02  0.19402222086E+03  0.20281573637E+03  0.00000000000E+00 0. -1.
          2    1    6    6  503    0 -0.35856002799E+03 -0.66775610721E+03  0.50949634118E+03  0.91326339796E+03  0.00000000000E+00 0. -1.
         -2    1    6    6    0  503 -0.26550396457E+03 -0.61695481500E+03  0.37676281173E+03  0.77011415729E+03  0.00000000000E+00 0.  1.
<mgrwt>
<rscale>  0 0.14852750E+04</rscale>
<asrwt>0</asrwt>
<pdfrwt beam="1">  1        2 0.22625582E+00 0.14852750E+04</pdfrwt>
<pdfrwt beam="2">  1       -2 0.30977468E+00 0.14852750E+04</pdfrwt>
<totfact> 0.34428224E-01</totfact>
</mgrwt>
</event>
<event>
12    1  0.1418317E-007  0.4344901E+03  0.7818608E-02  0.1032451E+00
         -1   -1    0    0    0  501 -0.00000000000E+00  0.00000000000E+00  0.16344683684E+03  0.16344683684E+03  0.00000000000E+00 0.  1.
          1   -1    0    0  501    0  0.00000000000E+00 -0.00000000000E+00 -0.12815430431E+04  0.12815430431E+04  0.00000000000E+00 0. -1.
         23    2    1    2    0    0 -0.17560402881E+03 -0.16898337223E+03 -0.23940894212E+03  0.35342765145E+03  0.90566595488E+02 0.  0.
    5000000    2    1    2    0    0  0.17560402881E+03  0.16898337223E+03 -0.87868726418E+03  0.10915622285E+04  0.60002052921E+03 0.  0.
         23    2    4    4    0    0 -0.14730544833E+03 -0.10588260262E+03 -0.19403581720E+03  0.28108317941E+03  0.91912103362E+02 0.  0.
         23    2    4    4    0    0  0.32290947714E+03  0.27486597485E+03 -0.68465144698E+03  0.81047904911E+03  0.91141925815E+02 0.  0.
          1    1    3    3  502    0 -0.70537293575E+02 -0.92933118706E+02 -0.17038643117E+03  0.20650329359E+03  0.00000000000E+00 0. -1.
         -1    1    3    3    0  502 -0.10506673524E+03 -0.76050253522E+02 -0.69022510947E+02  0.14692435786E+03  0.00000000000E+00 0.  1.
         11    1    5    5    0    0  0.28835222654E+01  0.47969155248E+01 -0.36429650352E+02  0.36857082412E+02  0.00000000000E+00 0. -1.
        -11    1    5    5    0    0 -0.15018897059E+03 -0.11067951814E+03 -0.15760616685E+03  0.24422609699E+03  0.00000000000E+00 0.  1.
          3    1    6    6  503    0  0.98830825646E+01 -0.45232340231E+01 -0.38892152969E+02  0.40382354186E+02  0.00000000000E+00 0. -1.
         -3    1    6    6    0  503  0.31302639458E+03  0.27938920887E+03 -0.64575929401E+03  0.77009669493E+03  0.00000000000E+00 0.  1.
<mgrwt>
<rscale>  0 0.43449008E+03</rscale>
<asrwt>0</asrwt>
<pdfrwt beam="1">  1        1 0.19716046E+00 0.43449008E+03</pdfrwt>
<pdfrwt beam="2">  1       -1 0.25145668E-01 0.43449008E+03</pdfrwt>
<totfact> 0.13607944E+02</totfact>
</mgrwt>
</event>
<event>
12    1  0.1418317E-007  0.5382249E+03  0.7818608E-02  0.1004257E+00
         -2   -1    0    0    0  501 -0.00000000000E+00  0.00000000000E+00  0.40163619327E+03  0.40163619327E+03  0.00000000000E+00 0.  1.
          2   -1    0    0  501    0  0.00000000000E+00 -0.00000000000E+00 -0.20811683615E+04  0.20811683615E+04  0.00000000000E+00 0. -1.
         23    2    1    2    0    0  0.44867959290E+03  0.84635601495E+02  0.16194649427E+03  0.49294679188E+03  0.91067614942E+02 0.  0.
    5000000    2    1    2    0    0 -0.44867959290E+03 -0.84635601495E+02 -0.18414786625E+04  0.19898577629E+04  0.60001140819E+03 0.  0.
         23    2    4    4    0    0 -0.13694376531E+03  0.15416279647E+03 -0.12748697097E+04  0.12944763280E+04  0.88636473046E+02 0.  0.
         23    2    4    4    0    0 -0.31173582759E+03 -0.23879839796E+03 -0.56660895280E+03  0.69538143490E+03  0.91135797195E+02 0.  0.
          4    1    3    3  502    0  0.38063545226E+03  0.37443692957E+02  0.13988615757E+03  0.40725116911E+03  0.00000000000E+00 0. -1.
         -4    1    3    3    0  502  0.68044140643E+02  0.47191908538E+02  0.22060336703E+02  0.85695622775E+02  0.00000000000E+00 0.  1.
         13    1    5    5    0    0 -0.21981330038E+02  0.44533854466E+02 -0.14010841468E+03  0.14864996108E+03  0.00000000000E+00 0. -1.
        -13    1    5    5    0    0 -0.11496243527E+03  0.10962894200E+03 -0.11347612950E+04  0.11458263669E+04  0.00000000000E+00 0.  1.
          3    1    6    6  503    0 -0.75290110567E+02 -0.11029492169E+03 -0.17228120899E+03  0.21797794721E+03  0.00000000000E+00 0. -1.
         -3    1    6    6    0  503 -0.23644571702E+03 -0.12850347627E+03 -0.39432774382E+03  0.47740348769E+03  0.00000000000E+00 0.  1.
<mgrwt>
<rscale>  0 0.53822494E+03</rscale>
<asrwt>0</asrwt>
<pdfrwt beam="1">  1        2 0.32017975E+00 0.53822494E+03</pdfrwt>
<pdfrwt beam="2">  1       -2 0.61790182E-01 0.53822494E+03</pdfrwt>
<totfact> 0.15751170E+01</totfact>
</mgrwt>
</event>
<event>
12    1  0.1418317E-007  0.9400072E+03  0.7818608E-02  0.9376907E-01
         -2   -1    0    0    0  501 -0.00000000000E+00  0.00000000000E+00  0.27577078679E+03  0.27577078679E+03  0.00000000000E+00 0. -1.
          2   -1    0    0  501    0  0.00000000000E+00 -0.00000000000E+00 -0.34102154453E+04  0.34102154453E+04  0.00000000000E+00 0.  1.
         23    2    1    2    0    0 -0.82544100144E+03  0.28864780280E+03 -0.14007904273E+04  0.16537097833E+04  0.88723307712E+02 0.  0.
    5000000    2    1    2    0    0  0.82544100144E+03 -0.28864780280E+03 -0.17336542312E+04  0.20322764487E+04  0.59993347119E+03 0.  0.
         23    2    4    4    0    0  0.42847893601E+03 -0.40166197445E+03 -0.71604701299E+03  0.93007823638E+03  0.85998027013E+02 0.  0.
         23    2    4    4    0    0  0.39696206543E+03  0.11301417165E+03 -0.10176072182E+04  0.11021982124E+04  0.94685608305E+02 0.  0.
          1    1    3    3  502    0 -0.61996750070E+03  0.23000299764E+03 -0.11233072750E+04  0.13034877502E+04  0.00000000000E+00 0. -1.
         -1    1    3    3    0  502 -0.20547350074E+03  0.58644805164E+02 -0.27748315231E+03  0.35022203314E+03  0.00000000000E+00 0.  1.
         13    1    5    5    0    0  0.39091221625E+03 -0.35214399478E+03 -0.59680549989E+03  0.79560955158E+03  0.00000000000E+00 0.  1.
        -13    1    5    5    0    0  0.37566719764E+02 -0.49517979668E+02 -0.11924151310E+03  0.13446868480E+03  0.00000000000E+00 0. -1.
          1    1    6    6  503    0  0.37042187813E+03  0.11994641352E+03 -0.98740193224E+03  0.10613962906E+04  0.00000000000E+00 0. -1.
         -1    1    6    6    0  503  0.26540187297E+02 -0.69322418774E+01 -0.30205285954E+02  0.40801921754E+02  0.00000000000E+00 0.  1.
<mgrwt>
<rscale>  0 0.94000718E+03</rscale>
<asrwt>0</asrwt>
<pdfrwt beam="1">  1        2 0.52464854E+00 0.94000718E+03</pdfrwt>
<pdfrwt beam="2">  1       -2 0.42426274E-01 0.94000718E+03</pdfrwt>
<totfact> 0.51580861E+00</totfact>
</mgrwt>
</event>
<event>
12    1  0.1418317E-007  0.8335377E+03  0.7818608E-02  0.9512702E-01
          1   -1    0    0  501    0  0.00000000000E+00  0.00000000000E+00  0.30097808897E+04  0.30097808897E+04  0.00000000000E+00 0. -1.
         -1   -1    0    0    0  501 -0.00000000000E+00 -0.00000000000E+00 -0.83428066577E+03  0.83428066577E+03  0.00000000000E+00 0.  1.
         23    2    1    2    0    0 -0.42494678153E+03 -0.59328622114E+03 -0.57652580451E+03  0.93452882883E+03  0.91617800304E+02 0.  0.
    5000000    2    1    2    0    0  0.42494678153E+03  0.59328622114E+03  0.27520260284E+04  0.29095327266E+04  0.59930386187E+03 0.  0.
         23    2    4    4    0    0  0.47333186308E+03  0.18146477891E+03  0.13848116956E+04  0.14777827445E+04  0.95738650006E+02 0.  0.
         23    2    4    4    0    0 -0.48385081555E+02  0.41182144223E+03  0.13672143327E+04  0.14317499820E+04  0.93246785525E+02 0.  0.
          1    1    3    3  502    0 -0.37559554149E+03 -0.46482131088E+03 -0.47851327142E+03  0.76557547816E+03  0.00000000000E+00 0. -1.
         -1    1    3    3    0  502 -0.49351240034E+02 -0.12846491026E+03 -0.98012533088E+02  0.16895335067E+03  0.00000000000E+00 0.  1.
         13    1    5    5    0    0  0.22757503414E+03  0.87290551916E+02  0.52973914631E+03  0.58312400032E+03  0.00000000000E+00 0.  1.
        -13    1    5    5    0    0  0.24575682895E+03  0.94174226994E+02  0.85507254934E+03  0.89465874423E+03  0.00000000000E+00 0. -1.
          2    1    6    6  503    0 -0.58475862153E+02  0.12577471547E+03  0.45948454729E+03  0.47996328475E+03  0.00000000000E+00 0. -1.
         -2    1    6    6    0  503  0.10090780598E+02  0.28604672676E+03  0.90772978546E+03  0.95178669729E+03  0.00000000000E+00 0.  1.
<mgrwt>
<rscale>  0 0.83353770E+03</rscale>
<asrwt>0</asrwt>
<pdfrwt beam="1">  1        1 0.46304321E+00 0.83353770E+03</pdfrwt>
<pdfrwt beam="2">  1       -1 0.12835087E+00 0.83353770E+03</pdfrwt>
<totfact> 0.32749325E-01</totfact>
</mgrwt>
</event>
<event>
12    1  0.1418317E-007  0.6027086E+03  0.7818608E-02  0.9899802E-01
          1   -1    0    0  501    0  0.00000000000E+00  0.00000000000E+00  0.82918901712E+03  0.82918901712E+03  0.00000000000E+00 0. -1.
         -1   -1    0    0    0  501 -0.00000000000E+00 -0.00000000000E+00 -0.62387500041E+03  0.62387500041E+03  0.00000000000E+00 0.  1.
         23    2    1    2    0    0  0.34574516452E+03 -0.31430982028E+03 -0.27857302940E+03  0.55163953748E+03  0.91503358855E+02 0.  0.
    5000000    2    1    2    0    0 -0.34574516452E+03  0.31430982028E+03  0.48388704611E+03  0.90142448006E+03  0.60007419369E+03 0.  0.
         23    2    4    4    0    0 -0.49728739603E+03  0.25686428055E+03  0.30285947156E+03  0.64330535025E+03  0.94042018661E+02 0.  0.
         23    2    4    4    0    0  0.15154223151E+03  0.57445539733E+02  0.18102757455E+03  0.25811912981E+03  0.87117532424E+02 0.  0.
          2    1    3    3  502    0  0.52290349998E+02 -0.12550095084E+02 -0.18572577728E+02  0.56892233504E+02  0.00000000000E+00 0. -1.
         -2    1    3    3    0  502  0.29345481452E+03 -0.30175972519E+03 -0.26000045168E+03  0.49474730397E+03  0.00000000000E+00 0.  1.
         11    1    5    5    0    0 -0.31208483412E+03  0.20992271486E+03  0.21186532035E+03  0.43168437993E+03  0.00000000000E+00 0.  1.
        -11    1    5    5    0    0 -0.18520256191E+03  0.46941565686E+02  0.90994151207E+02  0.21162097033E+03  0.00000000000E+00 0. -1.
          3    1    6    6  503    0  0.52390974973E+02  0.88819804172E+01  0.92750000297E+01  0.53941908200E+02  0.00000000000E+00 0. -1.
         -3    1    6    6    0  503  0.99151256540E+02  0.48563559316E+02  0.17175257452E+03  0.20417722161E+03  0.00000000000E+00 0.  1.
<mgrwt>
<rscale>  0 0.60270859E+03</rscale>
<asrwt>0</asrwt>
<pdfrwt beam="1">  1        1 0.12756754E+00 0.60270859E+03</pdfrwt>
<pdfrwt beam="2">  1       -1 0.95980769E-01 0.60270859E+03</pdfrwt>
<totfact> 0.22841465E+01</totfact>
</mgrwt>
</event>
<event>
12    1  0.1418317E-007  0.3852294E+03  0.7818608E-02  0.1049018E+00
         -2   -1    0    0    0  501 -0.00000000000E+00  0.00000000000E+00  0.42088924361E+03  0.42088924361E+03  0.00000000000E+00 0.  1.
          2   -1    0    0  501    0  0.00000000000E+00 -0.00000000000E+00 -0.44215165324E+03  0.44215165324E+03  0.00000000000E+00 0. -1.
         23    2    1    2    0    0 -0.16090285624E+03 -0.43320138339E+02  0.11857064025E+03  0.22338017050E+03  0.89851768529E+02 0.  0.
    5000000    2    1    2    0    0  0.16090285624E+03  0.43320138339E+02 -0.13983304988E+03  0.63966072635E+03  0.60153653211E+03 0.  0.
         23    2    4    4    0    0  0.81390198764E+02 -0.25200233232E+03  0.24057121577E+02  0.28127790006E+03  0.91700447192E+02 0.  0.
         23    2    4    4    0    0  0.79512657478E+02  0.29532247066E+03 -0.16389017146E+03  0.35838282629E+03  0.89669601880E+02 0.  0.
          1    1    3    3  502    0 -0.23204696864E+02  0.21840166554E+02  0.26937368786E+01  0.31979791275E+02  0.00000000000E+00 0. -1.
         -1    1    3    3    0  502 -0.13769815938E+03 -0.65160304892E+02  0.11587690337E+03  0.19140037922E+03  0.00000000000E+00 0.  1.
         13    1    5    5    0    0  0.10187131250E+03 -0.21492510130E+03  0.22195309691E+02  0.23887903895E+03  0.00000000000E+00 0. -1.
        -13    1    5    5    0    0 -0.20481113733E+02 -0.37077231019E+02  0.18618118858E+01  0.42398861108E+02  0.00000000000E+00 0.  1.
          2    1    6    6  503    0  0.41925804605E+02  0.17725201447E+03 -0.47158946774E+02  0.18814891971E+03  0.00000000000E+00 0. -1.
         -2    1    6    6    0  503  0.37586852873E+02  0.11807045619E+03 -0.11673122468E+03  0.17023390658E+03  0.00000000000E+00 0.  1.
<mgrwt>
<rscale>  0 0.38522943E+03</rscale>
<asrwt>0</asrwt>
<pdfrwt beam="1">  1        2 0.68023331E-01 0.38522943E+03</pdfrwt>
<pdfrwt beam="2">  1       -2 0.64752191E-01 0.38522943E+03</pdfrwt>
<totfact> 0.16095487E+02</totfact>
</mgrwt>
</event>
<event>
12    1  0.1418317E-007  0.1570550E+04  0.7818608E-02  0.8838848E-01
          2   -1    0    0  501    0  0.00000000000E+00  0.00000000000E+00  0.22748666217E+04  0.22748666217E+04  0.00000000000E+00 0. -1.
         -2   -1    0    0    0  501 -0.00000000000E+00 -0.00000000000E+00 -0.12120460767E+04  0.12120460767E+04  0.00000000000E+00 0.  1.
         23    2    1    2    0    0 -0.12519892783E+04 -0.91895722434E+03  0.93995743018E+03  0.18175653577E+04  0.89801591013E+02 0.  0.
    5000000    2    1    2    0    0  0.12519892783E+04  0.91895722434E+03  0.12286311484E+03  0.16693473407E+04  0.59972132325E+03 0.  0.
         23    2    4    4    0    0  0.10609789180E+04  0.89288944189E+03  0.26438773150E+03  0.14144310388E+04  0.88240981942E+02 0.  0.
         23    2    4    4    0    0  0.19101036030E+03  0.26067782446E+02 -0.14152461666E+03  0.25491630190E+03  0.88253140615E+02 0.  0.
          4    1    3    3  502    0 -0.66590748203E+03 -0.51892076546E+03  0.46672651442E+03  0.96464769461E+03  0.00000000000E+00 0.  1.
         -4    1    3    3    0  502 -0.58608179631E+03 -0.40003645888E+03  0.47323091576E+03  0.85291766310E+03  0.00000000000E+00 0. -1.
         11    1    5    5    0    0  0.24176025928E+03  0.24828927723E+03  0.83058102305E+02  0.35636250717E+03  0.00000000000E+00 0. -1.
        -11    1    5    5    0    0  0.81921865875E+03  0.64460016466E+03  0.18132962920E+03  0.10580685316E+04  0.00000000000E+00 0.  1.
          4    1    6    6  503    0  0.15686870171E+03  0.39281472703E+02 -0.73426796507E+02  0.17760157128E+03  0.00000000000E+00 0.  1.
         -4    1    6    6    0  503  0.34141658590E+02 -0.13213690256E+02 -0.68097820154E+02  0.77314730622E+02  0.00000000000E+00 0. -1.
<mgrwt>
<rscale>  0 0.15705496E+04</rscale>
<asrwt>0</asrwt>
<pdfrwt beam="1">  1        2 0.34997948E+00 0.15705496E+04</pdfrwt>
<pdfrwt beam="2">  1       -2 0.18646863E+00 0.15705496E+04</pdfrwt>
<totfact> 0.71617991E-01</totfact>
</mgrwt>
</event>
<event>
12    1  0.1418317E-007  0.1281501E+04  0.7818608E-02  0.9044365E-01
          1   -1    0    0  501    0  0.00000000000E+00  0.00000000000E+00  0.15221742722E+04  0.15221742722E+04  0.00000000000E+00 0. -1.
         -1   -1    0    0    0  501 -0.00000000000E+00 -0.00000000000E+00 -0.10969234348E+04  0.10969234348E+04  0.00000000000E+00 0.  1.
         23    2    1    2    0    0 -0.11809620982E+04  0.27875884288E+03  0.33650978136E+03  0.12625167929E+04  0.91278965380E+02 0.  0.
    5000000    2    1    2    0    0  0.11809620982E+04 -0.27875884288E+03  0.88741056022E+02  0.13565809142E+04  0.60004902453E+03 0.  0.
         23    2    4    4    0    0  0.17030307965E+03  0.15623022967E+03 -0.40914666862E+01  0.24867950392E+03  0.91726397327E+02 0.  0.
         23    2    4    4    0    0  0.10106590185E+04 -0.43498907255E+03  0.92832522708E+02  0.11079014102E+04  0.90446186188E+02 0.  0.
          4    1    3    3  502    0 -0.11936088602E+03  0.39348857737E+02  0.62131888888E+02  0.14019887779E+03  0.00000000000E+00 0. -1.
         -4    1    3    3    0  502 -0.10616012122E+04  0.23940998514E+03  0.27437789247E+03  0.11223179151E+04  0.00000000000E+00 0.  1.
         11    1    5    5    0    0  0.17485840218E+03  0.12346072936E+03 -0.12908130273E+02  0.21444027684E+03  0.00000000000E+00 0. -1.
        -11    1    5    5    0    0 -0.45553225218E+01  0.32769500309E+02  0.88166635869E+01  0.34239227073E+02  0.00000000000E+00 0.  1.
          3    1    6    6  503    0  0.81123856112E+03 -0.32271291258E+03  0.10105449129E+03  0.87889910525E+03  0.00000000000E+00 0. -1.
         -3    1    6    6    0  503  0.19942045740E+03 -0.11227615997E+03 -0.82219685783E+01  0.22900230500E+03  0.00000000000E+00 0.  1.
<mgrwt>
<rscale>  0 0.12815013E+04</rscale>
<asrwt>0</asrwt>
<pdfrwt beam="1">  1        1 0.23418066E+00 0.12815013E+04</pdfrwt>
<pdfrwt beam="2">  1       -1 0.16875745E+00 0.12815013E+04</pdfrwt>
<totfact> 0.15412263E+00</totfact>
</mgrwt>
</event>
<event>
12    1  0.1418317E-007  0.8638554E+03  0.7818608E-02  0.9471927E-01
          1   -1    0    0  501    0  0.00000000000E+00  0.00000000000E+00  0.87232619232E+03  0.87232619232E+03  0.00000000000E+00 0. -1.
         -1   -1    0    0    0  501 -0.00000000000E+00 -0.00000000000E+00 -0.15040987257E+04  0.15040987257E+04  0.00000000000E+00 0.  1.
         23    2    1    2    0    0 -0.11987315020E+03  0.78378767884E+03  0.44257378343E+03  0.91257234077E+03  0.90686414196E+02 0.  0.
    5000000    2    1    2    0    0  0.11987315020E+03 -0.78378767884E+03 -0.10743463168E+04  0.14638525772E+04  0.59995971684E+03 0.  0.
         23    2    4    4    0    0  0.22426513634E+03 -0.76140624016E+03 -0.10503492698E+04  0.13198818690E+04  0.93916162732E+02 0.  0.
         23    2    4    4    0    0 -0.10439198615E+03 -0.22381438680E+02 -0.23997047039E+02  0.14397070827E+03  0.93557955318E+02 0.  0.
          1    1    3    3  502    0 -0.12097399358E+02  0.34489097467E+03  0.16871702291E+03  0.38413743023E+03  0.00000000000E+00 0. -1.
         -1    1    3    3    0  502 -0.10777575084E+03  0.43889670417E+03  0.27385676052E+03  0.52843491054E+03  0.00000000000E+00 0.  1.
         13    1    5    5    0    0  0.15024687172E+03 -0.35861179246E+03 -0.54339993002E+03  0.66817664139E+03  0.00000000000E+00 0. -1.
        -13    1    5    5    0    0  0.74018264625E+02 -0.40279444770E+03 -0.50694933975E+03  0.65170522760E+03  0.00000000000E+00 0.  1.
          3    1    6    6  503    0 -0.10465714310E+03 -0.41947701214E+02 -0.39008462931E+02  0.11930795204E+03  0.00000000000E+00 0. -1.
         -3    1    6    6    0  503  0.26515695374E+00  0.19566262534E+02  0.15011415892E+02  0.24662756230E+02  0.00000000000E+00 0.  1.
<mgrwt>
<rscale>  0 0.86385537E+03</rscale>
<asrwt>0</asrwt>
<pdfrwt beam="1">  1        1 0.13420403E+00 0.86385537E+03</pdfrwt>
<pdfrwt beam="2">  1       -1 0.23139980E+00 0.86385537E+03</pdfrwt>
<totfact> 0.18183063E+00</totfact>
</mgrwt>
</event>
<event>
12    1  0.1418317E-007  0.9349543E+03  0.7818608E-02  0.9382912E-01
         -2   -1    0    0    0  501 -0.00000000000E+00  0.00000000000E+00  0.11388797996E+04  0.11388797996E+04  0.00000000000E+00 0. -1.
          2   -1    0    0  501    0  0.00000000000E+00 -0.00000000000E+00 -0.80165141650E+03  0.80165141650E+03  0.00000000000E+00 0.  1.
         23    2    1    2    0    0 -0.14077991693E+03  0.83050072217E+03 -0.19187856195E+02  0.84662483779E+03  0.82794973325E+02 0.  0.
    5000000    2    1    2    0    0  0.14077991693E+03 -0.83050072217E+03  0.35641623924E+03  0.10939063783E+04  0.60004016054E+03 0.  0.
         23    2    4    4    0    0 -0.12484680675E+03 -0.70251941774E+03  0.19370280064E+03  0.74532093580E+03  0.94139603295E+02 0.  0.
         23    2    4    4    0    0  0.26562672368E+03 -0.12798130443E+03  0.16271343861E+03  0.34858544245E+03  0.89996538657E+02 0.  0.
          3    1    3    3  502    0 -0.12800361637E+03  0.52824641191E+03 -0.67002178802E+00  0.54353440225E+03  0.00000000000E+00 0. -1.
         -3    1    3    3    0  502 -0.12776300558E+02  0.30225431027E+03 -0.18517834407E+02  0.30309043555E+03  0.00000000000E+00 0.  1.
         11    1    5    5    0    0 -0.84837044477E+02 -0.29526638587E+03  0.47988259287E+02  0.31093799345E+03  0.00000000000E+00 0.  1.
        -11    1    5    5    0    0 -0.40009762274E+02 -0.40725303187E+03  0.14571454135E+03  0.43438294236E+03  0.00000000000E+00 0. -1.
          1    1    6    6  503    0  0.24561387567E+03 -0.14132498731E+03  0.15661787743E+03  0.32377165949E+03  0.00000000000E+00 0. -1.
         -1    1    6    6    0  503  0.20012848017E+02  0.13343682888E+02  0.60955611710E+01  0.24813782959E+02  0.00000000000E+00 0.  1.
<mgrwt>
<rscale>  0 0.93495426E+03</rscale>
<asrwt>0</asrwt>
<pdfrwt beam="1">  1        2 0.12333099E+00 0.93495426E+03</pdfrwt>
<pdfrwt beam="2">  1       -2 0.17521228E+00 0.93495426E+03</pdfrwt>
<totfact> 0.67131643E+00</totfact>
</mgrwt>
</event>
<event>
12    1  0.1418317E-007  0.8125026E+03  0.7818608E-02  0.9542094E-01
         -2   -1    0    0    0  501 -0.00000000000E+00  0.00000000000E+00  0.13510171434E+04  0.13510171434E+04  0.00000000000E+00 0.  1.
          2   -1    0    0  501    0  0.00000000000E+00 -0.00000000000E+00 -0.57599136277E+03  0.57599136277E+03  0.00000000000E+00 0. -1.
         23    2    1    2    0    0 -0.51178760915E+03 -0.55400387796E+03  0.13897971429E+03  0.77232099073E+03  0.91200318335E+02 0.  0.
    5000000    2    1    2    0    0  0.51178760915E+03  0.55400387796E+03  0.63604606636E+03  0.11546875154E+04  0.59991816618E+03 0.  0.
         23    2    4    4    0    0  0.54865282844E+03  0.55825233445E+03  0.36974831463E+03  0.87065518943E+03  0.93064749762E+02 0.  0.
         23    2    4    4    0    0 -0.36865219281E+02 -0.42484564891E+01  0.26629775173E+03  0.28403232601E+03  0.91557500338E+02 0.  0.
          2    1    3    3  502    0 -0.22612884046E+03 -0.17959130998E+03  0.51694869507E+02  0.29335925184E+03  0.00000000000E+00 0. -1.
         -2    1    3    3    0  502 -0.28565876870E+03 -0.37441256798E+03  0.87284844778E+02  0.47896173889E+03  0.00000000000E+00 0.  1.
         11    1    5    5    0    0  0.20932074585E+03  0.19669769352E+03  0.18419834157E+03  0.34122453945E+03  0.00000000000E+00 0.  1.
        -11    1    5    5    0    0  0.33933208258E+03  0.36155464093E+03  0.18554997306E+03  0.52943064999E+03  0.00000000000E+00 0. -1.
          3    1    6    6  503    0 -0.42345713946E+02 -0.32531037206E+02  0.84445548759E+02  0.99912354474E+02  0.00000000000E+00 0. -1.
         -3    1    6    6    0  503  0.54804946643E+01  0.28282580717E+02  0.18185220297E+03  0.18411997154E+03  0.00000000000E+00 0.  1.
<mgrwt>
<rscale>  0 0.81250262E+03</rscale>
<asrwt>0</asrwt>
<pdfrwt beam="1">  1        2 0.88614057E-01 0.81250262E+03</pdfrwt>
<pdfrwt beam="2">  1       -2 0.20784879E+00 0.81250262E+03</pdfrwt>
<totfact> 0.62450856E+00</totfact>
</mgrwt>
</event>
<event>
12    1  0.1418317E-007  0.6218767E+03  0.7818608E-02  0.9861030E-01
         -2   -1    0    0    0  501 -0.00000000000E+00  0.00000000000E+00  0.14991245456E+03  0.14991245456E+03  0.00000000000E+00 0.  1.
          2   -1    0    0  501    0  0.00000000000E+00 -0.00000000000E+00 -0.34739854909E+04  0.34739854909E+04  0.00000000000E+00 0. -1.
         23    2    1    2    0    0 -0.47629814199E+03 -0.22946671753E+03 -0.20545068205E+04  0.21234145060E+04  0.91520458544E+02 0.  0.
    5000000    2    1    2    0    0  0.47629814199E+03  0.22946671753E+03 -0.12695662159E+04  0.15004834395E+04  0.60011439006E+03 0.  0.
         23    2    4    4    0    0  0.28174788983E+03  0.36229438744E+03 -0.47539469726E+03  0.66706827757E+03  0.91328375483E+02 0.  0.
         23    2    4    4    0    0  0.19455025216E+03 -0.13282766991E+03 -0.79417151860E+03  0.83341516189E+03  0.91539284556E+02 0.  0.
          3    1    3    3  502    0 -0.35433476612E+03 -0.12971182135E+03 -0.15228597844E+04  0.15689105156E+04  0.00000000000E+00 0. -1.
         -3    1    3    3    0  502 -0.12196337587E+03 -0.99754896171E+02 -0.53164703616E+03  0.55450399045E+03  0.00000000000E+00 0.  1.
         11    1    5    5    0    0  0.25639238533E+03  0.29225826550E+03 -0.43062833616E+03  0.58016610804E+03  0.00000000000E+00 0. -1.
        -11    1    5    5    0    0  0.25355504504E+02  0.70036121931E+02 -0.44766361096E+02  0.86902169534E+02  0.00000000000E+00 0.  1.
          3    1    6    6  503    0  0.11261602362E+03 -0.34880159416E+02 -0.28385709696E+03  0.30736598021E+03  0.00000000000E+00 0. -1.
         -3    1    6    6    0  503  0.81934228533E+02 -0.97947510495E+02 -0.51031442164E+03  0.52604918168E+03  0.00000000000E+00 0.  1.
<mgrwt>
<rscale>  0 0.62187668E+03</rscale>
<asrwt>0</asrwt>
<pdfrwt beam="1">  1        2 0.53445931E+00 0.62187668E+03</pdfrwt>
<pdfrwt beam="2">  1       -2 0.23063455E-01 0.62187668E+03</pdfrwt>
<totfact> 0.15523759E+01</totfact>
</mgrwt>
</event>
<event>
12    1  0.1418317E-007  0.6908454E+03  0.7818608E-02  0.9733017E-01
         -1   -1    0    0    0  501 -0.00000000000E+00  0.00000000000E+00  0.38156990838E+03  0.38156990838E+03  0.00000000000E+00 0.  1.
          1   -1    0    0  501    0  0.00000000000E+00 -0.00000000000E+00 -0.16544591612E+04  0.16544591612E+04  0.00000000000E+00 0. -1.
         23    2    1    2    0    0  0.48648858105E+03  0.38034561733E+03 -0.18993056214E+03  0.65253054719E+03  0.91589128589E+02 0.  0.
    5000000    2    1    2    0    0 -0.48648858105E+03 -0.38034561733E+03 -0.10829586907E+04  0.13834985224E+04  0.59994558721E+03 0.  0.
         23    2    4    4    0    0 -0.50713658804E+03 -0.16990611612E+03 -0.99907753590E+03  0.11369436829E+04  0.91811808156E+02 0.  0.
         23    2    4    4    0    0  0.20648006991E+02 -0.21043950121E+03 -0.83881154759E+02  0.24655483947E+03  0.95090046175E+02 0.  0.
          1    1    3    3  502    0  0.10948035070E+03  0.13500449071E+03 -0.39644794082E+02  0.17828031130E+03  0.00000000000E+00 0. -1.
         -1    1    3    3    0  502  0.37700823035E+03  0.24534112662E+03 -0.15028576805E+03  0.47425023589E+03  0.00000000000E+00 0.  1.
         11    1    5    5    0    0 -0.56608342415E+01 -0.17266770386E+02 -0.27138891374E+02  0.32660462779E+02  0.00000000000E+00 0. -1.
        -11    1    5    5    0    0 -0.50147575380E+03 -0.15263934573E+03 -0.97193864452E+03  0.11042832201E+04  0.00000000000E+00 0.  1.
          4    1    6    6  503    0 -0.62286063830E+01 -0.14257220163E+03 -0.10568161917E+02  0.14309896666E+03  0.00000000000E+00 0. -1.
         -4    1    6    6    0  503  0.26876613374E+02 -0.67867299583E+02 -0.73312992842E+02  0.10345587281E+03  0.00000000000E+00 0.  1.
<mgrwt>
<rscale>  0 0.69084539E+03</rscale>
<asrwt>0</asrwt>
<pdfrwt beam="1">  1        1 0.25453218E+00 0.69084539E+03</pdfrwt>
<pdfrwt beam="2">  1       -1 0.58703063E-01 0.69084539E+03</pdfrwt>
<totfact> 0.15768159E+01</totfact>
</mgrwt>
</event>
<event>
12    1  0.1418317E-007  0.5563665E+03  0.7818608E-02  0.1000031E+00
          2   -1    0    0  501    0  0.00000000000E+00  0.00000000000E+00  0.57822574678E+03  0.57822574678E+03  0.00000000000E+00 0.  1.
         -2   -1    0    0    0  501 -0.00000000000E+00 -0.00000000000E+00 -0.94331909628E+03  0.94331909628E+03  0.00000000000E+00 0. -1.
         23    2    1    2    0    0  0.43302707742E+03  0.42498115369E+02 -0.59739788113E+03  0.74493432421E+03  0.93404386522E+02 0.  0.
    5000000    2    1    2    0    0 -0.43302707742E+03 -0.42498115369E+02  0.23230453163E+03  0.77661051885E+03  0.59986662100E+03 0.  0.
         23    2    4    4    0    0  0.74376123540E+02 -0.12276685688E+03 -0.58274615138E+02  0.18013990497E+03  0.91929025296E+02 0.  0.
         23    2    4    4    0    0 -0.50740320096E+03  0.80268741514E+02  0.29057914676E+03  0.59647061388E+03  0.86254701217E+02 0.  0.
          4    1    3    3  502    0  0.33168356292E+03  0.70489586522E+02 -0.47433131438E+03  0.58307200544E+03  0.00000000000E+00 0. -1.
         -4    1    3    3    0  502  0.10134351450E+03 -0.27991471153E+02 -0.12306656675E+03  0.16186231877E+03  0.00000000000E+00 0.  1.
         11    1    5    5    0    0 -0.71086543058E+01 -0.37427676565E+01  0.15994015557E+02  0.17898318619E+02  0.00000000000E+00 0. -1.
        -11    1    5    5    0    0  0.81484777846E+02 -0.11902408923E+03 -0.74268630694E+02  0.16224158635E+03  0.00000000000E+00 0.  1.
          3    1    6    6  503    0 -0.16243044296E+03  0.17983220975E+01  0.12949320252E+03  0.20773871151E+03  0.00000000000E+00 0. -1.
         -3    1    6    6    0  503 -0.34497275800E+03  0.78470419416E+02  0.16108594424E+03  0.38873190237E+03  0.00000000000E+00 0.  1.
<mgrwt>
<rscale>  0 0.55636648E+03</rscale>
<asrwt>0</asrwt>
<pdfrwt beam="1">  1        2 0.88957807E-01 0.55636648E+03</pdfrwt>
<pdfrwt beam="2">  1       -2 0.14512602E+00 0.55636648E+03</pdfrwt>
<totfact> 0.17552051E+01</totfact>
</mgrwt>
</event>
<event>
12    1  0.1418317E-007  0.6871057E+03  0.7818608E-02  0.9739541E-01
          1   -1    0    0  501    0  0.00000000000E+00  0.00000000000E+00  0.22411282903E+04  0.22411282903E+04  0.00000000000E+00 0. -1.
         -1   -1    0    0    0  501 -0.00000000000E+00 -0.00000000000E+00 -0.25735023913E+03  0.25735023913E+03  0.00000000000E+00 0.  1.
         23    2    1    2    0    0 -0.41092236525E+03 -0.48432370426E+03  0.75965198672E+03  0.99457509661E+03  0.93176397772E+02 0.  0.
    5000000    2    1    2    0    0  0.41092236525E+03  0.48432370426E+03  0.12241260645E+04  0.15039034329E+04  0.59984520741E+03 0.  0.
         23    2    4    4    0    0  0.55355754935E+02 -0.24148195657E+02 -0.19115506028E+02  0.11141250695E+03  0.91651236628E+02 0.  0.
         23    2    4    4    0    0  0.35556661032E+03  0.50847189992E+03  0.12432415705E+04  0.13924909259E+04  0.91706535944E+02 0.  0.
          1    1    3    3  502    0 -0.21348971379E+03 -0.20385439392E+03  0.29796795008E+03  0.41942743245E+03  0.00000000000E+00 0. -1.
         -1    1    3    3    0  502 -0.19743265146E+03 -0.28046931034E+03  0.46168403664E+03  0.57514766417E+03  0.00000000000E+00 0.  1.
         13    1    5    5    0    0 -0.19845567689E+02 -0.27537279012E+02 -0.11086109102E+02  0.35707843778E+02  0.00000000000E+00 0.  1.
        -13    1    5    5    0    0  0.75201322624E+02  0.33890833546E+01 -0.80293969255E+01  0.75704663168E+02  0.00000000000E+00 0. -1.
          1    1    6    6  503    0  0.33102450293E+03  0.41870006645E+03  0.10755156519E+04  0.12006751787E+04  0.00000000000E+00 0. -1.
         -1    1    6    6    0  503  0.24542107386E+02  0.89771833465E+02  0.16772591863E+03  0.19181574726E+03  0.00000000000E+00 0.  1.
<mgrwt>
<rscale>  0 0.68710569E+03</rscale>
<asrwt>0</asrwt>
<pdfrwt beam="1">  1        1 0.34478896E+00 0.68710569E+03</pdfrwt>
<pdfrwt beam="2">  1       -1 0.39592346E-01 0.68710569E+03</pdfrwt>
<totfact> 0.13409333E+01</totfact>
</mgrwt>
</event>
<event>
12    1  0.1418317E-007  0.6014693E+03  0.7818608E-02  0.9902362E-01
          2   -1    0    0  501    0  0.00000000000E+00  0.00000000000E+00  0.25956285001E+04  0.25956285001E+04  0.00000000000E+00 0. -1.
         -2   -1    0    0    0  501 -0.00000000000E+00 -0.00000000000E+00 -0.25925824979E+03  0.25925824979E+03  0.00000000000E+00 0.  1.
         23    2    1    2    0    0 -0.18892167989E+03  0.45784527693E+03  0.18943173681E+04  0.19601343613E+04  0.91513521120E+02 0.  0.
    5000000    2    1    2    0    0  0.18892167989E+03 -0.45784527693E+03  0.44205288218E+03  0.89475238856E+03  0.59988114443E+03 0.  0.
         23    2    4    4    0    0  0.34726905617E+03 -0.38076384257E+03  0.15501294018E+03  0.54562486878E+03  0.90003247862E+02 0.  0.
         23    2    4    4    0    0 -0.15834737628E+03 -0.77081434360E+02  0.28703994200E+03  0.34912751978E+03  0.92101344554E+02 0.  0.
          4    1    3    3  502    0 -0.13250508128E+03  0.20482614254E+03  0.87511922164E+03  0.90848500115E+03  0.00000000000E+00 0. -1.
         -4    1    3    3    0  502 -0.56416598608E+02  0.25301913439E+03  0.10191981465E+04  0.10516493602E+04  0.00000000000E+00 0.  1.
         13    1    5    5    0    0  0.17677175821E+03 -0.13934812059E+03  0.93506669205E+02  0.24374094937E+03  0.00000000000E+00 0. -1.
        -13    1    5    5    0    0  0.17049729795E+03 -0.24141572198E+03  0.61506270978E+02  0.30188391941E+03  0.00000000000E+00 0.  1.
          2    1    6    6  503    0 -0.11981889347E+03 -0.41885303618E+02  0.26225466271E+03  0.29135623213E+03  0.00000000000E+00 0. -1.
         -2    1    6    6    0  503 -0.38528482809E+02 -0.35196130743E+02  0.24785279289E+02  0.57771287646E+02  0.00000000000E+00 0.  1.
<mgrwt>
<rscale>  0 0.60146929E+03</rscale>
<asrwt>0</asrwt>
<pdfrwt beam="1">  1        2 0.39932744E+00 0.60146929E+03</pdfrwt>
<pdfrwt beam="2">  1       -2 0.39885886E-01 0.60146929E+03</pdfrwt>
<totfact> 0.19589599E+01</totfact>
</mgrwt>
</event>
<event>
12    1  0.1418317E-007  0.6460117E+03  0.7818608E-02  0.9814292E-01
          1   -1    0    0  501    0  0.00000000000E+00  0.00000000000E+00  0.64874534406E+03  0.64874534406E+03  0.00000000000E+00 0. -1.
         -1   -1    0    0    0  501 -0.00000000000E+00 -0.00000000000E+00 -0.10894774791E+04  0.10894774791E+04  0.00000000000E+00 0.  1.
         23    2    1    2    0    0 -0.16714028688E+03  0.47993537429E+03 -0.73535983872E+03  0.89853439863E+03  0.91302432226E+02 0.  0.
    5000000    2    1    2    0    0  0.16714028688E+03 -0.47993537429E+03  0.29462770366E+03  0.83968842453E+03  0.59999777294E+03 0.  0.
         23    2    4    4    0    0  0.53651248785E+02  0.12591431315E+03  0.54629894538E+02  0.17198535879E+03  0.88666044846E+02 0.  0.
         23    2    4    4    0    0  0.11348903809E+03 -0.60584968744E+03  0.23999780913E+03  0.66770306575E+03  0.91075957791E+02 0.  0.
          1    1    3    3  502    0 -0.10745060431E+03  0.22617572814E+03 -0.29650639346E+03  0.38809423305E+03  0.00000000000E+00 0. -1.
         -1    1    3    3    0  502 -0.59689682566E+02  0.25375964615E+03 -0.43885344526E+03  0.51044016558E+03  0.00000000000E+00 0.  1.
         11    1    5    5    0    0  0.42031949775E+02  0.13863001165E+03  0.54457018851E+02  0.15475959367E+03  0.00000000000E+00 0. -1.
        -11    1    5    5    0    0  0.11619299011E+02 -0.12715698500E+02  0.17287568719E+00  0.17225765117E+02  0.00000000000E+00 0.  1.
          4    1    6    6  503    0  0.79995963777E+02 -0.27762532678E+03  0.15090732325E+03  0.32595735381E+03  0.00000000000E+00 0. -1.
         -4    1    6    6    0  503  0.33493074315E+02 -0.32822436066E+03  0.89090485877E+02  0.34174571194E+03  0.00000000000E+00 0.  1.
<mgrwt>
<rscale>  0 0.64601172E+03</rscale>
<asrwt>0</asrwt>
<pdfrwt beam="1">  1        1 0.99806976E-01 0.64601172E+03</pdfrwt>
<pdfrwt beam="2">  1       -1 0.16761192E+00 0.64601172E+03</pdfrwt>
<totfact> 0.82014346E+00</totfact>
</mgrwt>
</event>
<event>
12    1  0.1418317E-007  0.7622826E+03  0.7818608E-02  0.9616276E-01
         -2   -1    0    0    0  501 -0.00000000000E+00  0.00000000000E+00  0.11561001092E+04  0.11561001092E+04  0.00000000000E+00 0.  1.
          2   -1    0    0  501    0  0.00000000000E+00 -0.00000000000E+00 -0.54986380861E+03  0.54986380861E+03  0.00000000000E+00 0. -1.
         23    2    1    2    0    0 -0.39657473776E+03  0.54727144310E+03  0.17233176922E+03  0.70342153408E+03  0.91247251312E+02 0.  0.
    5000000    2    1    2    0    0  0.39657473776E+03 -0.54727144310E+03  0.43390453136E+03  0.10025423837E+04  0.60003377719E+03 0.  0.
         23    2    4    4    0    0  0.46741629677E+03 -0.59105416499E+03  0.28948228497E+03  0.81213380955E+03  0.89097199005E+02 0.  0.
         23    2    4    4    0    0 -0.70841559013E+02  0.43782721890E+02  0.14442224640E+03  0.19040857417E+03  0.91990144284E+02 0.  0.
          3    1    3    3  502    0 -0.15965910416E+03  0.14807135380E+03  0.57769959389E+02  0.22528542688E+03  0.00000000000E+00 0. -1.
         -3    1    3    3    0  502 -0.23691563359E+03  0.39920008930E+03  0.11456180983E+03  0.47813610720E+03  0.00000000000E+00 0.  1.
         11    1    5    5    0    0  0.26445983313E+03 -0.29460962623E+03  0.11207475043E+03  0.41145423183E+03  0.00000000000E+00 0. -1.
        -11    1    5    5    0    0  0.20295646364E+03 -0.29644453875E+03  0.17740753454E+03  0.40067957772E+03  0.00000000000E+00 0.  1.
          1    1    6    6  503    0 -0.53751204333E+02  0.18340162247E+02  0.14896471945E+03  0.15942409216E+03  0.00000000000E+00 0. -1.
         -1    1    6    6    0  503 -0.17090354680E+02  0.25442559642E+02 -0.45424730585E+01  0.30984482015E+02  0.00000000000E+00 0.  1.
<mgrwt>
<rscale>  0 0.76228261E+03</rscale>
<asrwt>0</asrwt>
<pdfrwt beam="1">  1        2 0.84594432E-01 0.76228261E+03</pdfrwt>
<pdfrwt beam="2">  1       -2 0.17786155E+00 0.76228261E+03</pdfrwt>
<totfact> 0.10491421E+01</totfact>
</mgrwt>
</event>
<event>
12    1  0.1418317E-007  0.8451623E+03  0.7818608E-02  0.9496853E-01
          2   -1    0    0  501    0  0.00000000000E+00  0.00000000000E+00  0.48027272155E+03  0.48027272155E+03  0.00000000000E+00 0. -1.
         -2   -1    0    0    0  501 -0.00000000000E+00 -0.00000000000E+00 -0.20488995998E+04  0.20488995998E+04  0.00000000000E+00 0.  1.
         23    2    1    2    0    0  0.78861039143E+03  0.17610410534E+03 -0.21241121049E+03  0.84033282482E+03  0.90120634307E+02 0.  0.
    5000000    2    1    2    0    0 -0.78861039143E+03 -0.17610410534E+03 -0.13562156678E+04  0.16888394965E+04  0.59994908300E+03 0.  0.
         23    2    4    4    0    0 -0.13434381483E+03 -0.15892745549E+03 -0.77838471706E+03  0.81098790019E+03  0.92262721646E+02 0.  0.
         23    2    4    4    0    0 -0.65426657660E+03 -0.17176649849E+02 -0.57783095071E+03  0.87785159636E+03  0.91515173996E+02 0.  0.
          1    1    3    3  502    0  0.52994836814E+03  0.10918161722E+03 -0.18463774612E+03  0.57171408565E+03  0.00000000000E+00 0.  1.
         -1    1    3    3    0  502  0.25866202329E+03  0.66922488123E+02 -0.27773464367E+02  0.26861873917E+03  0.00000000000E+00 0. -1.
         13    1    5    5    0    0  0.99674596711E+01 -0.97111998078E+01 -0.17856481796E+02  0.22638718960E+02  0.00000000000E+00 0. -1.
        -13    1    5    5    0    0 -0.14431127451E+03 -0.14921625568E+03 -0.76052823527E+03  0.78834918123E+03  0.00000000000E+00 0.  1.
          3    1    6    6  503    0 -0.33323992815E+03  0.35951294099E+02 -0.28013497205E+03  0.43682599261E+03  0.00000000000E+00 0. -1.
         -3    1    6    6    0  503 -0.32102664845E+03 -0.53127943948E+02 -0.29769597866E+03  0.44102560374E+03  0.00000000000E+00 0.  1.
<mgrwt>
<rscale>  0 0.84516232E+03</rscale>
<asrwt>0</asrwt>
<pdfrwt beam="1">  1        2 0.73888110E-01 0.84516232E+03</pdfrwt>
<pdfrwt beam="2">  1       -2 0.31521533E+00 0.84516232E+03</pdfrwt>
<totfact> 0.17037582E+00</totfact>
</mgrwt>
</event>
<event>
12    1  0.1418317E-007  0.4973453E+03  0.7818608E-02  0.1014474E+00
          1   -1    0    0  501    0  0.00000000000E+00  0.00000000000E+00  0.42010645245E+03  0.42010645245E+03  0.00000000000E+00 0. -1.
         -1   -1    0    0    0  501 -0.00000000000E+00 -0.00000000000E+00 -0.70105274830E+03  0.70105274830E+03  0.00000000000E+00 0.  1.
         23    2    1    2    0    0  0.12101412383E+03 -0.31611767520E+03  0.55427239843E+02  0.35452651380E+03  0.89677574310E+02 0.  0.
    5000000    2    1    2    0    0 -0.12101412383E+03  0.31611767520E+03 -0.33637353570E+03  0.76663268694E+03  0.60000309868E+03 0.  0.
         23    2    4    4    0    0  0.16568335241E+03 -0.52486787124E+02 -0.22083090466E+02  0.19744153929E+03  0.91047583510E+02 0.  0.
         23    2    4    4    0    0 -0.28669747624E+03  0.36860446232E+03 -0.31429044523E+03  0.56919114765E+03  0.84471214471E+02 0.  0.
          1    1    3    3  502    0  0.85562806314E+02 -0.29117692540E+03  0.64439828169E+02  0.31025390757E+03  0.00000000000E+00 0. -1.
         -1    1    3    3    0  502  0.35451317519E+02 -0.24940749801E+02 -0.90125883258E+01  0.44272606235E+02  0.00000000000E+00 0.  1.
         13    1    5    5    0    0  0.14916327520E+03 -0.45224590628E+02  0.14609421474E+02  0.15655152973E+03  0.00000000000E+00 0. -1.
        -13    1    5    5    0    0  0.16520077213E+02 -0.72621964956E+01 -0.36692511941E+02  0.40890009557E+02  0.00000000000E+00 0.  1.
          3    1    6    6  503    0 -0.65336899201E+02  0.36542010627E+02 -0.39388646676E+02  0.84591337765E+02  0.00000000000E+00 0. -1.
         -3    1    6    6    0  503 -0.22136057704E+03  0.33206245170E+03 -0.27490179856E+03  0.48459980989E+03  0.00000000000E+00 0.  1.
<mgrwt>
<rscale>  0 0.49734531E+03</rscale>
<asrwt>0</asrwt>
<pdfrwt beam="1">  1        1 0.64631762E-01 0.49734531E+03</pdfrwt>
<pdfrwt beam="2">  1       -1 0.10785427E+00 0.49734531E+03</pdfrwt>
<totfact> 0.47077171E+01</totfact>
</mgrwt>
</event>
<event>
12    1  0.1418317E-007  0.2479401E+03  0.7818608E-02  0.1114614E+00
          1   -1    0    0  501    0  0.00000000000E+00  0.00000000000E+00  0.31752713168E+03  0.31752713168E+03  0.00000000000E+00 0. -1.
         -1   -1    0    0    0  501 -0.00000000000E+00 -0.00000000000E+00 -0.51796975157E+03  0.51796975157E+03  0.00000000000E+00 0.  1.
         23    2    1    2    0    0  0.51625362311E+02 -0.11192194771E+03  0.67109224914E+02  0.16708973526E+03  0.90684238700E+02 0.  0.
    5000000    2    1    2    0    0 -0.51625362311E+02  0.11192194771E+03 -0.26755184480E+03  0.66840714799E+03  0.59999368781E+03 0.  0.
         23    2    4    4    0    0  0.90719877174E+02  0.15321076305E+03  0.12678591631E+03  0.23717397104E+03  0.92049931734E+02 0.  0.
         23    2    4    4    0    0 -0.14234523948E+03 -0.41288815341E+02 -0.39433776111E+03  0.43123317695E+03  0.92156657881E+02 0.  0.
          3    1    3    3  502    0  0.36660533961E+02  0.78772786204E+00  0.30339788613E+02  0.47593256230E+02  0.00000000000E+00 0. -1.
         -3    1    3    3    0  502  0.14964828350E+02 -0.11270967557E+03  0.36769436301E+02  0.11949647903E+03  0.00000000000E+00 0.  1.
         13    1    5    5    0    0  0.86246656258E+02  0.79981677554E+02  0.11182761157E+03  0.16229901161E+03  0.00000000000E+00 0.  1.
        -13    1    5    5    0    0  0.44732209158E+01  0.73229085500E+02  0.14958304743E+02  0.74874959428E+02  0.00000000000E+00 0. -1.
          4    1    6    6  503    0 -0.10264686871E+03 -0.84360765210E+01 -0.15286644857E+03  0.18432497970E+03  0.00000000000E+00 0. -1.
         -4    1    6    6    0  503 -0.39698370771E+02 -0.32852738820E+02 -0.24147131254E+03  0.24690819725E+03  0.00000000000E+00 0.  1.
<mgrwt>
<rscale>  0 0.24794010E+03</rscale>
<asrwt>0</asrwt>
<pdfrwt beam="1">  1        1 0.48850328E-01 0.24794010E+03</pdfrwt>
<pdfrwt beam="2">  1       -1 0.79687654E-01 0.24794010E+03</pdfrwt>
<totfact> 0.13579435E+02</totfact>
</mgrwt>
</event>
<event>
12    1  0.1418317E-007  0.5934892E+03  0.7818608E-02  0.9919007E-01
         -2   -1    0    0    0  501 -0.00000000000E+00  0.00000000000E+00  0.46027252444E+03  0.46027252444E+03  0.00000000000E+00 0.  1.
          2   -1    0    0  501    0  0.00000000000E+00 -0.00000000000E+00 -0.89552308859E+03  0.89552308859E+03  0.00000000000E+00 0. -1.
         23    2    1    2    0    0 -0.36049086076E+03 -0.32142328816E+03 -0.29446305189E+03  0.57319275712E+03  0.92600523865E+02 0.  0.
    5000000    2    1    2    0    0  0.36049086076E+03  0.32142328816E+03 -0.14078751226E+03  0.78260285591E+03  0.59948270667E+03 0.  0.
         23    2    4    4    0    0  0.31097187131E+03 -0.54749256419E+02  0.74137543279E+02  0.33715809860E+03  0.92077262688E+02 0.  0.
         23    2    4    4    0    0  0.49518989449E+02  0.37617254458E+03 -0.21492505554E+03  0.44544475730E+03  0.90941402550E+02 0.  0.
          2    1    3    3  502    0 -0.76611752237E+02 -0.32461536732E+02 -0.77331372401E+02  0.11359248701E+03  0.00000000000E+00 0. -1.
         -2    1    3    3    0  502 -0.28387910852E+03 -0.28896175143E+03 -0.21713167949E+03  0.45960027011E+03  0.00000000000E+00 0.  1.
         13    1    5    5    0    0  0.26784937922E+03 -0.59743446597E+02  0.31368833467E+02  0.27621834312E+03  0.00000000000E+00 0. -1.
        -13    1    5    5    0    0  0.43122492088E+02  0.49941901787E+01  0.42768709813E+02  0.60939755484E+02  0.00000000000E+00 0.  1.
          4    1    6    6  503    0  0.16088550701E+02  0.24367424140E+03 -0.18286696612E+03  0.30508409445E+03  0.00000000000E+00 0. -1.
         -4    1    6    6    0  503  0.33430438748E+02  0.13249830318E+03 -0.32058089419E+02  0.14036066285E+03  0.00000000000E+00 0.  1.
<mgrwt>
<rscale>  0 0.59348917E+03</rscale>
<asrwt>0</asrwt>
<pdfrwt beam="1">  1        2 0.13777278E+00 0.59348917E+03</pdfrwt>
<pdfrwt beam="2">  1       -2 0.70811158E-01 0.59348917E+03</pdfrwt>
<totfact> 0.55068799E+01</totfact>
</mgrwt>
</event>
<event>
12    1  0.1418317E-007  0.8663692E+03  0.7818608E-02  0.9468626E-01
         -2   -1    0    0    0  501 -0.00000000000E+00  0.00000000000E+00  0.11025073815E+04  0.11025073815E+04  0.00000000000E+00 0. -1.
          2   -1    0    0  501    0  0.00000000000E+00 -0.00000000000E+00 -0.79423460976E+03  0.79423460976E+03  0.00000000000E+00 0.  1.
         23    2    1    2    0    0  0.14659494373E+03  0.81489005598E+03  0.14673983693E+02  0.83321570157E+03  0.92180251006E+02 0.  0.
    5000000    2    1    2    0    0 -0.14659494373E+03 -0.81489005598E+03  0.29359878808E+03  0.10635262897E+04  0.59945978991E+03 0.  0.
         23    2    4    4    0    0 -0.24325096050E+03 -0.37236874951E+03 -0.89875278362E+02  0.46310799122E+03  0.92530700153E+02 0.  0.
         23    2    4    4    0    0  0.96656016775E+02 -0.44252130647E+03  0.38347406644E+03  0.60041829851E+03  0.91007039811E+02 0.  0.
          3    1    3    3  502    0  0.28303208198E+02  0.27028501266E+03  0.43234705475E+02  0.27518048517E+03  0.00000000000E+00 0. -1.
         -3    1    3    3    0  502  0.11829173553E+03  0.54460504332E+03 -0.28560721782E+02  0.55803521640E+03  0.00000000000E+00 0.  1.
         13    1    5    5    0    0 -0.59804482301E+02 -0.14694534643E+03 -0.64873117486E+02  0.17140021094E+03  0.00000000000E+00 0. -1.
        -13    1    5    5    0    0 -0.18344647820E+03 -0.22542340308E+03 -0.25002160876E+02  0.29170778027E+03  0.00000000000E+00 0.  1.
          1    1    6    6  503    0  0.62687941452E+02 -0.20266912828E+03  0.12527339109E+03  0.24636959243E+03  0.00000000000E+00 0. -1.
         -1    1    6    6    0  503  0.33968075323E+02 -0.23985217820E+03  0.25820067535E+03  0.35404870608E+03  0.00000000000E+00 0.  1.
<mgrwt>
<rscale>  0 0.86636919E+03</rscale>
<asrwt>0</asrwt>
<pdfrwt beam="1">  1        2 0.12218994E+00 0.86636919E+03</pdfrwt>
<pdfrwt beam="2">  1       -2 0.16961652E+00 0.86636919E+03</pdfrwt>
<totfact> 0.74945108E+00</totfact>
</mgrwt>
</event>
<event>
12    1  0.1418317E-007  0.6742295E+03  0.7818608E-02  0.9762347E-01
         -4   -1    0    0    0  501 -0.00000000000E+00  0.00000000000E+00  0.24223827946E+04  0.24223827946E+04  0.00000000000E+00 0.  1.
          4   -1    0    0  501    0  0.00000000000E+00 -0.00000000000E+00 -0.22357886933E+03  0.22357886933E+03  0.00000000000E+00 0. -1.
         23    2    1    2    0    0  0.12704124015E+03 -0.55105682251E+03  0.13303843494E+04  0.14484016234E+04  0.90231076442E+02 0.  0.
    5000000    2    1    2    0    0 -0.12704124015E+03  0.55105682251E+03  0.86841957588E+03  0.11975600406E+04  0.60016197201E+03 0.  0.
         23    2    4    4    0    0 -0.19673602740E+03 -0.15127874070E+02  0.11143054779E+03  0.24528589680E+03  0.93885500123E+02 0.  0.
         23    2    4    4    0    0  0.69694787256E+02  0.56618469658E+03  0.75698902809E+03  0.95227414377E+03  0.91494165008E+02 0.  0.
          2    1    3    3  502    0  0.52654052632E+02 -0.36237946511E+03  0.93218167872E+03  0.10015258400E+04  0.00000000000E+00 0. -1.
         -2    1    3    3    0  502  0.74387187514E+02 -0.18867735740E+03  0.39820267069E+03  0.44687578342E+03  0.00000000000E+00 0.  1.
         11    1    5    5    0    0 -0.58239126926E+02  0.25748087087E+02  0.70911446225E+02  0.95305787335E+02  0.00000000000E+00 0. -1.
        -11    1    5    5    0    0 -0.13849690048E+03 -0.40875961157E+02  0.40519101569E+02  0.14998010946E+03  0.00000000000E+00 0.  1.
          3    1    6    6  503    0  0.21082312225E+02  0.30393053415E+03  0.47341233613E+03  0.56297200061E+03  0.00000000000E+00 0. -1.
         -3    1    6    6    0  503  0.48612475032E+02  0.26225416243E+03  0.28357669196E+03  0.38930214315E+03  0.00000000000E+00 0.  1.
<mgrwt>
<rscale>  0 0.67422952E+03</rscale>
<asrwt>0</asrwt>
<pdfrwt beam="1">  1        4 0.34396751E-01 0.67422952E+03</pdfrwt>
<pdfrwt beam="2">  1       -4 0.37267426E+00 0.67422952E+03</pdfrwt>
<totfact> 0.17981830E-01</totfact>
</mgrwt>
</event>
<event>
12    1  0.1549599E-007  0.6186102E+03  0.7818608E-02  0.9867531E-01
         -1   -1    0    0    0  501 -0.00000000000E+00  0.00000000000E+00  0.27447453697E+03  0.27447453697E+03  0.00000000000E+00 0.  1.
          1   -1    0    0  501    0  0.00000000000E+00 -0.00000000000E+00 -0.20196710180E+04  0.20196710180E+04  0.00000000000E+00 0. -1.
         23    2    1    2    0    0 -0.41646302807E+03  0.39217933344E+03 -0.36024078139E+03  0.67999174688E+03  0.73275315931E+02 0.  0.
    5000000    2    1    2    0    0  0.41646302807E+03 -0.39217933344E+03 -0.13849556996E+04  0.16141538081E+04  0.60012010703E+03 0.  0.
         23    2    4    4    0    0 -0.57717941777E+01 -0.13762125831E+03 -0.90532503359E+03  0.92032747800E+03  0.91740536195E+02 0.  0.
         23    2    4    4    0    0  0.42223482225E+03 -0.25455807513E+03 -0.47963066606E+03  0.69382633009E+03  0.90924923770E+02 0.  0.
          2    1    3    3  502    0 -0.19902574028E+03  0.18018878597E+03 -0.21188207609E+03  0.34201353489E+03  0.00000000000E+00 0.  1.
         -2    1    3    3    0  502 -0.21743728780E+03  0.21199054748E+03 -0.14835870529E+03  0.33797821199E+03  0.00000000000E+00 0. -1.
         11    1    5    5    0    0 -0.47973475288E+02 -0.70927622700E+02 -0.51995050818E+03  0.52695418486E+03  0.00000000000E+00 0. -1.
        -11    1    5    5    0    0  0.42201681110E+02 -0.66693635614E+02 -0.38537452541E+03  0.39337329314E+03  0.00000000000E+00 0.  1.
          1    1    6    6  503    0  0.34254880046E+03 -0.16366589552E+03 -0.34628610867E+03  0.51384849432E+03  0.00000000000E+00 0. -1.
         -1    1    6    6    0  503  0.79686021788E+02 -0.90892179612E+02 -0.13334455739E+03  0.17997783577E+03  0.00000000000E+00 0.  1.
<mgrwt>
<rscale>  0 0.61861022E+03</rscale>
<asrwt>0</asrwt>
<pdfrwt beam="1">  1        1 0.31071862E+00 0.61861022E+03</pdfrwt>
<pdfrwt beam="2">  1       -1 0.42226852E-01 0.61861022E+03</pdfrwt>
<totfact> 0.16961249E+01</totfact>
</mgrwt>
</event>
<event>
12    1  0.1418317E-007  0.1164444E+04  0.7818608E-02  0.9144561E-01
          2   -1    0    0  501    0  0.00000000000E+00  0.00000000000E+00  0.37211059779E+04  0.37211059779E+04  0.00000000000E+00 0. -1.
         -2   -1    0    0    0  501 -0.00000000000E+00 -0.00000000000E+00 -0.49007794791E+03  0.49007794791E+03  0.00000000000E+00 0.  1.
         23    2    1    2    0    0  0.57909139285E+03 -0.96601015433E+03  0.58160328548E+03  0.12704353117E+04  0.84976702449E+02 0.  0.
    5000000    2    1    2    0    0 -0.57909139285E+03  0.96601015433E+03  0.26494247445E+04  0.29407486141E+04  0.60002372877E+03 0.  0.
         23    2    4    4    0    0  0.47904975665E+02  0.22225311969E+03  0.24838014764E+03  0.34850853863E+03  0.89856373469E+02 0.  0.
         23    2    4    4    0    0 -0.62699636851E+03  0.74375703464E+03  0.24010445969E+04  0.25922400755E+04  0.91621395400E+02 0.  0.
          2    1    3    3  502    0  0.48096407855E+03 -0.82488522291E+03  0.46003817185E+03  0.10599043331E+04  0.00000000000E+00 0.  1.
         -2    1    3    3    0  502  0.98127314294E+02 -0.14112493141E+03  0.12156511363E+03  0.21053097855E+03  0.00000000000E+00 0. -1.
         11    1    5    5    0    0  0.26102763792E+02  0.11664711828E+03  0.19367814214E+03  0.22759421615E+03  0.00000000000E+00 0.  1.
        -11    1    5    5    0    0  0.21802211873E+02  0.10560600141E+03  0.54702005495E+02  0.12091432248E+03  0.00000000000E+00 0. -1.
          3    1    6    6  503    0 -0.54848460972E+03  0.61578615239E+03  0.20917627870E+04  0.22484437973E+04  0.00000000000E+00 0. -1.
         -3    1    6    6    0  503 -0.78511758794E+02  0.12797088225E+03  0.30928180985E+03  0.34379627816E+03  0.00000000000E+00 0.  1.
<mgrwt>
<rscale>  0 0.11644441E+04</rscale>
<asrwt>0</asrwt>
<pdfrwt beam="1">  1        2 0.57247782E+00 0.11644441E+04</pdfrwt>
<pdfrwt beam="2">  1       -2 0.75396610E-01 0.11644441E+04</pdfrwt>
<totfact> 0.90193292E-01</totfact>
</mgrwt>
</event>
<event>
12    1  0.1418317E-007  0.5334802E+03  0.7818608E-02  0.1005392E+00
         -2   -1    0    0    0  501 -0.00000000000E+00  0.00000000000E+00  0.16114790447E+03  0.16114790447E+03  0.00000000000E+00 0.  1.
          2   -1    0    0  501    0  0.00000000000E+00 -0.00000000000E+00 -0.18675264593E+04  0.18675264593E+04  0.00000000000E+00 0. -1.
         23    2    1    2    0    0  0.36429205127E+03  0.85483230572E+02 -0.70058950452E+03  0.79931223994E+03  0.89768155541E+02 0.  0.
    5000000    2    1    2    0    0 -0.36429205127E+03 -0.85483230572E+02 -0.10057890503E+04  0.12293621238E+04  0.59975289615E+03 0.  0.
         23    2    4    4    0    0 -0.65445491077E+02  0.22443745136E+03 -0.24612711677E+03  0.35151003405E+03  0.91243983640E+02 0.  0.
         23    2    4    4    0    0 -0.29884656019E+03 -0.30992068193E+03 -0.75966193351E+03  0.87785208975E+03  0.90431977896E+02 0.  0.
          3    1    3    3  502    0  0.93167809840E+02  0.63579223026E+02 -0.20665674593E+03  0.23543485093E+03  0.00000000000E+00 0. -1.
         -3    1    3    3    0  502  0.27112424143E+03  0.21904007546E+02 -0.49393275858E+03  0.56387738901E+03  0.00000000000E+00 0.  1.
         11    1    5    5    0    0 -0.86681963428E+02  0.16090139469E+03 -0.19481686211E+03  0.26712662046E+03  0.00000000000E+00 0.  1.
        -11    1    5    5    0    0  0.21236472351E+02  0.63536056670E+02 -0.51310254666E+02  0.84383413589E+02  0.00000000000E+00 0. -1.
          1    1    6    6  503    0 -0.20136763806E+03 -0.23489751338E+03 -0.46477165871E+03  0.55833543877E+03  0.00000000000E+00 0. -1.
         -1    1    6    6    0  503 -0.97478922128E+02 -0.75023168552E+02 -0.29489027480E+03  0.31951665097E+03  0.00000000000E+00 0.  1.
<mgrwt>
<rscale>  0 0.53348021E+03</rscale>
<asrwt>0</asrwt>
<pdfrwt beam="1">  1        2 0.28731178E+00 0.53348021E+03</pdfrwt>
<pdfrwt beam="2">  1       -2 0.24791984E-01 0.53348021E+03</pdfrwt>
<totfact> 0.12081564E+02</totfact>
</mgrwt>
</event>
<event>
12    1  0.1418317E-007  0.5357404E+03  0.7818608E-02  0.1004849E+00
         -1   -1    0    0    0  501 -0.00000000000E+00  0.00000000000E+00  0.85526741348E+03  0.85526741348E+03  0.00000000000E+00 0.  1.
          1   -1    0    0  501    0  0.00000000000E+00 -0.00000000000E+00 -0.52993939418E+03  0.52993939418E+03  0.00000000000E+00 0. -1.
         23    2    1    2    0    0  0.47987953514E+03 -0.12052535224E+02  0.37211985561E+03  0.61522558615E+03  0.97978074349E+02 0.  0.
    5000000    2    1    2    0    0 -0.47987953514E+03  0.12052535224E+02 -0.46791836312E+02  0.76998122152E+03  0.60020994135E+03 0.  0.
         23    2    4    4    0    0 -0.14237727693E+03 -0.12610768055E+03  0.22310705229E+03  0.30700183778E+03  0.91098493615E+02 0.  0.
         23    2    4    4    0    0 -0.33750225821E+03  0.13816021577E+03 -0.26989888860E+03  0.46297938374E+03  0.92241423314E+02 0.  0.
          3    1    3    3  502    0  0.37160106207E+03  0.28475837737E+02  0.30466074459E+03  0.48136928855E+03  0.00000000000E+00 0. -1.
         -3    1    3    3    0  502  0.10827847308E+03 -0.40528372961E+02  0.67459111028E+02  0.13385629760E+03  0.00000000000E+00 0.  1.
         13    1    5    5    0    0 -0.87048129682E+02 -0.21487146937E+02  0.71554987224E+02  0.11471351516E+03  0.00000000000E+00 0. -1.
        -13    1    5    5    0    0 -0.55329147248E+02 -0.10462053361E+03  0.15155206507E+03  0.19228832262E+03  0.00000000000E+00 0.  1.
          2    1    6    6  503    0 -0.31430075165E+03  0.98780342474E+02 -0.22536199134E+03  0.39916230494E+03  0.00000000000E+00 0. -1.
         -2    1    6    6    0  503 -0.23201506563E+02  0.39379873299E+02 -0.44536897268E+02  0.63817078796E+02  0.00000000000E+00 0.  1.
<mgrwt>
<rscale>  0 0.53574040E+03</rscale>
<asrwt>0</asrwt>
<pdfrwt beam="1">  1        1 0.81529138E-01 0.53574040E+03</pdfrwt>
<pdfrwt beam="2">  1       -1 0.13157960E+00 0.53574040E+03</pdfrwt>
<totfact> 0.21192945E+01</totfact>
</mgrwt>
</event>
<event>
12    1  0.1418317E-007  0.6206199E+03  0.7818608E-02  0.9863526E-01
         -2   -1    0    0    0  501 -0.00000000000E+00  0.00000000000E+00  0.52939585198E+03  0.52939585198E+03  0.00000000000E+00 0.  1.
          2   -1    0    0  501    0  0.00000000000E+00 -0.00000000000E+00 -0.79700130653E+03  0.79700130653E+03  0.00000000000E+00 0. -1.
         23    2    1    2    0    0  0.26992279674E+03 -0.41451596354E+03  0.38989902031E+00  0.50383821342E+03  0.95765301915E+02 0.  0.
    5000000    2    1    2    0    0 -0.26992279674E+03  0.41451596354E+03 -0.26799535357E+03  0.82255894509E+03  0.60008325121E+03 0.  0.
         23    2    4    4    0    0 -0.28791443696E+03 -0.13737810881E+02  0.12160017512E+02  0.30243817073E+03  0.90760843039E+02 0.  0.
         23    2    4    4    0    0  0.17991640225E+02  0.42825377442E+03 -0.28015537109E+03  0.52012077436E+03  0.91178909570E+02 0.  0.
          2    1    3    3  502    0  0.15917451570E+03 -0.16284083736E+03  0.17182016095E+02  0.22836130679E+03  0.00000000000E+00 0. -1.
         -2    1    3    3    0  502  0.11074828103E+03 -0.25167512618E+03 -0.16792117074E+02  0.27547690663E+03  0.00000000000E+00 0.  1.
         13    1    5    5    0    0 -0.13543170244E+03 -0.51848140108E+02  0.51224266062E+01  0.14510759771E+03  0.00000000000E+00 0. -1.
        -13    1    5    5    0    0 -0.15248273452E+03  0.38110329228E+02  0.70375909062E+01  0.15733057302E+03  0.00000000000E+00 0.  1.
          2    1    6    6  503    0 -0.32890460780E+02  0.16993496120E+03 -0.13473578679E+03  0.21934768221E+03  0.00000000000E+00 0.  1.
         -2    1    6    6    0  503  0.50882101005E+02  0.25831881322E+03 -0.14541958430E+03  0.30077309216E+03  0.00000000000E+00 0. -1.
<mgrwt>
<rscale>  0 0.62061993E+03</rscale>
<asrwt>0</asrwt>
<pdfrwt beam="1">  1        2 0.12261558E+00 0.62061993E+03</pdfrwt>
<pdfrwt beam="2">  1       -2 0.81445516E-01 0.62061993E+03</pdfrwt>
<totfact> 0.47123481E+01</totfact>
</mgrwt>
</event>
<event>
12    1  0.1418317E-007  0.4321871E+03  0.7818608E-02  0.1033171E+00
         -1   -1    0    0    0  501 -0.00000000000E+00  0.00000000000E+00  0.31083626834E+03  0.31083626834E+03  0.00000000000E+00 0.  1.
          1   -1    0    0  501    0  0.00000000000E+00 -0.00000000000E+00 -0.11307114035E+04  0.11307114035E+04  0.00000000000E+00 0. -1.
         23    2    1    2    0    0  0.20677592054E+03 -0.12084773561E+03 -0.74922311914E+03  0.79171695462E+03  0.90111028503E+02 0.  0.
    5000000    2    1    2    0    0 -0.20677592054E+03  0.12084773561E+03 -0.70652015978E+02  0.64983071718E+03  0.59993982791E+03 0.  0.
         23    2    4    4    0    0 -0.12545164773E+03  0.34998442149E+03 -0.73687808821E+02  0.38997216709E+03  0.91767024207E+02 0.  0.
         23    2    4    4    0    0 -0.81324272812E+02 -0.22913668588E+03  0.30357928423E+01  0.25985855009E+03  0.91651469456E+02 0.  0.
          4    1    3    3  502    0  0.18380854761E+03 -0.89455554417E+02 -0.69849111089E+03  0.72778960586E+03  0.00000000000E+00 0. -1.
         -4    1    3    3    0  502  0.22967372930E+02 -0.31392181191E+02 -0.50732008242E+02  0.63927348761E+02  0.00000000000E+00 0.  1.
         13    1    5    5    0    0 -0.46978682519E+02  0.73244939658E+02 -0.52308653028E+02  0.10152838509E+03  0.00000000000E+00 0. -1.
        -13    1    5    5    0    0 -0.78472965213E+02  0.27673948183E+03 -0.21379155792E+02  0.28844378200E+03  0.00000000000E+00 0.  1.
          1    1    6    6  503    0 -0.35573052222E+01 -0.61395263401E+02  0.37147140401E+02  0.71846661916E+02  0.00000000000E+00 0. -1.
         -1    1    6    6    0  503 -0.77766967590E+02 -0.16774142248E+03 -0.34111347559E+02  0.18801188818E+03  0.00000000000E+00 0.  1.
<mgrwt>
<rscale>  0 0.43218706E+03</rscale>
<asrwt>0</asrwt>
<pdfrwt beam="1">  1        1 0.17395560E+00 0.43218706E+03</pdfrwt>
<pdfrwt beam="2">  1       -1 0.47820965E-01 0.43218706E+03</pdfrwt>
<totfact> 0.56074120E+01</totfact>
</mgrwt>
</event>
<event>
12    1  0.1418317E-007  0.5660996E+03  0.7818608E-02  0.9978347E-01
          1   -1    0    0  501    0  0.00000000000E+00  0.00000000000E+00  0.10571795472E+04  0.10571795472E+04  0.00000000000E+00 0. -1.
         -1   -1    0    0    0  501 -0.00000000000E+00 -0.00000000000E+00 -0.33005629143E+03  0.33005629143E+03  0.00000000000E+00 0.  1.
         23    2    1    2    0    0 -0.48100429384E+02  0.40890205756E+03  0.11689771348E+03  0.43754795490E+03  0.90931806498E+02 0.  0.
    5000000    2    1    2    0    0  0.48100429384E+02 -0.40890205756E+03  0.61022554229E+03  0.94968788373E+03  0.60001443320E+03 0.  0.
         23    2    4    4    0    0 -0.20114408408E+03  0.14490105178E+02  0.13727938861E+03  0.26145565214E+03  0.94045317742E+02 0.  0.
         23    2    4    4    0    0  0.24924451347E+03 -0.42339216274E+03  0.47294615368E+03  0.68823223159E+03  0.92745832001E+02 0.  0.
          3    1    3    3  502    0 -0.66839246934E+02  0.33271596153E+03  0.71196495809E+02  0.34675111680E+03  0.00000000000E+00 0. -1.
         -3    1    3    3    0  502  0.18738817550E+02  0.76186096034E+02  0.45701217670E+02  0.90796838097E+02  0.00000000000E+00 0.  1.
         11    1    5    5    0    0 -0.22223995501E+02  0.35465923867E+02  0.19103101735E+02  0.46007241036E+02  0.00000000000E+00 0.  1.
        -11    1    5    5    0    0 -0.17892008858E+03 -0.20975818689E+02  0.11817628688E+03  0.21544841111E+03  0.00000000000E+00 0. -1.
          3    1    6    6  503    0  0.94909481502E+02 -0.19296708071E+03  0.14813312135E+03  0.26112741250E+03  0.00000000000E+00 0. -1.
         -3    1    6    6    0  503  0.15433503196E+03 -0.23042508203E+03  0.32481303232E+03  0.42710481909E+03  0.00000000000E+00 0.  1.
<mgrwt>
<rscale>  0 0.56609960E+03</rscale>
<asrwt>0</asrwt>
<pdfrwt beam="1">  1        1 0.16264300E+00 0.56609960E+03</pdfrwt>
<pdfrwt beam="2">  1       -1 0.50777892E-01 0.56609960E+03</pdfrwt>
<totfact> 0.55660868E+01</totfact>
</mgrwt>
</event>
<event>
12    1  0.1418317E-007  0.1214523E+04  0.7818608E-02  0.9100239E-01
          2   -1    0    0  501    0  0.00000000000E+00  0.00000000000E+00  0.18972164191E+04  0.18972164191E+04  0.00000000000E+00 0. -1.
         -2   -1    0    0    0  501 -0.00000000000E+00 -0.00000000000E+00 -0.92651588094E+03  0.92651588094E+03  0.00000000000E+00 0.  1.
         23    2    1    2    0    0 -0.88278310979E+03 -0.81090721036E+03  0.60938428627E+02  0.12038077331E+04  0.92536713899E+02 0.  0.
    5000000    2    1    2    0    0  0.88278310979E+03  0.81090721036E+03  0.90976210950E+03  0.16199245669E+04  0.59967656603E+03 0.  0.
         23    2    4    4    0    0  0.39350734233E+03  0.20062699599E+03  0.48972544358E+02  0.45325384165E+03  0.89115177627E+02 0.  0.
         23    2    4    4    0    0  0.48927576747E+03  0.61028021437E+03  0.86078956514E+03  0.11666707253E+04  0.91264390879E+02 0.  0.
          1    1    3    3  502    0 -0.74963121859E+03 -0.65770926204E+03  0.76800948955E+02  0.10002133887E+04  0.00000000000E+00 0. -1.
         -1    1    3    3    0  502 -0.13315189121E+03 -0.15319794832E+03 -0.15862520327E+02  0.20359434436E+03  0.00000000000E+00 0.  1.
         13    1    5    5    0    0  0.18010282159E+03  0.10509116502E+03 -0.20003760177E+02  0.20947870949E+03  0.00000000000E+00 0. -1.
        -13    1    5    5    0    0  0.21340452073E+03  0.95535830971E+02  0.68976304536E+02  0.24377513215E+03  0.00000000000E+00 0.  1.
          3    1    6    6  503    0  0.26802717154E+03  0.39816403896E+03  0.55414621266E+03  0.73311062713E+03  0.00000000000E+00 0. -1.
         -3    1    6    6    0  503  0.22124859593E+03  0.21211617541E+03  0.30664335248E+03  0.43356009813E+03  0.00000000000E+00 0.  1.
<mgrwt>
<rscale>  0 0.12145229E+04</rscale>
<asrwt>0</asrwt>
<pdfrwt beam="1">  1        2 0.29187945E+00 0.12145229E+04</pdfrwt>
<pdfrwt beam="2">  1       -2 0.14254091E+00 0.12145229E+04</pdfrwt>
<totfact> 0.25382239E+00</totfact>
</mgrwt>
</event>
<event>
12    1  0.1418317E-007  0.5752975E+03  0.7818608E-02  0.9958024E-01
          2   -1    0    0  501    0  0.00000000000E+00  0.00000000000E+00  0.10581539965E+04  0.10581539965E+04  0.00000000000E+00 0. -1.
         -2   -1    0    0    0  501 -0.00000000000E+00 -0.00000000000E+00 -0.33038846504E+03  0.33038846504E+03  0.00000000000E+00 0.  1.
         23    2    1    2    0    0 -0.23050134100E+03  0.35140639719E+03  0.14989287325E+03  0.45547437813E+03  0.91497057312E+02 0.  0.
    5000000    2    1    2    0    0  0.23050134100E+03 -0.35140639719E+03  0.57787265817E+03  0.93306808336E+03  0.60005159357E+03 0.  0.
         23    2    4    4    0    0  0.25375941328E+02 -0.47030184805E+03  0.39312565824E+03  0.61998545983E+03  0.89478603874E+02 0.  0.
         23    2    4    4    0    0  0.20512539967E+03  0.11889545086E+03  0.18474699993E+03  0.31308262353E+03  0.87616878246E+02 0.  0.
          4    1    3    3  502    0 -0.16326955918E+03  0.21042169004E+03  0.13493216650E+03  0.29856477715E+03  0.00000000000E+00 0. -1.
         -4    1    3    3    0  502 -0.67231781815E+02  0.14098470715E+03  0.14960706753E+02  0.15690960099E+03  0.00000000000E+00 0.  1.
         11    1    5    5    0    0  0.41006080456E+00 -0.42220802484E+03  0.32426328027E+03  0.53235933289E+03  0.00000000000E+00 0.  1.
        -11    1    5    5    0    0  0.24965880524E+02 -0.48093823215E+02  0.68862377973E+02  0.87626126937E+02  0.00000000000E+00 0. -1.
          2    1    6    6  503    0  0.13373377036E+02  0.43700183743E+02  0.45305119351E+02  0.64351434420E+02  0.00000000000E+00 0. -1.
         -2    1    6    6    0  503  0.19175202263E+03  0.75195267118E+02  0.13944188058E+03  0.24873118912E+03  0.00000000000E+00 0.  1.
<mgrwt>
<rscale>  0 0.57529754E+03</rscale>
<asrwt>0</asrwt>
<pdfrwt beam="1">  1        2 0.16279292E+00 0.57529754E+03</pdfrwt>
<pdfrwt beam="2">  1       -2 0.50828995E-01 0.57529754E+03</pdfrwt>
<totfact> 0.87227886E+01</totfact>
</mgrwt>
</event>
<event>
12    1  0.1418317E-007  0.4117056E+03  0.7818608E-02  0.1039800E+00
          2   -1    0    0  501    0  0.00000000000E+00  0.00000000000E+00  0.89262986239E+03  0.89262986239E+03  0.00000000000E+00 0.  1.
         -2   -1    0    0    0  501 -0.00000000000E+00 -0.00000000000E+00 -0.35708104971E+03  0.35708104971E+03  0.00000000000E+00 0. -1.
         23    2    1    2    0    0 -0.34146174554E+03  0.19964081105E+03  0.24902078050E+03  0.47614518741E+03  0.90831235126E+02 0.  0.
    5000000    2    1    2    0    0  0.34146174554E+03 -0.19964081105E+03  0.28652803218E+03  0.77356572468E+03  0.59987752090E+03 0.  0.
         23    2    4    4    0    0  0.18831801368E+03 -0.18085760666E+03  0.45187664458E+03  0.52949859963E+03  0.89460141617E+02 0.  0.
         23    2    4    4    0    0  0.15314373186E+03 -0.18783204383E+02 -0.16534861240E+03  0.24406712505E+03  0.91775740439E+02 0.  0.
          3    1    3    3  502    0 -0.16197320359E+03  0.12781087920E+03  0.16980841130E+03  0.26721870457E+03  0.00000000000E+00 0. -1.
         -3    1    3    3    0  502 -0.17948854195E+03  0.71829931843E+02  0.79212369202E+02  0.20892648284E+03  0.00000000000E+00 0.  1.
         11    1    5    5    0    0  0.10741577872E+03 -0.12799138194E+03  0.20558834365E+03  0.26492736818E+03  0.00000000000E+00 0. -1.
        -11    1    5    5    0    0  0.80902234962E+02 -0.52866224724E+02  0.24628830093E+03  0.26457123145E+03  0.00000000000E+00 0.  1.
          1    1    6    6  503    0  0.11894406178E+03  0.38545370800E+01 -0.16451410546E+03  0.20304540916E+03  0.00000000000E+00 0. -1.
         -1    1    6    6    0  503  0.34199670084E+02 -0.22637741463E+02 -0.83450693988E+00  0.41021715886E+02  0.00000000000E+00 0.  1.
<mgrwt>
<rscale>  0 0.41170562E+03</rscale>
<asrwt>0</asrwt>
<pdfrwt beam="1">  1        2 0.13732767E+00 0.41170562E+03</pdfrwt>
<pdfrwt beam="2">  1       -2 0.54935546E-01 0.41170562E+03</pdfrwt>
<totfact> 0.96642599E+01</totfact>
</mgrwt>
</event>
<event>
12    1  0.1418317E-007  0.1136423E+04  0.7818608E-02  0.9170401E-01
          1   -1    0    0  501    0  0.00000000000E+00  0.00000000000E+00  0.31756428430E+04  0.31756428430E+04  0.00000000000E+00 0. -1.
         -1   -1    0    0    0  501 -0.00000000000E+00 -0.00000000000E+00 -0.81618726542E+03  0.81618726542E+03  0.00000000000E+00 0.  1.
         23    2    1    2    0    0  0.48319015395E+03  0.10126120645E+04 -0.19079912509E+03  0.11417852194E+04  0.91723841279E+02 0.  0.
    5000000    2    1    2    0    0 -0.48319015395E+03 -0.10126120645E+04  0.25502547027E+04  0.28500448891E+04  0.60008407991E+03 0.  0.
         23    2    4    4    0    0 -0.44859384899E+03 -0.83624380820E+03  0.14756517859E+04  0.17567649077E+04  0.90192014519E+02 0.  0.
         23    2    4    4    0    0 -0.34596304967E+02 -0.17636825629E+03  0.10746029168E+04  0.10932799814E+04  0.90482168288E+02 0.  0.
          1    1    3    3  502    0  0.28974517984E+03  0.67472989957E+03 -0.91561539863E+02  0.73999744742E+03  0.00000000000E+00 0. -1.
         -1    1    3    3    0  502  0.19344497411E+03  0.33788216493E+03 -0.99237585223E+02  0.40178777197E+03  0.00000000000E+00 0.  1.
         13    1    5    5    0    0 -0.14158114134E+03 -0.18349603188E+03  0.34631840790E+03  0.41671627392E+03  0.00000000000E+00 0.  1.
        -13    1    5    5    0    0 -0.30701270765E+03 -0.65274777632E+03  0.11293333780E+04  0.13400486338E+04  0.00000000000E+00 0. -1.
          4    1    6    6  503    0  0.24750612726E+02 -0.70472092587E+02  0.53515434914E+03  0.54034163828E+03  0.00000000000E+00 0. -1.
         -4    1    6    6    0  503 -0.59346917693E+02 -0.10589616371E+03  0.53944856762E+03  0.55293834307E+03  0.00000000000E+00 0.  1.
<mgrwt>
<rscale>  0 0.11364228E+04</rscale>
<asrwt>0</asrwt>
<pdfrwt beam="1">  1        1 0.48856043E+00 0.11364228E+04</pdfrwt>
<pdfrwt beam="2">  1       -1 0.12556727E+00 0.11364228E+04</pdfrwt>
<totfact> 0.24703079E-01</totfact>
</mgrwt>
</event>
<event>
12    1  0.1418317E-007  0.1952195E+04  0.7818608E-02  0.8629303E-01
         -1   -1    0    0    0  501 -0.00000000000E+00  0.00000000000E+00  0.13674925908E+04  0.13674925908E+04  0.00000000000E+00 0.  1.
          1   -1    0    0  501    0  0.00000000000E+00 -0.00000000000E+00 -0.30668644526E+04  0.30668644526E+04  0.00000000000E+00 0. -1.
         23    2    1    2    0    0 -0.65715334669E+03  0.17902821851E+04 -0.16935225866E+03  0.19168459542E+04  0.93045157288E+02 0.  0.
    5000000    2    1    2    0    0  0.65715334669E+03 -0.17902821851E+04 -0.15300196031E+04  0.25175110891E+04  0.59995106009E+03 0.  0.
         23    2    4    4    0    0  0.74569369658E+03 -0.14119089737E+04 -0.11999204757E+04  0.19993496519E+04  0.89687477290E+02 0.  0.
         23    2    4    4    0    0 -0.88540349893E+02 -0.37837321142E+03 -0.33009912746E+03  0.51816143721E+03  0.92304714816E+02 0.  0.
          1    1    3    3  502    0 -0.44172895129E+03  0.12201122042E+04 -0.71975199980E+02  0.12996071278E+04  0.00000000000E+00 0. -1.
         -1    1    3    3    0  502 -0.21542439540E+03  0.57016998089E+03 -0.97377058684E+02  0.61723882638E+03  0.00000000000E+00 0.  1.
         13    1    5    5    0    0  0.63745855588E+03 -0.11575443397E+04 -0.96059093422E+03  0.16337065991E+04  0.00000000000E+00 0. -1.
        -13    1    5    5    0    0  0.10823514070E+03 -0.25436463393E+03 -0.23932954144E+03  0.36564305283E+03  0.00000000000E+00 0.  1.
          3    1    6    6  503    0 -0.86490483985E+02 -0.16771034297E+03 -0.15938905981E+03  0.24700654920E+03  0.00000000000E+00 0. -1.
         -3    1    6    6    0  503 -0.20498659080E+01 -0.21066286845E+03 -0.17071006766E+03  0.27115488801E+03  0.00000000000E+00 0.  1.
<mgrwt>
<rscale>  0 0.19521954E+04</rscale>
<asrwt>0</asrwt>
<pdfrwt beam="1">  1        1 0.47182530E+00 0.19521954E+04</pdfrwt>
<pdfrwt beam="2">  1       -1 0.21038348E+00 0.19521954E+04</pdfrwt>
<totfact> 0.61257334E-02</totfact>
</mgrwt>
</event>
<event>
12    1  0.1418317E-007  0.5235717E+03  0.7818608E-02  0.1007803E+00
         -1   -1    0    0    0  501 -0.00000000000E+00  0.00000000000E+00  0.18210610475E+03  0.18210610475E+03  0.00000000000E+00 0.  1.
          1   -1    0    0  501    0  0.00000000000E+00 -0.00000000000E+00 -0.20541904496E+04  0.20541904496E+04  0.00000000000E+00 0. -1.
         23    2    1    2    0    0  0.27310116450E+03  0.26514775201E+03 -0.11834691588E+04  0.12468225016E+04  0.95286537102E+02 0.  0.
    5000000    2    1    2    0    0 -0.27310116450E+03 -0.26514775201E+03 -0.68861518607E+03  0.98947405279E+03  0.59998370830E+03 0.  0.
         23    2    4    4    0    0 -0.34066151870E+03 -0.38707943339E+03 -0.41052890144E+03  0.66542441826E+03  0.91514585889E+02 0.  0.
         23    2    4    4    0    0  0.67560354201E+02  0.12193168139E+03 -0.27808628463E+03  0.32404963453E+03  0.90798940264E+02 0.  0.
          3    1    3    3  502    0  0.20684361853E+03  0.24735010252E+03 -0.10124990548E+04  0.10626009089E+04  0.00000000000E+00 0. -1.
         -3    1    3    3    0  502  0.66257545968E+02  0.17797649488E+02 -0.17097010405E+03  0.18422159267E+03  0.00000000000E+00 0.  1.
         13    1    5    5    0    0 -0.24213957828E+03 -0.29249009175E+03 -0.34858700047E+03  0.51545603696E+03  0.00000000000E+00 0. -1.
        -13    1    5    5    0    0 -0.98521940419E+02 -0.94589341637E+02 -0.61941900971E+02  0.14996838130E+03  0.00000000000E+00 0.  1.
          4    1    6    6  503    0  0.27936064160E+02  0.61443901023E+02 -0.22344139477E+03  0.23341343910E+03  0.00000000000E+00 0. -1.
         -4    1    6    6    0  503  0.39624290041E+02  0.60487780362E+02 -0.54644889857E+02  0.90636195430E+02  0.00000000000E+00 0.  1.
<mgrwt>
<rscale>  0 0.52357171E+03</rscale>
<asrwt>0</asrwt>
<pdfrwt beam="1">  1        1 0.31602930E+00 0.52357171E+03</pdfrwt>
<pdfrwt beam="2">  1       -1 0.28016324E-01 0.52357171E+03</pdfrwt>
<totfact> 0.33830134E+01</totfact>
</mgrwt>
</event>
<event>
12    1  0.1418317E-007  0.4457076E+03  0.7818608E-02  0.1029010E+00
          1   -1    0    0  501    0  0.00000000000E+00  0.00000000000E+00  0.15284622454E+04  0.15284622454E+04  0.00000000000E+00 0. -1.
         -1   -1    0    0    0  501 -0.00000000000E+00 -0.00000000000E+00 -0.16843166562E+03  0.16843166562E+03  0.00000000000E+00 0.  1.
         23    2    1    2    0    0 -0.25544208800E+03 -0.14092728791E+03  0.67590432035E+03  0.74178078200E+03  0.90999546585E+02 0.  0.
    5000000    2    1    2    0    0  0.25544208800E+03  0.14092728791E+03  0.68412625939E+03  0.95511312898E+03  0.59925052321E+03 0.  0.
         23    2    4    4    0    0  0.30964337741E+03  0.29513913211E+03  0.61638252812E+03  0.75584352615E+03  0.91574486492E+02 0.  0.
         23    2    4    4    0    0 -0.54201289414E+02 -0.15421184420E+03  0.67743731267E+02  0.19926960283E+03  0.91651998438E+02 0.  0.
          2    1    3    3  502    0 -0.18573522296E+03 -0.10724560815E+03  0.38454347102E+03  0.44030997561E+03  0.00000000000E+00 0. -1.
         -2    1    3    3    0  502 -0.69706865040E+02 -0.33681679756E+02  0.29136084933E+03  0.30147080639E+03  0.00000000000E+00 0.  1.
         13    1    5    5    0    0  0.18393362904E+03  0.14665774662E+03  0.40649431521E+03  0.46965700552E+03  0.00000000000E+00 0.  1.
        -13    1    5    5    0    0  0.12570974837E+03  0.14848138549E+03  0.20988821291E+03  0.28618652063E+03  0.00000000000E+00 0. -1.
          4    1    6    6  503    0 -0.22257332319E+01 -0.74717807660E+02 -0.11430210610E+02  0.75619801537E+02  0.00000000000E+00 0. -1.
         -4    1    6    6    0  503 -0.51975556182E+02 -0.79494036544E+02  0.79173941877E+02  0.12364980129E+03  0.00000000000E+00 0.  1.
<mgrwt>
<rscale>  0 0.44570759E+03</rscale>
<asrwt>0</asrwt>
<pdfrwt beam="1">  1        1 0.23514803E+00 0.44570759E+03</pdfrwt>
<pdfrwt beam="2">  1       -1 0.25912565E-01 0.44570759E+03</pdfrwt>
<totfact> 0.87530523E+01</totfact>
</mgrwt>
</event>
<event>
12    1  0.1418317E-007  0.6973868E+03  0.7818608E-02  0.9721712E-01
         -1   -1    0    0    0  501 -0.00000000000E+00  0.00000000000E+00  0.40576311377E+03  0.40576311377E+03  0.00000000000E+00 0.  1.
          1   -1    0    0  501    0  0.00000000000E+00 -0.00000000000E+00 -0.17413905912E+04  0.17413905912E+04  0.00000000000E+00 0. -1.
         23    2    1    2    0    0  0.11424625049E+03  0.67430180128E+03 -0.91150757954E+03  0.11433425641E+04  0.93010893820E+02 0.  0.
    5000000    2    1    2    0    0 -0.11424625049E+03 -0.67430180128E+03 -0.42411989790E+03  0.10038111409E+04  0.60001999448E+03 0.  0.
         23    2    4    4    0    0 -0.11361131040E+03 -0.40318163165E+03 -0.54523043557E+03  0.69377673651E+03  0.92665928472E+02 0.  0.
         23    2    4    4    0    0 -0.63494008972E+00 -0.27112016963E+03  0.12111053767E+03  0.31003440436E+03  0.89146060037E+02 0.  0.
          4    1    3    3  502    0  0.62895654491E+02  0.15723201343E+03 -0.19526646572E+03  0.25847004089E+03  0.00000000000E+00 0. -1.
         -4    1    3    3    0  502  0.51350595998E+02  0.51706978785E+03 -0.71624111382E+03  0.88487252322E+03  0.00000000000E+00 0.  1.
         11    1    5    5    0    0 -0.72511496536E+02 -0.18955749918E+03 -0.33226049577E+03  0.38934175178E+03  0.00000000000E+00 0.  1.
        -11    1    5    5    0    0 -0.41099813864E+02 -0.21362413247E+03 -0.21296993980E+03  0.30443498474E+03  0.00000000000E+00 0. -1.
          3    1    6    6  503    0 -0.43042766610E+02 -0.17578836160E+03  0.80362351419E+02  0.19802104777E+03  0.00000000000E+00 0. -1.
         -3    1    6    6    0  503  0.42407826520E+02 -0.95331808030E+02  0.40748186253E+02  0.11201335659E+03  0.00000000000E+00 0.  1.
<mgrwt>
<rscale>  0 0.69738676E+03</rscale>
<asrwt>0</asrwt>
<pdfrwt beam="1">  1        1 0.26790624E+00 0.69738676E+03</pdfrwt>
<pdfrwt beam="2">  1       -1 0.62425095E-01 0.69738676E+03</pdfrwt>
<totfact> 0.12197622E+01</totfact>
</mgrwt>
</event>
<event>
12    1  0.1418317E-007  0.1003886E+04  0.7818608E-02  0.9304293E-01
         -1   -1    0    0    0  501 -0.00000000000E+00  0.00000000000E+00  0.12939595536E+04  0.12939595536E+04  0.00000000000E+00 0.  1.
          1   -1    0    0  501    0  0.00000000000E+00 -0.00000000000E+00 -0.80821906276E+03  0.80821906276E+03  0.00000000000E+00 0. -1.
         23    2    1    2    0    0  0.77577332063E+03 -0.51415495877E+03  0.16923586148E+03  0.95053824989E+03  0.93287839858E+02 0.  0.
    5000000    2    1    2    0    0 -0.77577332063E+03  0.51415495877E+03  0.31650462940E+03  0.11516403665E+04  0.59993398530E+03 0.  0.
         23    2    4    4    0    0 -0.53583832245E+03  0.59602138858E+03  0.11636404382E+03  0.81594133465E+03  0.99274706979E+02 0.  0.
         23    2    4    4    0    0 -0.23993499818E+03 -0.81866429817E+02  0.20014058558E+03  0.33569903186E+03  0.91469504802E+02 0.  0.
          1    1    3    3  502    0  0.50521402567E+03 -0.37560337569E+03  0.86074171255E+02  0.63539583766E+03  0.00000000000E+00 0. -1.
         -1    1    3    3    0  502  0.27055929496E+03 -0.13855158308E+03  0.83161690223E+02  0.31514241223E+03  0.00000000000E+00 0.  1.
         13    1    5    5    0    0 -0.32732165780E+03  0.31027899993E+03  0.31146037821E+02  0.45208693980E+03  0.00000000000E+00 0. -1.
        -13    1    5    5    0    0 -0.20851666465E+03  0.28574238865E+03  0.85218005995E+02  0.36385439485E+03  0.00000000000E+00 0.  1.
          1    1    6    6  503    0 -0.72224502478E+02 -0.71270597147E+02  0.75191389410E+02  0.12629181215E+03  0.00000000000E+00 0. -1.
         -1    1    6    6    0  503 -0.16771049570E+03 -0.10595832670E+02  0.12494919617E+03  0.20940721970E+03  0.00000000000E+00 0.  1.
<mgrwt>
<rscale>  0 0.10038856E+04</rscale>
<asrwt>0</asrwt>
<pdfrwt beam="1">  1        1 0.12434139E+00 0.10038856E+04</pdfrwt>
<pdfrwt beam="2">  1       -1 0.19907070E+00 0.10038856E+04</pdfrwt>
<totfact> 0.33336016E+00</totfact>
</mgrwt>
</event>
<event>
12    1  0.1418317E-007  0.3940682E+03  0.7818608E-02  0.1045853E+00
         -1   -1    0    0    0  501 -0.00000000000E+00  0.00000000000E+00  0.72780112561E+03  0.72780112561E+03  0.00000000000E+00 0.  1.
          1   -1    0    0  501    0  0.00000000000E+00 -0.00000000000E+00 -0.39861309474E+03  0.39861309474E+03  0.00000000000E+00 0. -1.
         23    2    1    2    0    0 -0.15385383470E+03  0.32509277338E+03  0.55304861653E+02  0.37520603418E+03  0.91458332643E+02 0.  0.
    5000000    2    1    2    0    0  0.15385383470E+03 -0.32509277338E+03  0.27388316921E+03  0.75120818616E+03  0.59995452729E+03 0.  0.
         23    2    4    4    0    0  0.19796952523E+02 -0.53522782613E+02  0.39777039118E+03  0.41165786783E+03  0.89354957643E+02 0.  0.
         23    2    4    4    0    0  0.13405688218E+03 -0.27156999077E+03 -0.12388722197E+03  0.33955031833E+03  0.90691054510E+02 0.  0.
          2    1    3    3  502    0 -0.74720642440E+02  0.25354474297E+03  0.35466634824E+02  0.26669456928E+03  0.00000000000E+00 0. -1.
         -2    1    3    3    0  502 -0.79133192264E+02  0.71548030407E+02  0.19838226830E+02  0.10851146491E+03  0.00000000000E+00 0.  1.
         13    1    5    5    0    0  0.29286674910E+02 -0.75172728811E+02  0.33517943371E+03  0.34475194164E+03  0.00000000000E+00 0.  1.
        -13    1    5    5    0    0 -0.94897223871E+01  0.21649946199E+02  0.62590957474E+02  0.66905926186E+02  0.00000000000E+00 0. -1.
          1    1    6    6  503    0  0.12088537172E+03 -0.16032820901E+03 -0.10274133935E+03  0.22555307692E+03  0.00000000000E+00 0. -1.
         -1    1    6    6    0  503  0.13171510460E+02 -0.11124178176E+03 -0.21145882622E+02  0.11399724141E+03  0.00000000000E+00 0.  1.
<mgrwt>
<rscale>  0 0.39406815E+03</rscale>
<asrwt>0</asrwt>
<pdfrwt beam="1">  1        1 0.61325092E-01 0.39406815E+03</pdfrwt>
<pdfrwt beam="2">  1       -1 0.11196940E+00 0.39406815E+03</pdfrwt>
<totfact> 0.46895552E+01</totfact>
</mgrwt>
</event>
<event>
12    1  0.1418317E-007  0.1031632E+04  0.7818608E-02  0.9274516E-01
          2   -1    0    0  501    0  0.00000000000E+00  0.00000000000E+00  0.29681463728E+04  0.29681463728E+04  0.00000000000E+00 0. -1.
         -2   -1    0    0    0  501 -0.00000000000E+00 -0.00000000000E+00 -0.42860345503E+03  0.42860345503E+03  0.00000000000E+00 0.  1.
         23    2    1    2    0    0  0.47733285251E+02 -0.94331387632E+03  0.50558676960E+03  0.10753019498E+04  0.92394620439E+02 0.  0.
    5000000    2    1    2    0    0 -0.47733285251E+02  0.94331387632E+03  0.20339561482E+04  0.23214478780E+04  0.60001925131E+03 0.  0.
         23    2    4    4    0    0 -0.82768253431E+02 -0.39093010975E+02  0.19707720278E+03  0.23606938062E+03  0.92252270050E+02 0.  0.
         23    2    4    4    0    0  0.35034968180E+02  0.98240688729E+03  0.18368789454E+04  0.20853784974E+04  0.91260485507E+02 0.  0.
          1    1    3    3  502    0  0.55167363280E+02 -0.46021507473E+03  0.20966155441E+03  0.50872322571E+03  0.00000000000E+00 0. -1.
         -1    1    3    3    0  502 -0.74340780290E+01 -0.48309880159E+03  0.29592521519E+03  0.56657872409E+03  0.00000000000E+00 0.  1.
         13    1    5    5    0    0 -0.38653340918E+02  0.29110054757E+02  0.65408896541E+02  0.81362152127E+02  0.00000000000E+00 0. -1.
        -13    1    5    5    0    0 -0.44114912514E+02 -0.68203065732E+02  0.13166830624E+03  0.15470722849E+03  0.00000000000E+00 0.  1.
          3    1    6    6  503    0 -0.28900196588E+02  0.40959771509E+03  0.73997513679E+03  0.84626751837E+03  0.00000000000E+00 0. -1.
         -3    1    6    6    0  503  0.63935164768E+02  0.57280917220E+03  0.10969038086E+04  0.12391109790E+04  0.00000000000E+00 0.  1.
<mgrwt>
<rscale>  0 0.10316318E+04</rscale>
<asrwt>0</asrwt>
<pdfrwt beam="1">  1        2 0.45663789E+00 0.10316318E+04</pdfrwt>
<pdfrwt beam="2">  1       -2 0.65938995E-01 0.10316318E+04</pdfrwt>
<totfact> 0.39238091E+00</totfact>
</mgrwt>
</event>
<event>
12    1  0.1418317E-007  0.5093987E+03  0.7818608E-02  0.1011354E+00
         -2   -1    0    0    0  501 -0.00000000000E+00  0.00000000000E+00  0.42831668546E+03  0.42831668546E+03  0.00000000000E+00 0. -1.
          2   -1    0    0  501    0  0.00000000000E+00 -0.00000000000E+00 -0.68735576008E+03  0.68735576008E+03  0.00000000000E+00 0.  1.
         23    2    1    2    0    0  0.33757055292E+03  0.17540028433E+02  0.66670829566E+02  0.35395148342E+03  0.81087127881E+02 0.  0.
    5000000    2    1    2    0    0 -0.33757055292E+03 -0.17540028433E+02 -0.32570990419E+03  0.76172096211E+03  0.59989194997E+03 0.  0.
         23    2    4    4    0    0 -0.27364060802E+03 -0.27948800491E+03 -0.15526113977E+03  0.43040589015E+03  0.90280017256E+02 0.  0.
         23    2    4    4    0    0 -0.63929944902E+02  0.26194797647E+03 -0.17044876442E+03  0.33131507196E+03  0.89516006280E+02 0.  0.
          3    1    3    3  502    0  0.23368149581E+03 -0.98789494266E+01  0.76433540604E+02  0.24606243365E+03  0.00000000000E+00 0. -1.
         -3    1    3    3    0  502  0.10388905711E+03  0.27418977860E+02 -0.97627110380E+01  0.10788904977E+03  0.00000000000E+00 0.  1.
         13    1    5    5    0    0 -0.17574811179E+03 -0.22234890518E+03 -0.13975163603E+03  0.31600150982E+03  0.00000000000E+00 0.  1.
        -13    1    5    5    0    0 -0.97892496223E+02 -0.57139099730E+02 -0.15509503737E+02  0.11440438034E+03  0.00000000000E+00 0. -1.
          2    1    6    6  503    0 -0.73808999550E+02  0.13928140561E+03 -0.70055167782E+02  0.17249581124E+03  0.00000000000E+00 0.  1.
         -2    1    6    6    0  503  0.98790546487E+01  0.12266657087E+03 -0.10039359664E+03  0.15881926072E+03  0.00000000000E+00 0. -1.
<mgrwt>
<rscale>  0 0.50939868E+03</rscale>
<asrwt>0</asrwt>
<pdfrwt beam="1">  1        2 0.10574704E+00 0.50939868E+03</pdfrwt>
<pdfrwt beam="2">  1       -2 0.65894876E-01 0.50939868E+03</pdfrwt>
<totfact> 0.91598998E+01</totfact>
</mgrwt>
</event>
<event>
12    1  0.1418317E-007  0.1285839E+04  0.7818608E-02  0.9040871E-01
          2   -1    0    0  501    0  0.00000000000E+00  0.00000000000E+00  0.35029847818E+04  0.35029847818E+04  0.00000000000E+00 0. -1.
         -2   -1    0    0    0  501 -0.00000000000E+00 -0.00000000000E+00 -0.54515895917E+03  0.54515895917E+03  0.00000000000E+00 0.  1.
         23    2    1    2    0    0  0.21852511740E+03 -0.12362161552E+04  0.83650844835E+03  0.15112063662E+04  0.89524789360E+02 0.  0.
    5000000    2    1    2    0    0 -0.21852511740E+03  0.12362161552E+04  0.21213173743E+04  0.25369373747E+04  0.60006685591E+03 0.  0.
         23    2    4    4    0    0 -0.19470477597E+01  0.58670084050E+02  0.53619001001E+03  0.54857073955E+03  0.99920767116E+02 0.  0.
         23    2    4    4    0    0 -0.21657806964E+03  0.11775460711E+04  0.15851273643E+04  0.19883666352E+04  0.86326734022E+02 0.  0.
          1    1    3    3  502    0  0.71373319491E+02 -0.22339853932E+03  0.17430279589E+03  0.29220287945E+03  0.00000000000E+00 0. -1.
         -1    1    3    3    0  502  0.14715179791E+03 -0.10128176159E+04  0.66220565246E+03  0.12190034868E+04  0.00000000000E+00 0.  1.
         11    1    5    5    0    0 -0.47396226451E+02  0.46161694973E+02  0.36798067388E+03  0.37388110505E+03  0.00000000000E+00 0.  1.
        -11    1    5    5    0    0  0.45449178692E+02  0.12508389077E+02  0.16820933612E+03  0.17468963450E+03  0.00000000000E+00 0. -1.
          3    1    6    6  503    0 -0.12740464772E+03  0.89762482567E+03  0.11955703963E+04  0.15004502139E+04  0.00000000000E+00 0. -1.
         -3    1    6    6    0  503 -0.89173421921E+02  0.27992124547E+03  0.38955696794E+03  0.48791642124E+03  0.00000000000E+00 0.  1.
<mgrwt>
<rscale>  0 0.12858391E+04</rscale>
<asrwt>0</asrwt>
<pdfrwt beam="1">  1        2 0.53892072E+00 0.12858391E+04</pdfrwt>
<pdfrwt beam="2">  1       -2 0.83870611E-01 0.12858391E+04</pdfrwt>
<totfact> 0.99604201E-01</totfact>
</mgrwt>
</event>
<event>
12    1  0.1418317E-007  0.1232136E+04  0.7818608E-02  0.9085184E-01
          2   -1    0    0  501    0  0.00000000000E+00  0.00000000000E+00  0.72960260185E+03  0.72960260185E+03  0.00000000000E+00 0. -1.
         -2   -1    0    0    0  501 -0.00000000000E+00 -0.00000000000E+00 -0.28072794278E+04  0.28072794278E+04  0.00000000000E+00 0.  1.
         23    2    1    2    0    0  0.68416328347E+03 -0.99698954971E+03 -0.20730560574E+03  0.12301379709E+04  0.90533157544E+02 0.  0.
    5000000    2    1    2    0    0 -0.68416328347E+03  0.99698954971E+03 -0.18703712202E+04  0.23067440588E+04  0.60059311558E+03 0.  0.
         23    2    4    4    0    0 -0.38678334447E+03  0.78819921750E+03 -0.16515612868E+04  0.18725607445E+04  0.89273153137E+02 0.  0.
         23    2    4    4    0    0 -0.29737993900E+03  0.20879033222E+03 -0.21880993340E+03  0.43418331421E+03  0.92785410680E+02 0.  0.
          1    1    3    3  502    0  0.55576311123E+03 -0.86584228132E+03 -0.16908486985E+03  0.10426625461E+04  0.00000000000E+00 0. -1.
         -1    1    3    3    0  502  0.12840017224E+03 -0.13114726840E+03 -0.38220735887E+02  0.18747542476E+03  0.00000000000E+00 0.  1.
         13    1    5    5    0    0 -0.20993617467E+03  0.38213121043E+03 -0.73481004744E+03  0.85442569322E+03  0.00000000000E+00 0.  1.
        -13    1    5    5    0    0 -0.17684716980E+03  0.40606800707E+03 -0.91675123938E+03  0.10181350513E+04  0.00000000000E+00 0. -1.
          4    1    6    6  503    0 -0.20972662487E+03  0.19070124259E+03 -0.18508872539E+03  0.33854107192E+03  0.00000000000E+00 0.  1.
         -4    1    6    6    0  503 -0.87653314129E+02  0.18089089624E+02 -0.33721208009E+02  0.95642242292E+02  0.00000000000E+00 0. -1.
<mgrwt>
<rscale>  0 0.12321363E+04</rscale>
<asrwt>0</asrwt>
<pdfrwt beam="1">  1        2 0.11224655E+00 0.12321363E+04</pdfrwt>
<pdfrwt beam="2">  1       -2 0.43188914E+00 0.12321363E+04</pdfrwt>
<totfact> 0.17519456E-01</totfact>
</mgrwt>
</event>
<event>
12    1  0.1418317E-007  0.1600411E+04  0.7818608E-02  0.8820296E-01
          1   -1    0    0  501    0  0.00000000000E+00  0.00000000000E+00  0.14535759519E+04  0.14535759519E+04  0.00000000000E+00 0. -1.
         -1   -1    0    0    0  501 -0.00000000000E+00 -0.00000000000E+00 -0.22622695265E+04  0.22622695265E+04  0.00000000000E+00 0.  1.
         23    2    1    2    0    0  0.13661017458E+03 -0.15708804201E+04  0.41332537307E+03  0.16326621733E+04  0.91762051162E+02 0.  0.
    5000000    2    1    2    0    0 -0.13661017458E+03  0.15708804201E+04 -0.12220189477E+04  0.20831833052E+04  0.59999561720E+03 0.  0.
         23    2    4    4    0    0  0.11567801219E+03  0.83847628618E+03 -0.90197298170E+03  0.12401919696E+04  0.89983202104E+02 0.  0.
         23    2    4    4    0    0 -0.25228818677E+03  0.73240413389E+03 -0.32004596598E+03  0.84299133565E+03  0.90220990450E+02 0.  0.
          3    1    3    3  502    0  0.51196925568E+02 -0.62360545731E+03  0.11785308376E+03  0.63670577265E+03  0.00000000000E+00 0. -1.
         -3    1    3    3    0  502  0.85413249013E+02 -0.94727496276E+03  0.29547228931E+03  0.99595640061E+03  0.00000000000E+00 0.  1.
         11    1    5    5    0    0  0.69280475749E+02  0.29441854139E+03 -0.27509592329E+03  0.40885184217E+03  0.00000000000E+00 0. -1.
        -11    1    5    5    0    0  0.46397536437E+02  0.54405774479E+03 -0.62687705841E+03  0.83134012740E+03  0.00000000000E+00 0.  1.
          4    1    6    6  503    0 -0.40568278253E+02  0.16430666255E+03 -0.33960192020E+02  0.17261448144E+03  0.00000000000E+00 0. -1.
         -4    1    6    6    0  503 -0.21171990851E+03  0.56809747133E+03 -0.28608577396E+03  0.67037685421E+03  0.00000000000E+00 0.  1.
<mgrwt>
<rscale>  0 0.16004111E+04</rscale>
<asrwt>0</asrwt>
<pdfrwt beam="1">  1        1 0.22362707E+00 0.16004111E+04</pdfrwt>
<pdfrwt beam="2">  1       -1 0.34804146E+00 0.16004111E+04</pdfrwt>
<totfact> 0.10553684E-01</totfact>
</mgrwt>
</event>
<event>
12    1  0.1418317E-007  0.1281071E+04  0.7818608E-02  0.9044712E-01
          2   -1    0    0  501    0  0.00000000000E+00  0.00000000000E+00  0.22064132982E+04  0.22064132982E+04  0.00000000000E+00 0. -1.
         -2   -1    0    0    0  501 -0.00000000000E+00 -0.00000000000E+00 -0.84428964640E+03  0.84428964640E+03  0.00000000000E+00 0.  1.
         23    2    1    2    0    0  0.94985943601E+03  0.76760379639E+03  0.16023101078E+03  0.12351418886E+04  0.91940044109E+02 0.  0.
    5000000    2    1    2    0    0 -0.94985943601E+03 -0.76760379639E+03  0.12018926410E+04  0.18155610560E+04  0.60022286791E+03 0.  0.
         23    2    4    4    0    0 -0.67959768718E+03 -0.21717978921E+03  0.80520238815E+03  0.10794818217E+04  0.88938406475E+02 0.  0.
         23    2    4    4    0    0 -0.27026174883E+03 -0.55042400718E+03  0.39669025287E+03  0.73607923436E+03  0.91877537898E+02 0.  0.
          2    1    3    3  502    0  0.49796359846E+03  0.34381993744E+03  0.73132369895E+02  0.60953116270E+03  0.00000000000E+00 0. -1.
         -2    1    3    3    0  502  0.45189583755E+03  0.42378385895E+03  0.87098640882E+02  0.62561072589E+03  0.00000000000E+00 0.  1.
         11    1    5    5    0    0 -0.60736865759E+03 -0.22158848196E+03  0.72913547196E+03  0.97449303642E+03  0.00000000000E+00 0.  1.
        -11    1    5    5    0    0 -0.72229029592E+02  0.44086927485E+01  0.76066916194E+02  0.10498878524E+03  0.00000000000E+00 0. -1.
          1    1    6    6  503    0 -0.10795084792E+03 -0.31224124204E+03  0.23676827019E+03  0.40645687664E+03  0.00000000000E+00 0. -1.
         -1    1    6    6    0  503 -0.16231090092E+03 -0.23818276514E+03  0.15992198268E+03  0.32962235772E+03  0.00000000000E+00 0.  1.
<mgrwt>
<rscale>  0 0.12810708E+04</rscale>
<asrwt>0</asrwt>
<pdfrwt beam="1">  1        2 0.33944820E+00 0.12810708E+04</pdfrwt>
<pdfrwt beam="2">  1       -2 0.12989072E+00 0.12810708E+04</pdfrwt>
<totfact> 0.21574102E+00</totfact>
</mgrwt>
</event>
<event>
12    1  0.1418317E-007  0.1211878E+04  0.7818608E-02  0.9102523E-01
         -2   -1    0    0    0  501 -0.00000000000E+00  0.00000000000E+00  0.95099147478E+03  0.95099147478E+03  0.00000000000E+00 0.  1.
          2   -1    0    0  501    0  0.00000000000E+00 -0.00000000000E+00 -0.17417303074E+04  0.17417303074E+04  0.00000000000E+00 0. -1.
         23    2    1    2    0    0 -0.10670077993E+04 -0.49699616625E+03 -0.58201533846E+02  0.11821138847E+04  0.92168241916E+02 0.  0.
    5000000    2    1    2    0    0  0.10670077993E+04  0.49699616625E+03 -0.73253729878E+03  0.15106078975E+04  0.59984539072E+03 0.  0.
         23    2    4    4    0    0  0.70586137432E+03  0.10790218358E+03 -0.18394396194E+03  0.74273985038E+03  0.89128801419E+02 0.  0.
         23    2    4    4    0    0  0.36114642500E+03  0.38909398267E+03 -0.54859333684E+03  0.76786804710E+03  0.82739476002E+02 0.  0.
          3    1    3    3  502    0 -0.35369252956E+03 -0.16953215830E+03 -0.62747775115E+02  0.39721133097E+03  0.00000000000E+00 0. -1.
         -3    1    3    3    0  502 -0.71331526975E+03 -0.32746400794E+03  0.45462412691E+01  0.78490255374E+03  0.00000000000E+00 0.  1.
         13    1    5    5    0    0  0.21883446444E+03  0.28189652437E+02 -0.99582797694E+02  0.24207418890E+03  0.00000000000E+00 0. -1.
        -13    1    5    5    0    0  0.48702690987E+03  0.79712531145E+02 -0.84361164245E+02  0.50066566149E+03  0.00000000000E+00 0.  1.
          4    1    6    6  503    0  0.92955673670E+02  0.74706763617E+02 -0.16833387000E+03  0.20629626654E+03  0.00000000000E+00 0. -1.
         -4    1    6    6    0  503  0.26819075133E+03  0.31438721905E+03 -0.38025946684E+03  0.56157178056E+03  0.00000000000E+00 0.  1.
<mgrwt>
<rscale>  0 0.12118782E+04</rscale>
<asrwt>0</asrwt>
<pdfrwt beam="1">  1        2 0.26795851E+00 0.12118782E+04</pdfrwt>
<pdfrwt beam="2">  1       -2 0.14630638E+00 0.12118782E+04</pdfrwt>
<totfact> 0.28899894E+00</totfact>
</mgrwt>
</event>
<event>
12    1  0.1418317E-007  0.1629443E+04  0.7818608E-02  0.8802662E-01
         -2   -1    0    0    0  501 -0.00000000000E+00  0.00000000000E+00  0.25035521779E+04  0.25035521779E+04  0.00000000000E+00 0.  1.
          2   -1    0    0  501    0  0.00000000000E+00 -0.00000000000E+00 -0.20788563757E+04  0.20788563757E+04  0.00000000000E+00 0. -1.
         23    2    1    2    0    0 -0.73765936581E+02 -0.16243930929E+04 -0.13399520155E+04  0.21089313276E+04  0.89585752503E+02 0.  0.
    5000000    2    1    2    0    0  0.73765936581E+02  0.16243930929E+04  0.17646478177E+04  0.24734772260E+04  0.60001111116E+03 0.  0.
         23    2    4    4    0    0  0.85475360100E+01  0.10751289949E+04  0.15148093099E+04  0.18597240703E+04  0.89168134771E+02 0.  0.
         23    2    4    4    0    0  0.65218400571E+02  0.54926409802E+03  0.24983850777E+03  0.61375315571E+03  0.91264270341E+02 0.  0.
          1    1    3    3  502    0 -0.78958869569E+02 -0.86148186377E+03 -0.73836435682E+03  0.11373510575E+04  0.00000000000E+00 0. -1.
         -1    1    3    3    0  502  0.51929329888E+01 -0.76291122912E+03 -0.60158765872E+03  0.97158027007E+03  0.00000000000E+00 0.  1.
         13    1    5    5    0    0 -0.21471541506E+02  0.53678757017E+03  0.69327761473E+03  0.87706087227E+03  0.00000000000E+00 0. -1.
        -13    1    5    5    0    0  0.30019077516E+02  0.53834142471E+03  0.82153169518E+03  0.98266319803E+03  0.00000000000E+00 0.  1.
          3    1    6    6  503    0  0.92949681865E+01  0.24065296839E+03  0.63993393093E+02  0.24918949013E+03  0.00000000000E+00 0. -1.
         -3    1    6    6    0  503  0.55923432384E+02  0.30861112962E+03  0.18584511468E+03  0.36456366559E+03  0.00000000000E+00 0.  1.
<mgrwt>
<rscale>  0 0.16294429E+04</rscale>
<asrwt>0</asrwt>
<pdfrwt beam="1">  1        2 0.31982406E+00 0.16294429E+04</pdfrwt>
<pdfrwt beam="2">  1       -2 0.38516187E+00 0.16294429E+04</pdfrwt>
<totfact> 0.51718955E-02</totfact>
</mgrwt>
</event>
<event>
12    1  0.1418317E-007  0.5511937E+03  0.7818608E-02  0.1001218E+00
         -1   -1    0    0    0  501 -0.00000000000E+00  0.00000000000E+00  0.82081054478E+03  0.82081054478E+03  0.00000000000E+00 0.  1.
          1   -1    0    0  501    0  0.00000000000E+00 -0.00000000000E+00 -0.65409047242E+03  0.65409047242E+03  0.00000000000E+00 0. -1.
         23    2    1    2    0    0 -0.19184337240E+03  0.40542101218E+03  0.47971309809E+03  0.66309059711E+03  0.91620995708E+02 0.  0.
    5000000    2    1    2    0    0  0.19184337240E+03 -0.40542101218E+03 -0.31299302572E+03  0.81181042009E+03  0.59991786718E+03 0.  0.
         23    2    4    4    0    0 -0.27492385509E+01 -0.45077593058E+03 -0.36317169845E+03  0.58646063983E+03  0.93999476615E+02 0.  0.
         23    2    4    4    0    0  0.19459261095E+03  0.45354918407E+02  0.50178672729E+02  0.22534978026E+03  0.91330561179E+02 0.  0.
          3    1    3    3  502    0 -0.97746894811E+02  0.22190068763E+03  0.19300575667E+03  0.30991223391E+03  0.00000000000E+00 0. -1.
         -3    1    3    3    0  502 -0.94096477590E+02  0.18352032455E+03  0.28670734141E+03  0.35317836320E+03  0.00000000000E+00 0.  1.
         13    1    5    5    0    0  0.18996329685E+02 -0.74009756938E+02 -0.10227627654E+03  0.12766652422E+03  0.00000000000E+00 0.  1.
        -13    1    5    5    0    0 -0.21745568236E+02 -0.37676617365E+03 -0.26089542191E+03  0.45879411561E+03  0.00000000000E+00 0. -1.
          4    1    6    6  503    0  0.81882209392E+02  0.21656262657E+02  0.68239648181E+02  0.10876736418E+03  0.00000000000E+00 0. -1.
         -4    1    6    6    0  503  0.11271040156E+03  0.23698655751E+02 -0.18060975452E+02  0.11658241608E+03  0.00000000000E+00 0.  1.
<mgrwt>
<rscale>  0 0.55119371E+03</rscale>
<asrwt>0</asrwt>
<pdfrwt beam="1">  1        1 0.10062930E+00 0.55119371E+03</pdfrwt>
<pdfrwt beam="2">  1       -1 0.12627855E+00 0.55119371E+03</pdfrwt>
<totfact> 0.17375944E+01</totfact>
</mgrwt>
</event>
<event>
12    1  0.1418317E-007  0.5809157E+03  0.7818608E-02  0.9945811E-01
          1   -1    0    0  501    0  0.00000000000E+00  0.00000000000E+00  0.65032289537E+03  0.65032289537E+03  0.00000000000E+00 0. -1.
         -1   -1    0    0    0  501 -0.00000000000E+00 -0.00000000000E+00 -0.79200645431E+03  0.79200645431E+03  0.00000000000E+00 0.  1.
         23    2    1    2    0    0 -0.10990806988E+03  0.45829985251E+03 -0.41654247448E+03  0.63139494802E+03  0.55076389690E+02 0.  0.
    5000000    2    1    2    0    0  0.10990806988E+03 -0.45829985251E+03  0.27485891554E+03  0.81093440166E+03  0.59995719989E+03 0.  0.
         23    2    4    4    0    0  0.17481487296E+03  0.38203250824E+02 -0.49299994918E+02  0.20773409135E+03  0.93291130488E+02 0.  0.
         23    2    4    4    0    0 -0.64906803078E+02 -0.49650310334E+03  0.32415891046E+03  0.60320031031E+03  0.89684950930E+02 0.  0.
          2    1    3    3  502    0 -0.46469780596E+02  0.30568572030E+03 -0.26804892120E+03  0.40921073331E+03  0.00000000000E+00 0. -1.
         -2    1    3    3    0  502 -0.63438289284E+02  0.15261413222E+03 -0.14849355328E+03  0.22218421471E+03  0.00000000000E+00 0.  1.
         13    1    5    5    0    0  0.44322180458E+02  0.29921076054E+02  0.23123133930E+02  0.58261529293E+02  0.00000000000E+00 0. -1.
        -13    1    5    5    0    0  0.13049269250E+03  0.82821747701E+01 -0.72423128848E+02  0.14947256205E+03  0.00000000000E+00 0.  1.
          3    1    6    6  503    0  0.75894887656E+01 -0.26452028995E+02  0.41938918697E+02  0.50161569744E+02  0.00000000000E+00 0. -1.
         -3    1    6    6    0  503 -0.72496291843E+02 -0.47005107434E+03  0.28221999176E+03  0.55303874057E+03  0.00000000000E+00 0.  1.
<mgrwt>
<rscale>  0 0.58091569E+03</rscale>
<asrwt>0</asrwt>
<pdfrwt beam="1">  1        1 0.10004968E+00 0.58091569E+03</pdfrwt>
<pdfrwt beam="2">  1       -1 0.12184715E+00 0.58091569E+03</pdfrwt>
<totfact> 0.19045387E+01</totfact>
</mgrwt>
</event>
<event>
12    1  0.1418317E-007  0.6951236E+03  0.7818608E-02  0.9725608E-01
         -2   -1    0    0    0  501 -0.00000000000E+00  0.00000000000E+00  0.12291613028E+03  0.12291613028E+03  0.00000000000E+00 0.  1.
          2   -1    0    0  501    0  0.00000000000E+00 -0.00000000000E+00 -0.40588919022E+04  0.40588919022E+04  0.00000000000E+00 0. -1.
         23    2    1    2    0    0 -0.36813433898E+03  0.43275847680E+03 -0.13670317928E+04  0.14832386877E+04  0.91751246729E+02 0.  0.
    5000000    2    1    2    0    0  0.36813433898E+03 -0.43275847680E+03 -0.25689439790E+04  0.26985693447E+04  0.60000045844E+03 0.  0.
         23    2    4    4    0    0  0.51439551120E+03 -0.29364119785E+03 -0.19842799532E+04  0.20728021134E+04  0.91179897372E+02 0.  0.
         23    2    4    4    0    0 -0.14626117222E+03 -0.13911727895E+03 -0.58466402589E+03  0.62576723137E+03  0.94903408187E+02 0.  0.
          1    1    3    3  502    0 -0.28504161860E+03  0.26976252944E+03 -0.91878925520E+03  0.99909671309E+03  0.00000000000E+00 0. -1.
         -1    1    3    3    0  502 -0.83092720382E+02  0.16299594735E+03 -0.44824253763E+03  0.48414197461E+03  0.00000000000E+00 0.  1.
         13    1    5    5    0    0  0.30697291889E+03 -0.20874164088E+03 -0.13490477091E+04  0.13991908972E+04  0.00000000000E+00 0. -1.
        -13    1    5    5    0    0  0.20742259231E+03 -0.84899556969E+02 -0.63523224410E+03  0.67361121615E+03  0.00000000000E+00 0.  1.
          4    1    6    6  503    0 -0.74823585773E+02 -0.12646622046E+03 -0.33578157414E+03  0.36652631480E+03  0.00000000000E+00 0. -1.
         -4    1    6    6    0  503 -0.71437586445E+02 -0.12651058491E+02 -0.24888245174E+03  0.25924091657E+03  0.00000000000E+00 0.  1.
<mgrwt>
<rscale>  0 0.69512359E+03</rscale>
<asrwt>0</asrwt>
<pdfrwt beam="1">  1        2 0.62444485E+00 0.69512359E+03</pdfrwt>
<pdfrwt beam="2">  1       -2 0.18910176E-01 0.69512359E+03</pdfrwt>
<totfact> 0.80611929E+00</totfact>
</mgrwt>
</event>
<event>
12    1  0.1418317E-007  0.1063318E+04  0.7818608E-02  0.9241701E-01
         -2   -1    0    0    0  501 -0.00000000000E+00  0.00000000000E+00  0.52891959204E+03  0.52891959204E+03  0.00000000000E+00 0. -1.
          2   -1    0    0  501    0  0.00000000000E+00 -0.00000000000E+00 -0.22279376175E+04  0.22279376175E+04  0.00000000000E+00 0.  1.
         23    2    1    2    0    0  0.99364481896E+03 -0.11482355556E+03 -0.73803711775E+03  0.12463127096E+04  0.89900543693E+02 0.  0.
    5000000    2    1    2    0    0 -0.99364481896E+03  0.11482355556E+03 -0.96098090774E+03  0.15105445000E+04  0.59811863891E+03 0.  0.
         23    2    4    4    0    0  0.48442283696E+01  0.12221396399E+03 -0.65661323733E+02  0.16623302282E+03  0.91445551548E+02 0.  0.
         23    2    4    4    0    0 -0.99848904733E+03 -0.73904084299E+01 -0.89531958401E+03  0.13443114772E+04  0.92418582174E+02 0.  0.
          1    1    3    3  502    0  0.58632177757E+03 -0.42975633134E+02 -0.38722192429E+03  0.70396090129E+03  0.00000000000E+00 0. -1.
         -1    1    3    3    0  502  0.40732304139E+03 -0.71847922430E+02 -0.35081519346E+03  0.54235180830E+03  0.00000000000E+00 0.  1.
         11    1    5    5    0    0  0.22999654746E+01  0.92313056472E+02  0.18418286603E+01  0.92360070210E+02  0.00000000000E+00 0.  1.
        -11    1    5    5    0    0  0.25442628950E+01  0.29900907522E+02 -0.67503152393E+02  0.73872952610E+02  0.00000000000E+00 0. -1.
          2    1    6    6  503    0 -0.61977630072E+03 -0.49409171899E+02 -0.55715932448E+03  0.83485953433E+03  0.00000000000E+00 0. -1.
         -2    1    6    6    0  503 -0.37871274660E+03  0.42018763469E+02 -0.33816025952E+03  0.50945194282E+03  0.00000000000E+00 0.  1.
<mgrwt>
<rscale>  0 0.10633179E+04</rscale>
<asrwt>0</asrwt>
<pdfrwt beam="1">  1        2 0.34275963E+00 0.10633179E+04</pdfrwt>
<pdfrwt beam="2">  1       -2 0.81372247E-01 0.10633179E+04</pdfrwt>
<totfact> 0.66103249E+00</totfact>
</mgrwt>
</event>
<event>
12    1  0.1418317E-007  0.1501911E+04  0.7818608E-02  0.8883183E-01
         -1   -1    0    0    0  501 -0.00000000000E+00  0.00000000000E+00  0.21917622753E+04  0.21917622753E+04  0.00000000000E+00 0.  1.
          1   -1    0    0  501    0  0.00000000000E+00 -0.00000000000E+00 -0.11022355253E+04  0.11022355253E+04  0.00000000000E+00 0. -1.
         23    2    1    2    0    0 -0.72763253789E+03  0.12560707057E+04  0.14589647032E+03  0.14616127175E+04  0.88674844632E+02 0.  0.
    5000000    2    1    2    0    0  0.72763253789E+03 -0.12560707057E+04  0.94363027960E+03  0.18323850831E+04  0.60002854947E+03 0.  0.
         23    2    4    4    0    0  0.31165853185E+03 -0.10187653268E+04  0.52831896881E+03  0.11917762110E+04  0.78713231603E+02 0.  0.
         23    2    4    4    0    0  0.41597400604E+03 -0.23730537890E+03  0.41531131079E+03  0.64060887204E+03  0.92455532587E+02 0.  0.
          3    1    3    3  502    0 -0.63766708507E+03  0.11359193076E+04  0.11013418402E+03  0.13073107983E+04  0.00000000000E+00 0. -1.
         -3    1    3    3    0  502 -0.89965452823E+02  0.12015139806E+03  0.35762286299E+02  0.15430191923E+03  0.00000000000E+00 0.  1.
         13    1    5    5    0    0  0.52127884454E+02 -0.21919142167E+03  0.80178735857E+02  0.23914603353E+03  0.00000000000E+00 0. -1.
        -13    1    5    5    0    0  0.25953064740E+03 -0.79957390513E+03  0.44814023296E+03  0.95263017751E+03  0.00000000000E+00 0.  1.
          1    1    6    6  503    0  0.35657658236E+03 -0.16901076663E+03  0.31043992492E+03  0.50208011841E+03  0.00000000000E+00 0. -1.
         -1    1    6    6    0  503  0.59397423681E+02 -0.68294612276E+02  0.10487138587E+03  0.13852875363E+03  0.00000000000E+00 0.  1.
<mgrwt>
<rscale>  0 0.15019109E+04</rscale>
<asrwt>0</asrwt>
<pdfrwt beam="1">  1        1 0.16957470E+00 0.15019109E+04</pdfrwt>
<pdfrwt beam="2">  1       -1 0.33719420E+00 0.15019109E+04</pdfrwt>
<totfact> 0.22662706E-01</totfact>
</mgrwt>
</event>
<event>
12    1  0.1418317E-007  0.6682618E+03  0.7818608E-02  0.9773103E-01
          2   -1    0    0  501    0  0.00000000000E+00  0.00000000000E+00  0.32075390861E+04  0.32075390861E+04  0.00000000000E+00 0. -1.
         -2   -1    0    0    0  501 -0.00000000000E+00 -0.00000000000E+00 -0.16608555949E+03  0.16608555949E+03  0.00000000000E+00 0.  1.
         23    2    1    2    0    0  0.22386354100E+03  0.50210168430E+03  0.70047749870E+03  0.89511644525E+03  0.91344063804E+02 0.  0.
    5000000    2    1    2    0    0 -0.22386354100E+03 -0.50210168430E+03  0.23409760279E+04  0.24785082004E+04  0.60051074059E+03 0.  0.
         23    2    4    4    0    0 -0.32324960901E+03 -0.55975512961E+03  0.16879891214E+04  0.18098273082E+04  0.91386523475E+02 0.  0.
         23    2    4    4    0    0  0.99386068003E+02  0.57653445308E+02  0.65298690656E+03  0.66868089220E+03  0.86837349006E+02 0.  0.
          3    1    3    3  502    0  0.94729256256E+02  0.17843720459E+03  0.32650094911E+03  0.38394835296E+03  0.00000000000E+00 0. -1.
         -3    1    3    3    0  502  0.12913428475E+03  0.32366447971E+03  0.37397654959E+03  0.51116809228E+03  0.00000000000E+00 0.  1.
         11    1    5    5    0    0 -0.25060290325E+03 -0.41307744716E+03  0.13598235888E+04  0.14431060200E+04  0.00000000000E+00 0.  1.
        -11    1    5    5    0    0 -0.72646705759E+02 -0.14667768245E+03  0.32816553260E+03  0.36672128813E+03  0.00000000000E+00 0. -1.
          3    1    6    6  503    0  0.29311226809E+02 -0.19315132152E+02  0.99984645515E+02  0.10596769171E+03  0.00000000000E+00 0. -1.
         -3    1    6    6    0  503  0.70074841194E+02  0.76968577460E+02  0.55300226104E+03  0.56271320049E+03  0.00000000000E+00 0.  1.
<mgrwt>
<rscale>  0 0.66826178E+03</rscale>
<asrwt>0</asrwt>
<pdfrwt beam="1">  1        2 0.49346750E+00 0.66826178E+03</pdfrwt>
<pdfrwt beam="2">  1       -2 0.25551627E-01 0.66826178E+03</pdfrwt>
<totfact> 0.19116602E+01</totfact>
</mgrwt>
</event>
<event>
12    1  0.1418317E-007  0.6148098E+03  0.7818608E-02  0.9875148E-01
         -1   -1    0    0    0  501 -0.00000000000E+00  0.00000000000E+00  0.23093024284E+03  0.23093024284E+03  0.00000000000E+00 0.  1.
          1   -1    0    0  501    0  0.00000000000E+00 -0.00000000000E+00 -0.23337362769E+04  0.23337362769E+04  0.00000000000E+00 0. -1.
         23    2    1    2    0    0  0.48530722868E+03  0.60062480528E+02 -0.15095880285E+04  0.15895306994E+04  0.92850530161E+02 0.  0.
    5000000    2    1    2    0    0 -0.48530722868E+03 -0.60062480528E+02 -0.59321800561E+03  0.97513582032E+03  0.59987636903E+03 0.  0.
         23    2    4    4    0    0 -0.48264013813E+03 -0.24836248761E+03 -0.33677213117E+03  0.64464188526E+03  0.86730984792E+02 0.  0.
         23    2    4    4    0    0 -0.26670905546E+01  0.18830000708E+03 -0.25644587444E+03  0.33049393506E+03  0.89430132243E+02 0.  0.
          3    1    3    3  502    0  0.23139466429E+03 -0.14696035784E+02 -0.65017628408E+03  0.69028158350E+03  0.00000000000E+00 0. -1.
         -3    1    3    3    0  502  0.25391256439E+03  0.74758516312E+02 -0.85941174438E+03  0.89924911592E+03  0.00000000000E+00 0.  1.
         11    1    5    5    0    0 -0.26502558137E+03 -0.11053282326E+03 -0.13431998095E+03  0.31701407079E+03  0.00000000000E+00 0.  1.
        -11    1    5    5    0    0 -0.21761455676E+03 -0.13782966435E+03 -0.20245215022E+03  0.32762781447E+03  0.00000000000E+00 0. -1.
          2    1    6    6  503    0 -0.27925270941E+01  0.14674292026E+03 -0.12549432182E+03  0.19310646717E+03  0.00000000000E+00 0.  1.
         -2    1    6    6    0  503  0.12543653947E+00  0.41557086827E+02 -0.13095155262E+03  0.13738746789E+03  0.00000000000E+00 0. -1.
<mgrwt>
<rscale>  0 0.61480978E+03</rscale>
<asrwt>0</asrwt>
<pdfrwt beam="1">  1        1 0.35903637E+00 0.61480978E+03</pdfrwt>
<pdfrwt beam="2">  1       -1 0.35527728E-01 0.61480978E+03</pdfrwt>
<totfact> 0.14297188E+01</totfact>
</mgrwt>
</event>
<event>
12    1  0.1418317E-007  0.1422105E+04  0.7818608E-02  0.8937971E-01
          2   -1    0    0  501    0  0.00000000000E+00  0.00000000000E+00  0.19174854580E+04  0.19174854580E+04  0.00000000000E+00 0. -1.
         -2   -1    0    0    0  501 -0.00000000000E+00 -0.00000000000E+00 -0.12516999137E+04  0.12516999137E+04  0.00000000000E+00 0.  1.
         23    2    1    2    0    0  0.22716905368E+03  0.13677379419E+04  0.87718680017E+03  0.16437679509E+04  0.10101256026E+03 0.  0.
    5000000    2    1    2    0    0 -0.22716905368E+03 -0.13677379419E+04 -0.21140125589E+03  0.15254174208E+04  0.59991246037E+03 0.  0.
         23    2    4    4    0    0 -0.58925332687E+02 -0.12518414716E+04 -0.28828107405E+03  0.12891458532E+04  0.90618918512E+02 0.  0.
         23    2    4    4    0    0 -0.16824372099E+03 -0.11589647034E+03  0.76879818163E+02  0.23627156763E+03  0.90420162248E+02 0.  0.
          4    1    3    3  502    0  0.19465989015E+03  0.11476923543E+04  0.77858674156E+03  0.14004597557E+04  0.00000000000E+00 0. -1.
         -4    1    3    3    0  502  0.32509163525E+02  0.22004558756E+03  0.98600058610E+02  0.24330819525E+03  0.00000000000E+00 0.  1.
         13    1    5    5    0    0 -0.27751792109E+02 -0.42144144674E+03 -0.54177469363E+02  0.42581481091E+03  0.00000000000E+00 0. -1.
        -13    1    5    5    0    0 -0.31173540578E+02 -0.83040002482E+03 -0.23410360469E+03  0.86333104229E+03  0.00000000000E+00 0.  1.
          4    1    6    6  503    0 -0.54554826810E+02 -0.34905655624E+02  0.71653819765E+02  0.96586250625E+02  0.00000000000E+00 0.  1.
         -4    1    6    6    0  503 -0.11368889418E+03 -0.80990814716E+02  0.52259983976E+01  0.13968531701E+03  0.00000000000E+00 0. -1.
<mgrwt>
<rscale>  0 0.14221051E+04</rscale>
<asrwt>0</asrwt>
<pdfrwt beam="1">  1        2 0.29499776E+00 0.14221051E+04</pdfrwt>
<pdfrwt beam="2">  1       -2 0.19256922E+00 0.14221051E+04</pdfrwt>
<totfact> 0.10481265E+00</totfact>
</mgrwt>
</event>
<event>
12    1  0.1418317E-007  0.4106905E+03  0.7818608E-02  0.1040140E+00
          1   -1    0    0  501    0  0.00000000000E+00  0.00000000000E+00  0.95614406690E+03  0.95614406690E+03  0.00000000000E+00 0. -1.
         -1   -1    0    0    0  501 -0.00000000000E+00 -0.00000000000E+00 -0.33301184579E+03  0.33301184579E+03  0.00000000000E+00 0.  1.
         23    2    1    2    0    0  0.27165451868E+03 -0.28801497055E+03  0.27827984913E+03  0.49213670921E+03  0.89498968386E+02 0.  0.
    5000000    2    1    2    0    0 -0.27165451868E+03  0.28801497055E+03  0.34485237199E+03  0.79701920347E+03  0.59963960131E+03 0.  0.
         23    2    4    4    0    0 -0.58195082394E+02  0.90047370611E+02  0.45362235585E+03  0.47504334774E+03  0.91639205243E+02 0.  0.
         23    2    4    4    0    0 -0.21345943629E+03  0.19796759994E+03 -0.10876998387E+03  0.32197585573E+03  0.84151296577E+02 0.  0.
          1    1    3    3  502    0  0.12923068944E+03 -0.14640654525E+03  0.83594871044E+02  0.21242304501E+03  0.00000000000E+00 0. -1.
         -1    1    3    3    0  502  0.14242382925E+03 -0.14160842530E+03  0.19468497808E+03  0.27971366421E+03  0.00000000000E+00 0.  1.
         13    1    5    5    0    0 -0.15960128564E+02  0.83575586021E+02  0.19274320089E+03  0.21068826681E+03  0.00000000000E+00 0. -1.
        -13    1    5    5    0    0 -0.42234953829E+02  0.64717845900E+01  0.26087915496E+03  0.26435508093E+03  0.00000000000E+00 0.  1.
          3    1    6    6  503    0 -0.15351247321E+03  0.17613301922E+03 -0.58777675265E+02  0.24092267432E+03  0.00000000000E+00 0. -1.
         -3    1    6    6    0  503 -0.59946963076E+02  0.21834580716E+02 -0.49992308600E+02  0.81053181408E+02  0.00000000000E+00 0.  1.
<mgrwt>
<rscale>  0 0.41069052E+03</rscale>
<asrwt>0</asrwt>
<pdfrwt beam="1">  1        1 0.14709909E+00 0.41069052E+03</pdfrwt>
<pdfrwt beam="2">  1       -1 0.51232592E-01 0.41069052E+03</pdfrwt>
<totfact> 0.66869544E+01</totfact>
</mgrwt>
</event>
<event>
12    1  0.1418317E-007  0.7642432E+03  0.7818608E-02  0.9613266E-01
          1   -1    0    0  501    0  0.00000000000E+00  0.00000000000E+00  0.15332152690E+04  0.15332152690E+04  0.00000000000E+00 0. -1.
         -1   -1    0    0    0  501 -0.00000000000E+00 -0.00000000000E+00 -0.14037372416E+04  0.14037372416E+04  0.00000000000E+00 0.  1.
         23    2    1    2    0    0 -0.55680911657E+03  0.40668573579E+03 -0.11625363244E+04  0.13544634364E+04  0.87468937297E+02 0.  0.
    5000000    2    1    2    0    0  0.55680911657E+03 -0.40668573579E+03  0.12920143518E+04  0.15824890742E+04  0.59961729849E+03 0.  0.
         23    2    4    4    0    0 -0.37560636177E+01  0.62306404769E+02  0.45275662483E+03  0.46619559050E+03  0.91943304204E+02 0.  0.
         23    2    4    4    0    0  0.56056518019E+03 -0.46899214056E+03  0.83925772700E+03  0.11162934837E+04  0.87009541315E+02 0.  0.
          3    1    3    3  502    0 -0.37259784487E+03  0.32115678085E+03 -0.81650651629E+03  0.95323329937E+03  0.00000000000E+00 0. -1.
         -3    1    3    3    0  502 -0.18421127171E+03  0.85528954937E+02 -0.34602980812E+03  0.40123013703E+03  0.00000000000E+00 0.  1.
         11    1    5    5    0    0  0.28612453362E+02  0.91293712729E+00  0.25523631608E+03  0.25683668544E+03  0.00000000000E+00 0.  1.
        -11    1    5    5    0    0 -0.32368516980E+02  0.61393467641E+02  0.19752030875E+03  0.20935890506E+03  0.00000000000E+00 0. -1.
          4    1    6    6  503    0  0.12977012809E+03 -0.15621872645E+03  0.21206908293E+03  0.29362880065E+03  0.00000000000E+00 0. -1.
         -4    1    6    6    0  503  0.43079505210E+03 -0.31277341411E+03  0.62718864407E+03  0.82266468305E+03  0.00000000000E+00 0.  1.
<mgrwt>
<rscale>  0 0.76424315E+03</rscale>
<asrwt>0</asrwt>
<pdfrwt beam="1">  1        1 0.23587927E+00 0.76424315E+03</pdfrwt>
<pdfrwt beam="2">  1       -1 0.21595957E+00 0.76424315E+03</pdfrwt>
<totfact> 0.76526057E-01</totfact>
</mgrwt>
</event>
<event>
12    1  0.1418317E-007  0.6505702E+03  0.7818608E-02  0.9805710E-01
          2   -1    0    0  501    0  0.00000000000E+00  0.00000000000E+00  0.77183433800E+03  0.77183433800E+03  0.00000000000E+00 0. -1.
         -2   -1    0    0    0  501 -0.00000000000E+00 -0.00000000000E+00 -0.64417786968E+03  0.64417786968E+03  0.00000000000E+00 0.  1.
         23    2    1    2    0    0 -0.50703935944E+03 -0.26631740511E+03  0.91042016914E+02  0.58704045247E+03  0.91180983277E+02 0.  0.
    5000000    2    1    2    0    0  0.50703935944E+03  0.26631740511E+03  0.36614451402E+02  0.82897175521E+03  0.59819702490E+03 0.  0.
         23    2    4    4    0    0  0.33527542952E+02  0.22254820402E+03 -0.17674614792E+03  0.30011376626E+03  0.90428273471E+02 0.  0.
         23    2    4    4    0    0  0.47351181649E+03  0.43769201088E+02  0.21336059932E+03  0.52885798896E+03  0.89659599740E+02 0.  0.
          4    1    3    3  502    0 -0.84484430331E+02 -0.70618209388E+02 -0.98916264376E+01  0.11055493991E+03  0.00000000000E+00 0. -1.
         -4    1    3    3    0  502 -0.42255492911E+03 -0.19569919572E+03  0.10093364335E+03  0.47648551256E+03  0.00000000000E+00 0.  1.
         11    1    5    5    0    0  0.44884493720E+02  0.43663593075E+02 -0.36129937767E+02  0.72294533263E+02  0.00000000000E+00 0. -1.
        -11    1    5    5    0    0 -0.11356950768E+02  0.17888461095E+03 -0.14061621015E+03  0.22781923299E+03  0.00000000000E+00 0.  1.
          3    1    6    6  503    0  0.46467015873E+03  0.56394058301E+02  0.21026372657E+03  0.51313690272E+03  0.00000000000E+00 0. -1.
         -3    1    6    6    0  503  0.88416577546E+01 -0.12624857213E+02  0.30968727528E+01  0.15721086233E+02  0.00000000000E+00 0.  1.
<mgrwt>
<rscale>  0 0.65057023E+03</rscale>
<asrwt>0</asrwt>
<pdfrwt beam="1">  1        2 0.11874374E+00 0.65057023E+03</pdfrwt>
<pdfrwt beam="2">  1       -2 0.99104287E-01 0.65057023E+03</pdfrwt>
<totfact> 0.31190509E+01</totfact>
</mgrwt>
</event>
<event>
12    1  0.1418317E-007  0.9236337E+03  0.7818608E-02  0.9396511E-01
          2   -1    0    0  501    0  0.00000000000E+00  0.00000000000E+00  0.10125803658E+04  0.10125803658E+04  0.00000000000E+00 0.  1.
         -2   -1    0    0    0  501 -0.00000000000E+00 -0.00000000000E+00 -0.87883745701E+03  0.87883745701E+03  0.00000000000E+00 0. -1.
         23    2    1    2    0    0  0.68906641377E+03 -0.48383507305E+03  0.13350896940E+03  0.85742717880E+03  0.91912031520E+02 0.  0.
    5000000    2    1    2    0    0 -0.68906641377E+03  0.48383507305E+03  0.23393942520E+00  0.10339906440E+04  0.60018971728E+03 0.  0.
         23    2    4    4    0    0 -0.68440877134E+03  0.56059046541E+03  0.77975616659E+02  0.89274764351E+03  0.90780625675E+02 0.  0.
         23    2    4    4    0    0 -0.46576424268E+01 -0.76755392358E+02 -0.77741677234E+02  0.14124300053E+03  0.89402085721E+02 0.  0.
          1    1    3    3  502    0  0.24126352539E+03 -0.19742986988E+03  0.87963828630E+02  0.32392017127E+03  0.00000000000E+00 0. -1.
         -1    1    3    3    0  502  0.44780288837E+03 -0.28640520317E+03  0.45545140771E+02  0.53350700753E+03  0.00000000000E+00 0.  1.
         11    1    5    5    0    0 -0.57212843042E+03  0.50360555797E+03  0.83187191428E+02  0.76672655343E+03  0.00000000000E+00 0. -1.
        -11    1    5    5    0    0 -0.11228034092E+03  0.56984907438E+02 -0.52115747690E+01  0.12602109008E+03  0.00000000000E+00 0.  1.
          3    1    6    6  503    0  0.39881257966E+02 -0.49742979460E+02 -0.29519124856E+02  0.70258504644E+02  0.00000000000E+00 0. -1.
         -3    1    6    6    0  503 -0.44538900392E+02 -0.27012412897E+02 -0.48222552377E+02  0.70984495888E+02  0.00000000000E+00 0.  1.
<mgrwt>
<rscale>  0 0.92363368E+03</rscale>
<asrwt>0</asrwt>
<pdfrwt beam="1">  1        2 0.15578159E+00 0.92363368E+03</pdfrwt>
<pdfrwt beam="2">  1       -2 0.13520576E+00 0.92363368E+03</pdfrwt>
<totfact> 0.97049974E+00</totfact>
</mgrwt>
</event>
<event>
12    1  0.1418317E-007  0.1039137E+04  0.7818608E-02  0.9266632E-01
         -1   -1    0    0    0  501 -0.00000000000E+00  0.00000000000E+00  0.13619318707E+04  0.13619318707E+04  0.00000000000E+00 0.  1.
          1   -1    0    0  501    0  0.00000000000E+00 -0.00000000000E+00 -0.83599917514E+03  0.83599917514E+03  0.00000000000E+00 0. -1.
         23    2    1    2    0    0 -0.83149222285E+03  0.49238294900E+03  0.41085458423E+03  0.10546330562E+04  0.98128022223E+02 0.  0.
    5000000    2    1    2    0    0  0.83149222285E+03 -0.49238294900E+03  0.11507811133E+03  0.11432979896E+04  0.60005586093E+03 0.  0.
         23    2    4    4    0    0  0.56581759439E+03 -0.59013873713E+03  0.17162896286E+03  0.84028981257E+03  0.90648712214E+02 0.  0.
         23    2    4    4    0    0  0.26567462846E+03  0.97755788131E+02 -0.56550851534E+02  0.30300817706E+03  0.92069290397E+02 0.  0.
          3    1    3    3  502    0 -0.39448376302E+03  0.25716022749E+03  0.15158722965E+03  0.49469941387E+03  0.00000000000E+00 0. -1.
         -3    1    3    3    0  502 -0.43700845983E+03  0.23522272151E+03  0.25926735457E+03  0.55993364234E+03  0.00000000000E+00 0.  1.
         13    1    5    5    0    0  0.17320224002E+03 -0.16019778493E+03  0.89303711066E+02  0.25226474002E+03  0.00000000000E+00 0.  1.
        -13    1    5    5    0    0  0.39261535437E+03 -0.42994095220E+03  0.82325251794E+02  0.58802507255E+03  0.00000000000E+00 0. -1.
          4    1    6    6  503    0  0.19588652838E+03  0.34849743993E+02 -0.12821355361E+02  0.19937508322E+03  0.00000000000E+00 0.  1.
         -4    1    6    6    0  503  0.69788100077E+02  0.62906044138E+02 -0.43729496174E+02  0.10363309383E+03  0.00000000000E+00 0. -1.
<mgrwt>
<rscale>  0 0.10391372E+04</rscale>
<asrwt>0</asrwt>
<pdfrwt beam="1">  1        1 0.12861526E+00 0.10391372E+04</pdfrwt>
<pdfrwt beam="2">  1       -1 0.20952798E+00 0.10391372E+04</pdfrwt>
<totfact> 0.26653560E+00</totfact>
</mgrwt>
</event>
<event>
12    1  0.1418317E-007  0.7216253E+03  0.7818608E-02  0.9680948E-01
          1   -1    0    0  501    0  0.00000000000E+00  0.00000000000E+00  0.64751643299E+03  0.64751643299E+03  0.00000000000E+00 0. -1.
         -1   -1    0    0    0  501 -0.00000000000E+00 -0.00000000000E+00 -0.87235998812E+03  0.87235998812E+03  0.00000000000E+00 0.  1.
         23    2    1    2    0    0 -0.60260589986E+03 -0.78531728545E+02  0.65454816994E+02  0.61785967652E+03  0.90361185633E+02 0.  0.
    5000000    2    1    2    0    0  0.60260589986E+03  0.78531728545E+02 -0.29029837213E+03  0.90201674459E+03  0.60004996436E+03 0.  0.
         23    2    4    4    0    0  0.49499971099E+03 -0.19210423777E+03 -0.25277209283E+03  0.59441845099E+03  0.86664940498E+02 0.  0.
         23    2    4    4    0    0  0.10760618887E+03  0.27063596631E+03 -0.37526279298E+02  0.30759829360E+03  0.91572760379E+02 0.  0.
          1    1    3    3  502    0 -0.57740741832E+03 -0.55200806175E+02  0.61443017293E+02  0.58328526478E+03  0.00000000000E+00 0. -1.
         -1    1    3    3    0  502 -0.25198481541E+02 -0.23330922370E+02  0.40117997014E+01  0.34574411744E+02  0.00000000000E+00 0.  1.
         11    1    5    5    0    0  0.27469983052E+03 -0.62414187669E+02 -0.14714811391E+03  0.31781770740E+03  0.00000000000E+00 0. -1.
        -11    1    5    5    0    0  0.22029988047E+03 -0.12969005010E+03 -0.10562397892E+03  0.27660074359E+03  0.00000000000E+00 0.  1.
          3    1    6    6  503    0  0.52914669808E+02  0.15045332361E+03 -0.65860337639E+02  0.17255071411E+03  0.00000000000E+00 0. -1.
         -3    1    6    6    0  503  0.54691519059E+02  0.12018264270E+03  0.28334058341E+02  0.13504757949E+03  0.00000000000E+00 0.  1.
<mgrwt>
<rscale>  0 0.72162525E+03</rscale>
<asrwt>0</asrwt>
<pdfrwt beam="1">  1        1 0.99617913E-01 0.72162525E+03</pdfrwt>
<pdfrwt beam="2">  1       -1 0.13420923E+00 0.72162525E+03</pdfrwt>
<totfact> 0.14778858E+01</totfact>
</mgrwt>
</event>
<event>
12    1  0.1418317E-007  0.4437638E+03  0.7818608E-02  0.1029598E+00
         -1   -1    0    0    0  501 -0.00000000000E+00  0.00000000000E+00  0.91942480597E+03  0.91942480597E+03  0.00000000000E+00 0.  1.
          1   -1    0    0  501    0  0.00000000000E+00 -0.00000000000E+00 -0.38501311635E+03  0.38501311635E+03  0.00000000000E+00 0. -1.
         23    2    1    2    0    0  0.19714722257E+03  0.21229064196E+03 -0.15829601447E+03  0.34328675949E+03  0.94094776775E+02 0.  0.
    5000000    2    1    2    0    0 -0.19714722257E+03 -0.21229064196E+03  0.69270770408E+03  0.96115116283E+03  0.60002770810E+03 0.  0.
         23    2    4    4    0    0  0.12485978918E+03  0.54247349361E+02  0.42763124090E+03  0.45793348036E+03  0.91114501435E+02 0.  0.
         23    2    4    4    0    0 -0.32200701175E+03 -0.26653799132E+03  0.26507646318E+03  0.50321768247E+03  0.90727549216E+02 0.  0.
          2    1    3    3  502    0  0.18801133517E+03  0.14709485695E+03 -0.12118333807E+03  0.26771357925E+03  0.00000000000E+00 0.  1.
         -2    1    3    3    0  502  0.91358874040E+01  0.65195785011E+02 -0.37112676398E+02  0.75573180238E+02  0.00000000000E+00 0. -1.
         13    1    5    5    0    0  0.11858933188E+03  0.10262496025E+02  0.32431122232E+03  0.34546565297E+03  0.00000000000E+00 0.  1.
        -13    1    5    5    0    0  0.62704573040E+01  0.43984853336E+02  0.10332001858E+03  0.11246782739E+03  0.00000000000E+00 0. -1.
          3    1    6    6  503    0 -0.15400999005E+03 -0.15054322339E+03  0.86861073506E+02  0.23222227549E+03  0.00000000000E+00 0. -1.
         -3    1    6    6    0  503 -0.16799702170E+03 -0.11599476793E+03  0.17821538968E+03  0.27099540698E+03  0.00000000000E+00 0.  1.
<mgrwt>
<rscale>  0 0.44376376E+03</rscale>
<asrwt>0</asrwt>
<pdfrwt beam="1">  1        1 0.59232787E-01 0.44376376E+03</pdfrwt>
<pdfrwt beam="2">  1       -1 0.14144997E+00 0.44376376E+03</pdfrwt>
<totfact> 0.27400623E+01</totfact>
</mgrwt>
</event>
<event>
12    1  0.1418317E-007  0.7736546E+03  0.7818608E-02  0.9598954E-01
          2   -1    0    0  501    0  0.00000000000E+00  0.00000000000E+00  0.13113242906E+04  0.13113242906E+04  0.00000000000E+00 0.  1.
         -2   -1    0    0    0  501 -0.00000000000E+00 -0.00000000000E+00 -0.73970383441E+03  0.73970383441E+03  0.00000000000E+00 0. -1.
         23    2    1    2    0    0 -0.64215587839E+03  0.41726462393E+03 -0.21437951420E+03  0.80048681238E+03  0.91359849828E+02 0.  0.
    5000000    2    1    2    0    0  0.64215587839E+03 -0.41726462393E+03  0.78599997039E+03  0.12505413126E+04  0.59965296850E+03 0.  0.
         23    2    4    4    0    0  0.27042613156E+03 -0.19365786483E+03  0.72530182442E+03  0.80305560454E+03  0.90564376162E+02 0.  0.
         23    2    4    4    0    0  0.37172974683E+03 -0.22360675910E+03  0.60698145968E+02  0.44748570810E+03  0.91521618419E+02 0.  0.
          4    1    3    3  502    0 -0.32524917538E+03  0.26200591303E+03 -0.13314182411E+03  0.43836157436E+03  0.00000000000E+00 0. -1.
         -4    1    3    3    0  502 -0.31690670301E+03  0.15525871090E+03 -0.81237690085E+02  0.36212523802E+03  0.00000000000E+00 0.  1.
         11    1    5    5    0    0  0.21230019581E+02 -0.52165958883E+02  0.90883557675E+02  0.10691969909E+03  0.00000000000E+00 0. -1.
        -11    1    5    5    0    0  0.24919611198E+03 -0.14149190595E+03  0.63441826675E+03  0.69613590545E+03  0.00000000000E+00 0.  1.
          2    1    6    6  503    0  0.27758201531E+03 -0.17106982832E+03  0.85014871148E+02  0.33696318746E+03  0.00000000000E+00 0.  1.
         -2    1    6    6    0  503  0.94147731514E+02 -0.52536930773E+02 -0.24316725180E+02  0.11052252064E+03  0.00000000000E+00 0. -1.
<mgrwt>
<rscale>  0 0.77365459E+03</rscale>
<asrwt>0</asrwt>
<pdfrwt beam="1">  1        2 0.20174220E+00 0.77365459E+03</pdfrwt>
<pdfrwt beam="2">  1       -2 0.11380059E+00 0.77365459E+03</pdfrwt>
<totfact> 0.10030747E+01</totfact>
</mgrwt>
</event>
<event>
12    1  0.1418317E-007  0.6881701E+03  0.7818608E-02  0.9737679E-01
          2   -1    0    0  501    0  0.00000000000E+00  0.00000000000E+00  0.48060639149E+03  0.48060639149E+03  0.00000000000E+00 0. -1.
         -2   -1    0    0    0  501 -0.00000000000E+00 -0.00000000000E+00 -0.12569027093E+04  0.12569027093E+04  0.00000000000E+00 0.  1.
         23    2    1    2    0    0 -0.21318449525E+03  0.61643710368E+03 -0.42781228183E+03  0.78516822909E+03  0.89573811342E+02 0.  0.
    5000000    2    1    2    0    0  0.21318449525E+03 -0.61643710368E+03 -0.34848403600E+03  0.95234087172E+03  0.60005806453E+03 0.  0.
         23    2    4    4    0    0 -0.55479053712E+02 -0.14417153257E+03  0.13099286566E+03  0.22200038950E+03  0.90893816516E+02 0.  0.
         23    2    4    4    0    0  0.26866354896E+03 -0.47226557110E+03 -0.47947690166E+03  0.73034048222E+03  0.91017847487E+02 0.  0.
          1    1    3    3  502    0 -0.14004447151E+03  0.35026457317E+03 -0.29480480588E+03  0.47875630417E+03  0.00000000000E+00 0. -1.
         -1    1    3    3    0  502 -0.73140023743E+02  0.26617253051E+03 -0.13300747595E+03  0.30641192491E+03  0.00000000000E+00 0.  1.
         13    1    5    5    0    0 -0.33760486540E+02 -0.14650354047E+03  0.13209341073E+03  0.20012927567E+03  0.00000000000E+00 0. -1.
        -13    1    5    5    0    0 -0.21718567172E+02  0.23320078957E+01 -0.11005450740E+01  0.21871113833E+02  0.00000000000E+00 0.  1.
          2    1    6    6  503    0  0.17908428899E+03 -0.22293182645E+03 -0.24609376439E+03  0.37726903223E+03  0.00000000000E+00 0. -1.
         -2    1    6    6    0  503  0.89579259968E+02 -0.24933374465E+03 -0.23338313727E+03  0.35307144999E+03  0.00000000000E+00 0.  1.
<mgrwt>
<rscale>  0 0.68817011E+03</rscale>
<asrwt>0</asrwt>
<pdfrwt beam="1">  1        2 0.73939445E-01 0.68817011E+03</pdfrwt>
<pdfrwt beam="2">  1       -2 0.19336965E+00 0.68817011E+03</pdfrwt>
<totfact> 0.97267916E+00</totfact>
</mgrwt>
</event>
<event>
12    1  0.1418317E-007  0.5993353E+03  0.7818608E-02  0.9906786E-01
         -2   -1    0    0    0  501 -0.00000000000E+00  0.00000000000E+00  0.56709575953E+03  0.56709575953E+03  0.00000000000E+00 0.  1.
          2   -1    0    0  501    0  0.00000000000E+00 -0.00000000000E+00 -0.10733458960E+04  0.10733458960E+04  0.00000000000E+00 0. -1.
         23    2    1    2    0    0  0.20663576815E+03  0.42522777104E+03 -0.70365909510E+03  0.85155247908E+03  0.80551254339E+02 0.  0.
    5000000    2    1    2    0    0 -0.20663576815E+03 -0.42522777104E+03  0.19740895862E+03  0.78888917645E+03  0.59988235333E+03 0.  0.
         23    2    4    4    0    0  0.10504323281E+03 -0.38592548399E+03  0.58350840533E+00  0.40932917830E+03  0.87048697757E+02 0.  0.
         23    2    4    4    0    0 -0.31167900096E+03 -0.39302287057E+02  0.19682545022E+03  0.37955999815E+03  0.81468183583E+02 0.  0.
          2    1    3    3  502    0  0.14827619558E+03  0.27824601456E+03 -0.40138099357E+03  0.51040511047E+03  0.00000000000E+00 0. -1.
         -2    1    3    3    0  502  0.58359572567E+02  0.14698175648E+03 -0.30227810153E+03  0.34114736861E+03  0.00000000000E+00 0.  1.
         13    1    5    5    0    0  0.61538705621E+02 -0.31335327676E+03 -0.26630744880E+02  0.32044732004E+03  0.00000000000E+00 0.  1.
        -13    1    5    5    0    0  0.43504527186E+02 -0.72572207225E+02  0.27214253285E+02  0.88881858267E+02  0.00000000000E+00 0. -1.
          3    1    6    6  503    0 -0.19356893522E+03 -0.57164711460E+02  0.97220652912E+02  0.22402810598E+03  0.00000000000E+00 0. -1.
         -3    1    6    6    0  503 -0.11811006574E+03  0.17862424403E+02  0.99604797306E+02  0.15553189216E+03  0.00000000000E+00 0.  1.
<mgrwt>
<rscale>  0 0.59933528E+03</rscale>
<asrwt>0</asrwt>
<pdfrwt beam="1">  1        2 0.16513014E+00 0.59933528E+03</pdfrwt>
<pdfrwt beam="2">  1       -2 0.87245502E-01 0.59933528E+03</pdfrwt>
<totfact> 0.26585604E+01</totfact>
</mgrwt>
</event>
<event>
12    1  0.1418317E-007  0.4348532E+03  0.7818608E-02  0.1032338E+00
         -2   -1    0    0    0  501 -0.00000000000E+00  0.00000000000E+00  0.55912597950E+03  0.55912597950E+03  0.00000000000E+00 0.  1.
          2   -1    0    0  501    0  0.00000000000E+00 -0.00000000000E+00 -0.18086204683E+04  0.18086204683E+04  0.00000000000E+00 0. -1.
         23    2    1    2    0    0 -0.97284919794E+02 -0.38249685317E+03 -0.15404346054E+04  0.15928223611E+04  0.91521046937E+02 0.  0.
    5000000    2    1    2    0    0  0.97284919794E+02  0.38249685317E+03  0.29094011665E+03  0.77492408670E+03  0.60007748696E+03 0.  0.
         23    2    4    4    0    0  0.14746419989E+03  0.15065828186E+03  0.42763960920E+03  0.48551909813E+03  0.91703604904E+02 0.  0.
         23    2    4    4    0    0 -0.50179280099E+02  0.23183857131E+03 -0.13669949255E+03  0.28940498857E+03  0.93815845385E+02 0.  0.
          2    1    3    3  502    0 -0.99121351037E+02 -0.25018387086E+03 -0.92653865291E+03  0.96482686882E+03  0.00000000000E+00 0. -1.
         -2    1    3    3    0  502  0.18364312430E+01 -0.13231298232E+03 -0.61389595252E+03  0.62799549225E+03  0.00000000000E+00 0.  1.
         13    1    5    5    0    0  0.72869556338E+02  0.24432829065E+02  0.96456620792E+02  0.12333213317E+03  0.00000000000E+00 0. -1.
        -13    1    5    5    0    0  0.74594643555E+02  0.12622545280E+03  0.33118298840E+03  0.36218696496E+03  0.00000000000E+00 0.  1.
          3    1    6    6  503    0 -0.26389232922E+02  0.24205744055E+02 -0.53680499356E+02  0.64528332309E+02  0.00000000000E+00 0. -1.
         -3    1    6    6    0  503 -0.23790047177E+02  0.20763282725E+03 -0.83018993193E+02  0.22487665626E+03  0.00000000000E+00 0.  1.
<mgrwt>
<rscale>  0 0.43485318E+03</rscale>
<asrwt>0</asrwt>
<pdfrwt beam="1">  1        2 0.27824930E+00 0.43485318E+03</pdfrwt>
<pdfrwt beam="2">  1       -2 0.86019383E-01 0.43485318E+03</pdfrwt>
<totfact> 0.10954780E+01</totfact>
</mgrwt>
</event>
<event>
12    1  0.1418317E-007  0.2840748E+03  0.7818608E-02  0.1093484E+00
          1   -1    0    0  501    0  0.00000000000E+00  0.00000000000E+00  0.62639397812E+03  0.62639397812E+03  0.00000000000E+00 0. -1.
         -1   -1    0    0    0  501 -0.00000000000E+00 -0.00000000000E+00 -0.27584418796E+03  0.27584418796E+03  0.00000000000E+00 0.  1.
         23    2    1    2    0    0  0.52562403218E+02  0.77686445530E+02  0.25602349576E+03  0.28763603245E+03  0.91588573132E+02 0.  0.
    5000000    2    1    2    0    0 -0.52562403218E+02 -0.77686445530E+02  0.94526294398E+02  0.61460213363E+03  0.60000214356E+03 0.  0.
         23    2    4    4    0    0  0.17020403162E+03 -0.15829067969E+03  0.21786284879E+03  0.33159964728E+03  0.92025830829E+02 0.  0.
         23    2    4    4    0    0 -0.22276643484E+03  0.80604234162E+02 -0.12333655439E+03  0.28300248635E+03  0.93576570652E+02 0.  0.
          3    1    3    3  502    0  0.49806466643E+02  0.56352245615E+02  0.78128024655E+02  0.10844467687E+03  0.00000000000E+00 0. -1.
         -3    1    3    3    0  502  0.27559365749E+01  0.21334199915E+02  0.17789547111E+03  0.17919135557E+03  0.00000000000E+00 0.  1.
         11    1    5    5    0    0  0.89593439815E+02 -0.80414492526E+02  0.17323199147E+03  0.21095686274E+03  0.00000000000E+00 0. -1.
        -11    1    5    5    0    0  0.80610591804E+02 -0.77876187166E+02  0.44630857315E+02  0.12064278455E+03  0.00000000000E+00 0.  1.
          3    1    6    6  503    0 -0.21598138137E+03  0.83526242233E+02 -0.89329439142E+02  0.24820221380E+03  0.00000000000E+00 0. -1.
         -3    1    6    6    0  503 -0.67850534694E+01 -0.29220080704E+01 -0.34007115247E+02  0.34800272545E+02  0.00000000000E+00 0.  1.
<mgrwt>
<rscale>  0 0.28407476E+03</rscale>
<asrwt>0</asrwt>
<pdfrwt beam="1">  1        1 0.96368304E-01 0.28407476E+03</pdfrwt>
<pdfrwt beam="2">  1       -1 0.42437568E-01 0.28407476E+03</pdfrwt>
<totfact> 0.18532738E+02</totfact>
</mgrwt>
</event>
<event>
12    1  0.1418317E-007  0.7698756E+03  0.7818608E-02  0.9604674E-01
         -2   -1    0    0    0  501 -0.00000000000E+00  0.00000000000E+00  0.39556772887E+03  0.39556772887E+03  0.00000000000E+00 0. -1.
          2   -1    0    0  501    0  0.00000000000E+00 -0.00000000000E+00 -0.26184182523E+04  0.26184182523E+04  0.00000000000E+00 0.  1.
         23    2    1    2    0    0 -0.42533627727E+03  0.53598070087E+03 -0.91525755597E+02  0.69650770641E+03  0.92518974708E+02 0.  0.
    5000000    2    1    2    0    0  0.42533627727E+03 -0.53598070087E+03 -0.21313247678E+04  0.23174782747E+04  0.59997835593E+03 0.  0.
         23    2    4    4    0    0  0.27604841651E+03  0.92245022555E+01 -0.10953747261E+04  0.11334365369E+04  0.92437941388E+02 0.  0.
         23    2    4    4    0    0  0.14928786076E+03 -0.54520520312E+03 -0.10359500417E+04  0.11840417378E+04  0.96056072461E+02 0.  0.
          1    1    3    3  502    0 -0.23176292022E+03  0.21896232404E+03 -0.34267447908E+02  0.32067555024E+03  0.00000000000E+00 0. -1.
         -1    1    3    3    0  502 -0.19357335705E+03  0.31701837683E+03 -0.57258307690E+02  0.37583215616E+03  0.00000000000E+00 0.  1.
         13    1    5    5    0    0  0.84259802290E+02 -0.10909979438E+02 -0.51234797905E+03  0.51934496586E+03  0.00000000000E+00 0.  1.
        -13    1    5    5    0    0  0.19178861422E+03  0.20134481694E+02 -0.58302674704E+03  0.61409157107E+03  0.00000000000E+00 0. -1.
          3    1    6    6  503    0  0.74872585517E+02 -0.13154173013E+03 -0.23531296357E+03  0.27978799412E+03  0.00000000000E+00 0. -1.
         -3    1    6    6    0  503  0.74415275247E+02 -0.41366347300E+03 -0.80063707815E+03  0.90425374370E+03  0.00000000000E+00 0.  1.
<mgrwt>
<rscale>  0 0.76987562E+03</rscale>
<asrwt>0</asrwt>
<pdfrwt beam="1">  1        2 0.40283357E+00 0.76987562E+03</pdfrwt>
<pdfrwt beam="2">  1       -2 0.60856574E-01 0.76987562E+03</pdfrwt>
<totfact> 0.78258152E+00</totfact>
</mgrwt>
</event>
<event>
12    1  0.1418317E-007  0.8244751E+03  0.7818608E-02  0.9525251E-01
         -1   -1    0    0    0  501 -0.00000000000E+00  0.00000000000E+00  0.58089732593E+03  0.58089732593E+03  0.00000000000E+00 0.  1.
          1   -1    0    0  501    0  0.00000000000E+00 -0.00000000000E+00 -0.14099691344E+04  0.14099691344E+04  0.00000000000E+00 0. -1.
         23    2    1    2    0    0  0.74981726380E+03  0.27141080729E+03 -0.26850267412E+03  0.84636592393E+03  0.91388378733E+02 0.  0.
    5000000    2    1    2    0    0 -0.74981726380E+03 -0.27141080729E+03 -0.56056913439E+03  0.11445005364E+04  0.59979493835E+03 0.  0.
         23    2    4    4    0    0 -0.26110412300E+02  0.17630150150E+02  0.85394698577E+02  0.12812321843E+03  0.90170553569E+02 0.  0.
         23    2    4    4    0    0 -0.72370685150E+03 -0.28904095744E+03 -0.64596383296E+03  0.10163773180E+04  0.91963563852E+02 0.  0.
          3    1    3    3  502    0  0.43060545571E+03  0.20344381163E+03 -0.16308900571E+03  0.50339692764E+03  0.00000000000E+00 0. -1.
         -3    1    3    3    0  502  0.31921180810E+03  0.67966995662E+02 -0.10541366841E+03  0.34296899629E+03  0.00000000000E+00 0.  1.
         11    1    5    5    0    0 -0.39287220146E+02 -0.58930212657E+01  0.92131850577E+02  0.10033190548E+03  0.00000000000E+00 0.  1.
        -11    1    5    5    0    0  0.13176807846E+02  0.23523171416E+02 -0.67371519996E+01  0.27791312951E+02  0.00000000000E+00 0. -1.
          3    1    6    6  503    0 -0.49430232561E+03 -0.18557188288E+03 -0.48987316066E+03  0.72024122789E+03  0.00000000000E+00 0. -1.
         -3    1    6    6    0  503 -0.22940452589E+03 -0.10346907456E+03 -0.15609067230E+03  0.29613609012E+03  0.00000000000E+00 0.  1.
<mgrwt>
<rscale>  0 0.82447506E+03</rscale>
<asrwt>0</asrwt>
<pdfrwt beam="1">  1        1 0.21691833E+00 0.82447506E+03</pdfrwt>
<pdfrwt beam="2">  1       -1 0.89368820E-01 0.82447506E+03</pdfrwt>
<totfact> 0.95215736E+00</totfact>
</mgrwt>
</event>
<event>
12    1  0.1418317E-007  0.1254297E+04  0.7818608E-02  0.9066614E-01
          2   -1    0    0  501    0  0.00000000000E+00  0.00000000000E+00  0.12219988884E+04  0.12219988884E+04  0.00000000000E+00 0. -1.
         -2   -1    0    0    0  501 -0.00000000000E+00 -0.00000000000E+00 -0.13251950108E+04  0.13251950108E+04  0.00000000000E+00 0.  1.
         23    2    1    2    0    0 -0.11822934228E+04 -0.47502601633E+02 -0.24850558342E+03  0.12126375939E+04  0.93062744486E+02 0.  0.
    5000000    2    1    2    0    0  0.11822934228E+04  0.47502601633E+02  0.14530946110E+03  0.13345563053E+04  0.59987620205E+03 0.  0.
         23    2    4    4    0    0  0.66596522174E+03 -0.25692641758E+03  0.69385201769E+02  0.72331274019E+03  0.94053991238E+02 0.  0.
         23    2    4    4    0    0  0.51632820105E+03  0.30442901921E+03  0.75924259336E+02  0.61124356512E+03  0.92641048167E+02 0.  0.
          2    1    3    3  502    0 -0.23630465186E+03  0.47827494664E+01 -0.85160313309E+02  0.25122707288E+03  0.00000000000E+00 0. -1.
         -2    1    3    3    0  502 -0.94598877093E+03 -0.52285351099E+02 -0.16334527011E+03  0.96141052103E+03  0.00000000000E+00 0.  1.
         11    1    5    5    0    0  0.28975276919E+03 -0.15979039126E+03  0.45808048999E+02  0.33404792133E+03  0.00000000000E+00 0.  1.
        -11    1    5    5    0    0  0.37621245255E+03 -0.97136026320E+02  0.23577152769E+02  0.38926481886E+03  0.00000000000E+00 0. -1.
          3    1    6    6  503    0  0.49637805317E+03  0.26868271508E+03  0.61196036825E+02  0.56773808043E+03  0.00000000000E+00 0. -1.
         -3    1    6    6    0  503  0.19950147886E+02  0.35746304133E+02  0.14728222511E+02  0.43505484691E+02  0.00000000000E+00 0.  1.
<mgrwt>
<rscale>  0 0.12542974E+04</rscale>
<asrwt>0</asrwt>
<pdfrwt beam="1">  1        2 0.18799983E+00 0.12542974E+04</pdfrwt>
<pdfrwt beam="2">  1       -2 0.20387615E+00 0.12542974E+04</pdfrwt>
<totfact> 0.22265777E+00</totfact>
</mgrwt>
</event>
<event>
12    1  0.1418317E-007  0.4221953E+03  0.7818608E-02  0.1036354E+00
          1   -1    0    0  501    0  0.00000000000E+00  0.00000000000E+00  0.51657891412E+03  0.51657891412E+03  0.00000000000E+00 0. -1.
         -1   -1    0    0    0  501 -0.00000000000E+00 -0.00000000000E+00 -0.49189966892E+03  0.49189966892E+03  0.00000000000E+00 0.  1.
         23    2    1    2    0    0 -0.26181196193E+03  0.17893036625E+03 -0.59482133076E+01  0.32877642353E+03  0.86585079855E+02 0.  0.
    5000000    2    1    2    0    0  0.26181196193E+03 -0.17893036625E+03  0.30627458507E+02  0.67970215951E+03  0.60041269561E+03 0.  0.
         23    2    4    4    0    0  0.29826566217E+03  0.88625546055E+01  0.23086696819E+03  0.38824520445E+03  0.91617856745E+02 0.  0.
         23    2    4    4    0    0 -0.36453700244E+02 -0.18779292086E+03 -0.20023950968E+03  0.29145695505E+03  0.90863865338E+02 0.  0.
          1    1    3    3  502    0 -0.58874800967E+02  0.77943188393E+02 -0.26386325608E+02  0.10118112959E+03  0.00000000000E+00 0. -1.
         -1    1    3    3    0  502 -0.20293716096E+03  0.10098717786E+03  0.20438112300E+02  0.22759529394E+03  0.00000000000E+00 0.  1.
         13    1    5    5    0    0  0.69867559643E+02 -0.31664454795E+02  0.83703596483E+02  0.11353592230E+03  0.00000000000E+00 0. -1.
        -13    1    5    5    0    0  0.22839810253E+03  0.40527009401E+02  0.14716337171E+03  0.27470928216E+03  0.00000000000E+00 0.  1.
          1    1    6    6  503    0 -0.29799518656E+02 -0.19742099683E+03 -0.18457076509E+03  0.27189966647E+03  0.00000000000E+00 0. -1.
         -1    1    6    6    0  503 -0.66541815878E+01  0.96280759707E+01 -0.15668744597E+02  0.19557288584E+02  0.00000000000E+00 0.  1.
<mgrwt>
<rscale>  0 0.42219533E+03</rscale>
<asrwt>0</asrwt>
<pdfrwt beam="1">  1        1 0.79473680E-01 0.42219533E+03</pdfrwt>
<pdfrwt beam="2">  1       -1 0.75676872E-01 0.42219533E+03</pdfrwt>
<totfact> 0.78205255E+01</totfact>
</mgrwt>
</event>
<event>
12    1  0.1459205E-007  0.1101308E+04  0.7818608E-02  0.9203918E-01
         -2   -1    0    0    0  501 -0.00000000000E+00  0.00000000000E+00  0.95825642677E+03  0.95825642677E+03  0.00000000000E+00 0. -1.
          2   -1    0    0  501    0  0.00000000000E+00 -0.00000000000E+00 -0.16856070551E+04  0.16856070551E+04  0.00000000000E+00 0.  1.
         23    2    1    2    0    0 -0.10621972165E+04 -0.11058028563E+03  0.22160361369E+03  0.10944819301E+04  0.91058264448E+02 0.  0.
    5000000    2    1    2    0    0  0.10621972165E+04  0.11058028563E+03 -0.94895424203E+03  0.15493815517E+04  0.59964832454E+03 0.  0.
         23    2    4    4    0    0  0.75948397981E+03  0.22466157320E+03 -0.36779049050E+03  0.87796036772E+03  0.90861566844E+02 0.  0.
         23    2    4    4    0    0  0.30271323668E+03 -0.11408128758E+03 -0.58116375153E+03  0.67142118402E+03  0.91680185520E+02 0.  0.
          3    1    3    3  502    0 -0.53043124755E+03 -0.22358884643E+02  0.77598999899E+02  0.53654341193E+03  0.00000000000E+00 0. -1.
         -3    1    3    3    0  502 -0.53176596894E+03 -0.88221400985E+02  0.14400461379E+03  0.55793851821E+03  0.00000000000E+00 0.  1.
         11    1    5    5    0    0  0.33687887426E+03  0.14327244843E+03 -0.18817618931E+03  0.41161225519E+03  0.00000000000E+00 0. -1.
        -11    1    5    5    0    0  0.42260510555E+03  0.81389124770E+02 -0.17961430119E+03  0.46634811253E+03  0.00000000000E+00 0.  1.
          2    1    6    6  503    0  0.26985776070E+03 -0.65691281120E+02 -0.48185790555E+03  0.55617047437E+03  0.00000000000E+00 0. -1.
         -2    1    6    6    0  503  0.32855475973E+02 -0.48390006457E+02 -0.99305845984E+02  0.11525070964E+03  0.00000000000E+00 0.  1.
<mgrwt>
<rscale>  0 0.11013079E+04</rscale>
<asrwt>0</asrwt>
<pdfrwt beam="1">  1        2 0.25932416E+00 0.11013079E+04</pdfrwt>
<pdfrwt beam="2">  1       -2 0.14742407E+00 0.11013079E+04</pdfrwt>
<totfact> 0.30788670E+00</totfact>
</mgrwt>
</event>
<event>
12    1  0.1418317E-007  0.6391281E+03  0.7818608E-02  0.9827396E-01
         -1   -1    0    0    0  501 -0.00000000000E+00  0.00000000000E+00  0.32323004069E+03  0.32323004069E+03  0.00000000000E+00 0.  1.
          1   -1    0    0  501    0  0.00000000000E+00 -0.00000000000E+00 -0.16543428933E+04  0.16543428933E+04  0.00000000000E+00 0. -1.
         23    2    1    2    0    0  0.50868114619E+03  0.25065335920E+03 -0.83759292192E+03  0.10157316127E+04  0.92548318283E+02 0.  0.
    5000000    2    1    2    0    0 -0.50868114619E+03 -0.25065335920E+03 -0.49351993068E+03  0.96184132128E+03  0.59999432529E+03 0.  0.
         23    2    4    4    0    0 -0.52037293163E+03 -0.29745137197E+03 -0.18308676354E+03  0.63344048452E+03  0.91982486261E+02 0.  0.
         23    2    4    4    0    0  0.11691785438E+02  0.46798012777E+02 -0.31043316713E+03  0.32840083676E+03  0.95664029204E+02 0.  0.
          3    1    3    3  502    0  0.10865312412E+03  0.16696366920E+02 -0.18796175818E+03  0.21774731362E+03  0.00000000000E+00 0. -1.
         -3    1    3    3    0  502  0.40002802207E+03  0.23395699228E+03 -0.64963116374E+03  0.79798429908E+03  0.00000000000E+00 0.  1.
         13    1    5    5    0    0 -0.33637949123E+03 -0.18782485273E+03 -0.16298691096E+03  0.41832292618E+03  0.00000000000E+00 0.  1.
        -13    1    5    5    0    0 -0.18399344040E+03 -0.10962651924E+03 -0.20099852587E+02  0.21511755834E+03  0.00000000000E+00 0. -1.
          4    1    6    6  503    0  0.52553733459E+02  0.18303966590E+02 -0.19238412788E+03  0.20027127291E+03  0.00000000000E+00 0. -1.
         -4    1    6    6    0  503 -0.40861948021E+02  0.28494046188E+02 -0.11804903925E+03  0.12812956385E+03  0.00000000000E+00 0.  1.
<mgrwt>
<rscale>  0 0.63912813E+03</rscale>
<asrwt>0</asrwt>
<pdfrwt beam="1">  1        1 0.25451429E+00 0.63912813E+03</pdfrwt>
<pdfrwt beam="2">  1       -1 0.49727699E-01 0.63912813E+03</pdfrwt>
<totfact> 0.21865648E+01</totfact>
</mgrwt>
</event>
<event>
12    1  0.1418317E-007  0.1001219E+04  0.7818608E-02  0.9307209E-01
         -2   -1    0    0    0  501 -0.00000000000E+00  0.00000000000E+00  0.13983203836E+04  0.13983203836E+04  0.00000000000E+00 0. -1.
          2   -1    0    0  501    0  0.00000000000E+00 -0.00000000000E+00 -0.10902677263E+04  0.10902677263E+04  0.00000000000E+00 0.  1.
         23    2    1    2    0    0  0.23754738562E+03 -0.90125575444E+03  0.84100560635E+03  0.12586519914E+04  0.90684674827E+02 0.  0.
    5000000    2    1    2    0    0 -0.23754738562E+03  0.90125575444E+03 -0.53295294907E+03  0.12299361185E+04  0.60001109515E+03 0.  0.
         23    2    4    4    0    0 -0.15251649302E+03  0.36900436713E+01 -0.19252971178E+03  0.26216714325E+03  0.91591615405E+02 0.  0.
         23    2    4    4    0    0 -0.85030892596E+02  0.89756571077E+03 -0.34042323728E+03  0.96776897523E+03  0.88511869819E+02 0.  0.
          2    1    3    3  502    0  0.20149750487E+03 -0.67182181101E+03  0.67262342837E+03  0.97178601894E+03  0.00000000000E+00 0.  1.
         -2    1    3    3    0  502  0.36049880746E+02 -0.22943394344E+03  0.16838217798E+03  0.28686597247E+03  0.00000000000E+00 0. -1.
         13    1    5    5    0    0 -0.98842186617E+02 -0.30392854107E+02 -0.16061557035E+03  0.19102582254E+03  0.00000000000E+00 0.  1.
        -13    1    5    5    0    0 -0.53674306404E+02  0.34082897778E+02 -0.31914141429E+02  0.71141320708E+02  0.00000000000E+00 0. -1.
          3    1    6    6  503    0 -0.80010950225E+02  0.77004016267E+03 -0.25889845021E+03  0.81632837253E+03  0.00000000000E+00 0. -1.
         -3    1    6    6    0  503 -0.50199423709E+01  0.12752554811E+03 -0.81524787073E+02  0.15144060271E+03  0.00000000000E+00 0.  1.
<mgrwt>
<rscale>  0 0.10012190E+04</rscale>
<asrwt>0</asrwt>
<pdfrwt beam="1">  1        2 0.16773350E+00 0.10012190E+04</pdfrwt>
<pdfrwt beam="2">  1       -2 0.21512621E+00 0.10012190E+04</pdfrwt>
<totfact> 0.23286790E+00</totfact>
</mgrwt>
</event>
<event>
12    1  0.1418317E-007  0.6115855E+03  0.7818608E-02  0.9881657E-01
          2   -1    0    0  501    0  0.00000000000E+00  0.00000000000E+00  0.89471365104E+03  0.89471365104E+03  0.00000000000E+00 0.  1.
         -2   -1    0    0    0  501 -0.00000000000E+00 -0.00000000000E+00 -0.10373716758E+04  0.10373716758E+04  0.00000000000E+00 0. -1.
         23    2    1    2    0    0 -0.39834827933E+03  0.32077631780E+03  0.63796174263E+03  0.82268339236E+03  0.90741287669E+02 0.  0.
    5000000    2    1    2    0    0  0.39834827933E+03 -0.32077631780E+03 -0.78061976740E+03  0.11094019345E+04  0.59985551032E+03 0.  0.
         23    2    4    4    0    0  0.12945806098E+03 -0.39824002866E+03 -0.23542965978E+03  0.48987497862E+03  0.95895046791E+02 0.  0.
         23    2    4    4    0    0  0.26889021835E+03  0.77463710853E+02 -0.54519010762E+03  0.61952695586E+03  0.90988018783E+02 0.  0.
          3    1    3    3  502    0 -0.17684402664E+02  0.43850692748E+02  0.77230209946E+02  0.90554550854E+02  0.00000000000E+00 0. -1.
         -3    1    3    3    0  502 -0.38066387667E+03  0.27692562505E+03  0.56073153269E+03  0.73212884150E+03  0.00000000000E+00 0.  1.
         13    1    5    5    0    0  0.86527188419E+02 -0.17004112025E+03 -0.14911541181E+03  0.24214942278E+03  0.00000000000E+00 0. -1.
        -13    1    5    5    0    0  0.42930872562E+02 -0.22819890840E+03 -0.86314247965E+02  0.24772555584E+03  0.00000000000E+00 0.  1.
          3    1    6    6  503    0  0.25900383600E+03  0.81436700519E+02 -0.54498434340E+03  0.60887014856E+03  0.00000000000E+00 0. -1.
         -3    1    6    6    0  503  0.98863823464E+01 -0.39729896660E+01 -0.20576421728E+00  0.10656807294E+02  0.00000000000E+00 0.  1.
<mgrwt>
<rscale>  0 0.61158545E+03</rscale>
<asrwt>0</asrwt>
<pdfrwt beam="1">  1        2 0.13764825E+00 0.61158545E+03</pdfrwt>
<pdfrwt beam="2">  1       -2 0.15959564E+00 0.61158545E+03</pdfrwt>
<totfact> 0.77784887E+00</totfact>
</mgrwt>
</event>
<event>
12    1  0.1418317E-007  0.5845752E+03  0.7818608E-02  0.9937935E-01
          1   -1    0    0  501    0  0.00000000000E+00  0.00000000000E+00  0.27181357011E+04  0.27181357011E+04  0.00000000000E+00 0. -1.
         -1   -1    0    0    0  501 -0.00000000000E+00 -0.00000000000E+00 -0.18628500656E+03  0.18628500656E+03  0.00000000000E+00 0.  1.
         23    2    1    2    0    0 -0.39169854204E+03  0.21920401702E+03  0.29342277512E+03  0.54397678277E+03  0.91299870295E+02 0.  0.
    5000000    2    1    2    0    0  0.39169854204E+03 -0.21920401702E+03  0.22384279195E+04  0.23604439249E+04  0.59971478490E+03 0.  0.
         23    2    4    4    0    0 -0.66653598692E+02  0.12176926234E+03  0.39949930624E+03  0.43264768162E+03  0.91180399528E+02 0.  0.
         23    2    4    4    0    0  0.45835214073E+03 -0.34097327936E+03  0.18389286132E+04  0.19277962433E+04  0.91599394422E+02 0.  0.
          4    1    3    3  502    0 -0.20100060294E+03  0.12032058331E+03  0.99267178248E+02  0.25442534824E+03  0.00000000000E+00 0.  1.
         -4    1    3    3    0  502 -0.19069793910E+03  0.98883433710E+02  0.19415559688E+03  0.28955143453E+03  0.00000000000E+00 0. -1.
         13    1    5    5    0    0 -0.16397827521E+02  0.61536912001E+02  0.29603549405E+03  0.30280801513E+03  0.00000000000E+00 0. -1.
        -13    1    5    5    0    0 -0.50255771171E+02  0.60232350338E+02  0.10346381218E+03  0.12983966649E+03  0.00000000000E+00 0.  1.
          2    1    6    6  503    0  0.66360539965E+02 -0.92498256629E+02  0.39884584122E+03  0.41477422027E+03  0.00000000000E+00 0. -1.
         -2    1    6    6    0  503  0.39199160077E+03 -0.24847502273E+03  0.14400827720E+04  0.15130220230E+04  0.00000000000E+00 0.  1.
<mgrwt>
<rscale>  0 0.58457518E+03</rscale>
<asrwt>0</asrwt>
<pdfrwt beam="1">  1        1 0.41817469E+00 0.58457518E+03</pdfrwt>
<pdfrwt beam="2">  1       -1 0.28659234E-01 0.58457518E+03</pdfrwt>
<totfact> 0.11468994E+01</totfact>
</mgrwt>
</event>
<event>
12    1  0.1418317E-007  0.6999530E+03  0.7818608E-02  0.9717312E-01
          2   -1    0    0  501    0  0.00000000000E+00  0.00000000000E+00  0.37510786325E+03  0.37510786325E+03  0.00000000000E+00 0. -1.
         -2   -1    0    0    0  501 -0.00000000000E+00 -0.00000000000E+00 -0.15333625631E+04  0.15333625631E+04  0.00000000000E+00 0.  1.
         23    2    1    2    0    0  0.55790478636E+03 -0.13344869902E+03 -0.14525558562E+03  0.59878985168E+03  0.91563067889E+02 0.  0.
    5000000    2    1    2    0    0 -0.55790478636E+03  0.13344869902E+03 -0.10129991142E+04  0.13096805747E+04  0.60002474646E+03 0.  0.
         23    2    4    4    0    0 -0.47520055093E+03 -0.16131498610E+03 -0.64676778613E+03  0.82370810108E+03  0.91369460233E+02 0.  0.
         23    2    4    4    0    0 -0.82704235430E+02  0.29476368512E+03 -0.36623132811E+03  0.48597247362E+03  0.91204379276E+02 0.  0.
          1    1    3    3  502    0  0.22830610402E+03 -0.92735281042E+02 -0.35184625173E+02  0.24892060447E+03  0.00000000000E+00 0. -1.
         -1    1    3    3    0  502  0.32959868234E+03 -0.40713417980E+02 -0.11007096045E+03  0.34986924720E+03  0.00000000000E+00 0.  1.
         11    1    5    5    0    0 -0.48082583691E+02  0.11320282286E+02 -0.62925168391E+02  0.79997877862E+02  0.00000000000E+00 0. -1.
        -11    1    5    5    0    0 -0.42711796724E+03 -0.17263526838E+03 -0.58384261774E+03  0.74371022322E+03  0.00000000000E+00 0.  1.
          2    1    6    6  503    0  0.31175341156E+01 -0.10464228729E+01 -0.29257350373E+02  0.29441578943E+02  0.00000000000E+00 0. -1.
         -2    1    6    6    0  503 -0.85821769546E+02  0.29581010799E+03 -0.33697397774E+03  0.45653089467E+03  0.00000000000E+00 0.  1.
<mgrwt>
<rscale>  0 0.69995305E+03</rscale>
<asrwt>0</asrwt>
<pdfrwt beam="1">  1        2 0.57708902E-01 0.69995305E+03</pdfrwt>
<pdfrwt beam="2">  1       -2 0.23590193E+00 0.69995305E+03</pdfrwt>
<totfact> 0.69241230E+00</totfact>
</mgrwt>
</event>
<event>
12    1  0.1418317E-007  0.9195301E+03  0.7818608E-02  0.9401492E-01
          1   -1    0    0  501    0  0.00000000000E+00  0.00000000000E+00  0.65245641261E+03  0.65245641261E+03  0.00000000000E+00 0. -1.
         -1   -1    0    0    0  501 -0.00000000000E+00 -0.00000000000E+00 -0.13128241252E+04  0.13128241252E+04  0.00000000000E+00 0.  1.
         23    2    1    2    0    0 -0.70586788383E+03  0.42603204931E+03 -0.33857375417E+03  0.89601285323E+03  0.91946014925E+02 0.  0.
    5000000    2    1    2    0    0  0.70586788383E+03 -0.42603204931E+03 -0.32179395840E+03  0.10692676846E+04  0.60002437710E+03 0.  0.
         23    2    4    4    0    0  0.37995113505E+03 -0.53565432795E+03 -0.20178412353E+03  0.69314942719E+03  0.91928623566E+02 0.  0.
         23    2    4    4    0    0  0.32591674878E+03  0.10962227863E+03 -0.12000983487E+03  0.37611825737E+03  0.93935147594E+02 0.  0.
          2    1    3    3  502    0 -0.34392677121E+03  0.15426142357E+03 -0.15757846757E+03  0.40855009999E+03  0.00000000000E+00 0. -1.
         -2    1    3    3    0  502 -0.36194111262E+03  0.27177062574E+03 -0.18099528660E+03  0.48746275324E+03  0.00000000000E+00 0.  1.
         11    1    5    5    0    0  0.15674703614E+03 -0.29385398316E+03 -0.12063124276E+03  0.35421983779E+03  0.00000000000E+00 0.  1.
        -11    1    5    5    0    0  0.22320409892E+03 -0.24180034479E+03 -0.81152880767E+02  0.33892958940E+03  0.00000000000E+00 0. -1.
          1    1    6    6  503    0  0.12348755940E+03  0.16556865138E+02 -0.84411883084E+02  0.15049476109E+03  0.00000000000E+00 0. -1.
         -1    1    6    6    0  503  0.20242918939E+03  0.93065413495E+02 -0.35597951784E+02  0.22562349629E+03  0.00000000000E+00 0.  1.
<mgrwt>
<rscale>  0 0.91953013E+03</rscale>
<asrwt>0</asrwt>
<pdfrwt beam="1">  1        1 0.10037791E+00 0.91953013E+03</pdfrwt>
<pdfrwt beam="2">  1       -1 0.20197294E+00 0.91953013E+03</pdfrwt>
<totfact> 0.44780415E+00</totfact>
</mgrwt>
</event>
<event>
12    1  0.1418317E-007  0.6376590E+03  0.7818608E-02  0.9830216E-01
         -2   -1    0    0    0  501 -0.00000000000E+00  0.00000000000E+00  0.41343377427E+03  0.41343377427E+03  0.00000000000E+00 0.  1.
          2   -1    0    0  501    0  0.00000000000E+00 -0.00000000000E+00 -0.12838280577E+04  0.12838280577E+04  0.00000000000E+00 0. -1.
         23    2    1    2    0    0  0.20426319538E+03  0.46004431481E+03 -0.74521702686E+03  0.90414995601E+03  0.93672307842E+02 0.  0.
    5000000    2    1    2    0    0 -0.20426319538E+03 -0.46004431481E+03 -0.12517725661E+03  0.79311187600E+03  0.59999406473E+03 0.  0.
         23    2    4    4    0    0 -0.36629101580E+03 -0.45081820907E+03 -0.44044025450E+02  0.58964305975E+03  0.91284696699E+02 0.  0.
         23    2    4    4    0    0  0.16202782042E+03 -0.92261057361E+01 -0.81133231156E+02  0.20346881625E+03  0.92080521131E+02 0.  0.
          4    1    3    3  502    0  0.13131303871E+03  0.38216507565E+03 -0.61360434453E+03  0.73471324393E+03  0.00000000000E+00 0.  1.
         -4    1    3    3    0  502  0.72950156667E+02  0.77879239158E+02 -0.13161268232E+03  0.16943671207E+03  0.00000000000E+00 0. -1.
         11    1    5    5    0    0 -0.92655594715E+00 -0.24159278687E+02  0.81254967402E+01  0.25505939502E+02  0.00000000000E+00 0.  1.
        -11    1    5    5    0    0 -0.36536445985E+03 -0.42665893039E+03 -0.52169522190E+02  0.56413712025E+03  0.00000000000E+00 0. -1.
          3    1    6    6  503    0  0.44462947966E+02  0.31174975244E+02 -0.53274496295E+02  0.76072365408E+02  0.00000000000E+00 0. -1.
         -3    1    6    6    0  503  0.11756487245E+03 -0.40401080980E+02 -0.27858734861E+02  0.12739645084E+03  0.00000000000E+00 0.  1.
<mgrwt>
<rscale>  0 0.63765902E+03</rscale>
<asrwt>0</asrwt>
<pdfrwt beam="1">  1        2 0.19751201E+00 0.63765902E+03</pdfrwt>
<pdfrwt beam="2">  1       -2 0.63605196E-01 0.63765902E+03</pdfrwt>
<totfact> 0.39884661E+01</totfact>
</mgrwt>
</event>
<event>
12    1  0.1418317E-007  0.5779746E+03  0.7818608E-02  0.9952186E-01
         -1   -1    0    0    0  501 -0.00000000000E+00  0.00000000000E+00  0.17583661314E+04  0.17583661314E+04  0.00000000000E+00 0.  1.
          1   -1    0    0  501    0  0.00000000000E+00 -0.00000000000E+00 -0.46816240801E+03  0.46816240801E+03  0.00000000000E+00 0. -1.
         23    2    1    2    0    0  0.35692419540E+03  0.24929553808E+03  0.14073237938E+04  0.14759933733E+04  0.91940366387E+02 0.  0.
    5000000    2    1    2    0    0 -0.35692419540E+03 -0.24929553808E+03 -0.11712007038E+03  0.75053516609E+03  0.60003564735E+03 0.  0.
         23    2    4    4    0    0 -0.47520351204E+02 -0.37197483925E+03  0.85610944839E+01  0.38582380409E+03  0.90350709205E+02 0.  0.
         23    2    4    4    0    0 -0.30940384420E+03  0.12267930117E+03 -0.12568116486E+03  0.36471136200E+03  0.80235108484E+02 0.  0.
          1    1    3    3  502    0  0.62636569645E+02  0.88802755761E+02  0.39075597423E+03  0.40558538027E+03  0.00000000000E+00 0. -1.
         -1    1    3    3    0  502  0.29428762576E+03  0.16049278232E+03  0.10165678195E+04  0.10704079930E+04  0.00000000000E+00 0.  1.
         11    1    5    5    0    0 -0.58572026136E+02 -0.30714892939E+03 -0.21696353813E+02  0.31343560557E+03  0.00000000000E+00 0. -1.
        -11    1    5    5    0    0  0.11051674932E+02 -0.64825909858E+02  0.30257448297E+02  0.72388198521E+02  0.00000000000E+00 0.  1.
          2    1    6    6  503    0 -0.96088534878E+01 -0.24023708244E+00 -0.22817923750E+02  0.24759754108E+02  0.00000000000E+00 0. -1.
         -2    1    6    6    0  503 -0.29979499071E+03  0.12291953825E+03 -0.10286324111E+03  0.33995160789E+03  0.00000000000E+00 0.  1.
<mgrwt>
<rscale>  0 0.57797463E+03</rscale>
<asrwt>0</asrwt>
<pdfrwt beam="1">  1        1 0.72024987E-01 0.57797463E+03</pdfrwt>
<pdfrwt beam="2">  1       -1 0.27051786E+00 0.57797463E+03</pdfrwt>
<totfact> 0.26863062E+00</totfact>
</mgrwt>
</event>
<event>
12    1  0.1418317E-007  0.7194434E+03  0.7818608E-02  0.9684547E-01
          2   -1    0    0  501    0  0.00000000000E+00  0.00000000000E+00  0.17582051451E+04  0.17582051451E+04  0.00000000000E+00 0. -1.
         -2   -1    0    0    0  501 -0.00000000000E+00 -0.00000000000E+00 -0.43110432500E+03  0.43110432500E+03  0.00000000000E+00 0.  1.
         23    2    1    2    0    0 -0.34327504679E+03 -0.61696734958E+03  0.95435319727E+03  0.11905865535E+04  0.90663377375E+02 0.  0.
    5000000    2    1    2    0    0  0.34327504679E+03  0.61696734958E+03  0.37274762282E+03  0.99872291660E+03  0.60001683778E+03 0.  0.
         23    2    4    4    0    0  0.24190820359E+03  0.30408808514E+03  0.49492561983E+03  0.63641806136E+03  0.95328050288E+02 0.  0.
         23    2    4    4    0    0  0.10136684320E+03  0.31287926445E+03 -0.12217799702E+03  0.36230485524E+03  0.90380717814E+02 0.  0.
          1    1    3    3  502    0 -0.25590660517E+03 -0.44791144567E+03  0.62696925080E+03  0.81191335447E+03  0.00000000000E+00 0. -1.
         -1    1    3    3    0  502 -0.87368441624E+02 -0.16905590392E+03  0.32738394648E+03  0.37867319901E+03  0.00000000000E+00 0.  1.
         11    1    5    5    0    0  0.16924622134E+03  0.15625512831E+03  0.33712584500E+03  0.40830599301E+03  0.00000000000E+00 0.  1.
        -11    1    5    5    0    0  0.72661982244E+02  0.14783295683E+03  0.15779977483E+03  0.22811206835E+03  0.00000000000E+00 0. -1.
          3    1    6    6  503    0  0.12541304134E+02  0.16263622014E+03 -0.33463459736E+02  0.16651614801E+03  0.00000000000E+00 0. -1.
         -3    1    6    6    0  503  0.88825539070E+02  0.15024304431E+03 -0.88714537279E+02  0.19578870723E+03  0.00000000000E+00 0.  1.
<mgrwt>
<rscale>  0 0.71944337E+03</rscale>
<asrwt>0</asrwt>
<pdfrwt beam="1">  1        2 0.27049310E+00 0.71944337E+03</pdfrwt>
<pdfrwt beam="2">  1       -2 0.66323743E-01 0.71944337E+03</pdfrwt>
<totfact> 0.19657178E+01</totfact>
</mgrwt>
</event>
<event>
12    1  0.1418317E-007  0.6957528E+03  0.7818608E-02  0.9724523E-01
         -2   -1    0    0    0  501 -0.00000000000E+00  0.00000000000E+00  0.97216034608E+03  0.97216034608E+03  0.00000000000E+00 0.  1.
          2   -1    0    0  501    0  0.00000000000E+00 -0.00000000000E+00 -0.90514048052E+03  0.90514048052E+03  0.00000000000E+00 0. -1.
         23    2    1    2    0    0  0.61488718315E+03  0.26919407495E+03 -0.47459806382E+03  0.82675488279E+03  0.87912547692E+02 0.  0.
    5000000    2    1    2    0    0 -0.61488718315E+03 -0.26919407495E+03  0.54161792937E+03  0.10505459438E+04  0.59978754625E+03 0.  0.
         23    2    4    4    0    0 -0.56624466890E+03 -0.25420920570E+03  0.64723569356E+03  0.90097905333E+03  0.87142791978E+02 0.  0.
         23    2    4    4    0    0 -0.48642514252E+02 -0.14984869252E+02 -0.10561776419E+03  0.14956689048E+03  0.92868197559E+02 0.  0.
          3    1    3    3  502    0  0.26529073092E+03  0.16369642131E+03 -0.21280603849E+03  0.37744151902E+03  0.00000000000E+00 0. -1.
         -3    1    3    3    0  502  0.34959645223E+03  0.10549765364E+03 -0.26179202533E+03  0.44931336377E+03  0.00000000000E+00 0.  1.
         13    1    5    5    0    0 -0.10832924351E+03 -0.52675254440E+02  0.17891359389E+03  0.21568491256E+03  0.00000000000E+00 0.  1.
        -13    1    5    5    0    0 -0.45791542539E+03 -0.20153395126E+03  0.46832209967E+03  0.68529414076E+03  0.00000000000E+00 0. -1.
          1    1    6    6  503    0 -0.26266584136E+02  0.32243023661E+02 -0.82565858191E+02  0.92448185249E+02  0.00000000000E+00 0. -1.
         -1    1    6    6    0  503 -0.22375930116E+02 -0.47227892913E+02 -0.23051905995E+02  0.57118705234E+02  0.00000000000E+00 0.  1.
<mgrwt>
<rscale>  0 0.69575278E+03</rscale>
<asrwt>0</asrwt>
<pdfrwt beam="1">  1        2 0.13925238E+00 0.69575278E+03</pdfrwt>
<pdfrwt beam="2">  1       -2 0.14956313E+00 0.69575278E+03</pdfrwt>
<totfact> 0.89947680E+00</totfact>
</mgrwt>
</event>
<event>
12    1  0.1418317E-007  0.5436160E+03  0.7818608E-02  0.1002982E+00
         -2   -1    0    0    0  501 -0.00000000000E+00  0.00000000000E+00  0.78788546383E+03  0.78788546383E+03  0.00000000000E+00 0. -1.
          2   -1    0    0  501    0  0.00000000000E+00 -0.00000000000E+00 -0.57841011045E+03  0.57841011045E+03  0.00000000000E+00 0.  1.
         23    2    1    2    0    0 -0.44370128095E+03  0.22716684955E+03  0.28743769157E+03  0.58267796216E+03  0.91747353106E+02 0.  0.
    5000000    2    1    2    0    0  0.44370128095E+03 -0.22716684955E+03 -0.77962338188E+02  0.78361761211E+03  0.59958554985E+03 0.  0.
         23    2    4    4    0    0  0.24358233301E+03 -0.27393399223E+03  0.19881530111E+03  0.42700148157E+03  0.91818060572E+02 0.  0.
         23    2    4    4    0    0  0.20011894794E+03  0.46767142681E+02 -0.27677763930E+03  0.35661613055E+03  0.91293176025E+02 0.  0.
          3    1    3    3  502    0 -0.15160433784E+03  0.84978333720E+02  0.15134540053E+03  0.23045742061E+03  0.00000000000E+00 0. -1.
         -3    1    3    3    0  502 -0.29209694311E+03  0.14218851583E+03  0.13609229104E+03  0.35222054155E+03  0.00000000000E+00 0.  1.
         13    1    5    5    0    0  0.12694367020E+03 -0.10261252357E+03  0.12982539392E+03  0.20856331965E+03  0.00000000000E+00 0.  1.
        -13    1    5    5    0    0  0.11663866281E+03 -0.17132146866E+03  0.68989907197E+02  0.21843816191E+03  0.00000000000E+00 0. -1.
          1    1    6    6  503    0  0.97793592162E+02 -0.14430417262E+02 -0.16954766268E+03  0.19626062654E+03  0.00000000000E+00 0. -1.
         -1    1    6    6    0  503  0.10232535578E+03  0.61197559943E+02 -0.10722997662E+03  0.16035550401E+03  0.00000000000E+00 0.  1.
<mgrwt>
<rscale>  0 0.54361601E+03</rscale>
<asrwt>0</asrwt>
<pdfrwt beam="1">  1        2 0.88986171E-01 0.54361601E+03</pdfrwt>
<pdfrwt beam="2">  1       -2 0.12121315E+00 0.54361601E+03</pdfrwt>
<totfact> 0.27734697E+01</totfact>
</mgrwt>
</event>
<event>
12    1  0.1418317E-007  0.4281852E+03  0.7818608E-02  0.1034435E+00
         -2   -1    0    0    0  501 -0.00000000000E+00  0.00000000000E+00  0.51032775745E+03  0.51032775745E+03  0.00000000000E+00 0.  1.
          2   -1    0    0  501    0  0.00000000000E+00 -0.00000000000E+00 -0.79312491292E+03  0.79312491292E+03  0.00000000000E+00 0. -1.
         23    2    1    2    0    0  0.33276679642E+03 -0.24574598020E+03  0.15719815848E+03  0.45217427178E+03  0.92873480841E+02 0.  0.
    5000000    2    1    2    0    0 -0.33276679642E+03  0.24574598020E+03 -0.43999531395E+03  0.85127839860E+03  0.59996183882E+03 0.  0.
         23    2    4    4    0    0 -0.13598581141E+03  0.78531539435E+02  0.12686101766E+03  0.22250715302E+03  0.93575486915E+02 0.  0.
         23    2    4    4    0    0 -0.19678098501E+03  0.16721444077E+03 -0.56685633160E+03  0.62877124558E+03  0.85695701901E+02 0.  0.
          4    1    3    3  502    0  0.13323361572E+03 -0.13426119328E+03  0.32874082335E+02  0.19198429537E+03  0.00000000000E+00 0. -1.
         -4    1    3    3    0  502  0.19953318070E+03 -0.11148478692E+03  0.12432407614E+03  0.26018997641E+03  0.00000000000E+00 0.  1.
         13    1    5    5    0    0 -0.60177385265E+02  0.82613601403E+02  0.47581662170E+02  0.11274014107E+03  0.00000000000E+00 0. -1.
        -13    1    5    5    0    0 -0.75808426150E+02 -0.40820619678E+01  0.79279355487E+02  0.10976701195E+03  0.00000000000E+00 0.  1.
          3    1    6    6  503    0 -0.11603608127E+03  0.12031568614E+03 -0.44424930642E+03  0.47465533047E+03  0.00000000000E+00 0. -1.
         -3    1    6    6    0  503 -0.80744903739E+02  0.46898754627E+02 -0.12260702518E+03  0.15411591511E+03  0.00000000000E+00 0.  1.
<mgrwt>
<rscale>  0 0.42818516E+03</rscale>
<asrwt>0</asrwt>
<pdfrwt beam="1">  1        2 0.12201922E+00 0.42818516E+03</pdfrwt>
<pdfrwt beam="2">  1       -2 0.78511963E-01 0.42818516E+03</pdfrwt>
<totfact> 0.52621628E+01</totfact>
</mgrwt>
</event>
<event>
12    1  0.1418317E-007  0.9735819E+03  0.7818608E-02  0.9338004E-01
         -2   -1    0    0    0  501 -0.00000000000E+00  0.00000000000E+00  0.17508674590E+04  0.17508674590E+04  0.00000000000E+00 0.  1.
          2   -1    0    0  501    0  0.00000000000E+00 -0.00000000000E+00 -0.84637890657E+03  0.84637890657E+03  0.00000000000E+00 0. -1.
         23    2    1    2    0    0  0.15494005677E+03 -0.95193885608E+03 -0.22618262181E+03  0.99484752166E+03  0.91482271742E+02 0.  0.
    5000000    2    1    2    0    0 -0.15494005677E+03  0.95193885608E+03  0.11306711742E+04  0.16023988439E+04  0.59922511947E+03 0.  0.
         23    2    4    4    0    0 -0.61268351859E+02  0.60182796923E+03  0.28206492640E+03  0.67524066373E+03  0.10216954425E+03 0.  0.
         23    2    4    4    0    0 -0.93671704906E+02  0.35011088685E+03  0.84860624783E+03  0.92715818016E+03  0.90209233455E+02 0.  0.
          2    1    3    3  502    0  0.81653878761E+02 -0.43123114118E+03 -0.14829949373E+03  0.46327140305E+03  0.00000000000E+00 0. -1.
         -2    1    3    3    0  502  0.73286178004E+02 -0.52070771489E+03 -0.77883128080E+02  0.53157611861E+03  0.00000000000E+00 0.  1.
         11    1    5    5    0    0  0.16625347211E+01  0.41340583497E+03  0.16860488878E+03  0.44646921163E+03  0.00000000000E+00 0.  1.
        -11    1    5    5    0    0 -0.62930886580E+02  0.18842213426E+03  0.11346003761E+03  0.22877145211E+03  0.00000000000E+00 0. -1.
          3    1    6    6  503    0 -0.10114395832E+03  0.24589241817E+03  0.66001509718E+03  0.71155682142E+03  0.00000000000E+00 0. -1.
         -3    1    6    6    0  503  0.74722534117E+01  0.10421846868E+03  0.18859115065E+03  0.21560135874E+03  0.00000000000E+00 0.  1.
<mgrwt>
<rscale>  0 0.97358195E+03</rscale>
<asrwt>0</asrwt>
<pdfrwt beam="1">  1        2 0.13021214E+00 0.97358195E+03</pdfrwt>
<pdfrwt beam="2">  1       -2 0.26936422E+00 0.97358195E+03</pdfrwt>
<totfact> 0.15661774E+00</totfact>
</mgrwt>
</event>
<event>
12    1  0.1418317E-007  0.6377439E+03  0.7818608E-02  0.9830053E-01
          1   -1    0    0  501    0  0.00000000000E+00  0.00000000000E+00  0.52672455311E+03  0.52672455311E+03  0.00000000000E+00 0. -1.
         -1   -1    0    0    0  501 -0.00000000000E+00 -0.00000000000E+00 -0.98772546279E+03  0.98772546279E+03  0.00000000000E+00 0.  1.
         23    2    1    2    0    0 -0.39044642772E+03 -0.33121631702E+03  0.12127321568E+03  0.53403985906E+03  0.91316573741E+02 0.  0.
    5000000    2    1    2    0    0  0.39044642772E+03  0.33121631702E+03 -0.58227412536E+03  0.98041015683E+03  0.60000688077E+03 0.  0.
         23    2    4    4    0    0  0.16974601852E+02  0.37485664936E+03 -0.38436882952E+03  0.54541981054E+03  0.94539557581E+02 0.  0.
         23    2    4    4    0    0  0.37347182587E+03 -0.43640332334E+02 -0.19790529584E+03  0.43499034629E+03  0.93082822916E+02 0.  0.
          1    1    3    3  502    0 -0.17314137704E+03 -0.13637524876E+03  0.67258133056E+01  0.22050256570E+03  0.00000000000E+00 0. -1.
         -1    1    3    3    0  502 -0.21730505069E+03 -0.19484106826E+03  0.11454740238E+03  0.31353729336E+03  0.00000000000E+00 0.  1.
         11    1    5    5    0    0 -0.30289016082E+02  0.15089605007E+03 -0.11618431036E+03  0.19283629429E+03  0.00000000000E+00 0. -1.
        -11    1    5    5    0    0  0.47263617934E+02  0.22396059929E+03 -0.26818451916E+03  0.35258351625E+03  0.00000000000E+00 0.  1.
          2    1    6    6  503    0  0.96817538152E+02  0.14014456104E+02 -0.16579677591E+02  0.99221602400E+02  0.00000000000E+00 0. -1.
         -2    1    6    6    0  503  0.27665428772E+03 -0.57654788438E+02 -0.18132561825E+03  0.33576874390E+03  0.00000000000E+00 0.  1.
<mgrwt>
<rscale>  0 0.63774394E+03</rscale>
<asrwt>0</asrwt>
<pdfrwt beam="1">  1        1 0.81034547E-01 0.63774394E+03</pdfrwt>
<pdfrwt beam="2">  1       -1 0.15195776E+00 0.63774394E+03</pdfrwt>
<totfact> 0.14481485E+01</totfact>
</mgrwt>
</event>
<event>
12    1  0.1418317E-007  0.3452554E+03  0.7818608E-02  0.1064579E+00
          1   -1    0    0  501    0  0.00000000000E+00  0.00000000000E+00  0.34847402260E+03  0.34847402260E+03  0.00000000000E+00 0. -1.
         -1   -1    0    0    0  501 -0.00000000000E+00 -0.00000000000E+00 -0.35573878264E+03  0.35573878264E+03  0.00000000000E+00 0.  1.
         23    2    1    2    0    0 -0.13413281006E+02 -0.43780042348E+02  0.79079149177E+01  0.10230142981E+03  0.91139668688E+02 0.  0.
    5000000    2    1    2    0    0  0.13413281006E+02  0.43780042348E+02 -0.15172674960E+02  0.60191137542E+03  0.59997540414E+03 0.  0.
         23    2    4    4    0    0  0.18797382144E+03  0.24093873017E+03  0.23625004039E+02  0.31974264645E+03  0.91058167678E+02 0.  0.
         23    2    4    4    0    0 -0.17456054043E+03 -0.19715868782E+03 -0.38797678999E+02  0.28216872897E+03  0.93653623819E+02 0.  0.
          4    1    3    3  502    0 -0.44878711052E+02 -0.90524926709E-01  0.16426910080E+02  0.47790692349E+02  0.00000000000E+00 0. -1.
         -4    1    3    3    0  502  0.31465430046E+02 -0.43689517421E+02 -0.85189951620E+01  0.54510737466E+02  0.00000000000E+00 0.  1.
         13    1    5    5    0    0  0.13759880418E+03  0.11477012637E+03  0.37888637415E+02  0.18314246276E+03  0.00000000000E+00 0. -1.
        -13    1    5    5    0    0  0.50375017256E+02  0.12616860379E+03 -0.14263633376E+02  0.13660018369E+03  0.00000000000E+00 0.  1.
          4    1    6    6  503    0 -0.16769580796E+03 -0.20595937762E+03 -0.45028689677E+02  0.26938584248E+03  0.00000000000E+00 0. -1.
         -4    1    6    6    0  503 -0.68647324725E+01  0.88006897999E+01  0.62310106777E+01  0.12782886487E+02  0.00000000000E+00 0.  1.
<mgrwt>
<rscale>  0 0.34525541E+03</rscale>
<asrwt>0</asrwt>
<pdfrwt beam="1">  1        1 0.53611388E-01 0.34525541E+03</pdfrwt>
<pdfrwt beam="2">  1       -1 0.54729043E-01 0.34525541E+03</pdfrwt>
<totfact> 0.25133426E+02</totfact>
</mgrwt>
</event>
<event>
12    1  0.1418317E-007  0.1477871E+04  0.7818608E-02  0.8899303E-01
         -1   -1    0    0    0  501 -0.00000000000E+00  0.00000000000E+00  0.95255110460E+03  0.95255110460E+03  0.00000000000E+00 0.  1.
          1   -1    0    0  501    0  0.00000000000E+00 -0.00000000000E+00 -0.41261542067E+04  0.41261542067E+04  0.00000000000E+00 0. -1.
         23    2    1    2    0    0  0.14210839711E+04  0.10700130454E+02  0.13288315391E+03  0.14300954348E+04  0.88999295081E+02 0.  0.
    5000000    2    1    2    0    0 -0.14210839711E+04 -0.10700130454E+02 -0.33064862560E+04  0.36486098764E+04  0.59992376514E+03 0.  0.
         23    2    4    4    0    0 -0.97917966313E+03 -0.27287853993E+03 -0.22192317352E+04  0.24425848362E+04  0.89306646206E+02 0.  0.
         23    2    4    4    0    0 -0.44190430792E+03  0.26217840948E+03 -0.10872545208E+04  0.12060250403E+04  0.91417006661E+02 0.  0.
          1    1    3    3  502    0  0.27567247577E+03  0.14975078985E+02 -0.69890123706E+01  0.27616736444E+03  0.00000000000E+00 0. -1.
         -1    1    3    3    0  502  0.11454114953E+04 -0.42749485309E+01  0.13987216628E+03  0.11539280704E+04  0.00000000000E+00 0.  1.
         11    1    5    5    0    0 -0.44497340123E+03 -0.15350750448E+03 -0.94437672354E+03  0.10551840018E+04  0.00000000000E+00 0. -1.
        -11    1    5    5    0    0 -0.53420626189E+03 -0.11937103545E+03 -0.12748550117E+04  0.13874008343E+04  0.00000000000E+00 0.  1.
          3    1    6    6  503    0 -0.10119763838E+03  0.84855815646E+02 -0.20590007440E+03  0.24461461956E+03  0.00000000000E+00 0. -1.
         -3    1    6    6    0  503 -0.34070666955E+03  0.17732259383E+03 -0.88135444636E+03  0.96141042072E+03  0.00000000000E+00 0.  1.
<mgrwt>
<rscale>  0 0.14778711E+04</rscale>
<asrwt>0</asrwt>
<pdfrwt beam="1">  1        1 0.63479294E+00 0.14778711E+04</pdfrwt>
<pdfrwt beam="2">  1       -1 0.14654633E+00 0.14778711E+04</pdfrwt>
<totfact> 0.26596577E-02</totfact>
</mgrwt>
</event>
<event>
12    1  0.1418317E-007  0.6926623E+03  0.7818608E-02  0.9729864E-01
          2   -1    0    0  501    0  0.00000000000E+00  0.00000000000E+00  0.85201188401E+03  0.85201188401E+03  0.00000000000E+00 0. -1.
         -2   -1    0    0    0  501 -0.00000000000E+00 -0.00000000000E+00 -0.10512180256E+04  0.10512180256E+04  0.00000000000E+00 0.  1.
         23    2    1    2    0    0 -0.39707742199E+02  0.58691778965E+03  0.52524830904E+03  0.79396032497E+03  0.91858667931E+02 0.  0.
    5000000    2    1    2    0    0  0.39707742199E+02 -0.58691778965E+03 -0.72445445065E+03  0.11092695847E+04  0.59966287510E+03 0.  0.
         23    2    4    4    0    0 -0.16524740090E+03 -0.54729061680E+03 -0.36787315925E+03  0.68629737754E+03  0.94019712748E+02 0.  0.
         23    2    4    4    0    0  0.20495514310E+03 -0.39627172850E+02 -0.35658129140E+03  0.42297220711E+03  0.90434214217E+02 0.  0.
          3    1    3    3  502    0 -0.43791027019E+02  0.17822657634E+03  0.20156836577E+03  0.27260259104E+03  0.00000000000E+00 0. -1.
         -3    1    3    3    0  502  0.40832848205E+01  0.40869121331E+03  0.32367994327E+03  0.52135773393E+03  0.00000000000E+00 0.  1.
         11    1    5    5    0    0  0.58934523970E+01 -0.25690963607E+01 -0.11674512494E+02  0.13327688444E+02  0.00000000000E+00 0.  1.
        -11    1    5    5    0    0 -0.17114085330E+03 -0.54472152044E+03 -0.35619864676E+03  0.67296968910E+03  0.00000000000E+00 0. -1.
          2    1    6    6  503    0  0.19229874324E+03 -0.50695983460E+02 -0.27321919315E+03  0.33793137897E+03  0.00000000000E+00 0. -1.
         -2    1    6    6    0  503  0.12656399863E+02  0.11068810611E+02 -0.83362098246E+02  0.85040828134E+02  0.00000000000E+00 0.  1.
<mgrwt>
<rscale>  0 0.69266227E+03</rscale>
<asrwt>0</asrwt>
<pdfrwt beam="1">  1        2 0.13107875E+00 0.69266227E+03</pdfrwt>
<pdfrwt beam="2">  1       -2 0.16172585E+00 0.69266227E+03</pdfrwt>
<totfact> 0.79326069E+00</totfact>
</mgrwt>
</event>
<event>
12    1  0.1418317E-007  0.1098018E+04  0.7818608E-02  0.9207126E-01
          2   -1    0    0  501    0  0.00000000000E+00  0.00000000000E+00  0.28919249824E+04  0.28919249824E+04  0.00000000000E+00 0. -1.
         -2   -1    0    0    0  501 -0.00000000000E+00 -0.00000000000E+00 -0.79174724933E+03  0.79174724933E+03  0.00000000000E+00 0.  1.
         23    2    1    2    0    0 -0.33332768274E+03  0.96755934596E+03 -0.24522215198E+03  0.10553105398E+04  0.79170698445E+02 0.  0.
    5000000    2    1    2    0    0  0.33332768274E+03 -0.96755934596E+03  0.23453998850E+04  0.26283616919E+04  0.60008843593E+03 0.  0.
         23    2    4    4    0    0  0.27991868479E+03 -0.10488181026E+03  0.51757466413E+03  0.60444998462E+03  0.90119846565E+02 0.  0.
         23    2    4    4    0    0  0.53408997953E+02 -0.86267753570E+03  0.18278252209E+04  0.20239117073E+04  0.90600823397E+02 0.  0.
          4    1    3    3  502    0 -0.25070771732E+03  0.66877212045E+03 -0.20256140360E+03  0.74238913707E+03  0.00000000000E+00 0. -1.
         -4    1    3    3    0  502 -0.82619965421E+02  0.29878722551E+03 -0.42660748385E+02  0.31292140270E+03  0.00000000000E+00 0.  1.
         13    1    5    5    0    0  0.26548179562E+03 -0.11279643167E+03  0.44706704655E+03  0.53204563988E+03  0.00000000000E+00 0. -1.
        -13    1    5    5    0    0  0.14436889166E+02  0.79146214103E+01  0.70507617582E+02  0.72404344745E+02  0.00000000000E+00 0.  1.
          4    1    6    6  503    0  0.59211751023E+02 -0.41672735065E+03  0.81627231614E+03  0.91840525387E+03  0.00000000000E+00 0. -1.
         -4    1    6    6    0  503 -0.58027530696E+01 -0.44595018505E+03  0.10115529048E+04  0.11055064534E+04  0.00000000000E+00 0.  1.
<mgrwt>
<rscale>  0 0.10980177E+04</rscale>
<asrwt>0</asrwt>
<pdfrwt beam="1">  1        2 0.44491153E+00 0.10980177E+04</pdfrwt>
<pdfrwt beam="2">  1       -2 0.12180727E+00 0.10980177E+04</pdfrwt>
<totfact> 0.10397354E+00</totfact>
</mgrwt>
</event>
<event>
12    1  0.1493384E-007  0.2192605E+04  0.7818608E-02  0.8521512E-01
         -2   -1    0    0    0  501 -0.00000000000E+00  0.00000000000E+00  0.23914132947E+04  0.23914132947E+04  0.00000000000E+00 0.  1.
          2   -1    0    0  501    0  0.00000000000E+00 -0.00000000000E+00 -0.21926956970E+04  0.21926956970E+04  0.00000000000E+00 0. -1.
         23    2    1    2    0    0 -0.20430272897E+04  0.78366101986E+03 -0.42506429223E+03  0.22309706613E+04  0.92007274787E+02 0.  0.
    5000000    2    1    2    0    0  0.20430272897E+04 -0.78366101986E+03  0.62378188994E+03  0.23531383304E+04  0.60005920986E+03 0.  0.
         23    2    4    4    0    0  0.13300873504E+04 -0.49865167414E+03  0.11603947793E+03  0.14281659300E+04  0.91689209878E+02 0.  0.
         23    2    4    4    0    0  0.71293993928E+03 -0.28500934571E+03  0.50774241202E+03  0.92497240045E+03  0.90872990842E+02 0.  0.
          3    1    3    3  502    0 -0.58580786657E+03  0.18209801774E+03 -0.10773567750E+03  0.62284630592E+03  0.00000000000E+00 0. -1.
         -3    1    3    3    0  502 -0.14572194231E+04  0.60156300212E+03 -0.31732861474E+03  0.16081243554E+04  0.00000000000E+00 0.  1.
         13    1    5    5    0    0  0.72841202763E+03 -0.23085000872E+03  0.39301095634E+02  0.76512769172E+03  0.00000000000E+00 0. -1.
        -13    1    5    5    0    0  0.60167532278E+03 -0.26780166542E+03  0.76738382291E+02  0.66303823823E+03  0.00000000000E+00 0.  1.
          2    1    6    6  503    0  0.51188954828E+03 -0.16227489385E+03  0.36967376205E+03  0.65193768196E+03  0.00000000000E+00 0. -1.
         -2    1    6    6    0  503  0.20105039101E+03 -0.12273445187E+03  0.13806864997E+03  0.27303471849E+03  0.00000000000E+00 0.  1.
<mgrwt>
<rscale>  0 0.21926053E+04</rscale>
<asrwt>0</asrwt>
<pdfrwt beam="1">  1        2 0.33733780E+00 0.21926053E+04</pdfrwt>
<pdfrwt beam="2">  1       -2 0.36790974E+00 0.21926053E+04</pdfrwt>
<totfact> 0.54263431E-02</totfact>
</mgrwt>
</event>
<event>
12    1  0.1418317E-007  0.8190131E+03  0.7818608E-02  0.9532897E-01
          1   -1    0    0  501    0  0.00000000000E+00  0.00000000000E+00  0.21818143636E+04  0.21818143636E+04  0.00000000000E+00 0. -1.
         -1   -1    0    0    0  501 -0.00000000000E+00 -0.00000000000E+00 -0.59834819215E+03  0.59834819215E+03  0.00000000000E+00 0.  1.
         23    2    1    2    0    0  0.71500966516E+03 -0.80559085268E+02 -0.21128521768E+03  0.75547277242E+03  0.91482671368E+02 0.  0.
    5000000    2    1    2    0    0 -0.71500966516E+03  0.80559085268E+02  0.17947513891E+04  0.20246897834E+04  0.60042283644E+03 0.  0.
         23    2    4    4    0    0 -0.32819392384E+03  0.32088195668E+03  0.10051226387E+04  0.11086063837E+04  0.89778134595E+02 0.  0.
         23    2    4    4    0    0 -0.38681574132E+03 -0.24032287142E+03  0.78962875049E+03  0.91608339967E+03  0.91179664902E+02 0.  0.
          1    1    3    3  502    0  0.62953130648E+03 -0.75036627315E+02 -0.15399165145E+03  0.65242132858E+03  0.00000000000E+00 0. -1.
         -1    1    3    3    0  502  0.85478358686E+02 -0.55224579528E+01 -0.57293566228E+02  0.10305144384E+03  0.00000000000E+00 0.  1.
         11    1    5    5    0    0 -0.67982197703E+02  0.91431766916E+02  0.33770433936E+03  0.35640646463E+03  0.00000000000E+00 0.  1.
        -11    1    5    5    0    0 -0.26021172614E+03  0.22945018977E+03  0.66741829929E+03  0.75219991906E+03  0.00000000000E+00 0. -1.
          2    1    6    6  503    0 -0.16832467495E+03 -0.13046621534E+03  0.28982777766E+03  0.35965924185E+03  0.00000000000E+00 0. -1.
         -2    1    6    6    0  503 -0.21849106637E+03 -0.10985665607E+03  0.49980097282E+03  0.55642415782E+03  0.00000000000E+00 0.  1.
<mgrwt>
<rscale>  0 0.81901312E+03</rscale>
<asrwt>0</asrwt>
<pdfrwt beam="1">  1        1 0.33566375E+00 0.81901312E+03</pdfrwt>
<pdfrwt beam="2">  1       -1 0.92053569E-01 0.81901312E+03</pdfrwt>
<totfact> 0.26863571E+00</totfact>
</mgrwt>
</event>
<event>
12    1  0.1418317E-007  0.5155717E+03  0.7818608E-02  0.1009793E+00
          2   -1    0    0  501    0  0.00000000000E+00  0.00000000000E+00  0.23986113813E+04  0.23986113813E+04  0.00000000000E+00 0. -1.
         -2   -1    0    0    0  501 -0.00000000000E+00 -0.00000000000E+00 -0.13859764609E+03  0.13859764609E+03  0.00000000000E+00 0.  1.
         23    2    1    2    0    0 -0.17442605337E+02  0.39239775984E+03  0.54017522734E+03  0.67385248474E+03  0.89485465605E+02 0.  0.
    5000000    2    1    2    0    0  0.17442605337E+02 -0.39239775984E+03  0.17198385079E+04  0.18633565426E+04  0.59997738750E+03 0.  0.
         23    2    4    4    0    0 -0.22637118419E+03 -0.10781857905E+03  0.11134112068E+04  0.11447515582E+04  0.88898006090E+02 0.  0.
         23    2    4    4    0    0  0.24381378952E+03 -0.28457918079E+03  0.60642730105E+03  0.71860498447E+03  0.90601203893E+02 0.  0.
          2    1    3    3  502    0 -0.12513969029E+02  0.14667662909E+03  0.13375661589E+03  0.19890064162E+03  0.00000000000E+00 0. -1.
         -2    1    3    3    0  502 -0.49286363081E+01  0.24572113074E+03  0.40641861146E+03  0.47495184313E+03  0.00000000000E+00 0.  1.
         11    1    5    5    0    0 -0.66410371601E+02 -0.74430318799E+02  0.50634933168E+03  0.51608124894E+03  0.00000000000E+00 0.  1.
        -11    1    5    5    0    0 -0.15996081259E+03 -0.33388260248E+02  0.60706187512E+03  0.62867030923E+03  0.00000000000E+00 0. -1.
          2    1    6    6  503    0  0.85143431653E+02 -0.10981868160E+03  0.14821946697E+03  0.20317125085E+03  0.00000000000E+00 0. -1.
         -2    1    6    6    0  503  0.15867035787E+03 -0.17476049918E+03  0.45820783408E+03  0.51543373362E+03  0.00000000000E+00 0.  1.
<mgrwt>
<rscale>  0 0.51557167E+03</rscale>
<asrwt>0</asrwt>
<pdfrwt beam="1">  1        2 0.36901710E+00 0.51557167E+03</pdfrwt>
<pdfrwt beam="2">  1       -2 0.21322717E-01 0.51557167E+03</pdfrwt>
<totfact> 0.81392830E+01</totfact>
</mgrwt>
</event>
<event>
12    1  0.1418317E-007  0.8425131E+03  0.7818608E-02  0.9500441E-01
         -1   -1    0    0    0  501 -0.00000000000E+00  0.00000000000E+00  0.44090305045E+03  0.44090305045E+03  0.00000000000E+00 0.  1.
          1   -1    0    0  501    0  0.00000000000E+00 -0.00000000000E+00 -0.17250022414E+04  0.17250022414E+04  0.00000000000E+00 0. -1.
         23    2    1    2    0    0 -0.75062657623E+02 -0.75374734064E+03 -0.70807185507E+03  0.10408411531E+04  0.90637176956E+02 0.  0.
    5000000    2    1    2    0    0  0.75062657623E+02  0.75374734064E+03 -0.57602733583E+03  0.11250641388E+04  0.60016028574E+03 0.  0.
         23    2    4    4    0    0  0.16812591734E+03  0.35669916644E+02 -0.22500836433E+01  0.19655430355E+03  0.95340780007E+02 0.  0.
         23    2    4    4    0    0 -0.93063259719E+02  0.71807742400E+03 -0.57377725219E+03  0.92850983520E+03  0.92812831908E+02 0.  0.
          3    1    3    3  502    0 -0.95974718515E+02 -0.58490621633E+03 -0.55328035146E+03  0.81083017692E+03  0.00000000000E+00 0. -1.
         -3    1    3    3    0  502  0.20912060892E+02 -0.16884112431E+03 -0.15479150361E+03  0.23001097613E+03  0.00000000000E+00 0.  1.
         11    1    5    5    0    0  0.86679138702E+02 -0.29481248435E+02 -0.92451391984E+01  0.92021137214E+02  0.00000000000E+00 0. -1.
        -11    1    5    5    0    0  0.81446778641E+02  0.65151165079E+02  0.69950555551E+01  0.10453316634E+03  0.00000000000E+00 0.  1.
          2    1    6    6  503    0 -0.98306023825E+02  0.59046378435E+03 -0.50664776729E+03  0.78422159817E+03  0.00000000000E+00 0. -1.
         -2    1    6    6    0  503  0.52427641062E+01  0.12761363965E+03 -0.67129484901E+02  0.14428823703E+03  0.00000000000E+00 0.  1.
<mgrwt>
<rscale>  0 0.84251310E+03</rscale>
<asrwt>0</asrwt>
<pdfrwt beam="1">  1        1 0.26538496E+00 0.84251310E+03</pdfrwt>
<pdfrwt beam="2">  1       -1 0.67831238E-01 0.84251310E+03</pdfrwt>
<totfact> 0.10364086E+01</totfact>
</mgrwt>
</event>
<event>
12    1  0.1418317E-007  0.7605687E+03  0.7818608E-02  0.9618914E-01
          2   -1    0    0  501    0  0.00000000000E+00  0.00000000000E+00  0.32187409897E+04  0.32187409897E+04  0.00000000000E+00 0. -1.
         -2   -1    0    0    0  501 -0.00000000000E+00 -0.00000000000E+00 -0.31484659211E+03  0.31484659211E+03  0.00000000000E+00 0.  1.
         23    2    1    2    0    0  0.56688616124E+03  0.45536298178E+03  0.22992586353E+04  0.24132052924E+04  0.90852332885E+02 0.  0.
    5000000    2    1    2    0    0 -0.56688616124E+03 -0.45536298178E+03  0.60463576226E+03  0.11203822894E+04  0.60079672462E+03 0.  0.
         23    2    4    4    0    0 -0.35282820219E+02 -0.27730513857E+02 -0.92737452215E+02  0.14053925931E+03  0.95588647673E+02 0.  0.
         23    2    4    4    0    0 -0.53160334102E+03 -0.42763246792E+03  0.69737321448E+03  0.97984303004E+03  0.91056704555E+02 0.  0.
          1    1    3    3  502    0  0.31505190755E+03  0.30994757983E+03  0.13961868284E+04  0.14644667516E+04  0.00000000000E+00 0. -1.
         -1    1    3    3    0  502  0.25183425369E+03  0.14541540195E+03  0.90307180690E+03  0.94873854083E+03  0.00000000000E+00 0.  1.
         13    1    5    5    0    0 -0.65164028058E+02 -0.33921218903E+02 -0.76134811949E+02  0.10579938202E+03  0.00000000000E+00 0.  1.
        -13    1    5    5    0    0  0.29881207839E+02  0.61907050456E+01 -0.16602640266E+02  0.34739877298E+02  0.00000000000E+00 0. -1.
          1    1    6    6  503    0 -0.16245046250E+03 -0.99566110501E+02  0.24267993733E+03  0.30854029738E+03  0.00000000000E+00 0. -1.
         -1    1    6    6    0  503 -0.36915287852E+03 -0.32806635742E+03  0.45469327715E+03  0.67130273266E+03  0.00000000000E+00 0.  1.
<mgrwt>
<rscale>  0 0.76056869E+03</rscale>
<asrwt>0</asrwt>
<pdfrwt beam="1">  1        2 0.49519090E+00 0.76056869E+03</pdfrwt>
<pdfrwt beam="2">  1       -2 0.48437939E-01 0.76056869E+03</pdfrwt>
<totfact> 0.54509102E+00</totfact>
</mgrwt>
</event>
<event>
12    1  0.1418317E-007  0.8439510E+03  0.7818608E-02  0.9498492E-01
         -2   -1    0    0    0  501 -0.00000000000E+00  0.00000000000E+00  0.64100762496E+03  0.64100762496E+03  0.00000000000E+00 0.  1.
          2   -1    0    0  501    0  0.00000000000E+00 -0.00000000000E+00 -0.12269660247E+04  0.12269660247E+04  0.00000000000E+00 0. -1.
         23    2    1    2    0    0 -0.68829369072E+03  0.34500646797E+03 -0.10777190799E+03  0.78103712949E+03  0.75010305047E+02 0.  0.
    5000000    2    1    2    0    0  0.68829369072E+03 -0.34500646797E+03 -0.47818649178E+03  0.10869365202E+04  0.59999250862E+03 0.  0.
         23    2    4    4    0    0  0.75712010603E+03 -0.32349593569E+03 -0.31444297003E+03  0.88618132281E+03  0.92533670198E+02 0.  0.
         23    2    4    4    0    0 -0.68826415316E+02 -0.21510532281E+02 -0.16374352174E+03  0.20075519739E+03  0.91054543666E+02 0.  0.
          2    1    3    3  502    0 -0.11400314066E+03  0.38816800848E+02  0.49466091748E+01  0.12053185907E+03  0.00000000000E+00 0. -1.
         -2    1    3    3    0  502 -0.57429055006E+03  0.30618966712E+03 -0.11271851717E+03  0.66050527042E+03  0.00000000000E+00 0.  1.
         13    1    5    5    0    0  0.37413458823E+03 -0.15519370364E+03 -0.10544793601E+03  0.41854634507E+03  0.00000000000E+00 0. -1.
        -13    1    5    5    0    0  0.38298551780E+03 -0.16830223205E+03 -0.20899503402E+03  0.46763497774E+03  0.00000000000E+00 0.  1.
          3    1    6    6  503    0 -0.31136908983E+02 -0.40489492669E+02 -0.27259034494E+02  0.57896123179E+02  0.00000000000E+00 0. -1.
         -3    1    6    6    0  503 -0.37689506333E+02  0.18978960388E+02 -0.13648448725E+03  0.14285907421E+03  0.00000000000E+00 0.  1.
<mgrwt>
<rscale>  0 0.84395099E+03</rscale>
<asrwt>0</asrwt>
<pdfrwt beam="1">  1        2 0.18876400E+00 0.84395099E+03</pdfrwt>
<pdfrwt beam="2">  1       -2 0.98616558E-01 0.84395099E+03</pdfrwt>
<totfact> 0.15724671E+01</totfact>
</mgrwt>
</event>
<event>
12    1  0.1425817E-007  0.1722643E+04  0.7818608E-02  0.8748554E-01
         -1   -1    0    0    0  501 -0.00000000000E+00  0.00000000000E+00  0.22052621896E+04  0.22052621896E+04  0.00000000000E+00 0.  1.
          1   -1    0    0  501    0  0.00000000000E+00 -0.00000000000E+00 -0.15679417412E+04  0.15679417412E+04  0.00000000000E+00 0. -1.
         23    2    1    2    0    0 -0.36728229535E+03 -0.16770530023E+04 -0.27033855737E+03  0.17406623870E+04  0.97054380442E+02 0.  0.
    5000000    2    1    2    0    0  0.36728229535E+03  0.16770530023E+04  0.90765900574E+03  0.20325415439E+04  0.59998099964E+03 0.  0.
         23    2    4    4    0    0  0.18765881917E+03  0.10308545103E+04  0.23392469475E+03  0.10775306527E+04  0.92058083596E+02 0.  0.
         23    2    4    4    0    0  0.17962347618E+03  0.64619849197E+03  0.67373431100E+03  0.95501089122E+03  0.91053809981E+02 0.  0.
          2    1    3    3  502    0 -0.86086195655E+02 -0.61058942209E+03 -0.96127620319E+02  0.62407595278E+03  0.00000000000E+00 0. -1.
         -2    1    3    3    0  502 -0.28119609970E+03 -0.10664635802E+04 -0.17421093705E+03  0.11165864342E+04  0.00000000000E+00 0.  1.
         11    1    5    5    0    0  0.78968643715E+02  0.24301593761E+03  0.36765598760E+02  0.25815596424E+03  0.00000000000E+00 0. -1.
        -11    1    5    5    0    0  0.10869017546E+03  0.78783857272E+03  0.19715909598E+03  0.81937468843E+03  0.00000000000E+00 0.  1.
          3    1    6    6  503    0  0.31662583192E+02  0.40475962572E+02  0.72180307497E+02  0.88604850380E+02  0.00000000000E+00 0. -1.
         -3    1    6    6    0  503  0.14796089299E+03  0.60572252940E+03  0.60155400350E+03  0.86640604084E+03  0.00000000000E+00 0.  1.
<mgrwt>
<rscale>  0 0.17226434E+04</rscale>
<asrwt>0</asrwt>
<pdfrwt beam="1">  1        1 0.24122181E+00 0.17226434E+04</pdfrwt>
<pdfrwt beam="2">  1       -1 0.33927110E+00 0.17226434E+04</pdfrwt>
<totfact> 0.98977109E-02</totfact>
</mgrwt>
</event>
<event>
12    1  0.1418317E-007  0.2317140E+04  0.7818608E-02  0.8471194E-01
          1   -1    0    0  501    0  0.00000000000E+00  0.00000000000E+00  0.29009618660E+04  0.29009618660E+04  0.00000000000E+00 0. -1.
         -1   -1    0    0    0  501 -0.00000000000E+00 -0.00000000000E+00 -0.18841814350E+04  0.18841814350E+04  0.00000000000E+00 0.  1.
         23    2    1    2    0    0 -0.22791215964E+04 -0.87538162314E+02  0.79048982017E+03  0.24158355764E+04  0.96587760751E+02 0.  0.
    5000000    2    1    2    0    0  0.22791215964E+04  0.87538162314E+02  0.22629061086E+03  0.23693077246E+04  0.60029448802E+03 0.  0.
         23    2    4    4    0    0  0.45138898949E+02 -0.50252786800E+02 -0.14204824953E+02  0.11638174404E+03  0.93702030467E+02 0.  0.
         23    2    4    4    0    0  0.22339826975E+04  0.13779094911E+03  0.24049543582E+03  0.22529259806E+04  0.90401223296E+02 0.  0.
          2    1    3    3  502    0 -0.17530886293E+04 -0.56664653966E+02  0.64911032632E+03  0.18702606345E+04  0.00000000000E+00 0. -1.
         -2    1    3    3    0  502 -0.52603296709E+03 -0.30873508348E+02  0.14137949385E+03  0.54557494194E+03  0.00000000000E+00 0.  1.
         13    1    5    5    0    0 -0.20925525886E+02 -0.43825313057E+02 -0.30544741180E+00  0.48565718323E+02  0.00000000000E+00 0.  1.
        -13    1    5    5    0    0  0.66064424835E+02 -0.64274737431E+01 -0.13899377542E+02  0.67816025714E+02  0.00000000000E+00 0. -1.
          1    1    6    6  503    0  0.19437723824E+04  0.11062487776E+03  0.17987080277E+03  0.19552090537E+04  0.00000000000E+00 0. -1.
         -1    1    6    6    0  503  0.29021031509E+03  0.27166071349E+02  0.60624633042E+02  0.29771692688E+03  0.00000000000E+00 0.  1.
<mgrwt>
<rscale>  0 0.23171402E+04</rscale>
<asrwt>0</asrwt>
<pdfrwt beam="1">  1        1 0.44630183E+00 0.23171402E+04</pdfrwt>
<pdfrwt beam="2">  1       -1 0.28987407E+00 0.23171402E+04</pdfrwt>
<totfact> 0.23265119E-02</totfact>
</mgrwt>
</event>
<event>
12    1  0.1418317E-007  0.1181873E+04  0.7818608E-02  0.9128873E-01
         -2   -1    0    0    0  501 -0.00000000000E+00  0.00000000000E+00  0.87898898656E+03  0.87898898656E+03  0.00000000000E+00 0.  1.
          2   -1    0    0  501    0  0.00000000000E+00 -0.00000000000E+00 -0.17953874110E+04  0.17953874110E+04  0.00000000000E+00 0. -1.
         23    2    1    2    0    0 -0.52812011078E+03 -0.10495233734E+04 -0.28693714243E+03  0.12127512799E+04  0.89568858288E+02 0.  0.
    5000000    2    1    2    0    0  0.52812011078E+03  0.10495233734E+04 -0.62946128200E+03  0.14616251177E+04  0.59976355039E+03 0.  0.
         23    2    4    4    0    0  0.41491482998E+02  0.18203595978E+03 -0.37752614255E+03  0.43152671648E+03  0.93971724036E+02 0.  0.
         23    2    4    4    0    0  0.48662862778E+03  0.86748741363E+03 -0.25193513946E+03  0.10300984012E+04  0.91047061974E+02 0.  0.
          3    1    3    3  502    0 -0.13215435650E+03 -0.18424428859E+03 -0.56193655471E+02  0.23359892709E+03  0.00000000000E+00 0. -1.
         -3    1    3    3    0  502 -0.39596575428E+03 -0.86527908482E+03 -0.23074348696E+03  0.97915235278E+03  0.00000000000E+00 0.  1.
         11    1    5    5    0    0  0.10303718233E+02  0.98843643139E+02 -0.10362856548E+03  0.14357963637E+03  0.00000000000E+00 0. -1.
        -11    1    5    5    0    0  0.31187764766E+02  0.83192316641E+02 -0.27389757707E+03  0.28794708011E+03  0.00000000000E+00 0.  1.
          3    1    6    6  503    0  0.21631321376E+03  0.45841366849E+03 -0.15728114064E+03  0.53072766567E+03  0.00000000000E+00 0. -1.
         -3    1    6    6    0  503  0.27031541402E+03  0.40907374514E+03 -0.94653998816E+02  0.49937073553E+03  0.00000000000E+00 0.  1.
<mgrwt>
<rscale>  0 0.11818729E+04</rscale>
<asrwt>0</asrwt>
<pdfrwt beam="1">  1        2 0.27621344E+00 0.11818729E+04</pdfrwt>
<pdfrwt beam="2">  1       -2 0.13522908E+00 0.11818729E+04</pdfrwt>
<totfact> 0.33260661E+00</totfact>
</mgrwt>
</event>
<event>
12    1  0.1418317E-007  0.1204357E+04  0.7818608E-02  0.9109051E-01
          2   -1    0    0  501    0  0.00000000000E+00  0.00000000000E+00  0.19530153099E+04  0.19530153099E+04  0.00000000000E+00 0. -1.
         -2   -1    0    0    0  501 -0.00000000000E+00 -0.00000000000E+00 -0.14095371317E+04  0.14095371317E+04  0.00000000000E+00 0.  1.
         23    2    1    2    0    0  0.11122969129E+04 -0.34974333790E+03  0.13786527312E+04  0.18078851704E+04  0.90777811937E+02 0.  0.
    5000000    2    1    2    0    0 -0.11122969129E+04  0.34974333790E+03 -0.83517455295E+03  0.15546672713E+04  0.59995746974E+03 0.  0.
         23    2    4    4    0    0 -0.72723121292E+03  0.16915340601E+02 -0.71492020368E+03  0.10241078414E+04  0.92382939330E+02 0.  0.
         23    2    4    4    0    0 -0.38506570003E+03  0.33282799730E+03 -0.12025434927E+03  0.53055942982E+03  0.89342772146E+02 0.  0.
          3    1    3    3  502    0  0.92985965238E+03 -0.26003356002E+03  0.11617105994E+04  0.15105720579E+04  0.00000000000E+00 0. -1.
         -3    1    3    3    0  502  0.18243726056E+03 -0.89709777881E+02  0.21694213178E+03  0.29731311244E+03  0.00000000000E+00 0.  1.
         13    1    5    5    0    0 -0.52291464172E+03  0.43981513211E+02 -0.54963794045E+03  0.75991839142E+03  0.00000000000E+00 0. -1.
        -13    1    5    5    0    0 -0.20431657119E+03 -0.27066172610E+02 -0.16528226323E+03  0.26418945002E+03  0.00000000000E+00 0.  1.
          2    1    6    6  503    0 -0.53920917153E+02  0.49837559473E+02 -0.51233965745E+02  0.89533049131E+02  0.00000000000E+00 0. -1.
         -2    1    6    6    0  503 -0.33114478287E+03  0.28299043783E+03 -0.69020383523E+02  0.44102638069E+03  0.00000000000E+00 0.  1.
<mgrwt>
<rscale>  0 0.12043574E+04</rscale>
<asrwt>0</asrwt>
<pdfrwt beam="1">  1        2 0.30046389E+00 0.12043574E+04</pdfrwt>
<pdfrwt beam="2">  1       -2 0.21685187E+00 0.12043574E+04</pdfrwt>
<totfact> 0.71289049E-01</totfact>
</mgrwt>
</event>
<event>
12    1  0.1418317E-007  0.7999832E+03  0.7818608E-02  0.9560041E-01
          1   -1    0    0  501    0  0.00000000000E+00  0.00000000000E+00  0.20485609433E+04  0.20485609433E+04  0.00000000000E+00 0. -1.
         -1   -1    0    0    0  501 -0.00000000000E+00 -0.00000000000E+00 -0.53028425610E+03  0.53028425610E+03  0.00000000000E+00 0.  1.
         23    2    1    2    0    0 -0.73739717753E+03  0.10620221851E+03 -0.38224445503E+02  0.75190814966E+03  0.94187306165E+02 0.  0.
    5000000    2    1    2    0    0  0.73739717753E+03 -0.10620221851E+03  0.15565011327E+04  0.18269370497E+04  0.59997474859E+03 0.  0.
         23    2    4    4    0    0  0.18837380397E+03 -0.21900340054E+03  0.94132711479E+03  0.98873405990E+03  0.89728059717E+02 0.  0.
         23    2    4    4    0    0  0.54902337356E+03  0.11280118203E+03  0.61517401790E+03  0.83820298982E+03  0.99972038419E+02 0.  0.
          2    1    3    3  502    0 -0.68498226546E+03  0.89793027124E+02 -0.11763208538E+02  0.69094273626E+03  0.00000000000E+00 0. -1.
         -2    1    3    3    0  502 -0.52414912073E+02  0.16409191382E+02 -0.26461236965E+02  0.60965413401E+02  0.00000000000E+00 0.  1.
         11    1    5    5    0    0  0.35514507477E+02 -0.17907127248E+02  0.24067667934E+03  0.24394099579E+03  0.00000000000E+00 0.  1.
        -11    1    5    5    0    0  0.15285929650E+03 -0.20109627329E+03  0.70065043545E+03  0.74479306411E+03  0.00000000000E+00 0. -1.
          3    1    6    6  503    0  0.23394481482E+03  0.28550208648E+02  0.19237652705E+03  0.30422692017E+03  0.00000000000E+00 0. -1.
         -3    1    6    6    0  503  0.31507855873E+03  0.84250973387E+02  0.42279749085E+03  0.53397606965E+03  0.00000000000E+00 0.  1.
<mgrwt>
<rscale>  0 0.79998319E+03</rscale>
<asrwt>0</asrwt>
<pdfrwt beam="1">  1        1 0.31516322E+00 0.79998319E+03</pdfrwt>
<pdfrwt beam="2">  1       -1 0.81582194E-01 0.79998319E+03</pdfrwt>
<totfact> 0.43071564E+00</totfact>
</mgrwt>
</event>
<event>
12    1  0.1418317E-007  0.1073598E+04  0.7818608E-02  0.9231314E-01
         -1   -1    0    0    0  501 -0.00000000000E+00  0.00000000000E+00  0.61984153389E+03  0.61984153389E+03  0.00000000000E+00 0.  1.
          1   -1    0    0  501    0  0.00000000000E+00 -0.00000000000E+00 -0.33223117530E+04  0.33223117530E+04  0.00000000000E+00 0. -1.
         23    2    1    2    0    0  0.52404758225E+03  0.87565398468E+03 -0.25512496129E+04  0.27487762923E+04  0.74167030048E+02 0.  0.
    5000000    2    1    2    0    0 -0.52404758225E+03 -0.87565398468E+03 -0.15122060618E+03  0.11933769946E+04  0.59990433415E+03 0.  0.
         23    2    4    4    0    0  0.53812913406E+02 -0.50859559309E+02 -0.13936381718E+03  0.18225656787E+03  0.91173782245E+02 0.  0.
         23    2    4    4    0    0 -0.57786049565E+03 -0.82479442537E+03 -0.11856788999E+02  0.10111204267E+04  0.89528416286E+02 0.  0.
          4    1    3    3  502    0  0.22390098643E+03  0.39297394844E+03 -0.12267298887E+04  0.13074503416E+04  0.00000000000E+00 0. -1.
         -4    1    3    3    0  502  0.30014659582E+03  0.48268003624E+03 -0.13245197243E+04  0.14413259508E+04  0.00000000000E+00 0.  1.
         11    1    5    5    0    0 -0.21234734334E+02 -0.33239063678E+02 -0.58314423677E+02  0.70401145624E+02  0.00000000000E+00 0.  1.
        -11    1    5    5    0    0  0.75047647740E+02 -0.17620495631E+02 -0.81049393507E+02  0.11185542224E+03  0.00000000000E+00 0. -1.
          3    1    6    6  503    0 -0.34525252023E+03 -0.55652530938E+03 -0.29799661754E+02  0.65559724111E+03  0.00000000000E+00 0. -1.
         -3    1    6    6    0  503 -0.23260797542E+03 -0.26826911599E+03  0.17942872755E+02  0.35552318561E+03  0.00000000000E+00 0.  1.
<mgrwt>
<rscale>  0 0.10735976E+04</rscale>
<asrwt>0</asrwt>
<pdfrwt beam="1">  1        1 0.51112488E+00 0.10735976E+04</pdfrwt>
<pdfrwt beam="2">  1       -1 0.95360236E-01 0.10735976E+04</pdfrwt>
<totfact> 0.37253592E-01</totfact>
</mgrwt>
</event>
<event>
12    1  0.1418317E-007  0.5946841E+03  0.7818608E-02  0.9916497E-01
          1   -1    0    0  501    0  0.00000000000E+00  0.00000000000E+00  0.88404995407E+03  0.88404995407E+03  0.00000000000E+00 0.  1.
         -1   -1    0    0    0  501 -0.00000000000E+00 -0.00000000000E+00 -0.53286122235E+03  0.53286122235E+03  0.00000000000E+00 0. -1.
         23    2    1    2    0    0 -0.42917638030E+03  0.30343722018E+03  0.31146148492E+03  0.61766140390E+03  0.90723984021E+02 0.  0.
    5000000    2    1    2    0    0  0.42917638030E+03 -0.30343722018E+03  0.39727246808E+02  0.79924977252E+03  0.60079566638E+03 0.  0.
         23    2    4    4    0    0  0.41322520722E+03 -0.79685402123E+02 -0.18499665825E+03  0.46896766160E+03  0.92747338901E+02 0.  0.
         23    2    4    4    0    0  0.15951173082E+02 -0.22375181806E+03  0.22472390506E+03  0.33028211092E+03  0.90918223045E+02 0.  0.
          4    1    3    3  502    0 -0.36238692257E+02  0.24330852862E+02  0.59519553745E+02  0.73809284616E+02  0.00000000000E+00 0. -1.
         -4    1    3    3    0  502 -0.39293768804E+03  0.27910636732E+03  0.25194193118E+03  0.54385211928E+03  0.00000000000E+00 0.  1.
         13    1    5    5    0    0  0.77550293382E+02 -0.34618222030E+02 -0.41630715637E+01  0.85028233340E+02  0.00000000000E+00 0. -1.
        -13    1    5    5    0    0  0.33567491384E+03 -0.45067180094E+02 -0.18083358669E+03  0.38393942826E+03  0.00000000000E+00 0.  1.
          2    1    6    6  503    0  0.35548851807E+02 -0.21624019078E+03  0.19172080066E+03  0.29117075124E+03  0.00000000000E+00 0. -1.
         -2    1    6    6    0  503 -0.19597678725E+02 -0.75116272779E+01  0.33003104402E+02  0.39111359679E+02  0.00000000000E+00 0.  1.
<mgrwt>
<rscale>  0 0.59468407E+03</rscale>
<asrwt>0</asrwt>
<pdfrwt beam="1">  1        1 0.13600768E+00 0.59468407E+03</pdfrwt>
<pdfrwt beam="2">  1       -1 0.81978650E-01 0.59468407E+03</pdfrwt>
<totfact> 0.29046852E+01</totfact>
</mgrwt>
</event>
<event>
12    1  0.1418317E-007  0.5910511E+03  0.7818608E-02  0.9924148E-01
          2   -1    0    0  501    0  0.00000000000E+00  0.00000000000E+00  0.11765625994E+04  0.11765625994E+04  0.00000000000E+00 0. -1.
         -2   -1    0    0    0  501 -0.00000000000E+00 -0.00000000000E+00 -0.36762300997E+03  0.36762300997E+03  0.00000000000E+00 0.  1.
         23    2    1    2    0    0  0.39459119736E+03 -0.22689679676E+03  0.60758681202E+03  0.76458675381E+03  0.90811896530E+02 0.  0.
    5000000    2    1    2    0    0 -0.39459119736E+03  0.22689679676E+03  0.20135277742E+03  0.77959885558E+03  0.60003921974E+03 0.  0.
         23    2    4    4    0    0  0.89232647088E+02  0.22453800581E+03  0.46996878850E+02  0.26246312320E+03  0.91095570998E+02 0.  0.
         23    2    4    4    0    0 -0.48382384445E+03  0.23587909427E+01  0.15435589857E+03  0.51713573238E+03  0.97532281479E+02 0.  0.
          3    1    3    3  502    0  0.20647758897E+03 -0.10463712968E+03  0.38040366930E+03  0.44529639036E+03  0.00000000000E+00 0. -1.
         -3    1    3    3    0  502  0.18811360838E+03 -0.12225966707E+03  0.22718314272E+03  0.31929036345E+03  0.00000000000E+00 0.  1.
         11    1    5    5    0    0  0.94794517078E+01  0.37963667919E+02 -0.25827971822E+02  0.46884797270E+02  0.00000000000E+00 0.  1.
        -11    1    5    5    0    0  0.79753195381E+02  0.18657433789E+03  0.72824850672E+02  0.21557832593E+03  0.00000000000E+00 0. -1.
          1    1    6    6  503    0 -0.23284104891E+03 -0.87895697263E+01  0.12437255086E+03  0.26412258896E+03  0.00000000000E+00 0. -1.
         -1    1    6    6    0  503 -0.25098279554E+03  0.11148360669E+02  0.29983347707E+02  0.25301314341E+03  0.00000000000E+00 0.  1.
<mgrwt>
<rscale>  0 0.59105108E+03</rscale>
<asrwt>0</asrwt>
<pdfrwt beam="1">  1        2 0.18100963E+00 0.59105108E+03</pdfrwt>
<pdfrwt beam="2">  1       -2 0.56557387E-01 0.59105108E+03</pdfrwt>
<totfact> 0.59308136E+01</totfact>
</mgrwt>
</event>
<event>
12    1  0.1418317E-007  0.5016747E+03  0.7818608E-02  0.1013343E+00
          1   -1    0    0  501    0  0.00000000000E+00  0.00000000000E+00  0.15843774852E+04  0.15843774852E+04  0.00000000000E+00 0. -1.
         -1   -1    0    0    0  501 -0.00000000000E+00 -0.00000000000E+00 -0.28200912939E+03  0.28200912939E+03  0.00000000000E+00 0.  1.
         23    2    1    2    0    0  0.22965672891E+03  0.28007637312E+03  0.10614899644E+04  0.11252794879E+04  0.91148195758E+02 0.  0.
    5000000    2    1    2    0    0 -0.22965672891E+03 -0.28007637312E+03  0.24087839139E+03  0.74110712661E+03  0.60002698753E+03 0.  0.
         23    2    4    4    0    0  0.16101786888E+03 -0.11008867204E+03  0.21588379510E+03  0.30476296612E+03  0.90710433356E+02 0.  0.
         23    2    4    4    0    0 -0.39067459779E+03 -0.16998770108E+03  0.24994596286E+02  0.43634416049E+03  0.90824207529E+02 0.  0.
          2    1    3    3  502    0  0.71861062171E+02  0.15005149050E+03  0.41042625958E+03  0.44286473850E+03  0.00000000000E+00 0.  1.
         -2    1    3    3    0  502  0.15779566673E+03  0.13002488262E+03  0.65106370480E+03  0.68241474943E+03  0.00000000000E+00 0. -1.
         13    1    5    5    0    0  0.42530392428E+02 -0.68000166869E+02  0.12908519886E+03  0.15197317374E+03  0.00000000000E+00 0.  1.
        -13    1    5    5    0    0  0.11848747645E+03 -0.42088505172E+02  0.86798596247E+02  0.15278979238E+03  0.00000000000E+00 0. -1.
          1    1    6    6  503    0 -0.16880970108E+03 -0.62191604040E+02 -0.33120416659E+02  0.18292477359E+03  0.00000000000E+00 0. -1.
         -1    1    6    6    0  503 -0.22186489671E+03 -0.10779609704E+03  0.58115012945E+02  0.25341938690E+03  0.00000000000E+00 0.  1.
<mgrwt>
<rscale>  0 0.50167474E+03</rscale>
<asrwt>0</asrwt>
<pdfrwt beam="1">  1        1 0.24375038E+00 0.50167474E+03</pdfrwt>
<pdfrwt beam="2">  1       -1 0.43386021E-01 0.50167474E+03</pdfrwt>
<totfact> 0.32137346E+01</totfact>
</mgrwt>
</event>
<event>
12    1  0.1418317E-007  0.1559833E+04  0.7818608E-02  0.8845611E-01
         -2   -1    0    0    0  501 -0.00000000000E+00  0.00000000000E+00  0.15995863914E+04  0.15995863914E+04  0.00000000000E+00 0. -1.
          2   -1    0    0  501    0  0.00000000000E+00 -0.00000000000E+00 -0.16075119756E+04  0.16075119756E+04  0.00000000000E+00 0.  1.
         23    2    1    2    0    0  0.50995100302E+03  0.14564328327E+04 -0.10005286281E+03  0.15489355740E+04  0.89130327525E+02 0.  0.
    5000000    2    1    2    0    0 -0.50995100302E+03 -0.14564328327E+04  0.92127278623E+02  0.16581627931E+04  0.59980812878E+03 0.  0.
         23    2    4    4    0    0 -0.93493208338E+02 -0.67822091477E+03 -0.20794884322E+03  0.72149318536E+03  0.92655846440E+02 0.  0.
         23    2    4    4    0    0 -0.41645779468E+03 -0.77821191792E+03  0.30007612184E+03  0.93666960775E+03  0.90848176848E+02 0.  0.
          3    1    3    3  502    0  0.87940187005E+02  0.25322048139E+03 -0.51361949600E+02  0.27293247984E+03  0.00000000000E+00 0. -1.
         -3    1    3    3    0  502  0.42201081601E+03  0.12032123513E+04 -0.48690913213E+02  0.12760030941E+04  0.00000000000E+00 0.  1.
         13    1    5    5    0    0 -0.35453548902E+02 -0.53605926611E+03 -0.16662059406E+03  0.56247570016E+03  0.00000000000E+00 0. -1.
        -13    1    5    5    0    0 -0.58039659436E+02 -0.14216164867E+03 -0.41328249164E+02  0.15901748519E+03  0.00000000000E+00 0.  1.
          3    1    6    6  503    0 -0.18631939231E+03 -0.42669564903E+03  0.18533738461E+03  0.50113275585E+03  0.00000000000E+00 0. -1.
         -3    1    6    6    0  503 -0.23013840237E+03 -0.35151626889E+03  0.11473873723E+03  0.43553685190E+03  0.00000000000E+00 0.  1.
<mgrwt>
<rscale>  0 0.15598329E+04</rscale>
<asrwt>0</asrwt>
<pdfrwt beam="1">  1        2 0.24730953E+00 0.15598329E+04</pdfrwt>
<pdfrwt beam="2">  1       -2 0.24609022E+00 0.15598329E+04</pdfrwt>
<totfact> 0.70081945E-01</totfact>
</mgrwt>
</event>
<event>
12    1  0.1418317E-007  0.3938552E+03  0.7818608E-02  0.1045928E+00
          1   -1    0    0  501    0  0.00000000000E+00  0.00000000000E+00  0.12786627372E+04  0.12786627372E+04  0.00000000000E+00 0. -1.
         -1   -1    0    0    0  501 -0.00000000000E+00 -0.00000000000E+00 -0.91023175002E+03  0.91023175002E+03  0.00000000000E+00 0.  1.
         23    2    1    2    0    0  0.72868829205E+01  0.35321627401E+03 -0.77113646647E+03  0.85342929820E+03  0.94208716227E+02 0.  0.
    5000000    2    1    2    0    0 -0.72868829205E+01 -0.35321627401E+03  0.11395674536E+04  0.13354651890E+04  0.60003204477E+03 0.  0.
         23    2    4    4    0    0 -0.77380417960E+02 -0.60453864217E+02 -0.19074239519E+02  0.13487810562E+03  0.90475841974E+02 0.  0.
         23    2    4    4    0    0  0.70093535040E+02 -0.29276240980E+03  0.11586416931E+04  0.12005870834E+04  0.91300818239E+02 0.  0.
          3    1    3    3  502    0 -0.23644577666E+02  0.16922726325E+03 -0.27963187996E+03  0.32770554004E+03  0.00000000000E+00 0. -1.
         -3    1    3    3    0  502  0.30931460587E+02  0.18398901076E+03 -0.49150458651E+03  0.52572375816E+03  0.00000000000E+00 0.  1.
         13    1    5    5    0    0 -0.67119854551E+02 -0.75088709664E+02 -0.39098400576E+02  0.10803737373E+03  0.00000000000E+00 0. -1.
        -13    1    5    5    0    0 -0.10260563409E+02  0.14634845447E+02  0.20024161057E+02  0.26840731897E+02  0.00000000000E+00 0.  1.
          3    1    6    6  503    0  0.84750047344E+02 -0.19219876783E+03  0.70087018363E+03  0.73167065759E+03  0.00000000000E+00 0. -1.
         -3    1    6    6    0  503 -0.14656512305E+02 -0.10056364197E+03  0.45777150950E+03  0.46891642576E+03  0.00000000000E+00 0.  1.
<mgrwt>
<rscale>  0 0.39385524E+03</rscale>
<asrwt>0</asrwt>
<pdfrwt beam="1">  1        1 0.19671734E+00 0.39385524E+03</pdfrwt>
<pdfrwt beam="2">  1       -1 0.14003565E+00 0.39385524E+03</pdfrwt>
<totfact> 0.44332652E+00</totfact>
</mgrwt>
</event>
<event>
12    1  0.1418317E-007  0.1284845E+04  0.7818608E-02  0.9041671E-01
          2   -1    0    0  501    0  0.00000000000E+00  0.00000000000E+00  0.25161319161E+04  0.25161319161E+04  0.00000000000E+00 0. -1.
         -2   -1    0    0    0  501 -0.00000000000E+00 -0.00000000000E+00 -0.66096126969E+03  0.66096126969E+03  0.00000000000E+00 0.  1.
         23    2    1    2    0    0 -0.11564474453E+04 -0.38146474214E+03  0.84967513992E+03  0.14876630085E+04  0.91144611661E+02 0.  0.
    5000000    2    1    2    0    0  0.11564474453E+04  0.38146474214E+03  0.10054955065E+04  0.16894301773E+04  0.60022251470E+03 0.  0.
         23    2    4    4    0    0  0.84897233348E+03 -0.23661808879E+01  0.67047627322E+03  0.10863976233E+04  0.99808522031E+02 0.  0.
         23    2    4    4    0    0  0.30747511180E+03  0.38383092302E+03  0.33501923324E+03  0.60303255399E+03  0.97689573085E+02 0.  0.
          1    1    3    3  502    0 -0.42644144853E+03 -0.17187709391E+03  0.36062708552E+03  0.58433375672E+03  0.00000000000E+00 0. -1.
         -1    1    3    3    0  502 -0.73000599675E+03 -0.20958764823E+03  0.48904805439E+03  0.90332925176E+03  0.00000000000E+00 0.  1.
         13    1    5    5    0    0  0.61738291767E+03  0.17560047444E+02  0.43443794988E+03  0.75512009282E+03  0.00000000000E+00 0. -1.
        -13    1    5    5    0    0  0.23158941582E+03 -0.19926228332E+02  0.23603832334E+03  0.33127753045E+03  0.00000000000E+00 0.  1.
          1    1    6    6  503    0  0.23759172280E+03  0.22681667833E+03  0.23841989315E+03  0.40588135923E+03  0.00000000000E+00 0. -1.
         -1    1    6    6    0  503  0.69883388991E+02  0.15701424469E+03  0.96599340087E+02  0.19715119477E+03  0.00000000000E+00 0.  1.
<mgrwt>
<rscale>  0 0.12848446E+04</rscale>
<asrwt>0</asrwt>
<pdfrwt beam="1">  1        2 0.38709721E+00 0.12848446E+04</pdfrwt>
<pdfrwt beam="2">  1       -2 0.10168635E+00 0.12848446E+04</pdfrwt>
<totfact> 0.26338413E+00</totfact>
</mgrwt>
</event>
<event>
12    1  0.1418317E-007  0.1379832E+04  0.7818608E-02  0.8968548E-01
         -1   -1    0    0    0  501 -0.00000000000E+00  0.00000000000E+00  0.65041649737E+03  0.65041649737E+03  0.00000000000E+00 0.  1.
          1   -1    0    0  501    0  0.00000000000E+00 -0.00000000000E+00 -0.31489855739E+04  0.31489855739E+04  0.00000000000E+00 0. -1.
         23    2    1    2    0    0  0.12694572418E+04 -0.34461650579E+03 -0.16876195981E+04  0.21417326197E+04  0.93147634456E+02 0.  0.
    5000000    2    1    2    0    0 -0.12694572418E+04  0.34461650579E+03 -0.81094947847E+03  0.16576694516E+04  0.59995560599E+03 0.  0.
         23    2    4    4    0    0 -0.94186445792E+03  0.50068923773E+03 -0.56795045575E+03  0.12116653288E+04  0.88129330703E+02 0.  0.
         23    2    4    4    0    0 -0.32759278388E+03 -0.15607273194E+03 -0.24299902273E+03  0.44600412277E+03  0.90528574353E+02 0.  0.
          4    1    3    3  502    0  0.11145316149E+04 -0.29466591239E+03 -0.14274392992E+04  0.18348274234E+04  0.00000000000E+00 0. -1.
         -4    1    3    3    0  502  0.15492562689E+03 -0.49950593393E+02 -0.26018029886E+03  0.30690519638E+03  0.00000000000E+00 0.  1.
         13    1    5    5    0    0 -0.45951939150E+03  0.29334156815E+03 -0.29838438807E+03  0.62148257402E+03  0.00000000000E+00 0. -1.
        -13    1    5    5    0    0 -0.48234506642E+03  0.20734766958E+03 -0.26956606767E+03  0.59018275476E+03  0.00000000000E+00 0.  1.
          4    1    6    6  503    0 -0.17855581278E+03 -0.13391296261E+03 -0.13937874164E+03  0.26313740414E+03  0.00000000000E+00 0. -1.
         -4    1    6    6    0  503 -0.14903697110E+03 -0.22159769326E+02 -0.10362028108E+03  0.18286671863E+03  0.00000000000E+00 0.  1.
<mgrwt>
<rscale>  0 0.13798321E+04</rscale>
<asrwt>0</asrwt>
<pdfrwt beam="1">  1        1 0.48445931E+00 0.13798321E+04</pdfrwt>
<pdfrwt beam="2">  1       -1 0.10006408E+00 0.13798321E+04</pdfrwt>
<totfact> 0.43029733E-01</totfact>
</mgrwt>
</event>
<event>
12    1  0.1418317E-007  0.8303322E+03  0.7818608E-02  0.9517121E-01
         -1   -1    0    0    0  501 -0.00000000000E+00  0.00000000000E+00  0.57833981652E+03  0.57833981652E+03  0.00000000000E+00 0.  1.
          1   -1    0    0  501    0  0.00000000000E+00 -0.00000000000E+00 -0.13048242251E+04  0.13048242251E+04  0.00000000000E+00 0. -1.
         23    2    1    2    0    0  0.21765162648E+03  0.72776110143E+03 -0.25363026908E+03  0.80586966673E+03  0.89939730398E+02 0.  0.
    5000000    2    1    2    0    0 -0.21765162648E+03 -0.72776110143E+03 -0.47285413950E+03  0.10772943749E+04  0.59996973398E+03 0.  0.
         23    2    4    4    0    0  0.71790313119E+02 -0.53928606400E+03 -0.46445563100E+03  0.72036332520E+03  0.84976345241E+02 0.  0.
         23    2    4    4    0    0 -0.28944193959E+03 -0.18847503743E+03 -0.83985085018E+01  0.35693104970E+03  0.89608945782E+02 0.  0.
          1    1    3    3  502    0  0.83524371173E+02  0.34463870446E+03 -0.16131394689E+03  0.38958227199E+03  0.00000000000E+00 0. -1.
         -1    1    3    3    0  502  0.13412725530E+03  0.38312239697E+03 -0.92316322194E+02  0.41628739474E+03  0.00000000000E+00 0.  1.
         11    1    5    5    0    0  0.48500125215E+02 -0.26192529430E+03 -0.17455419339E+03  0.31847494151E+03  0.00000000000E+00 0. -1.
        -11    1    5    5    0    0  0.23290187905E+02 -0.27736076970E+03 -0.28990143761E+03  0.40188838370E+03  0.00000000000E+00 0.  1.
          4    1    6    6  503    0 -0.25080892687E+03 -0.19305985800E+03  0.25412893178E+01  0.31651806382E+03  0.00000000000E+00 0. -1.
         -4    1    6    6    0  503 -0.38633012719E+02  0.45848205731E+01 -0.10939797820E+02  0.40412985881E+02  0.00000000000E+00 0.  1.
<mgrwt>
<rscale>  0 0.83033222E+03</rscale>
<asrwt>0</asrwt>
<pdfrwt beam="1">  1        1 0.20074218E+00 0.83033222E+03</pdfrwt>
<pdfrwt beam="2">  1       -1 0.88975358E-01 0.83033222E+03</pdfrwt>
<totfact> 0.11385196E+01</totfact>
</mgrwt>
</event>
<event>
12    1  0.1418317E-007  0.5364937E+03  0.7818608E-02  0.1004669E+00
         -1   -1    0    0    0  501 -0.00000000000E+00  0.00000000000E+00  0.21812950558E+03  0.21812950558E+03  0.00000000000E+00 0.  1.
          1   -1    0    0  501    0  0.00000000000E+00 -0.00000000000E+00 -0.18160715020E+04  0.18160715020E+04  0.00000000000E+00 0. -1.
         23    2    1    2    0    0  0.41402266546E+03 -0.21088555370E+02 -0.23067889044E+03  0.48461463874E+03  0.98889346788E+02 0.  0.
    5000000    2    1    2    0    0 -0.41402266546E+03  0.21088555370E+02 -0.13672631060E+04  0.15495863688E+04  0.59995834757E+03 0.  0.
         23    2    4    4    0    0 -0.68904799142E+02  0.22698224146E+03 -0.24016630223E+03  0.34934319442E+03  0.89955575020E+02 0.  0.
         23    2    4    4    0    0 -0.34511786632E+03 -0.20589368609E+03 -0.11270968037E+04  0.12002431744E+04  0.93476847871E+02 0.  0.
          3    1    3    3  502    0  0.22778376997E+02  0.90288455756E+01  0.74508755444E+01  0.25610350591E+02  0.00000000000E+00 0. -1.
         -3    1    3    3    0  502  0.39124428846E+03 -0.30117400946E+02 -0.23812976598E+03  0.45900428815E+03  0.00000000000E+00 0.  1.
         13    1    5    5    0    0 -0.37546481473E+02  0.21656707833E+03 -0.19849209804E+03  0.29615899559E+03  0.00000000000E+00 0.  1.
        -13    1    5    5    0    0 -0.31358317668E+02  0.10415163135E+02 -0.41674204190E+02  0.53184198828E+02  0.00000000000E+00 0. -1.
          4    1    6    6  503    0 -0.57998011162E+02 -0.49745188979E+02 -0.12827534639E+03  0.14930812977E+03  0.00000000000E+00 0. -1.
         -4    1    6    6    0  503 -0.28711985515E+03 -0.15614849711E+03 -0.99882145734E+03  0.10509350446E+04  0.00000000000E+00 0.  1.
<mgrwt>
<rscale>  0 0.53649369E+03</rscale>
<asrwt>0</asrwt>
<pdfrwt beam="1">  1        1 0.27939562E+00 0.53649369E+03</pdfrwt>
<pdfrwt beam="2">  1       -1 0.33558385E-01 0.53649369E+03</pdfrwt>
<totfact> 0.35470175E+01</totfact>
</mgrwt>
</event>
<event>
12    1  0.1418317E-007  0.6857507E+03  0.7818608E-02  0.9741915E-01
         -1   -1    0    0    0  501 -0.00000000000E+00  0.00000000000E+00  0.28383895605E+04  0.28383895605E+04  0.00000000000E+00 0.  1.
          1   -1    0    0  501    0  0.00000000000E+00 -0.00000000000E+00 -0.31068094254E+03  0.31068094254E+03  0.00000000000E+00 0. -1.
         23    2    1    2    0    0  0.17666571666E+03  0.59053306100E+03  0.20960969837E+04  0.21867671252E+04  0.91585058708E+02 0.  0.
    5000000    2    1    2    0    0 -0.17666571666E+03 -0.59053306100E+03  0.43161163421E+03  0.96230337784E+03  0.59983257383E+03 0.  0.
         23    2    4    4    0    0 -0.10549681462E+03 -0.62699081708E+03  0.15657676154E+03  0.66147938127E+03  0.93763676258E+02 0.  0.
         23    2    4    4    0    0 -0.71168902046E+02  0.36457756081E+02  0.27503487267E+03  0.30082399657E+03  0.91960399791E+02 0.  0.
          1    1    3    3  502    0  0.51250706525E+02  0.17527721257E+03  0.48320644212E+03  0.51656287310E+03  0.00000000000E+00 0. -1.
         -1    1    3    3    0  502  0.12541501014E+03  0.41525584844E+03  0.16128905416E+04  0.16702042521E+04  0.00000000000E+00 0.  1.
         11    1    5    5    0    0 -0.45529037199E+02 -0.96602323684E+02  0.63893283094E+01  0.10698469837E+03  0.00000000000E+00 0. -1.
        -11    1    5    5    0    0 -0.59967777420E+02 -0.53038849340E+03  0.15018743323E+03  0.55449468290E+03  0.00000000000E+00 0.  1.
          3    1    6    6  503    0 -0.24955120942E+02  0.58307488113E+02  0.99478902890E+02  0.11797700349E+03  0.00000000000E+00 0. -1.
         -3    1    6    6    0  503 -0.46213781104E+02 -0.21849732032E+02  0.17555596978E+03  0.18284699308E+03  0.00000000000E+00 0.  1.
<mgrwt>
<rscale>  0 0.68575072E+03</rscale>
<asrwt>0</asrwt>
<pdfrwt beam="1">  1        1 0.47797070E-01 0.68575072E+03</pdfrwt>
<pdfrwt beam="2">  1       -1 0.43667530E+00 0.68575072E+03</pdfrwt>
<totfact> 0.36398421E-01</totfact>
</mgrwt>
</event>
<event>
12    1  0.1418317E-007  0.9639295E+03  0.7818608E-02  0.9349016E-01
          2   -1    0    0  501    0  0.00000000000E+00  0.00000000000E+00  0.68678219653E+03  0.68678219653E+03  0.00000000000E+00 0. -1.
         -2   -1    0    0    0  501 -0.00000000000E+00 -0.00000000000E+00 -0.15118698881E+04  0.15118698881E+04  0.00000000000E+00 0.  1.
         23    2    1    2    0    0 -0.82710206973E+03 -0.27978336428E+03 -0.71738529909E+03  0.11337445925E+04  0.91425209675E+02 0.  0.
    5000000    2    1    2    0    0  0.82710206973E+03  0.27978336428E+03 -0.10770239251E+03  0.10649074922E+04  0.60004299583E+03 0.  0.
         23    2    4    4    0    0  0.78187450446E+03  0.41350955435E+03 -0.65565251505E+02  0.89243716166E+03  0.99133208624E+02 0.  0.
         23    2    4    4    0    0  0.45227565275E+02 -0.13372619007E+03 -0.42137141000E+02  0.17247033051E+03  0.89678590998E+02 0.  0.
          4    1    3    3  502    0 -0.50955777513E+03 -0.15279908073E+03 -0.48838988048E+03  0.72216435845E+03  0.00000000000E+00 0. -1.
         -4    1    3    3    0  502 -0.31754429460E+03 -0.12698428355E+03 -0.22899541861E+03  0.41158023404E+03  0.00000000000E+00 0.  1.
         11    1    5    5    0    0  0.39495114456E+03  0.26413468760E+03 -0.42735761969E+02  0.47705333574E+03  0.00000000000E+00 0.  1.
        -11    1    5    5    0    0  0.38692335989E+03  0.14937486674E+03 -0.22829489537E+02  0.41538382592E+03  0.00000000000E+00 0. -1.
          1    1    6    6  503    0  0.49785521189E+02 -0.25978108936E+02 -0.30757370377E+02  0.64027151244E+02  0.00000000000E+00 0. -1.
         -1    1    6    6    0  503 -0.45579559133E+01 -0.10774808113E+03 -0.11379770623E+02  0.10844317926E+03  0.00000000000E+00 0.  1.
<mgrwt>
<rscale>  0 0.96392949E+03</rscale>
<asrwt>0</asrwt>
<pdfrwt beam="1">  1        2 0.10565880E+00 0.96392949E+03</pdfrwt>
<pdfrwt beam="2">  1       -2 0.23259537E+00 0.96392949E+03</pdfrwt>
<totfact> 0.34574085E+00</totfact>
</mgrwt>
</event>
<event>
12    1  0.1418317E-007  0.1109381E+04  0.7818608E-02  0.9196097E-01
         -1   -1    0    0    0  501 -0.00000000000E+00  0.00000000000E+00  0.48962451367E+03  0.48962451367E+03  0.00000000000E+00 0.  1.
          1   -1    0    0  501    0  0.00000000000E+00 -0.00000000000E+00 -0.25493186654E+04  0.25493186654E+04  0.00000000000E+00 0. -1.
         23    2    1    2    0    0 -0.10298793326E+04 -0.61438083185E+02 -0.85445698207E+03  0.13427664421E+04  0.92189511301E+02 0.  0.
    5000000    2    1    2    0    0  0.10298793326E+04  0.61438083185E+02 -0.12052371696E+04  0.16961767370E+04  0.59999400857E+03 0.  0.
         23    2    4    4    0    0  0.19477295085E+03 -0.21402680095E+03 -0.24033625218E+03  0.38742254953E+03  0.92686265786E+02 0.  0.
         23    2    4    4    0    0  0.83510638171E+03  0.27546488413E+03 -0.96490091747E+03  0.13087541875E+04  0.92304775146E+02 0.  0.
          1    1    3    3  502    0 -0.32077106187E+03  0.81933992087E+01 -0.22355425715E+03  0.39107251477E+03  0.00000000000E+00 0. -1.
         -1    1    3    3    0  502 -0.70910827069E+03 -0.69631482394E+02 -0.63090272492E+03  0.95169392728E+03  0.00000000000E+00 0.  1.
         11    1    5    5    0    0  0.13198034425E+03 -0.76960603927E+02 -0.12987014750E+03  0.20051932834E+03  0.00000000000E+00 0. -1.
        -11    1    5    5    0    0  0.62792606606E+02 -0.13706619702E+03 -0.11046610468E+03  0.18690322120E+03  0.00000000000E+00 0.  1.
          1    1    6    6  503    0  0.73633455624E+03  0.21978154920E+03 -0.80671524973E+03  0.11141283598E+04  0.00000000000E+00 0. -1.
         -1    1    6    6    0  503  0.98771825469E+02  0.55683334935E+02 -0.15818566774E+03  0.19462582761E+03  0.00000000000E+00 0.  1.
<mgrwt>
<rscale>  0 0.11093806E+04</rscale>
<asrwt>0</asrwt>
<pdfrwt beam="1">  1        1 0.39220287E+00 0.11093806E+04</pdfrwt>
<pdfrwt beam="2">  1       -1 0.75326849E-01 0.11093806E+04</pdfrwt>
<totfact> 0.22274733E+00</totfact>
</mgrwt>
</event>
<event>
12    1  0.1418317E-007  0.1316897E+04  0.7818608E-02  0.9016272E-01
         -2   -1    0    0    0  501 -0.00000000000E+00  0.00000000000E+00  0.10621906456E+04  0.10621906456E+04  0.00000000000E+00 0.  1.
          2   -1    0    0  501    0  0.00000000000E+00 -0.00000000000E+00 -0.17695250527E+04  0.17695250527E+04  0.00000000000E+00 0. -1.
         23    2    1    2    0    0  0.12470695079E+04  0.20416179297E+03 -0.57595610588E+01  0.12667294687E+04  0.87783707346E+02 0.  0.
    5000000    2    1    2    0    0 -0.12470695079E+04 -0.20416179297E+03 -0.70157484611E+03  0.15649862296E+04  0.60009185867E+03 0.  0.
         23    2    4    4    0    0  0.31334599082E+02 -0.44563125421E+02 -0.75932028299E+02  0.12995411394E+03  0.90303209033E+02 0.  0.
         23    2    4    4    0    0 -0.12784041069E+04 -0.15959866755E+03 -0.62564281781E+03  0.14350321156E+04  0.89996900031E+02 0.  0.
          2    1    3    3  502    0  0.79511409181E+03  0.15320521198E+03 -0.39158206128E+02  0.81068589545E+03  0.00000000000E+00 0. -1.
         -2    1    3    3    0  502  0.45195541605E+03  0.50956580990E+02  0.33398645070E+02  0.45604357329E+03  0.00000000000E+00 0.  1.
         13    1    5    5    0    0  0.45042870228E+02 -0.46408355376E+02 -0.13576194236E+02  0.66082589666E+02  0.00000000000E+00 0. -1.
        -13    1    5    5    0    0 -0.13708271146E+02  0.18452299552E+01 -0.62355834063E+02  0.63871524274E+02  0.00000000000E+00 0.  1.
          3    1    6    6  503    0 -0.77792566857E+03 -0.58336984302E+02 -0.40177504337E+03  0.87749343874E+03  0.00000000000E+00 0. -1.
         -3    1    6    6    0  503 -0.50047843837E+03 -0.10126168325E+03 -0.22386777445E+03  0.55753867687E+03  0.00000000000E+00 0.  1.
<mgrwt>
<rscale>  0 0.13168966E+04</rscale>
<asrwt>0</asrwt>
<pdfrwt beam="1">  1        2 0.27223462E+00 0.13168966E+04</pdfrwt>
<pdfrwt beam="2">  1       -2 0.16341395E+00 0.13168966E+04</pdfrwt>
<totfact> 0.20472322E+00</totfact>
</mgrwt>
</event>
<event>
12    1  0.1418317E-007  0.8265517E+03  0.7818608E-02  0.9522360E-01
          2   -1    0    0  501    0  0.00000000000E+00  0.00000000000E+00  0.79578622513E+03  0.79578622513E+03  0.00000000000E+00 0.  1.
         -2   -1    0    0    0  501 -0.00000000000E+00 -0.00000000000E+00 -0.10030797607E+04  0.10030797607E+04  0.00000000000E+00 0. -1.
         23    2    1    2    0    0  0.64425051583E+03 -0.35168564212E+03 -0.38595652387E+03  0.83428229304E+03  0.91230412396E+02 0.  0.
    5000000    2    1    2    0    0 -0.64425051583E+03  0.35168564212E+03  0.17866298830E+03  0.96458369280E+03  0.59979973242E+03 0.  0.
         23    2    4    4    0    0 -0.45163947624E+03  0.48303213739E+03  0.17865732072E+02  0.66773562396E+03  0.90848317971E+02 0.  0.
         23    2    4    4    0    0 -0.19261103959E+03 -0.13134649528E+03  0.16079725623E+03  0.29684806883E+03  0.88950008232E+02 0.  0.
          3    1    3    3  502    0  0.55338748759E+03 -0.33042271452E+03 -0.31709591962E+03  0.71830822349E+03  0.00000000000E+00 0. -1.
         -3    1    3    3    0  502  0.90863028241E+02 -0.21262927600E+02 -0.68860604256E+02  0.11597406956E+03  0.00000000000E+00 0.  1.
         11    1    5    5    0    0 -0.39027227031E+03  0.45130553785E+03  0.11099280500E+01  0.59664928174E+03  0.00000000000E+00 0.  1.
        -11    1    5    5    0    0 -0.61367205926E+02  0.31726599548E+02  0.16755804022E+02  0.71086342221E+02  0.00000000000E+00 0. -1.
          3    1    6    6  503    0 -0.78862659975E+02 -0.42730233866E+01  0.50858616272E+02  0.93937089141E+02  0.00000000000E+00 0. -1.
         -3    1    6    6    0  503 -0.11374837962E+03 -0.12707347189E+03  0.10993863996E+03  0.20291097969E+03  0.00000000000E+00 0.  1.
<mgrwt>
<rscale>  0 0.82655168E+03</rscale>
<asrwt>0</asrwt>
<pdfrwt beam="1">  1        2 0.12242865E+00 0.82655168E+03</pdfrwt>
<pdfrwt beam="2">  1       -2 0.15431996E+00 0.82655168E+03</pdfrwt>
<totfact> 0.97137774E+00</totfact>
</mgrwt>
</event>
<event>
12    1  0.1418317E-007  0.4923608E+03  0.7818608E-02  0.1015792E+00
         -2   -1    0    0    0  501 -0.00000000000E+00  0.00000000000E+00  0.19712021124E+04  0.19712021124E+04  0.00000000000E+00 0. -1.
          2   -1    0    0  501    0  0.00000000000E+00 -0.00000000000E+00 -0.31529370619E+03  0.31529370619E+03  0.00000000000E+00 0.  1.
         23    2    1    2    0    0  0.16728000760E+02  0.42792579995E+03 -0.37441908741E+02  0.43961903040E+03  0.91992820826E+02 0.  0.
    5000000    2    1    2    0    0 -0.16728000760E+02 -0.42792579995E+03  0.16933503150E+04  0.18468767882E+04  0.60009854637E+03 0.  0.
         23    2    4    4    0    0  0.12294927008E+02  0.28497298104E+02  0.64833407750E+01  0.96301504985E+02  0.90932309579E+02 0.  0.
         23    2    4    4    0    0 -0.29022927768E+02 -0.45642309806E+03  0.16868669742E+04  0.17505752832E+04  0.99142618695E+02 0.  0.
          3    1    3    3  502    0 -0.75630283773E+01  0.10447057492E+03  0.28642573011E+02  0.10858958242E+03  0.00000000000E+00 0. -1.
         -3    1    3    3    0  502  0.24291029137E+02  0.32345522504E+03 -0.66084481752E+02  0.33102944798E+03  0.00000000000E+00 0.  1.
         13    1    5    5    0    0  0.46112505614E+02 -0.67467603602E+01 -0.23594372509E+01  0.46663142774E+02  0.00000000000E+00 0.  1.
        -13    1    5    5    0    0 -0.33817578606E+02  0.35244058464E+02  0.88427780259E+01  0.49638362211E+02  0.00000000000E+00 0. -1.
          1    1    6    6  503    0 -0.30275326269E+02 -0.12072274932E+03  0.61109508858E+03  0.62364074985E+03  0.00000000000E+00 0. -1.
         -1    1    6    6    0  503  0.12523985007E+01 -0.33570034874E+03  0.10757718856E+04  0.11269345334E+04  0.00000000000E+00 0.  1.
<mgrwt>
<rscale>  0 0.49236084E+03</rscale>
<asrwt>0</asrwt>
<pdfrwt beam="1">  1        2 0.48506725E-01 0.49236084E+03</pdfrwt>
<pdfrwt beam="2">  1       -2 0.30326186E+00 0.49236084E+03</pdfrwt>
<totfact> 0.34296794E+00</totfact>
</mgrwt>
</event>
<event>
12    1  0.1418317E-007  0.8378689E+03  0.7818608E-02  0.9506765E-01
         -2   -1    0    0    0  501 -0.00000000000E+00  0.00000000000E+00  0.20960922739E+04  0.20960922739E+04  0.00000000000E+00 0.  1.
          2   -1    0    0  501    0  0.00000000000E+00 -0.00000000000E+00 -0.40253004326E+03  0.40253004326E+03  0.00000000000E+00 0. -1.
         23    2    1    2    0    0  0.14975452397E+03 -0.72027114553E+03  0.12444515383E+04  0.14484780068E+04  0.90619888840E+02 0.  0.
    5000000    2    1    2    0    0 -0.14975452397E+03  0.72027114553E+03  0.44911069230E+03  0.10501443104E+04  0.59990475759E+03 0.  0.
         23    2    4    4    0    0  0.20670423528E+03  0.40675456134E+03  0.24502866444E+03  0.52589522554E+03  0.91382863741E+02 0.  0.
         23    2    4    4    0    0 -0.35645875925E+03  0.31351658419E+03  0.20408202786E+03  0.52424908486E+03  0.88499340526E+02 0.  0.
          1    1    3    3  502    0  0.97767837660E+02 -0.42720397506E+03  0.82463791840E+03  0.93385731397E+03  0.00000000000E+00 0. -1.
         -1    1    3    3    0  502  0.51986686307E+02 -0.29306717047E+03  0.41981361993E+03  0.51462069279E+03  0.00000000000E+00 0.  1.
         13    1    5    5    0    0  0.38210916904E+02  0.99779965265E+02  0.10173984618E+03  0.14753681554E+03  0.00000000000E+00 0.  1.
        -13    1    5    5    0    0  0.16849331838E+03  0.30697459608E+03  0.14328881826E+03  0.37835841000E+03  0.00000000000E+00 0. -1.
          2    1    6    6  503    0 -0.29051682765E+03  0.20399899850E+03  0.15399147251E+03  0.38694830681E+03  0.00000000000E+00 0. -1.
         -2    1    6    6    0  503 -0.65941931601E+02  0.10951758569E+03  0.50090555344E+02  0.13730077805E+03  0.00000000000E+00 0.  1.
<mgrwt>
<rscale>  0 0.83786886E+03</rscale>
<asrwt>0</asrwt>
<pdfrwt beam="1">  1        2 0.61927700E-01 0.83786886E+03</pdfrwt>
<pdfrwt beam="2">  1       -2 0.32247573E+00 0.83786886E+03</pdfrwt>
<totfact> 0.18850185E+00</totfact>
</mgrwt>
</event>
<event>
12    1  0.1418317E-007  0.6425597E+03  0.7818608E-02  0.9820841E-01
          1   -1    0    0  501    0  0.00000000000E+00  0.00000000000E+00  0.80819341799E+03  0.80819341799E+03  0.00000000000E+00 0. -1.
         -1   -1    0    0    0  501 -0.00000000000E+00 -0.00000000000E+00 -0.66352167306E+03  0.66352167306E+03  0.00000000000E+00 0.  1.
         23    2    1    2    0    0  0.52635423464E+03  0.23014784566E+03  0.25322344624E+03  0.63435033613E+03  0.90892376123E+02 0.  0.
    5000000    2    1    2    0    0 -0.52635423464E+03 -0.23014784566E+03 -0.10855170132E+03  0.83736475492E+03  0.59948265173E+03 0.  0.
         23    2    4    4    0    0 -0.95828654228E+02 -0.23833807311E+03 -0.25550434887E+03  0.37317841798E+03  0.89395141342E+02 0.  0.
         23    2    4    4    0    0 -0.43052558042E+03  0.81902274503E+01  0.14695264755E+03  0.46418633693E+03  0.91948461409E+02 0.  0.
          4    1    3    3  502    0  0.40268620096E+03  0.13987287365E+03  0.21028157079E+03  0.47533034433E+03  0.00000000000E+00 0. -1.
         -4    1    3    3    0  502  0.12366803368E+03  0.90274972006E+02  0.42941875457E+02  0.15901999180E+03  0.00000000000E+00 0.  1.
         11    1    5    5    0    0 -0.62283420181E+02 -0.57224721970E+02 -0.10814569647E+03  0.13729306209E+03  0.00000000000E+00 0. -1.
        -11    1    5    5    0    0 -0.33545234047E+02 -0.18111335114E+03 -0.14735865240E+03  0.23588535589E+03  0.00000000000E+00 0.  1.
          3    1    6    6  503    0 -0.32040870054E+03  0.38552558604E+02  0.13322843561E+03  0.34913872774E+03  0.00000000000E+00 0. -1.
         -3    1    6    6    0  503 -0.11011687988E+03 -0.30362331154E+02  0.13724211944E+02  0.11504760919E+03  0.00000000000E+00 0.  1.
<mgrwt>
<rscale>  0 0.64255973E+03</rscale>
<asrwt>0</asrwt>
<pdfrwt beam="1">  1        1 0.12433745E+00 0.64255973E+03</pdfrwt>
<pdfrwt beam="2">  1       -1 0.10208026E+00 0.64255973E+03</pdfrwt>
<totfact> 0.20587891E+01</totfact>
</mgrwt>
</event>
<event>
12    1  0.1418317E-007  0.7552701E+03  0.7818608E-02  0.9627119E-01
          2   -1    0    0  501    0  0.00000000000E+00  0.00000000000E+00  0.19101201990E+04  0.19101201990E+04  0.00000000000E+00 0. -1.
         -2   -1    0    0    0  501 -0.00000000000E+00 -0.00000000000E+00 -0.33661875101E+03  0.33661875101E+03  0.00000000000E+00 0.  1.
         23    2    1    2    0    0  0.43884957466E+03  0.52241999854E+03  0.57893707004E+03  0.89964241425E+03  0.93149011840E+02 0.  0.
    5000000    2    1    2    0    0 -0.43884957466E+03 -0.52241999854E+03  0.99456437797E+03  0.13470965358E+04  0.59999930894E+03 0.  0.
         23    2    4    4    0    0 -0.33626149975E+03 -0.55426773239E+02  0.68425246454E+03  0.76972924209E+03  0.90209464485E+02 0.  0.
         23    2    4    4    0    0 -0.10258807491E+03 -0.46699322530E+03  0.31031191342E+03  0.57736729369E+03  0.91937601791E+02 0.  0.
          1    1    3    3  502    0  0.10690227026E+03  0.10918756968E+03  0.83649086327E+02  0.17420445001E+03  0.00000000000E+00 0. -1.
         -1    1    3    3    0  502  0.33194730440E+03  0.41323242886E+03  0.49528798371E+03  0.72543796424E+03  0.00000000000E+00 0.  1.
         13    1    5    5    0    0 -0.17720514176E+03 -0.27510231662E+01  0.43157213991E+03  0.46654446984E+03  0.00000000000E+00 0.  1.
        -13    1    5    5    0    0 -0.15905635800E+03 -0.52675750072E+02  0.25268032464E+03  0.30318477225E+03  0.00000000000E+00 0. -1.
          3    1    6    6  503    0 -0.99170502582E+02 -0.30174494594E+03  0.23829306650E+03  0.39707478707E+03  0.00000000000E+00 0. -1.
         -3    1    6    6    0  503 -0.34175723241E+01 -0.16524827936E+03  0.72018846918E+02  0.18029250662E+03  0.00000000000E+00 0.  1.
<mgrwt>
<rscale>  0 0.75527005E+03</rscale>
<asrwt>0</asrwt>
<pdfrwt beam="1">  1        2 0.29386464E+00 0.75527005E+03</pdfrwt>
<pdfrwt beam="2">  1       -2 0.51787501E-01 0.75527005E+03</pdfrwt>
<totfact> 0.27198159E+01</totfact>
</mgrwt>
</event>
<event>
12    1  0.1418317E-007  0.8639859E+03  0.7818608E-02  0.9471755E-01
         -2   -1    0    0    0  501 -0.00000000000E+00  0.00000000000E+00  0.61151062030E+03  0.61151062030E+03  0.00000000000E+00 0.  1.
          2   -1    0    0  501    0  0.00000000000E+00 -0.00000000000E+00 -0.13520541396E+04  0.13520541396E+04  0.00000000000E+00 0. -1.
         23    2    1    2    0    0  0.55345993625E+03  0.53428208245E+03 -0.65494119340E+02  0.77725472586E+03  0.89778530530E+02 0.  0.
    5000000    2    1    2    0    0 -0.55345993625E+03 -0.53428208245E+03 -0.67504939994E+03  0.11863100340E+04  0.59988712256E+03 0.  0.
         23    2    4    4    0    0 -0.46011406070E+02  0.99266645551E+02 -0.23393078143E+02  0.14123672913E+03  0.86195482152E+02 0.  0.
         23    2    4    4    0    0 -0.50744853018E+03 -0.63354872800E+03 -0.65165632180E+03  0.10450733049E+04  0.92920661519E+02 0.  0.
          1    1    3    3  502    0  0.27792195214E+03  0.22403451758E+03 -0.61877925874E+02  0.36229953665E+03  0.00000000000E+00 0. -1.
         -1    1    3    3    0  502  0.27553798411E+03  0.31024756487E+03 -0.36161934664E+01  0.41495518921E+03  0.00000000000E+00 0.  1.
         11    1    5    5    0    0  0.22193295266E+02  0.51270186164E+02 -0.10515970602E+02  0.56848570622E+02  0.00000000000E+00 0. -1.
        -11    1    5    5    0    0 -0.68204701336E+02  0.47996459387E+02 -0.12877107542E+02  0.84388158510E+02  0.00000000000E+00 0.  1.
          1    1    6    6  503    0 -0.40147480485E+03 -0.43652842368E+03 -0.46199239492E+03  0.75178192089E+03  0.00000000000E+00 0. -1.
         -1    1    6    6    0  503 -0.10597372532E+03 -0.19702030433E+03 -0.18966392687E+03  0.29329138401E+03  0.00000000000E+00 0.  1.
<mgrwt>
<rscale>  0 0.86398594E+03</rscale>
<asrwt>0</asrwt>
<pdfrwt beam="1">  1        2 0.20800833E+00 0.86398594E+03</pdfrwt>
<pdfrwt beam="2">  1       -2 0.94078557E-01 0.86398594E+03</pdfrwt>
<totfact> 0.14827292E+01</totfact>
</mgrwt>
</event>
<event>
12    1  0.1418317E-007  0.6049445E+03  0.7818608E-02  0.9895201E-01
         -2   -1    0    0    0  501 -0.00000000000E+00  0.00000000000E+00  0.68816158554E+03  0.68816158554E+03  0.00000000000E+00 0.  1.
          2   -1    0    0  501    0  0.00000000000E+00 -0.00000000000E+00 -0.75594510570E+03  0.75594510570E+03  0.00000000000E+00 0. -1.
         23    2    1    2    0    0 -0.55973443460E+03 -0.16490479365E+03  0.75480378370E+02  0.59530311626E+03  0.90511239410E+02 0.  0.
    5000000    2    1    2    0    0  0.55973443460E+03  0.16490479365E+03 -0.14326389853E+03  0.84880357498E+03  0.59953876941E+03 0.  0.
         23    2    4    4    0    0  0.28205398279E+03  0.13846016463E+02 -0.35125996042E+03  0.45963490419E+03  0.90191595919E+02 0.  0.
         23    2    4    4    0    0  0.27768045182E+03  0.15105877719E+03  0.20799606189E+03  0.38916867079E+03  0.90910423369E+02 0.  0.
          2    1    3    3  502    0 -0.10593863023E+03 -0.69726448454E+02  0.17006886295E+02  0.12796095174E+03  0.00000000000E+00 0. -1.
         -2    1    3    3    0  502 -0.45379580437E+03 -0.95178345200E+02  0.58473492075E+02  0.46734216452E+03  0.00000000000E+00 0.  1.
         13    1    5    5    0    0  0.26658425339E+03  0.35420574951E+02 -0.32946389474E+03  0.42528606751E+03  0.00000000000E+00 0. -1.
        -13    1    5    5    0    0  0.15469729398E+02 -0.21574558488E+02 -0.21796065684E+02  0.34348836675E+02  0.00000000000E+00 0.  1.
          4    1    6    6  503    0  0.10220813351E+03  0.95447099270E+02  0.56723377072E+02  0.15091120840E+03  0.00000000000E+00 0. -1.
         -4    1    6    6    0  503  0.17547231830E+03  0.55611677921E+02  0.15127268482E+03  0.23825746239E+03  0.00000000000E+00 0.  1.
<mgrwt>
<rscale>  0 0.60494453E+03</rscale>
<asrwt>0</asrwt>
<pdfrwt beam="1">  1        2 0.11629925E+00 0.60494453E+03</pdfrwt>
<pdfrwt beam="2">  1       -2 0.10587101E+00 0.60494453E+03</pdfrwt>
<totfact> 0.27513065E+01</totfact>
</mgrwt>
</event>
<event>
12    1  0.1418317E-007  0.4527748E+03  0.7818608E-02  0.1026898E+00
          2   -1    0    0  501    0  0.00000000000E+00  0.00000000000E+00  0.18989364319E+04  0.18989364319E+04  0.00000000000E+00 0. -1.
         -2   -1    0    0    0  501 -0.00000000000E+00 -0.00000000000E+00 -0.28516127137E+03  0.28516127137E+03  0.00000000000E+00 0.  1.
         23    2    1    2    0    0 -0.75630451156E+02 -0.34374727482E+03 -0.58902245016E+02  0.37250620217E+03  0.10681405383E+03 0.  0.
    5000000    2    1    2    0    0  0.75630451156E+02  0.34374727482E+03  0.16726774055E+04  0.18115915011E+04  0.60010991475E+03 0.  0.
         23    2    4    4    0    0  0.22762635569E+03  0.98590962511E+02  0.13261789577E+04  0.13521951564E+04  0.90261716184E+02 0.  0.
         23    2    4    4    0    0 -0.15199590454E+03  0.24515631231E+03  0.34649844781E+03  0.45939634469E+03  0.88201217234E+02 0.  0.
          2    1    3    3  502    0 -0.17583995073E+02 -0.40566119116E+02 -0.45624817200E+02  0.63532911529E+02  0.00000000000E+00 0.  1.
         -2    1    3    3    0  502 -0.58046456083E+02 -0.30318115570E+03 -0.13277427815E+02  0.30897329064E+03  0.00000000000E+00 0. -1.
         11    1    5    5    0    0  0.81996634170E+02  0.83871268481E+02  0.62249160269E+03  0.63344584071E+03  0.00000000000E+00 0. -1.
        -11    1    5    5    0    0  0.14562972152E+03  0.14719694030E+02  0.70368735500E+03  0.71874931567E+03  0.00000000000E+00 0.  1.
          1    1    6    6  503    0 -0.53584218979E+02  0.10271731820E+03  0.77101533952E+02  0.13916451602E+03  0.00000000000E+00 0.  1.
         -1    1    6    6    0  503 -0.98411685556E+02  0.14243899411E+03  0.26939691386E+03  0.32023182867E+03  0.00000000000E+00 0. -1.
<mgrwt>
<rscale>  0 0.45277485E+03</rscale>
<asrwt>0</asrwt>
<pdfrwt beam="1">  1        2 0.29214406E+00 0.45277485E+03</pdfrwt>
<pdfrwt beam="2">  1       -2 0.43870966E-01 0.45277485E+03</pdfrwt>
<totfact> 0.40408878E+01</totfact>
</mgrwt>
</event>
<event>
12    1  0.1418317E-007  0.5002974E+03  0.7818608E-02  0.1013701E+00
         -1   -1    0    0    0  501 -0.00000000000E+00  0.00000000000E+00  0.43443552572E+03  0.43443552572E+03  0.00000000000E+00 0.  1.
          1   -1    0    0  501    0  0.00000000000E+00 -0.00000000000E+00 -0.89214269749E+03  0.89214269749E+03  0.00000000000E+00 0. -1.
         23    2    1    2    0    0  0.33959160396E+03 -0.25733639767E+02 -0.52597140075E+03  0.63325871992E+03  0.91575183591E+02 0.  0.
    5000000    2    1    2    0    0 -0.33959160396E+03  0.25733639767E+02  0.68264228981E+02  0.69331950329E+03  0.60003937453E+03 0.  0.
         23    2    4    4    0    0 -0.40785029151E+03  0.20209800063E+03 -0.22350204103E+02  0.46464921366E+03  0.90630557710E+02 0.  0.
         23    2    4    4    0    0  0.68258687553E+02 -0.17636436087E+03  0.90614433085E+02  0.22867028962E+03  0.91189306731E+02 0.  0.
          1    1    3    3  502    0  0.17334546489E+03 -0.42347135165E+02 -0.20791195034E+03  0.27398779015E+03  0.00000000000E+00 0. -1.
         -1    1    3    3    0  502  0.16624613907E+03  0.16613495398E+02 -0.31805945041E+03  0.35927092978E+03  0.00000000000E+00 0.  1.
         13    1    5    5    0    0 -0.20831108393E+03  0.14679294819E+03  0.10220792492E+02  0.25504145139E+03  0.00000000000E+00 0. -1.
        -13    1    5    5    0    0 -0.19953920758E+03  0.55305052442E+02 -0.32570996596E+02  0.20960776228E+03  0.00000000000E+00 0.  1.
          1    1    6    6  503    0  0.92777361992E+01 -0.77534157686E+02  0.82036598296E+02  0.11325910761E+03  0.00000000000E+00 0. -1.
         -1    1    6    6    0  503  0.58980951354E+02 -0.98830203182E+02  0.85778347891E+01  0.11541118201E+03  0.00000000000E+00 0.  1.
<mgrwt>
<rscale>  0 0.50029739E+03</rscale>
<asrwt>0</asrwt>
<pdfrwt beam="1">  1        1 0.13725272E+00 0.50029739E+03</pdfrwt>
<pdfrwt beam="2">  1       -1 0.66836236E-01 0.50029739E+03</pdfrwt>
<totfact> 0.44219030E+01</totfact>
</mgrwt>
</event>
<event>
12    1  0.1418317E-007  0.4944469E+03  0.7818608E-02  0.1015239E+00
         -1   -1    0    0    0  501 -0.00000000000E+00  0.00000000000E+00  0.28617983679E+03  0.28617983679E+03  0.00000000000E+00 0.  1.
          1   -1    0    0  501    0  0.00000000000E+00 -0.00000000000E+00 -0.16128601411E+04  0.16128601411E+04  0.00000000000E+00 0. -1.
         23    2    1    2    0    0  0.26011120871E+03  0.20797574108E+03  0.61496601398E+02  0.35052982077E+03  0.90429936912E+02 0.  0.
    5000000    2    1    2    0    0 -0.26011120871E+03 -0.20797574108E+03 -0.13881769057E+04  0.15485101571E+04  0.59994736051E+03 0.  0.
         23    2    4    4    0    0  0.19913979935E+02  0.17388320452E+03 -0.50142755559E+03  0.53915187167E+03  0.92861250336E+02 0.  0.
         23    2    4    4    0    0 -0.28002518865E+03 -0.38185894560E+03 -0.88674935010E+03  0.10093582854E+04  0.90826085710E+02 0.  0.
          4    1    3    3  502    0  0.14360568554E+03  0.78731515008E+02 -0.60274716296E+01  0.16388280809E+03  0.00000000000E+00 0. -1.
         -4    1    3    3    0  502  0.11650552318E+03  0.12924422607E+03  0.67524073028E+02  0.18664701268E+03  0.00000000000E+00 0.  1.
         11    1    5    5    0    0  0.89015332485E+01  0.84660476291E+02 -0.11908589278E+03  0.14638334399E+03  0.00000000000E+00 0.  1.
        -11    1    5    5    0    0  0.11012446687E+02  0.89222728230E+02 -0.38234166281E+03  0.39276852768E+03  0.00000000000E+00 0. -1.
          3    1    6    6  503    0 -0.23831711246E+03 -0.29112825989E+03 -0.75973574539E+03  0.84779072454E+03  0.00000000000E+00 0. -1.
         -3    1    6    6    0  503 -0.41708076192E+02 -0.90730685709E+02 -0.12701360471E+03  0.16156756088E+03  0.00000000000E+00 0.  1.
<mgrwt>
<rscale>  0 0.49444687E+03</rscale>
<asrwt>0</asrwt>
<pdfrwt beam="1">  1        1 0.24813233E+00 0.49444687E+03</pdfrwt>
<pdfrwt beam="2">  1       -1 0.44027667E-01 0.49444687E+03</pdfrwt>
<totfact> 0.29979568E+01</totfact>
</mgrwt>
</event>
<event>
12    1  0.1418317E-007  0.8768916E+03  0.7818608E-02  0.9454938E-01
          4   -1    0    0  501    0  0.00000000000E+00  0.00000000000E+00  0.10770591259E+04  0.10770591259E+04  0.00000000000E+00 0. -1.
         -4   -1    0    0    0  501 -0.00000000000E+00 -0.00000000000E+00 -0.98345051380E+03  0.98345051380E+03  0.00000000000E+00 0.  1.
         23    2    1    2    0    0  0.11457238130E+02  0.79712406276E+03 -0.45446501483E+03  0.92220337344E+03  0.91556389971E+02 0.  0.
    5000000    2    1    2    0    0 -0.11457238130E+02 -0.79712406276E+03  0.54807362697E+03  0.11383062663E+04  0.59984866056E+03 0.  0.
         23    2    4    4    0    0 -0.12582662931E+03 -0.82209931628E+03  0.39585728775E+03  0.92582888533E+03  0.93683009014E+02 0.  0.
         23    2    4    4    0    0  0.11436939118E+03  0.24975253524E+02  0.15221633922E+03  0.21247738096E+03  0.90954398293E+02 0.  0.
          3    1    3    3  502    0  0.18521904037E+02  0.20275359686E+03 -0.74887145005E+02  0.21693355309E+03  0.00000000000E+00 0. -1.
         -3    1    3    3    0  502 -0.70646659066E+01  0.59437046590E+03 -0.37957786982E+03  0.70526982035E+03  0.00000000000E+00 0.  1.
         11    1    5    5    0    0 -0.11613343715E+03 -0.55753154084E+03  0.30430106665E+03  0.64569925927E+03  0.00000000000E+00 0.  1.
        -11    1    5    5    0    0 -0.96931921533E+01 -0.26456777544E+03  0.91556221101E+02  0.28012962607E+03  0.00000000000E+00 0. -1.
          2    1    6    6  503    0  0.23523258164E+02 -0.80560816260E+01 -0.73385285102E+01  0.25924855380E+02  0.00000000000E+00 0. -1.
         -2    1    6    6    0  503  0.90846133013E+02  0.33031335150E+02  0.15955486773E+03  0.18655252558E+03  0.00000000000E+00 0.  1.
<mgrwt>
<rscale>  0 0.87689165E+03</rscale>
<asrwt>0</asrwt>
<pdfrwt beam="1">  1        4 0.16570141E+00 0.87689165E+03</pdfrwt>
<pdfrwt beam="2">  1       -4 0.15130008E+00 0.87689165E+03</pdfrwt>
<totfact> 0.12793775E-01</totfact>
</mgrwt>
</event>
<event>
12    1  0.1418317E-007  0.3168785E+03  0.7818608E-02  0.1077095E+00
          2   -1    0    0  501    0  0.00000000000E+00  0.00000000000E+00  0.94994878962E+03  0.94994878962E+03  0.00000000000E+00 0. -1.
         -2   -1    0    0    0  501 -0.00000000000E+00 -0.00000000000E+00 -0.22458253105E+03  0.22458253105E+03  0.00000000000E+00 0.  1.
         23    2    1    2    0    0 -0.17856651209E+03  0.64255886946E+02 -0.44360447596E+01  0.21068673131E+03  0.91402417970E+02 0.  0.
    5000000    2    1    2    0    0  0.17856651209E+03 -0.64255886946E+02  0.72980230333E+03  0.96384458935E+03  0.60030839760E+03 0.  0.
         23    2    4    4    0    0  0.16404581781E+03 -0.19666963202E+03  0.64999840408E+02  0.27990032122E+03  0.92353863282E+02 0.  0.
         23    2    4    4    0    0  0.14520694279E+02  0.13241374508E+03  0.66480246292E+03  0.68394426813E+03  0.89850969703E+02 0.  0.
          3    1    3    3  502    0 -0.24714400103E+02  0.50408021890E+02 -0.26275340560E+01  0.56202083400E+02  0.00000000000E+00 0. -1.
         -3    1    3    3    0  502 -0.15385211199E+03  0.13847865056E+02 -0.18085107036E+01  0.15448464791E+03  0.00000000000E+00 0.  1.
         11    1    5    5    0    0  0.91585424749E+02 -0.63935257789E+02 -0.79953214038E+01  0.11198005349E+03  0.00000000000E+00 0.  1.
        -11    1    5    5    0    0  0.72460393062E+02 -0.13273437424E+03  0.72995161811E+02  0.16792026773E+03  0.00000000000E+00 0. -1.
          2    1    6    6  503    0 -0.35627051931E+02  0.80564887879E+02  0.39090505230E+03  0.40070780864E+03  0.00000000000E+00 0. -1.
         -2    1    6    6    0  503  0.50147746210E+02  0.51848857199E+02  0.27389741062E+03  0.28323645950E+03  0.00000000000E+00 0.  1.
<mgrwt>
<rscale>  0 0.31687850E+03</rscale>
<asrwt>0</asrwt>
<pdfrwt beam="1">  1        2 0.14614597E+00 0.31687850E+03</pdfrwt>
<pdfrwt beam="2">  1       -2 0.34551159E-01 0.31687850E+03</pdfrwt>
<totfact> 0.22283796E+02</totfact>
</mgrwt>
</event>
<event>
12    1  0.1418317E-007  0.1135030E+04  0.7818608E-02  0.9171706E-01
          2   -1    0    0  501    0  0.00000000000E+00  0.00000000000E+00  0.22438511956E+04  0.22438511956E+04  0.00000000000E+00 0. -1.
         -2   -1    0    0    0  501 -0.00000000000E+00 -0.00000000000E+00 -0.62499233979E+03  0.62499233979E+03  0.00000000000E+00 0.  1.
         23    2    1    2    0    0 -0.86320583713E+03 -0.69172573513E+03  0.77135277293E+03  0.13516781680E+04  0.91869252546E+02 0.  0.
    5000000    2    1    2    0    0  0.86320583713E+03  0.69172573513E+03  0.84750608284E+03  0.15171653674E+04  0.59992948056E+03 0.  0.
         23    2    4    4    0    0  0.61486475084E+03  0.27412180727E+03  0.75151315812E+03  0.10133522813E+04  0.94389576553E+02 0.  0.
         23    2    4    4    0    0  0.24834108629E+03  0.41760392786E+03  0.95992924720E+02  0.50381308608E+03  0.92448084874E+02 0.  0.
          4    1    3    3  502    0 -0.54357399439E+03 -0.37855793588E+03  0.45177185594E+03  0.80179586431E+03  0.00000000000E+00 0. -1.
         -4    1    3    3    0  502 -0.31963184273E+03 -0.31316779925E+03  0.31958091699E+03  0.54988230366E+03  0.00000000000E+00 0.  1.
         11    1    5    5    0    0  0.17530353799E+03  0.64784465636E+02  0.27185469790E+03  0.32989897573E+03  0.00000000000E+00 0. -1.
        -11    1    5    5    0    0  0.43956121284E+03  0.20933734163E+03  0.47965846023E+03  0.68345330557E+03  0.00000000000E+00 0.  1.
          1    1    6    6  503    0  0.13496306130E+03  0.20421954408E+03  0.27233109570E+01  0.24480209664E+03  0.00000000000E+00 0. -1.
         -1    1    6    6    0  503  0.11337802499E+03  0.21338438379E+03  0.93269613763E+02  0.25901098943E+03  0.00000000000E+00 0.  1.
<mgrwt>
<rscale>  0 0.11350305E+04</rscale>
<asrwt>0</asrwt>
<pdfrwt beam="1">  1        2 0.34520787E+00 0.11350305E+04</pdfrwt>
<pdfrwt beam="2">  1       -2 0.96152669E-01 0.11350305E+04</pdfrwt>
<totfact> 0.43678142E+00</totfact>
</mgrwt>
</event>
<event>
12    1  0.1418317E-007  0.7637163E+03  0.7818608E-02  0.9614074E-01
         -1   -1    0    0    0  501 -0.00000000000E+00  0.00000000000E+00  0.62217943960E+03  0.62217943960E+03  0.00000000000E+00 0.  1.
          1   -1    0    0  501    0  0.00000000000E+00 -0.00000000000E+00 -0.12419669115E+04  0.12419669115E+04  0.00000000000E+00 0. -1.
         23    2    1    2    0    0  0.69302644374E+02  0.67004713957E+03  0.12863726118E+03  0.69189604128E+03  0.91687301269E+02 0.  0.
    5000000    2    1    2    0    0 -0.69302644374E+02 -0.67004713957E+03 -0.74842473309E+03  0.11722503098E+04  0.60022094434E+03 0.  0.
         23    2    4    4    0    0 -0.22463803245E+03 -0.11406382149E+03 -0.43029284293E+03  0.50678024357E+03  0.90562042861E+02 0.  0.
         23    2    4    4    0    0  0.15533538807E+03 -0.55598331808E+03 -0.31813189016E+03  0.66547006625E+03  0.91629562741E+02 0.  0.
          2    1    3    3  502    0 -0.17311252683E+02  0.17552136717E+03  0.53091898827E+02  0.18419060650E+03  0.00000000000E+00 0. -1.
         -2    1    3    3    0  502  0.86613897058E+02  0.49452577240E+03  0.75545362357E+02  0.50770543478E+03  0.00000000000E+00 0.  1.
         11    1    5    5    0    0 -0.55888418215E+02 -0.71772255853E+02 -0.18380378520E+03  0.20508194327E+03  0.00000000000E+00 0. -1.
        -11    1    5    5    0    0 -0.16874961423E+03 -0.42291565636E+02 -0.24648905772E+03  0.30169830030E+03  0.00000000000E+00 0.  1.
          3    1    6    6  503    0  0.85115648229E+02 -0.15358978345E+03 -0.84034052688E+02  0.19466950754E+03  0.00000000000E+00 0. -1.
         -3    1    6    6    0  503  0.70219739843E+02 -0.40239353463E+03 -0.23409783747E+03  0.47080055871E+03  0.00000000000E+00 0.  1.
<mgrwt>
<rscale>  0 0.76371632E+03</rscale>
<asrwt>0</asrwt>
<pdfrwt beam="1">  1        1 0.19107183E+00 0.76371632E+03</pdfrwt>
<pdfrwt beam="2">  1       -1 0.95719915E-01 0.76371632E+03</pdfrwt>
<totfact> 0.10827432E+01</totfact>
</mgrwt>
</event>
<event>
12    1  0.1418317E-007  0.9556671E+03  0.7818608E-02  0.9358551E-01
         -2   -1    0    0    0  501 -0.00000000000E+00  0.00000000000E+00  0.34862075711E+03  0.34862075711E+03  0.00000000000E+00 0.  1.
          2   -1    0    0  501    0  0.00000000000E+00 -0.00000000000E+00 -0.27869068237E+04  0.27869068237E+04  0.00000000000E+00 0. -1.
         23    2    1    2    0    0 -0.80583254520E+03  0.35125754448E+03 -0.13480216398E+04  0.16119353887E+04  0.91789991334E+02 0.  0.
    5000000    2    1    2    0    0  0.80583254520E+03 -0.35125754448E+03 -0.10902644268E+04  0.15235921921E+04  0.59992390695E+03 0.  0.
         23    2    4    4    0    0  0.26892781812E+03 -0.39022766912E+03 -0.31989798901E+03  0.57897618753E+03  0.90988445680E+02 0.  0.
         23    2    4    4    0    0  0.53690472708E+03  0.38970124641E+02 -0.77036643781E+03  0.94461600461E+03  0.95129338793E+02 0.  0.
          4    1    3    3  502    0 -0.43676817269E+03  0.23832215898E+03 -0.73740376496E+03  0.88956629923E+03  0.00000000000E+00 0. -1.
         -4    1    3    3    0  502 -0.36906437251E+03  0.11293538550E+03 -0.61061787485E+03  0.72236908948E+03  0.00000000000E+00 0.  1.
         11    1    5    5    0    0  0.14014668297E+03 -0.13162147502E+03 -0.10631768688E+03  0.21970151564E+03  0.00000000000E+00 0. -1.
        -11    1    5    5    0    0  0.12878113515E+03 -0.25860619411E+03 -0.21358030214E+03  0.35927467189E+03  0.00000000000E+00 0.  1.
          3    1    6    6  503    0  0.89292060968E+02 -0.29066951654E+02 -0.13220630238E+03  0.16216185193E+03  0.00000000000E+00 0. -1.
         -3    1    6    6    0  503  0.44761266611E+03  0.68037076295E+02 -0.63816013542E+03  0.78245415269E+03  0.00000000000E+00 0.  1.
<mgrwt>
<rscale>  0 0.95566705E+03</rscale>
<asrwt>0</asrwt>
<pdfrwt beam="1">  1        2 0.42875489E+00 0.95566705E+03</pdfrwt>
<pdfrwt beam="2">  1       -2 0.53633964E-01 0.95566705E+03</pdfrwt>
<totfact> 0.79002718E+00</totfact>
</mgrwt>
</event>
<event>
12    1  0.1418317E-007  0.7216074E+03  0.7818608E-02  0.9680978E-01
         -2   -1    0    0    0  501 -0.00000000000E+00  0.00000000000E+00  0.91732089129E+03  0.91732089129E+03  0.00000000000E+00 0.  1.
          2   -1    0    0  501    0  0.00000000000E+00 -0.00000000000E+00 -0.75823099061E+03  0.75823099061E+03  0.00000000000E+00 0. -1.
         23    2    1    2    0    0 -0.52430489402E+03  0.30396969347E+03 -0.32758567282E+03  0.69392426311E+03  0.83218468262E+02 0.  0.
    5000000    2    1    2    0    0  0.52430489402E+03 -0.30396969347E+03  0.48667557349E+03  0.98162761879E+03  0.59953854897E+03 0.  0.
         23    2    4    4    0    0  0.41973603399E+03  0.75543652953E+02  0.16579658714E+03  0.46583484173E+03  0.87340767842E+02 0.  0.
         23    2    4    4    0    0  0.10456886003E+03 -0.37951334642E+03  0.32087898635E+03  0.51579277707E+03  0.90076847156E+02 0.  0.
          4    1    3    3  502    0 -0.41418497545E+03  0.19984041499E+03 -0.25572557579E+03  0.52619478852E+03  0.00000000000E+00 0. -1.
         -4    1    3    3    0  502 -0.11011991857E+03  0.10412927848E+03 -0.71860097029E+02  0.16772947460E+03  0.00000000000E+00 0.  1.
         13    1    5    5    0    0  0.16226807131E+03 -0.83659500071E+01  0.40493024043E+02  0.16745328030E+03  0.00000000000E+00 0.  1.
        -13    1    5    5    0    0  0.25746796268E+03  0.83909602960E+02  0.12530356310E+03  0.29838156143E+03  0.00000000000E+00 0. -1.
          2    1    6    6  503    0  0.19255315982E+02 -0.18630710190E+03  0.10939039473E+03  0.21690403839E+03  0.00000000000E+00 0. -1.
         -2    1    6    6    0  503  0.85313544046E+02 -0.19320624452E+03  0.21148859163E+03  0.29888873868E+03  0.00000000000E+00 0.  1.
<mgrwt>
<rscale>  0 0.72160738E+03</rscale>
<asrwt>0</asrwt>
<pdfrwt beam="1">  1        2 0.11665092E+00 0.72160738E+03</pdfrwt>
<pdfrwt beam="2">  1       -2 0.14112629E+00 0.72160738E+03</pdfrwt>
<totfact> 0.13241931E+01</totfact>
</mgrwt>
</event>
<event>
12    1  0.1418317E-007  0.8649133E+03  0.7818608E-02  0.9470537E-01
          2   -1    0    0  501    0  0.00000000000E+00  0.00000000000E+00  0.98395618554E+03  0.98395618554E+03  0.00000000000E+00 0.  1.
         -2   -1    0    0    0  501 -0.00000000000E+00 -0.00000000000E+00 -0.79589140440E+03  0.79589140440E+03  0.00000000000E+00 0. -1.
         23    2    1    2    0    0  0.77342158034E+03  0.24674693607E+02 -0.14987975329E+02  0.77928304024E+03  0.90926541532E+02 0.  0.
    5000000    2    1    2    0    0 -0.77342158034E+03 -0.24674693607E+02  0.20305275647E+03  0.10005645497E+04  0.60092363472E+03 0.  0.
         23    2    4    4    0    0  0.79345496362E+02 -0.21062504017E+01  0.32349666889E+02  0.12567380023E+03  0.91908971452E+02 0.  0.
         23    2    4    4    0    0 -0.85276707670E+03 -0.22568443205E+02  0.17070308958E+03  0.87489074947E+03  0.92591883971E+02 0.  0.
          2    1    3    3  502    0  0.60972572326E+03  0.55682837196E+01  0.22884251838E+02  0.61018042608E+03  0.00000000000E+00 0. -1.
         -2    1    3    3    0  502  0.16369585708E+03  0.19106409887E+02 -0.37872227168E+02  0.16910261416E+03  0.00000000000E+00 0.  1.
         11    1    5    5    0    0  0.44720178305E+02 -0.29485329429E+02 -0.20017778610E+02  0.57183830404E+02  0.00000000000E+00 0. -1.
        -11    1    5    5    0    0  0.34625318056E+02  0.27379079028E+02  0.52367445500E+02  0.68489969828E+02  0.00000000000E+00 0.  1.
          1    1    6    6  503    0 -0.24814037338E+03  0.33270189195E+02  0.36091729065E+02  0.25294893417E+03  0.00000000000E+00 0. -1.
         -1    1    6    6    0  503 -0.60462670332E+03 -0.55838632400E+02  0.13461136051E+03  0.62194181530E+03  0.00000000000E+00 0.  1.
<mgrwt>
<rscale>  0 0.86491326E+03</rscale>
<asrwt>0</asrwt>
<pdfrwt beam="1">  1        2 0.15137787E+00 0.86491326E+03</pdfrwt>
<pdfrwt beam="2">  1       -2 0.12244483E+00 0.86491326E+03</pdfrwt>
<totfact> 0.13086713E+01</totfact>
</mgrwt>
</event>
<event>
12    1  0.1418317E-007  0.6371318E+03  0.7818608E-02  0.9831230E-01
          2   -1    0    0  501    0  0.00000000000E+00  0.00000000000E+00  0.15136831118E+04  0.15136831118E+04  0.00000000000E+00 0. -1.
         -2   -1    0    0    0  501 -0.00000000000E+00 -0.00000000000E+00 -0.43359569213E+03  0.43359569213E+03  0.00000000000E+00 0.  1.
         23    2    1    2    0    0 -0.53477270156E+03 -0.28690781008E+03  0.87636723654E+03  0.10698459079E+04  0.90844920381E+02 0.  0.
    5000000    2    1    2    0    0  0.53477270156E+03  0.28690781008E+03  0.20372018312E+03  0.87743289602E+03  0.60007386228E+03 0.  0.
         23    2    4    4    0    0  0.10432040654E+03  0.15003840240E+03 -0.18465098135E+03  0.27517307431E+03  0.90719162773E+02 0.  0.
         23    2    4    4    0    0  0.43045229502E+03  0.13686940769E+03  0.38837116447E+03  0.60225982171E+03  0.88669715270E+02 0.  0.
          3    1    3    3  502    0 -0.18849267862E+03 -0.14350690868E+03  0.38138538879E+03  0.44897498540E+03  0.00000000000E+00 0. -1.
         -3    1    3    3    0  502 -0.34628002294E+03 -0.14340090140E+03  0.49498184776E+03  0.62087092251E+03  0.00000000000E+00 0.  1.
         11    1    5    5    0    0  0.11341073406E+03  0.15562317511E+03 -0.17979274553E+03  0.26345018234E+03  0.00000000000E+00 0.  1.
        -11    1    5    5    0    0 -0.90903275243E+01 -0.55847727094E+01 -0.48582358273E+01  0.11722891967E+02  0.00000000000E+00 0. -1.
          1    1    6    6  503    0  0.32706704101E+03  0.65122340513E+02  0.26406564929E+03  0.42537564068E+03  0.00000000000E+00 0. -1.
         -1    1    6    6    0  503  0.10338525401E+03  0.71747067173E+02  0.12430551519E+03  0.17688418104E+03  0.00000000000E+00 0.  1.
<mgrwt>
<rscale>  0 0.63713183E+03</rscale>
<asrwt>0</asrwt>
<pdfrwt beam="1">  1        2 0.23287432E+00 0.63713183E+03</pdfrwt>
<pdfrwt beam="2">  1       -2 0.66707030E-01 0.63713183E+03</pdfrwt>
<totfact> 0.26736766E+01</totfact>
</mgrwt>
</event>
<event>
12    1  0.1418317E-007  0.5753080E+03  0.7818608E-02  0.9958001E-01
          1   -1    0    0  501    0  0.00000000000E+00  0.00000000000E+00  0.74757634678E+03  0.74757634678E+03  0.00000000000E+00 0. -1.
         -1   -1    0    0    0  501 -0.00000000000E+00 -0.00000000000E+00 -0.46524349333E+03  0.46524349333E+03  0.00000000000E+00 0.  1.
         23    2    1    2    0    0  0.23934799795E+03 -0.35779230698E+03  0.10035250703E+03  0.45232420505E+03  0.96040417244E+02 0.  0.
    5000000    2    1    2    0    0 -0.23934799795E+03  0.35779230698E+03  0.18198034642E+03  0.76049563506E+03  0.59994496864E+03 0.  0.
         23    2    4    4    0    0  0.36355100065E+02 -0.12676352167E+03  0.10148035323E+03  0.19000040114E+03  0.91712630626E+02 0.  0.
         23    2    4    4    0    0 -0.27570309801E+03  0.48455582865E+03  0.80499993196E+02  0.57049523392E+03  0.90432370765E+02 0.  0.
          1    1    3    3  502    0  0.44101069782E+02 -0.12875720306E+03  0.59737980971E+02  0.14863360342E+03  0.00000000000E+00 0.  1.
         -1    1    3    3    0  502  0.19524692817E+03 -0.22903510393E+03  0.40614526059E+02  0.30369060163E+03  0.00000000000E+00 0. -1.
         11    1    5    5    0    0  0.58722067878E+02 -0.58415393046E+02  0.28639399942E+02  0.87640485106E+02  0.00000000000E+00 0.  1.
        -11    1    5    5    0    0 -0.22366967813E+02 -0.68348128623E+02  0.72840953285E+02  0.10235991604E+03  0.00000000000E+00 0. -1.
          3    1    6    6  503    0 -0.46345703379E+02  0.11339776799E+03 -0.16292007568E+02  0.12358158243E+03  0.00000000000E+00 0. -1.
         -3    1    6    6    0  503 -0.22935739463E+03  0.37115806067E+03  0.96792000764E+02  0.44691365148E+03  0.00000000000E+00 0.  1.
<mgrwt>
<rscale>  0 0.57530799E+03</rscale>
<asrwt>0</asrwt>
<pdfrwt beam="1">  1        1 0.11501175E+00 0.57530799E+03</pdfrwt>
<pdfrwt beam="2">  1       -1 0.71575922E-01 0.57530799E+03</pdfrwt>
<totfact> 0.50518328E+01</totfact>
</mgrwt>
</event>
<event>
12    1  0.1418317E-007  0.5369179E+03  0.7818608E-02  0.1004568E+00
         -2   -1    0    0    0  501 -0.00000000000E+00  0.00000000000E+00  0.15568229505E+03  0.15568229505E+03  0.00000000000E+00 0.  1.
          2   -1    0    0  501    0  0.00000000000E+00 -0.00000000000E+00 -0.23851984312E+04  0.23851984312E+04  0.00000000000E+00 0. -1.
         23    2    1    2    0    0  0.28853279226E+03  0.27526784147E+03 -0.38874920734E+03  0.56433278779E+03  0.91224955017E+02 0.  0.
    5000000    2    1    2    0    0 -0.28853279226E+03 -0.27526784147E+03 -0.18407669289E+04  0.19765479385E+04  0.59941247071E+03 0.  0.
         23    2    4    4    0    0 -0.75183801626E+02  0.15456013346E+03 -0.27172496627E+03  0.33335143604E+03  0.88018655589E+02 0.  0.
         23    2    4    4    0    0 -0.21334899063E+03 -0.42982797492E+03 -0.15690419626E+04  0.16431965025E+04  0.89062817732E+02 0.  0.
          4    1    3    3  502    0  0.13905094970E+03  0.13618585983E+03 -0.25276046729E+03  0.31901349322E+03  0.00000000000E+00 0. -1.
         -4    1    3    3    0  502  0.14948184256E+03  0.13908198164E+03 -0.13598874005E+03  0.24531929458E+03  0.00000000000E+00 0.  1.
         13    1    5    5    0    0 -0.85152109262E+02  0.84459404717E+02 -0.14486809784E+03  0.18807189723E+03  0.00000000000E+00 0. -1.
        -13    1    5    5    0    0  0.99683076367E+01  0.70100728740E+02 -0.12685686843E+03  0.14527953880E+03  0.00000000000E+00 0.  1.
          4    1    6    6  503    0 -0.17555687376E+02 -0.93361157728E+02 -0.23377276736E+03  0.25233750155E+03  0.00000000000E+00 0. -1.
         -4    1    6    6    0  503 -0.19579330326E+03 -0.33646681720E+03 -0.13352691952E+04  0.13908590009E+04  0.00000000000E+00 0.  1.
<mgrwt>
<rscale>  0 0.53691789E+03</rscale>
<asrwt>0</asrwt>
<pdfrwt beam="1">  1        2 0.36695358E+00 0.53691789E+03</pdfrwt>
<pdfrwt beam="2">  1       -2 0.23951124E-01 0.53691789E+03</pdfrwt>
<totfact> 0.67163864E+01</totfact>
</mgrwt>
</event>
<event>
12    1  0.1418317E-007  0.7955151E+03  0.7818608E-02  0.9566532E-01
         -1   -1    0    0    0  501 -0.00000000000E+00  0.00000000000E+00  0.57279367989E+03  0.57279367989E+03  0.00000000000E+00 0.  1.
          1   -1    0    0  501    0  0.00000000000E+00 -0.00000000000E+00 -0.15322693838E+04  0.15322693838E+04  0.00000000000E+00 0. -1.
         23    2    1    2    0    0 -0.50216003289E+03  0.46799364528E+03  0.10849064435E+03  0.70087792808E+03  0.90977467053E+02 0.  0.
    5000000    2    1    2    0    0  0.50216003289E+03 -0.46799364528E+03 -0.10679663483E+04  0.14041851356E+04  0.60000085286E+03 0.  0.
         23    2    4    4    0    0  0.18577959411E+02  0.11439122361E+03 -0.14433625000E+03  0.20650309331E+03  0.91542787095E+02 0.  0.
         23    2    4    4    0    0  0.48358207348E+03 -0.58238486889E+03 -0.92363009829E+03  0.11976820423E+04  0.91246691697E+02 0.  0.
          2    1    3    3  502    0 -0.17948553787E+03  0.18418462687E+03 -0.19592673210E+01  0.25718256902E+03  0.00000000000E+00 0. -1.
         -2    1    3    3    0  502 -0.32267449502E+03  0.28380901841E+03  0.11044991167E+03  0.44369535906E+03  0.00000000000E+00 0.  1.
         11    1    5    5    0    0 -0.35938304781E+02  0.54980471307E+02 -0.78874578803E+02  0.10264313497E+03  0.00000000000E+00 0.  1.
        -11    1    5    5    0    0  0.54516264192E+02  0.59410752305E+02 -0.65461671196E+02  0.10385995834E+03  0.00000000000E+00 0. -1.
          3    1    6    6  503    0  0.32398524152E+03 -0.41566408006E+03 -0.57926569345E+03  0.78312949617E+03  0.00000000000E+00 0. -1.
         -3    1    6    6    0  503  0.15959683196E+03 -0.16672078883E+03 -0.34436440484E+03  0.41455254616E+03  0.00000000000E+00 0.  1.
<mgrwt>
<rscale>  0 0.79551509E+03</rscale>
<asrwt>0</asrwt>
<pdfrwt beam="1">  1        1 0.23573375E+00 0.79551509E+03</pdfrwt>
<pdfrwt beam="2">  1       -1 0.88122107E-01 0.79551509E+03</pdfrwt>
<totfact> 0.81208477E+00</totfact>
</mgrwt>
</event>
<event>
12    1  0.1418317E-007  0.4687532E+03  0.7818608E-02  0.1022273E+00
         -2   -1    0    0    0  501 -0.00000000000E+00  0.00000000000E+00  0.15842186007E+04  0.15842186007E+04  0.00000000000E+00 0.  1.
          2   -1    0    0  501    0  0.00000000000E+00 -0.00000000000E+00 -0.14750828792E+03  0.14750828792E+03  0.00000000000E+00 0. -1.
         23    2    1    2    0    0  0.59601299666E+02  0.27926312881E+03  0.50798210731E+03  0.58994196610E+03  0.91899357934E+02 0.  0.
    5000000    2    1    2    0    0 -0.59601299666E+02 -0.27926312881E+03  0.92872820551E+03  0.11417849226E+04  0.59966367211E+03 0.  0.
         23    2    4    4    0    0  0.24920039661E+03 -0.10836991141E+03  0.52952019524E+03  0.60206927791E+03  0.90834480610E+02 0.  0.
         23    2    4    4    0    0 -0.30880169628E+03 -0.17089321740E+03  0.39920801026E+03  0.53971564465E+03  0.85807705023E+02 0.  0.
          2    1    3    3  502    0  0.44285081081E+02  0.10367587239E+03  0.12488412379E+03  0.16824357134E+03  0.00000000000E+00 0. -1.
         -2    1    3    3    0  502  0.15316218585E+02  0.17558725641E+03  0.38309798352E+03  0.42169839476E+03  0.00000000000E+00 0.  1.
         11    1    5    5    0    0  0.66304280888E+02 -0.73719141388E+02  0.21119352713E+03  0.23330982699E+03  0.00000000000E+00 0.  1.
        -11    1    5    5    0    0  0.18289611572E+03 -0.34650770017E+02  0.31832666811E+03  0.36875945092E+03  0.00000000000E+00 0. -1.
          1    1    6    6  503    0 -0.12162309471E+03 -0.21017034351E+02  0.13490149332E+03  0.18284503220E+03  0.00000000000E+00 0. -1.
         -1    1    6    6    0  503 -0.18717860156E+03 -0.14987618305E+03  0.26430651695E+03  0.35687061245E+03  0.00000000000E+00 0.  1.
<mgrwt>
<rscale>  0 0.46875316E+03</rscale>
<asrwt>0</asrwt>
<pdfrwt beam="1">  1        2 0.22693584E-01 0.46875316E+03</pdfrwt>
<pdfrwt beam="2">  1       -2 0.24372593E+00 0.46875316E+03</pdfrwt>
<totfact> 0.18189482E+01</totfact>
</mgrwt>
</event>
<event>
12    1  0.1418317E-007  0.1208588E+04  0.7818608E-02  0.9105372E-01
          2   -1    0    0  501    0  0.00000000000E+00  0.00000000000E+00  0.61729850489E+03  0.61729850489E+03  0.00000000000E+00 0. -1.
         -2   -1    0    0    0  501 -0.00000000000E+00 -0.00000000000E+00 -0.24740758927E+04  0.24740758927E+04  0.00000000000E+00 0.  1.
         23    2    1    2    0    0  0.55901039774E+03 -0.10152359356E+04 -0.78836617320E+03  0.14046787640E+04  0.91676481321E+02 0.  0.
    5000000    2    1    2    0    0 -0.55901039774E+03  0.10152359356E+04 -0.10684112146E+04  0.16866956336E+04  0.60020247171E+03 0.  0.
         23    2    4    4    0    0 -0.64846753362E+03  0.86466233470E+03 -0.10055082261E+04  0.14794577253E+04  0.97965672673E+02 0.  0.
         23    2    4    4    0    0  0.89457135881E+02  0.15057360093E+03 -0.62902988495E+02  0.20723790825E+03  0.91190877830E+02 0.  0.
          1    1    3    3  502    0  0.23986879787E+03 -0.37970780142E+03 -0.26251553331E+03  0.52022058771E+03  0.00000000000E+00 0. -1.
         -1    1    3    3    0  502  0.31914159987E+03 -0.63552813421E+03 -0.52585063989E+03  0.88445817629E+03  0.00000000000E+00 0.  1.
         11    1    5    5    0    0 -0.25902814241E+03  0.31034879523E+03 -0.31868588798E+03  0.51475494020E+03  0.00000000000E+00 0. -1.
        -11    1    5    5    0    0 -0.38943939121E+03  0.55431353947E+03 -0.68682233811E+03  0.96470278511E+03  0.00000000000E+00 0.  1.
          2    1    6    6  503    0  0.44230309989E+02  0.69806610554E+02  0.17679327619E+02  0.84509418551E+02  0.00000000000E+00 0. -1.
         -2    1    6    6    0  503  0.45226825892E+02  0.80766990372E+02 -0.80582316115E+02  0.12272848970E+03  0.00000000000E+00 0.  1.
<mgrwt>
<rscale>  0 0.12085885E+04</rscale>
<asrwt>0</asrwt>
<pdfrwt beam="1">  1        2 0.94969001E-01 0.12085885E+04</pdfrwt>
<pdfrwt beam="2">  1       -2 0.38062706E+00 0.12085885E+04</pdfrwt>
<totfact> 0.47027018E-01</totfact>
</mgrwt>
</event>
<event>
12    1  0.1418317E-007  0.1344708E+04  0.7818608E-02  0.8994844E-01
         -2   -1    0    0    0  501 -0.00000000000E+00  0.00000000000E+00  0.93412320388E+03  0.93412320388E+03  0.00000000000E+00 0.  1.
          2   -1    0    0  501    0  0.00000000000E+00 -0.00000000000E+00 -0.22204562267E+04  0.22204562267E+04  0.00000000000E+00 0. -1.
         23    2    1    2    0    0  0.56968243024E+03 -0.11978560363E+04 -0.21329878283E+03  0.13460412028E+04  0.83267004150E+02 0.  0.
    5000000    2    1    2    0    0 -0.56968243024E+03  0.11978560363E+04 -0.10730342400E+04  0.18085382278E+04  0.60000907164E+03 0.  0.
         23    2    4    4    0    0 -0.39998151976E+03  0.10821861253E+04 -0.64460604280E+03  0.13247381978E+04  0.91117046353E+02 0.  0.
         23    2    4    4    0    0 -0.16970091048E+03  0.11566991095E+03 -0.42842819720E+03  0.48380003001E+03  0.91289767017E+02 0.  0.
          2    1    3    3  502    0  0.17414238790E+03 -0.31737241089E+03 -0.27310207738E+02  0.36303810530E+03  0.00000000000E+00 0. -1.
         -2    1    3    3    0  502  0.39554004234E+03 -0.88048362540E+03 -0.18598857509E+03  0.98300309753E+03  0.00000000000E+00 0.  1.
         13    1    5    5    0    0 -0.45324611234E+02  0.21478982308E+03 -0.14078850778E+03  0.26078802197E+03  0.00000000000E+00 0. -1.
        -13    1    5    5    0    0 -0.35465690853E+03  0.86739630226E+03 -0.50381753502E+03  0.10639501758E+04  0.00000000000E+00 0.  1.
          3    1    6    6  503    0 -0.10399027284E+03  0.65998648858E+02 -0.34600328069E+03  0.36727111069E+03  0.00000000000E+00 0. -1.
         -3    1    6    6    0  503 -0.65710637634E+02  0.49671262091E+02 -0.82424916510E+02  0.11652891932E+03  0.00000000000E+00 0.  1.
<mgrwt>
<rscale>  0 0.13447078E+04</rscale>
<asrwt>0</asrwt>
<pdfrwt beam="1">  1        2 0.34160865E+00 0.13447078E+04</pdfrwt>
<pdfrwt beam="2">  1       -2 0.14371126E+00 0.13447078E+04</pdfrwt>
<totfact> 0.16191861E+00</totfact>
</mgrwt>
</event>
<event>
12    1  0.1418317E-007  0.4754714E+03  0.7818608E-02  0.1020387E+00
         -2   -1    0    0    0  501 -0.00000000000E+00  0.00000000000E+00  0.99928715137E+03  0.99928715137E+03  0.00000000000E+00 0.  1.
          2   -1    0    0  501    0  0.00000000000E+00 -0.00000000000E+00 -0.55974934625E+03  0.55974934625E+03  0.00000000000E+00 0. -1.
         23    2    1    2    0    0  0.24730436412E+03 -0.25421982341E+03  0.72066874629E+03  0.80748910273E+03  0.82994228884E+02 0.  0.
    5000000    2    1    2    0    0 -0.24730436412E+03  0.25421982341E+03 -0.28113094116E+03  0.75154739490E+03  0.60000142797E+03 0.  0.
         23    2    4    4    0    0  0.97353741079E+02 -0.31929570355E+02 -0.26215391029E+03  0.29391870978E+03  0.84653924373E+02 0.  0.
         23    2    4    4    0    0 -0.34465810520E+03  0.28614939376E+03 -0.18977030870E+02  0.45762868512E+03  0.91614413235E+02 0.  0.
          2    1    3    3  502    0  0.17162559122E+03 -0.22215373803E+03  0.58489179483E+03  0.64877271717E+03  0.00000000000E+00 0.  1.
         -2    1    3    3    0  502  0.75678772897E+02 -0.32066085371E+02  0.13577695146E+03  0.15871638556E+03  0.00000000000E+00 0. -1.
         13    1    5    5    0    0  0.74748534202E+02 -0.60717216212E+02 -0.19040480083E+03  0.21337270653E+03  0.00000000000E+00 0. -1.
        -13    1    5    5    0    0  0.22605206877E+02  0.28787645857E+02 -0.71749109461E+02  0.80546003255E+02  0.00000000000E+00 0.  1.
          3    1    6    6  503    0 -0.20234282147E+03  0.11576080448E+03 -0.31691649303E+02  0.23526058295E+03  0.00000000000E+00 0. -1.
         -3    1    6    6    0  503 -0.14231528373E+03  0.17038858928E+03  0.12714618433E+02  0.22236810217E+03  0.00000000000E+00 0.  1.
<mgrwt>
<rscale>  0 0.47547144E+03</rscale>
<asrwt>0</asrwt>
<pdfrwt beam="1">  1        2 0.86115284E-01 0.47547144E+03</pdfrwt>
<pdfrwt beam="2">  1       -2 0.15373649E+00 0.47547144E+03</pdfrwt>
<totfact> 0.15853662E+01</totfact>
</mgrwt>
</event>
<event>
12    1  0.1418317E-007  0.1773952E+04  0.7818608E-02  0.8720275E-01
         -2   -1    0    0    0  501 -0.00000000000E+00  0.00000000000E+00  0.17056877770E+04  0.17056877770E+04  0.00000000000E+00 0.  1.
          2   -1    0    0  501    0  0.00000000000E+00 -0.00000000000E+00 -0.18566056451E+04  0.18566056451E+04  0.00000000000E+00 0. -1.
         23    2    1    2    0    0 -0.17275414523E+04 -0.33392267487E+01 -0.42895120642E+02  0.17303181289E+04  0.88035310198E+02 0.  0.
    5000000    2    1    2    0    0  0.17275414523E+04  0.33392267487E+01 -0.10802274739E+03  0.18319752932E+04  0.60004494920E+03 0.  0.
         23    2    4    4    0    0  0.46010576328E+03  0.24393835518E+03  0.47385468474E+02  0.52928310220E+03  0.81804554401E+02 0.  0.
         23    2    4    4    0    0  0.12674356890E+04 -0.24059912843E+03 -0.15540821586E+03  0.13026921910E+04  0.92596244561E+02 0.  0.
          3    1    3    3  502    0 -0.78017153820E+03 -0.24367787953E+01  0.24437975089E+02  0.78055799370E+03  0.00000000000E+00 0. -1.
         -3    1    3    3    0  502 -0.94736991412E+03 -0.90244795345E+00 -0.67333095731E+02  0.94976013518E+03  0.00000000000E+00 0.  1.
         11    1    5    5    0    0  0.21544168488E+03  0.16049977326E+03  0.24976206281E+02  0.26981309769E+03  0.00000000000E+00 0. -1.
        -11    1    5    5    0    0  0.24466407840E+03  0.83438581914E+02  0.22409262193E+02  0.25947000451E+03  0.00000000000E+00 0.  1.
          3    1    6    6  503    0  0.57463072050E+03 -0.15472196511E+03 -0.60511388448E+02  0.59816467596E+03  0.00000000000E+00 0. -1.
         -3    1    6    6    0  503  0.69280496854E+03 -0.85877163316E+02 -0.94896827413E+02  0.70452751505E+03  0.00000000000E+00 0.  1.
<mgrwt>
<rscale>  0 0.17739520E+04</rscale>
<asrwt>0</asrwt>
<pdfrwt beam="1">  1        2 0.28563164E+00 0.17739520E+04</pdfrwt>
<pdfrwt beam="2">  1       -2 0.26241351E+00 0.17739520E+04</pdfrwt>
<totfact> 0.39511230E-01</totfact>
</mgrwt>
</event>
<event>
12    1  0.1418317E-007  0.4406778E+03  0.7818608E-02  0.1030539E+00
          2   -1    0    0  501    0  0.00000000000E+00  0.00000000000E+00  0.17741154771E+04  0.17741154771E+04  0.00000000000E+00 0. -1.
         -2   -1    0    0    0  501 -0.00000000000E+00 -0.00000000000E+00 -0.16661800484E+03  0.16661800484E+03  0.00000000000E+00 0.  1.
         23    2    1    2    0    0 -0.37553410206E+02 -0.23702521586E+03  0.59610485188E+02  0.26340572635E+03  0.90763181721E+02 0.  0.
    5000000    2    1    2    0    0  0.37553410206E+02  0.23702521586E+03  0.15478869871E+04  0.16773277556E+04  0.59990254490E+03 0.  0.
         23    2    4    4    0    0  0.14577211498E+03 -0.15344022046E+03  0.56656655886E+03  0.61173273253E+03  0.91792481553E+02 0.  0.
         23    2    4    4    0    0 -0.10821870478E+03  0.39046543632E+03  0.98132042826E+03  0.10655950231E+04  0.91260206728E+02 0.  0.
          3    1    3    3  502    0  0.14467162900E+02 -0.14816024015E+03  0.59819117017E+02  0.16043404353E+03  0.00000000000E+00 0. -1.
         -3    1    3    3    0  502 -0.52020573106E+02 -0.88864975710E+02 -0.20863182871E+00  0.10297168281E+03  0.00000000000E+00 0.  1.
         11    1    5    5    0    0  0.60668430954E+02 -0.27843154407E+02  0.93136150584E+02  0.11458726940E+03  0.00000000000E+00 0.  1.
        -11    1    5    5    0    0  0.85103684030E+02 -0.12559706605E+03  0.47343040827E+03  0.49714546313E+03  0.00000000000E+00 0. -1.
          2    1    6    6  503    0 -0.54846622970E+01  0.14305511723E+03  0.41761763518E+03  0.44147405054E+03  0.00000000000E+00 0. -1.
         -2    1    6    6    0  503 -0.10273404248E+03  0.24741031909E+03  0.56370279308E+03  0.62412097257E+03  0.00000000000E+00 0.  1.
<mgrwt>
<rscale>  0 0.44067778E+03</rscale>
<asrwt>0</asrwt>
<pdfrwt beam="1">  1        2 0.27294083E+00 0.44067778E+03</pdfrwt>
<pdfrwt beam="2">  1       -2 0.25633540E-01 0.44067778E+03</pdfrwt>
<totfact> 0.12949621E+02</totfact>
</mgrwt>
</event>
<event>
12    1  0.1418317E-007  0.1293005E+04  0.7818608E-02  0.9035131E-01
         -1   -1    0    0    0  501 -0.00000000000E+00  0.00000000000E+00  0.10037551850E+04  0.10037551850E+04  0.00000000000E+00 0.  1.
          1   -1    0    0  501    0  0.00000000000E+00 -0.00000000000E+00 -0.20597439874E+04  0.20597439874E+04  0.00000000000E+00 0. -1.
         23    2    1    2    0    0 -0.12816371626E+04 -0.99202791515E+02  0.10507323530E+02  0.12887228841E+04  0.90891461716E+02 0.  0.
    5000000    2    1    2    0    0  0.12816371626E+04  0.99202791515E+02 -0.10664961259E+04  0.17747762883E+04  0.59998489714E+03 0.  0.
         23    2    4    4    0    0  0.67048319181E+03  0.11547848442E+03 -0.20753748259E+03  0.71701991667E+03  0.90348012467E+02 0.  0.
         23    2    4    4    0    0  0.61115397077E+03 -0.16275692904E+02 -0.85895864331E+03  0.10577563717E+04  0.85232134507E+02 0.  0.
          1    1    3    3  502    0 -0.22734540708E+03 -0.47960205332E+02  0.19306911845E+02  0.23314989226E+03  0.00000000000E+00 0. -1.
         -1    1    3    3    0  502 -0.10542917555E+04 -0.51242586183E+02 -0.87995883150E+01  0.10555729918E+04  0.00000000000E+00 0.  1.
         11    1    5    5    0    0  0.48838438762E+02  0.27545015803E+00  0.70943035363E+01  0.49351779260E+02  0.00000000000E+00 0. -1.
        -11    1    5    5    0    0  0.62164475305E+03  0.11520303426E+03 -0.21463178612E+03  0.66766813741E+03  0.00000000000E+00 0.  1.
          1    1    6    6  503    0  0.48407752649E+03 -0.46889439268E+02 -0.68857119491E+03  0.84300650153E+03  0.00000000000E+00 0. -1.
         -1    1    6    6    0  503  0.12707644428E+03  0.30613746364E+02 -0.17038744840E+03  0.21474987015E+03  0.00000000000E+00 0.  1.
<mgrwt>
<rscale>  0 0.12930046E+04</rscale>
<asrwt>0</asrwt>
<pdfrwt beam="1">  1        1 0.31688369E+00 0.12930046E+04</pdfrwt>
<pdfrwt beam="2">  1       -1 0.15442388E+00 0.12930046E+04</pdfrwt>
<totfact> 0.85013081E-01</totfact>
</mgrwt>
</event>
<event>
12    1  0.1418317E-007  0.1475976E+04  0.7818608E-02  0.8900588E-01
          2   -1    0    0  501    0  0.00000000000E+00  0.00000000000E+00  0.37521368337E+04  0.37521368337E+04  0.00000000000E+00 0. -1.
         -2   -1    0    0    0  501 -0.00000000000E+00 -0.00000000000E+00 -0.63457809382E+03  0.63457809382E+03  0.00000000000E+00 0.  1.
         23    2    1    2    0    0  0.14683998690E+04 -0.97470332387E+02  0.17648729535E+04  0.22997405719E+04  0.91277133425E+02 0.  0.
    5000000    2    1    2    0    0 -0.14683998690E+04  0.97470332387E+02  0.13526857865E+04  0.20869743557E+04  0.60000373617E+03 0.  0.
         23    2    4    4    0    0 -0.89366414068E+03  0.36459375778E+02  0.43516074149E+03  0.99865408374E+03  0.89332108493E+02 0.  0.
         23    2    4    4    0    0 -0.57473572831E+03  0.61010956608E+02  0.91752504497E+03  0.10883202719E+04  0.92440856516E+02 0.  0.
          1    1    3    3  502    0  0.13458847115E+04 -0.78083980931E+02  0.15783439598E+04  0.20757341882E+04  0.00000000000E+00 0. -1.
         -1    1    3    3    0  502  0.12251515751E+03 -0.19386351456E+02  0.18652899365E+03  0.22400638364E+03  0.00000000000E+00 0.  1.
         13    1    5    5    0    0 -0.12683460332E+03 -0.25683583834E+02  0.68062485660E+02  0.14621615859E+03  0.00000000000E+00 0. -1.
        -13    1    5    5    0    0 -0.76682953736E+03  0.62142959612E+02  0.36709825583E+03  0.85243792515E+03  0.00000000000E+00 0.  1.
          4    1    6    6  503    0 -0.97626408224E+02 -0.11951836939E+02  0.11010589372E+03  0.14763830743E+03  0.00000000000E+00 0. -1.
         -4    1    6    6    0  503 -0.47710932009E+03  0.72962793547E+02  0.80741915125E+03  0.94068196451E+03  0.00000000000E+00 0.  1.
<mgrwt>
<rscale>  0 0.14759755E+04</rscale>
<asrwt>0</asrwt>
<pdfrwt beam="1">  1        2 0.57725181E+00 0.14759755E+04</pdfrwt>
<pdfrwt beam="2">  1       -2 0.97627401E-01 0.14759755E+04</pdfrwt>
<totfact> 0.45220884E-01</totfact>
</mgrwt>
</event>
<event>
12    1  0.1418317E-007  0.6104518E+03  0.7818608E-02  0.9883956E-01
         -2   -1    0    0    0  501 -0.00000000000E+00  0.00000000000E+00  0.75106157357E+03  0.75106157357E+03  0.00000000000E+00 0.  1.
          2   -1    0    0  501    0  0.00000000000E+00 -0.00000000000E+00 -0.83253465837E+03  0.83253465837E+03  0.00000000000E+00 0. -1.
         23    2    1    2    0    0 -0.42612106917E+03 -0.37255519575E+03 -0.40029156061E+03  0.69925731960E+03  0.91383401383E+02 0.  0.
    5000000    2    1    2    0    0  0.42612106917E+03  0.37255519575E+03  0.31881847582E+03  0.88433891234E+03  0.60002795925E+03 0.  0.
         23    2    4    4    0    0  0.18046378047E+03 -0.22947609306E+02  0.35587862850E+03  0.40894016841E+03  0.86537242173E+02 0.  0.
         23    2    4    4    0    0  0.24565728870E+03  0.39550280506E+03 -0.37060152679E+02  0.47539874393E+03  0.88659678086E+02 0.  0.
          4    1    3    3  502    0 -0.15375890071E+02 -0.20930880117E+02 -0.46001183435E+02  0.52826400742E+02  0.00000000000E+00 0. -1.
         -4    1    3    3    0  502 -0.41074517910E+03 -0.35162431563E+03 -0.35429037718E+03  0.64643091886E+03  0.00000000000E+00 0.  1.
         11    1    5    5    0    0  0.73443061501E+02 -0.25787145837E+02  0.23456300409E+03  0.24714097811E+03  0.00000000000E+00 0. -1.
        -11    1    5    5    0    0  0.10702071897E+03  0.28395365307E+01  0.12131562441E+03  0.16179919030E+03  0.00000000000E+00 0.  1.
          3    1    6    6  503    0  0.86851332463E+02  0.19575225437E+03 -0.49897633968E+02  0.21989059307E+03  0.00000000000E+00 0. -1.
         -3    1    6    6    0  503  0.15880595624E+03  0.19975055068E+03  0.12837481289E+02  0.25550815087E+03  0.00000000000E+00 0.  1.
<mgrwt>
<rscale>  0 0.61045179E+03</rscale>
<asrwt>0</asrwt>
<pdfrwt beam="1">  1        2 0.12808225E+00 0.61045179E+03</pdfrwt>
<pdfrwt beam="2">  1       -2 0.11554794E+00 0.61045179E+03</pdfrwt>
<totfact> 0.19610748E+01</totfact>
</mgrwt>
</event>
<event>
12    1  0.1418317E-007  0.5611950E+03  0.7818608E-02  0.9989354E-01
         -2   -1    0    0    0  501 -0.00000000000E+00  0.00000000000E+00  0.48667718080E+03  0.48667718080E+03  0.00000000000E+00 0.  1.
          2   -1    0    0  501    0  0.00000000000E+00 -0.00000000000E+00 -0.78907740369E+03  0.78907740369E+03  0.00000000000E+00 0. -1.
         23    2    1    2    0    0 -0.16379233015E+03 -0.38680056937E+03  0.98288322445E+02  0.44095342076E+03  0.91305624533E+02 0.  0.
    5000000    2    1    2    0    0  0.16379233015E+03  0.38680056937E+03 -0.40068854534E+03  0.83480116373E+03  0.59991588137E+03 0.  0.
         23    2    4    4    0    0 -0.89579396020E+02  0.42720856483E+03 -0.33056290077E+03  0.55449585172E+03  0.87533948566E+02 0.  0.
         23    2    4    4    0    0  0.25337172617E+03 -0.40407995464E+02 -0.70125644570E+02  0.28030531201E+03  0.88450122643E+02 0.  0.
          3    1    3    3  502    0 -0.72974492445E+02 -0.94721311172E+02  0.56468466536E+02  0.13223498422E+03  0.00000000000E+00 0. -1.
         -3    1    3    3    0  502 -0.90817837707E+02 -0.29207925819E+03  0.41819855909E+02  0.30871843654E+03  0.00000000000E+00 0.  1.
         13    1    5    5    0    0 -0.32158001558E+02  0.28610396348E+03 -0.17580808061E+03  0.33733973408E+03  0.00000000000E+00 0. -1.
        -13    1    5    5    0    0 -0.57421394462E+02  0.14110460135E+03 -0.15475482016E+03  0.21715611764E+03  0.00000000000E+00 0.  1.
          4    1    6    6  503    0  0.29398019454E+02 -0.73085313539E+01 -0.42541517778E+02  0.52224887872E+02  0.00000000000E+00 0.  1.
         -4    1    6    6    0  503  0.22397370672E+03 -0.33099464110E+02 -0.27584126792E+02  0.22808042414E+03  0.00000000000E+00 0. -1.
<mgrwt>
<rscale>  0 0.56119504E+03</rscale>
<asrwt>0</asrwt>
<pdfrwt beam="1">  1        2 0.12139652E+00 0.56119504E+03</pdfrwt>
<pdfrwt beam="2">  1       -2 0.74873412E-01 0.56119504E+03</pdfrwt>
<totfact> 0.57932103E+01</totfact>
</mgrwt>
</event>
<event>
12    1  0.1418317E-007  0.6614599E+03  0.7818608E-02  0.9785510E-01
          2   -1    0    0  501    0  0.00000000000E+00  0.00000000000E+00  0.37151438115E+04  0.37151438115E+04  0.00000000000E+00 0. -1.
         -2   -1    0    0    0  501 -0.00000000000E+00 -0.00000000000E+00 -0.15870928396E+03  0.15870928396E+03  0.00000000000E+00 0.  1.
         23    2    1    2    0    0 -0.10397601479E+03  0.51677552752E+03  0.24596625084E+04  0.25170844399E+04  0.88918306311E+02 0.  0.
    5000000    2    1    2    0    0  0.10397601479E+03 -0.51677552752E+03  0.10967720192E+04  0.13567686555E+04  0.60003696974E+03 0.  0.
         23    2    4    4    0    0  0.34401206157E+03 -0.30862219024E+03  0.65633838624E+03  0.80786338289E+03  0.90946211293E+02 0.  0.
         23    2    4    4    0    0 -0.24003604677E+03 -0.20815333728E+03  0.44043363293E+03  0.54890527263E+03  0.79812892007E+02 0.  0.
          3    1    3    3  502    0 -0.68353207120E+02  0.13761225698E+03  0.72848163119E+03  0.74450975895E+03  0.00000000000E+00 0. -1.
         -3    1    3    3    0  502 -0.35622807673E+02  0.37916327054E+03  0.17311808772E+04  0.17725746810E+04  0.00000000000E+00 0.  1.
         13    1    5    5    0    0  0.30817724460E+03 -0.23859989951E+03  0.51177819644E+03  0.64328846444E+03  0.00000000000E+00 0. -1.
        -13    1    5    5    0    0  0.35834816968E+02 -0.70022290727E+02  0.14456018981E+03  0.16457491845E+03  0.00000000000E+00 0.  1.
          1    1    6    6  503    0 -0.42938103840E+02 -0.19372087124E+02  0.29443822019E+02  0.55550852163E+02  0.00000000000E+00 0. -1.
         -1    1    6    6    0  503 -0.19709794293E+03 -0.18878125016E+03  0.41098981091E+03  0.49335442046E+03  0.00000000000E+00 0.  1.
<mgrwt>
<rscale>  0 0.66145988E+03</rscale>
<asrwt>0</asrwt>
<pdfrwt beam="1">  1        2 0.57156052E+00 0.66145988E+03</pdfrwt>
<pdfrwt beam="2">  1       -2 0.24416816E-01 0.66145988E+03</pdfrwt>
<totfact> 0.94396241E+00</totfact>
</mgrwt>
</event>
<event>
12    1  0.1418317E-007  0.5426117E+03  0.7818608E-02  0.1003219E+00
          1   -1    0    0  501    0  0.00000000000E+00  0.00000000000E+00  0.85989533396E+03  0.85989533396E+03  0.00000000000E+00 0. -1.
         -1   -1    0    0    0  501 -0.00000000000E+00 -0.00000000000E+00 -0.70704673406E+03  0.70704673406E+03  0.00000000000E+00 0.  1.
         23    2    1    2    0    0 -0.45455983107E+03  0.19688729764E+03  0.50479650018E+03  0.71295422971E+03  0.89972101573E+02 0.  0.
    5000000    2    1    2    0    0  0.45455983107E+03 -0.19688729764E+03 -0.35194790029E+03  0.85398783832E+03  0.60003221203E+03 0.  0.
         23    2    4    4    0    0  0.41428662029E+03 -0.73058926200E+02 -0.48542001188E+03  0.64859389282E+03  0.89835624481E+02 0.  0.
         23    2    4    4    0    0  0.40273210781E+02 -0.12382837144E+03  0.13347211159E+03  0.20539394549E+03  0.86118936324E+02 0.  0.
          3    1    3    3  502    0 -0.39884287056E+03  0.14060587600E+03  0.44347015538E+03  0.61278987139E+03  0.00000000000E+00 0. -1.
         -3    1    3    3    0  502 -0.55716960512E+02  0.56281421639E+02  0.61326344807E+02  0.10016435832E+03  0.00000000000E+00 0.  1.
         11    1    5    5    0    0  0.25200388686E+03 -0.67653727009E+01 -0.24961632587E+03  0.35476758504E+03  0.00000000000E+00 0.  1.
        -11    1    5    5    0    0  0.16228273343E+03 -0.66293553499E+02 -0.23580368601E+03  0.29382630778E+03  0.00000000000E+00 0. -1.
          3    1    6    6  503    0 -0.17440033387E+01 -0.11209068032E+03  0.10241262640E+03  0.15184106233E+03  0.00000000000E+00 0. -1.
         -3    1    6    6    0  503  0.42017214120E+02 -0.11737691119E+02  0.31059485182E+02  0.53552883162E+02  0.00000000000E+00 0.  1.
<mgrwt>
<rscale>  0 0.54261167E+03</rscale>
<asrwt>0</asrwt>
<pdfrwt beam="1">  1        1 0.13229159E+00 0.54261167E+03</pdfrwt>
<pdfrwt beam="2">  1       -1 0.10877642E+00 0.54261167E+03</pdfrwt>
<totfact> 0.16327872E+01</totfact>
</mgrwt>
</event>
<event>
12    1  0.1418317E-007  0.1612623E+04  0.7818608E-02  0.8812831E-01
          1   -1    0    0  501    0  0.00000000000E+00  0.00000000000E+00  0.17340601523E+04  0.17340601523E+04  0.00000000000E+00 0.  1.
         -1   -1    0    0    0  501 -0.00000000000E+00 -0.00000000000E+00 -0.16387506947E+04  0.16387506947E+04  0.00000000000E+00 0. -1.
         23    2    1    2    0    0  0.14910076384E+04 -0.56408432748E+03  0.39119907337E+03  0.16439714382E+04  0.91161770359E+02 0.  0.
    5000000    2    1    2    0    0 -0.14910076384E+04  0.56408432748E+03 -0.29588961582E+03  0.17288394088E+04  0.60003344104E+03 0.  0.
         23    2    4    4    0    0 -0.61766530489E+03  0.40219954863E+03 -0.37560003459E+03  0.83227515414E+03  0.91277820059E+02 0.  0.
         23    2    4    4    0    0 -0.87334233354E+03  0.16188477885E+03  0.79710418777E+02  0.89656425467E+03  0.92413195579E+02 0.  0.
          3    1    3    3  502    0  0.86703191521E+02 -0.26994138527E+02  0.16718880510E+01  0.90823577029E+02  0.00000000000E+00 0. -1.
         -3    1    3    3    0  502  0.14043044469E+04 -0.53709018895E+03  0.38952718532E+03  0.15531478612E+04  0.00000000000E+00 0.  1.
         13    1    5    5    0    0 -0.15519402963E+03  0.12413948411E+03 -0.14201545587E+03  0.24426253919E+03  0.00000000000E+00 0.  1.
        -13    1    5    5    0    0 -0.46247127526E+03  0.27806006452E+03 -0.23358457872E+03  0.58801261495E+03  0.00000000000E+00 0. -1.
          2    1    6    6  503    0 -0.18869519845E+03  0.72350495274E+02  0.61980212616E+01  0.20218528025E+03  0.00000000000E+00 0. -1.
         -2    1    6    6    0  503 -0.68464713509E+03  0.89534283574E+02  0.73512397515E+02  0.69437897442E+03  0.00000000000E+00 0.  1.
<mgrwt>
<rscale>  0 0.16126228E+04</rscale>
<asrwt>0</asrwt>
<pdfrwt beam="1">  1        1 0.26677849E+00 0.16126228E+04</pdfrwt>
<pdfrwt beam="2">  1       -1 0.25211549E+00 0.16126228E+04</pdfrwt>
<totfact> 0.28456081E-01</totfact>
</mgrwt>
</event>
<event>
12    1  0.1418317E-007  0.6943465E+03  0.7818608E-02  0.9726950E-01
         -1   -1    0    0    0  501 -0.00000000000E+00  0.00000000000E+00  0.71747211736E+03  0.71747211736E+03  0.00000000000E+00 0.  1.
          1   -1    0    0  501    0  0.00000000000E+00 -0.00000000000E+00 -0.10212390602E+04  0.10212390602E+04  0.00000000000E+00 0. -1.
         23    2    1    2    0    0  0.41689104358E+03  0.41582506935E+03  0.33434830428E+03  0.68324330512E+03  0.91235929875E+02 0.  0.
    5000000    2    1    2    0    0 -0.41689104358E+03 -0.41582506935E+03 -0.63811524717E+03  0.10554678725E+04  0.60009393488E+03 0.  0.
         23    2    4    4    0    0 -0.26361665541E+03  0.65871131179E+02 -0.81646249191E+02  0.29837247408E+03  0.92343252860E+02 0.  0.
         23    2    4    4    0    0 -0.15327438817E+03 -0.48169620053E+03 -0.55646899798E+03  0.75709539841E+03  0.89506585877E+02 0.  0.
          3    1    3    3  502    0  0.29356057548E+03  0.34404688716E+03  0.23803180822E+03  0.51108239430E+03  0.00000000000E+00 0. -1.
         -3    1    3    3    0  502  0.12333046810E+03  0.71778182184E+02  0.96316496062E+02  0.17216091082E+03  0.00000000000E+00 0.  1.
         11    1    5    5    0    0 -0.72210750756E+02 -0.21279888272E+02 -0.34650899927E+02  0.82872860668E+02  0.00000000000E+00 0. -1.
        -11    1    5    5    0    0 -0.19140590466E+03  0.87151019451E+02 -0.46995349265E+02  0.21549961341E+03  0.00000000000E+00 0.  1.
          1    1    6    6  503    0 -0.74760823998E+02 -0.31677662920E+03 -0.30311996508E+03  0.44476772235E+03  0.00000000000E+00 0. -1.
         -1    1    6    6    0  503 -0.78513564167E+02 -0.16491957133E+03 -0.25334903290E+03  0.31232767606E+03  0.00000000000E+00 0.  1.
<mgrwt>
<rscale>  0 0.69434645E+03</rscale>
<asrwt>0</asrwt>
<pdfrwt beam="1">  1        1 0.15711370E+00 0.69434645E+03</pdfrwt>
<pdfrwt beam="2">  1       -1 0.11038033E+00 0.69434645E+03</pdfrwt>
<totfact> 0.11469210E+01</totfact>
</mgrwt>
</event>
<event>
12    1  0.1418317E-007  0.4749252E+03  0.7818608E-02  0.1020539E+00
          1   -1    0    0  501    0  0.00000000000E+00  0.00000000000E+00  0.13832212478E+04  0.13832212478E+04  0.00000000000E+00 0. -1.
         -1   -1    0    0    0  501 -0.00000000000E+00 -0.00000000000E+00 -0.17464924212E+03  0.17464924212E+03  0.00000000000E+00 0.  1.
         23    2    1    2    0    0 -0.87358319277E+02 -0.28390808891E+03  0.44071975869E+03  0.53914242778E+03  0.90583513055E+02 0.  0.
    5000000    2    1    2    0    0  0.87358319277E+02  0.28390808891E+03  0.76785224695E+03  0.10187280621E+04  0.59997876001E+03 0.  0.
         23    2    4    4    0    0 -0.22817253798E+03  0.16370483616E+02  0.27516529845E+03  0.36899805360E+03  0.90071761784E+02 0.  0.
         23    2    4    4    0    0  0.31553085725E+03  0.26753760529E+03  0.49268694850E+03  0.64973000849E+03  0.90953628787E+02 0.  0.
          4    1    3    3  502    0 -0.48944606782E+01 -0.10603694630E+03  0.21768025741E+03  0.24218274958E+03  0.00000000000E+00 0. -1.
         -4    1    3    3    0  502 -0.82463858599E+02 -0.17787114260E+03  0.22303950128E+03  0.29695967820E+03  0.00000000000E+00 0.  1.
         13    1    5    5    0    0 -0.13394318684E+03  0.33663692291E+02  0.21606112220E+03  0.25643016595E+03  0.00000000000E+00 0. -1.
        -13    1    5    5    0    0 -0.94229351133E+02 -0.17293208674E+02  0.59104176247E+02  0.11256788765E+03  0.00000000000E+00 0.  1.
          1    1    6    6  503    0  0.40211152446E+02  0.31448018295E+02  0.11644452487E+03  0.12714260501E+03  0.00000000000E+00 0. -1.
         -1    1    6    6    0  503  0.27531970481E+03  0.23608958699E+03  0.37624242363E+03  0.52258740348E+03  0.00000000000E+00 0.  1.
<mgrwt>
<rscale>  0 0.47492519E+03</rscale>
<asrwt>0</asrwt>
<pdfrwt beam="1">  1        1 0.21280326E+00 0.47492519E+03</pdfrwt>
<pdfrwt beam="2">  1       -1 0.26869115E-01 0.47492519E+03</pdfrwt>
<totfact> 0.10282886E+02</totfact>
</mgrwt>
</event>
<event>
12    1  0.1418317E-007  0.8526020E+03  0.7818608E-02  0.9486851E-01
         -1   -1    0    0    0  501 -0.00000000000E+00  0.00000000000E+00  0.10971053228E+04  0.10971053228E+04  0.00000000000E+00 0.  1.
          1   -1    0    0  501    0  0.00000000000E+00 -0.00000000000E+00 -0.71585486156E+03  0.71585486156E+03  0.00000000000E+00 0. -1.
         23    2    1    2    0    0  0.17847828257E+02  0.77864952250E+03  0.10079355123E+03  0.79059268667E+03  0.90905623476E+02 0.  0.
    5000000    2    1    2    0    0 -0.17847828257E+02 -0.77864952250E+03  0.28045691002E+03  0.10223674977E+04  0.59997133110E+03 0.  0.
         23    2    4    4    0    0 -0.92704469180E+02  0.31604255528E+01  0.17921585980E+03  0.22522422380E+03  0.10001759690E+03 0.  0.
         23    2    4    4    0    0  0.74856640922E+02 -0.78180994805E+03  0.10124105022E+03  0.79714327391E+03  0.91418473640E+02 0.  0.
          2    1    3    3  502    0 -0.29467959041E+02  0.54241106760E+03  0.69745340536E+02  0.54767010087E+03  0.00000000000E+00 0. -1.
         -2    1    3    3    0  502  0.47315787299E+02  0.23623845491E+03  0.31048210697E+02  0.24292258580E+03  0.00000000000E+00 0.  1.
         13    1    5    5    0    0 -0.52820139790E+02  0.48890196555E+02  0.70666393198E+02  0.10086603796E+03  0.00000000000E+00 0. -1.
        -13    1    5    5    0    0 -0.39884329390E+02 -0.45729771002E+02  0.10854946660E+03  0.12435818584E+03  0.00000000000E+00 0.  1.
          3    1    6    6  503    0  0.62774592088E+02 -0.30236137797E+03  0.10197011875E+02  0.30897739618E+03  0.00000000000E+00 0. -1.
         -3    1    6    6    0  503  0.12082048834E+02 -0.47944857009E+03  0.91044038347E+02  0.48816587773E+03  0.00000000000E+00 0.  1.
<mgrwt>
<rscale>  0 0.85260203E+03</rscale>
<asrwt>0</asrwt>
<pdfrwt beam="1">  1        1 0.11013152E+00 0.85260203E+03</pdfrwt>
<pdfrwt beam="2">  1       -1 0.16878544E+00 0.85260203E+03</pdfrwt>
<totfact> 0.67423056E+00</totfact>
</mgrwt>
</event>
<event>
12    1  0.1418317E-007  0.1799482E+04  0.7818608E-02  0.8706575E-01
         -2   -1    0    0    0  501 -0.00000000000E+00  0.00000000000E+00  0.14720302191E+04  0.14720302191E+04  0.00000000000E+00 0.  1.
          2   -1    0    0  501    0  0.00000000000E+00 -0.00000000000E+00 -0.23422451361E+04  0.23422451361E+04  0.00000000000E+00 0. -1.
         23    2    1    2    0    0 -0.16843158897E+04  0.47400274037E+03  0.40253200048E+02  0.17526041638E+04  0.91664719896E+02 0.  0.
    5000000    2    1    2    0    0  0.16843158897E+04 -0.47400274037E+03 -0.91046811703E+03  0.20616711914E+04  0.59994774385E+03 0.  0.
         23    2    4    4    0    0  0.15430589049E+03 -0.23855038866E+03 -0.17178596349E+03  0.34400881062E+03  0.90083565443E+02 0.  0.
         23    2    4    4    0    0  0.15300099992E+04 -0.23545235171E+03 -0.73868215354E+03  0.17176623808E+04  0.91347265723E+02 0.  0.
          4    1    3    3  502    0 -0.43439388402E+03  0.15989495979E+03 -0.72385939662E+01  0.46294367031E+03  0.00000000000E+00 0. -1.
         -4    1    3    3    0  502 -0.12499220057E+04  0.31410778058E+03  0.47491794014E+02  0.12896604935E+04  0.00000000000E+00 0.  1.
         13    1    5    5    0    0  0.59011400368E+02 -0.16804180791E+03 -0.11929796848E+03  0.21436510878E+03  0.00000000000E+00 0. -1.
        -13    1    5    5    0    0  0.95294490118E+02 -0.70508580751E+02 -0.52487995006E+02  0.12964370184E+03  0.00000000000E+00 0.  1.
          4    1    6    6  503    0  0.16112136480E+03  0.29685356836E+01 -0.71869633731E+02  0.17644871961E+03  0.00000000000E+00 0. -1.
         -4    1    6    6    0  503  0.13688886344E+04 -0.23842088740E+03 -0.66681251981E+03  0.15412136612E+04  0.00000000000E+00 0.  1.
<mgrwt>
<rscale>  0 0.17994818E+04</rscale>
<asrwt>0</asrwt>
<pdfrwt beam="1">  1        2 0.36034540E+00 0.17994818E+04</pdfrwt>
<pdfrwt beam="2">  1       -2 0.22646619E+00 0.17994818E+04</pdfrwt>
<totfact> 0.35102123E-01</totfact>
</mgrwt>
</event>
<event>
12    1  0.1418317E-007  0.1917923E+04  0.7818608E-02  0.8645986E-01
          1   -1    0    0  501    0  0.00000000000E+00  0.00000000000E+00  0.13175776436E+04  0.13175776436E+04  0.00000000000E+00 0. -1.
         -1   -1    0    0    0  501 -0.00000000000E+00 -0.00000000000E+00 -0.28499652058E+04  0.28499652058E+04  0.00000000000E+00 0.  1.
         23    2    1    2    0    0  0.16017139686E+04  0.98773807573E+03 -0.55603009051E+03  0.19642836546E+04  0.90148050308E+02 0.  0.
    5000000    2    1    2    0    0 -0.16017139686E+04 -0.98773807573E+03 -0.97635747171E+03  0.22032591947E+04  0.59996918512E+03 0.  0.
         23    2    4    4    0    0 -0.10118880511E+04 -0.32887763974E+03 -0.68071099417E+03  0.12664514452E+04  0.91944959228E+02 0.  0.
         23    2    4    4    0    0 -0.58982591744E+03 -0.65886043599E+03 -0.29564647754E+03  0.93680774950E+03  0.90610335168E+02 0.  0.
          3    1    3    3  502    0  0.36194301931E+03  0.18634281714E+03 -0.99648820947E+02  0.41911368653E+03  0.00000000000E+00 0. -1.
         -3    1    3    3    0  502  0.12397709493E+04  0.80139525858E+03 -0.45638126956E+03  0.15451699681E+04  0.00000000000E+00 0.  1.
         11    1    5    5    0    0 -0.76009092798E+03 -0.20687701103E+03 -0.51778025112E+03  0.94267316973E+03  0.00000000000E+00 0.  1.
        -11    1    5    5    0    0 -0.25179712315E+03 -0.12200062871E+03 -0.16293074305E+03  0.32377827546E+03  0.00000000000E+00 0. -1.
          4    1    6    6  503    0 -0.34136520755E+03 -0.35554857635E+03 -0.20835424237E+03  0.53512286943E+03  0.00000000000E+00 0. -1.
         -4    1    6    6    0  503 -0.24846070989E+03 -0.30331185964E+03 -0.87292235179E+02  0.40168488007E+03  0.00000000000E+00 0.  1.
<mgrwt>
<rscale>  0 0.19179231E+04</rscale>
<asrwt>0</asrwt>
<pdfrwt beam="1">  1        1 0.20270425E+00 0.19179231E+04</pdfrwt>
<pdfrwt beam="2">  1       -1 0.43845619E+00 0.19179231E+04</pdfrwt>
<totfact> 0.30843166E-02</totfact>
</mgrwt>
</event>
<event>
12    1  0.1418317E-007  0.1488205E+04  0.7818608E-02  0.8892334E-01
         -2   -1    0    0    0  501 -0.00000000000E+00  0.00000000000E+00  0.13520471665E+04  0.13520471665E+04  0.00000000000E+00 0.  1.
          2   -1    0    0  501    0  0.00000000000E+00 -0.00000000000E+00 -0.23353499698E+04  0.23353499698E+04  0.00000000000E+00 0. -1.
         23    2    1    2    0    0 -0.98837558647E+03  0.10508067791E+04 -0.14594190377E+04  0.20540473798E+04  0.90141688197E+02 0.  0.
    5000000    2    1    2    0    0  0.98837558647E+03 -0.10508067791E+04  0.47611623443E+03  0.16333497564E+04  0.60005297356E+03 0.  0.
         23    2    4    4    0    0  0.36098554440E+02  0.29144092509E+02 -0.28291688101E+02  0.10510045645E+03  0.89962228566E+02 0.  0.
         23    2    4    4    0    0  0.95227703203E+03 -0.10799508716E+04  0.50440792253E+03  0.15282493000E+04  0.89404360310E+02 0.  0.
          3    1    3    3  502    0 -0.79737075734E+03  0.81011686607E+03 -0.11105151203E+04  0.15891297284E+04  0.00000000000E+00 0. -1.
         -3    1    3    3    0  502 -0.19100482914E+03  0.24068991307E+03 -0.34890391744E+03  0.46491765143E+03  0.00000000000E+00 0.  1.
         11    1    5    5    0    0 -0.18142984419E+02  0.30685404410E+02  0.11891167192E+02  0.37578741126E+02  0.00000000000E+00 0. -1.
        -11    1    5    5    0    0  0.54241538859E+02 -0.15413119013E+01 -0.40182855293E+02  0.67521715320E+02  0.00000000000E+00 0.  1.
          2    1    6    6  503    0  0.34622523843E+03 -0.32994251289E+03  0.15968493656E+03  0.50421548618E+03  0.00000000000E+00 0. -1.
         -2    1    6    6    0  503  0.60605179360E+03 -0.75000835876E+03  0.34472298597E+03  0.10240338138E+04  0.00000000000E+00 0.  1.
<mgrwt>
<rscale>  0 0.14882052E+04</rscale>
<asrwt>0</asrwt>
<pdfrwt beam="1">  1        2 0.35928461E+00 0.14882052E+04</pdfrwt>
<pdfrwt beam="2">  1       -2 0.20800726E+00 0.14882052E+04</pdfrwt>
<totfact> 0.47990132E-01</totfact>
</mgrwt>
</event>
<event>
12    1  0.1418317E-007  0.1581208E+04  0.7818608E-02  0.8832177E-01
          1   -1    0    0  501    0  0.00000000000E+00  0.00000000000E+00  0.24226933609E+04  0.24226933609E+04  0.00000000000E+00 0. -1.
         -1   -1    0    0    0  501 -0.00000000000E+00 -0.00000000000E+00 -0.18359451594E+04  0.18359451594E+04  0.00000000000E+00 0.  1.
         23    2    1    2    0    0 -0.45269836749E+03  0.15097538011E+04 -0.10599186458E+04  0.19015571544E+04  0.90552325333E+02 0.  0.
    5000000    2    1    2    0    0  0.45269836749E+03 -0.15097538011E+04  0.16466668473E+04  0.23570813659E+04  0.60002375570E+03 0.  0.
         23    2    4    4    0    0  0.15483872354E+03 -0.78756136854E+03  0.12170276097E+04  0.14608409261E+04  0.93123943789E+02 0.  0.
         23    2    4    4    0    0  0.29785964395E+03 -0.72219243259E+03  0.42963923756E+03  0.89624043980E+03  0.91513792941E+02 0.  0.
          3    1    3    3  502    0 -0.21270343674E+03  0.69017684350E+03 -0.53972998162E+03  0.90160705430E+03  0.00000000000E+00 0. -1.
         -3    1    3    3    0  502 -0.23999493075E+03  0.81957695763E+03 -0.52018866417E+03  0.99995010005E+03  0.00000000000E+00 0.  1.
         13    1    5    5    0    0  0.16584589034E+02 -0.22724987903E+03  0.40367296927E+03  0.46354009776E+03  0.00000000000E+00 0.  1.
        -13    1    5    5    0    0  0.13825413451E+03 -0.56031148951E+03  0.81335464045E+03  0.99730082830E+03  0.00000000000E+00 0. -1.
          4    1    6    6  503    0  0.27191029327E+03 -0.65350106655E+03  0.41762987445E+03  0.82183548451E+03  0.00000000000E+00 0. -1.
         -4    1    6    6    0  503  0.25949350682E+02 -0.68691366038E+02  0.12009363106E+02  0.74404955286E+02  0.00000000000E+00 0.  1.
<mgrwt>
<rscale>  0 0.15812076E+04</rscale>
<asrwt>0</asrwt>
<pdfrwt beam="1">  1        1 0.37272206E+00 0.15812076E+04</pdfrwt>
<pdfrwt beam="2">  1       -1 0.28245310E+00 0.15812076E+04</pdfrwt>
<totfact> 0.61350544E-02</totfact>
</mgrwt>
</event>
<event>
12    1  0.1418317E-007  0.4483267E+03  0.7818608E-02  0.1028222E+00
         -1   -1    0    0    0  501 -0.00000000000E+00  0.00000000000E+00  0.14674813309E+03  0.14674813309E+03  0.00000000000E+00 0.  1.
          1   -1    0    0  501    0  0.00000000000E+00 -0.00000000000E+00 -0.18031564608E+04  0.18031564608E+04  0.00000000000E+00 0. -1.
         23    2    1    2    0    0 -0.31562966704E+03  0.34010663349E+02 -0.72044389892E+03  0.79264153381E+03  0.91991182693E+02 0.  0.
    5000000    2    1    2    0    0  0.31562966704E+03 -0.34010663349E+02 -0.93596442879E+03  0.11572630601E+04  0.60203784459E+03 0.  0.
         23    2    4    4    0    0 -0.10735068576E+03  0.23567348434E+02 -0.56884121686E+03  0.58687313246E+03  0.93595694184E+02 0.  0.
         23    2    4    4    0    0  0.42298035280E+03 -0.57578011783E+02 -0.36712321193E+03  0.57038992761E+03  0.91310516836E+02 0.  0.
          1    1    3    3  502    0 -0.23740263762E+03  0.34680555778E+02 -0.62351296079E+03  0.66808020893E+03  0.00000000000E+00 0. -1.
         -1    1    3    3    0  502 -0.78227029423E+02 -0.66989242917E+00 -0.96930938131E+02  0.12456132488E+03  0.00000000000E+00 0.  1.
         13    1    5    5    0    0 -0.12326327260E+03  0.29602480316E+02 -0.51676178573E+03  0.53208353141E+03  0.00000000000E+00 0. -1.
        -13    1    5    5    0    0  0.15912586840E+02 -0.60351318819E+01 -0.52079431127E+02  0.54789601050E+02  0.00000000000E+00 0.  1.
          4    1    6    6  503    0  0.36500385012E+03 -0.78002381183E+02 -0.29588840284E+03  0.47630046085E+03  0.00000000000E+00 0. -1.
         -4    1    6    6    0  503  0.57976502677E+02  0.20424369400E+02 -0.71234809096E+02  0.94089466759E+02  0.00000000000E+00 0.  1.
<mgrwt>
<rscale>  0 0.44832668E+03</rscale>
<asrwt>0</asrwt>
<pdfrwt beam="1">  1        1 0.27740868E+00 0.44832668E+03</pdfrwt>
<pdfrwt beam="2">  1       -1 0.22576637E-01 0.44832668E+03</pdfrwt>
<totfact> 0.72424611E+01</totfact>
</mgrwt>
</event>
<event>
12    1  0.1418317E-007  0.8274218E+03  0.7818608E-02  0.9521152E-01
         -2   -1    0    0    0  501 -0.00000000000E+00  0.00000000000E+00  0.91588421509E+03  0.91588421509E+03  0.00000000000E+00 0.  1.
          2   -1    0    0  501    0  0.00000000000E+00 -0.00000000000E+00 -0.79288214471E+03  0.79288214471E+03  0.00000000000E+00 0. -1.
         23    2    1    2    0    0 -0.68576524628E+03  0.25361546545E+03  0.18853052162E+03  0.76069780940E+03  0.92318049806E+02 0.  0.
    5000000    2    1    2    0    0  0.68576524628E+03 -0.25361546545E+03 -0.65528451238E+02  0.94806855040E+03  0.59995434911E+03 0.  0.
         23    2    4    4    0    0  0.13817245609E+02 -0.24080671070E+03 -0.78253599086E+02  0.26940108912E+03  0.90964459297E+02 0.  0.
         23    2    4    4    0    0  0.67194800067E+03 -0.12808754753E+02  0.12725147848E+02  0.67866746128E+03  0.93538301296E+02 0.  0.
          2    1    3    3  502    0 -0.21435647896E+03  0.10844396313E+03  0.96742649658E+02  0.25897477382E+03  0.00000000000E+00 0. -1.
         -2    1    3    3    0  502 -0.47140876732E+03  0.14517150232E+03  0.91787871958E+02  0.50172303558E+03  0.00000000000E+00 0.  1.
         13    1    5    5    0    0  0.12308187820E+02 -0.28315475637E+02 -0.44618084612E+02  0.54258926661E+02  0.00000000000E+00 0.  1.
        -13    1    5    5    0    0  0.15090577894E+01 -0.21249123506E+03 -0.33635514474E+02  0.21514216246E+03  0.00000000000E+00 0. -1.
          2    1    6    6  503    0  0.35764609901E+03 -0.51426571241E+02 -0.69496414838E+01  0.36139136941E+03  0.00000000000E+00 0. -1.
         -2    1    6    6    0  503  0.31430190165E+03  0.38617816488E+02  0.19674789332E+02  0.31727609186E+03  0.00000000000E+00 0.  1.
<mgrwt>
<rscale>  0 0.82742176E+03</rscale>
<asrwt>0</asrwt>
<pdfrwt beam="1">  1        2 0.12198187E+00 0.82742176E+03</pdfrwt>
<pdfrwt beam="2">  1       -2 0.14090526E+00 0.82742176E+03</pdfrwt>
<totfact> 0.12403758E+01</totfact>
</mgrwt>
</event>
<event>
12    1  0.1418317E-007  0.7214403E+03  0.7818608E-02  0.9681253E-01
          2   -1    0    0  501    0  0.00000000000E+00  0.00000000000E+00  0.12136995947E+04  0.12136995947E+04  0.00000000000E+00 0. -1.
         -2   -1    0    0    0  501 -0.00000000000E+00 -0.00000000000E+00 -0.47959924481E+03  0.47959924481E+03  0.00000000000E+00 0.  1.
         23    2    1    2    0    0  0.67504320862E+02  0.63653794272E+03  0.26703414381E+03  0.69958591537E+03  0.91519578014E+02 0.  0.
    5000000    2    1    2    0    0 -0.67504320862E+02 -0.63653794272E+03  0.46706620611E+03  0.99371292418E+03  0.59964752057E+03 0.  0.
         23    2    4    4    0    0  0.19808555692E+03 -0.39404924394E+03  0.79952647841E+02  0.45759717870E+03  0.92141508255E+02 0.  0.
         23    2    4    4    0    0 -0.26558987778E+03 -0.24248869878E+03  0.38711355827E+03  0.53611574548E+03  0.90688661616E+02 0.  0.
          2    1    3    3  502    0  0.23795186012E+02  0.29028801591E+03  0.72978903758E+02  0.30026532176E+03  0.00000000000E+00 0. -1.
         -2    1    3    3    0  502  0.43709134850E+02  0.34624992682E+03  0.19405524005E+03  0.39932059361E+03  0.00000000000E+00 0.  1.
         11    1    5    5    0    0  0.25711919301E+02 -0.35899455818E+02 -0.18876447633E+02  0.48022848701E+02  0.00000000000E+00 0. -1.
        -11    1    5    5    0    0  0.17237363761E+03 -0.35814978813E+03  0.98829095474E+02  0.40957432999E+03  0.00000000000E+00 0.  1.
          3    1    6    6  503    0 -0.25678769787E+02 -0.12157807561E+02  0.38509233687E+01  0.28671259359E+02  0.00000000000E+00 0. -1.
         -3    1    6    6    0  503 -0.23991110799E+03 -0.23033089122E+03  0.38326263490E+03  0.50744448612E+03  0.00000000000E+00 0.  1.
<mgrwt>
<rscale>  0 0.72144029E+03</rscale>
<asrwt>0</asrwt>
<pdfrwt beam="1">  1        2 0.18672301E+00 0.72144029E+03</pdfrwt>
<pdfrwt beam="2">  1       -2 0.73784499E-01 0.72144029E+03</pdfrwt>
<totfact> 0.31447375E+01</totfact>
</mgrwt>
</event>
<event>
12    1  0.1418317E-007  0.7597043E+03  0.7818608E-02  0.9620248E-01
         -2   -1    0    0    0  501 -0.00000000000E+00  0.00000000000E+00  0.10452600722E+04  0.10452600722E+04  0.00000000000E+00 0.  1.
          2   -1    0    0  501    0  0.00000000000E+00 -0.00000000000E+00 -0.17400943476E+04  0.17400943476E+04  0.00000000000E+00 0. -1.
         23    2    1    2    0    0  0.61396728600E+03 -0.20179997623E+03 -0.14716017295E+04  0.16101698162E+04  0.96727079665E+02 0.  0.
    5000000    2    1    2    0    0 -0.61396728600E+03  0.20179997623E+03  0.77676745409E+03  0.11751846037E+04  0.60001009678E+03 0.  0.
         23    2    4    4    0    0  0.61214631572E+01  0.23551190240E+03  0.25954666130E+03  0.36185570748E+03  0.89842947172E+02 0.  0.
         23    2    4    4    0    0 -0.62008874916E+03 -0.33711926174E+02  0.51722079278E+03  0.81332889617E+03  0.91323567939E+02 0.  0.
          2    1    3    3  502    0  0.63728348039E+02 -0.24232830470E+02 -0.24190334374E+03  0.25132799312E+03  0.00000000000E+00 0. -1.
         -2    1    3    3    0  502  0.55023893796E+03 -0.17756714576E+03 -0.12296983858E+04  0.13588418230E+04  0.00000000000E+00 0.  1.
         13    1    5    5    0    0 -0.40201547982E+02  0.13954186108E+03  0.15917266712E+03  0.21546237122E+03  0.00000000000E+00 0. -1.
        -13    1    5    5    0    0  0.46323011139E+02  0.95970041326E+02  0.10037399418E+03  0.14639333626E+03  0.00000000000E+00 0.  1.
          3    1    6    6  503    0 -0.25223978229E+03 -0.48596939894E+01  0.26801864787E+03  0.36807950228E+03  0.00000000000E+00 0. -1.
         -3    1    6    6    0  503 -0.36784896687E+03 -0.28852232184E+02  0.24920214491E+03  0.44524939389E+03  0.00000000000E+00 0.  1.
<mgrwt>
<rscale>  0 0.75970425E+03</rscale>
<asrwt>0</asrwt>
<pdfrwt beam="1">  1        2 0.26770682E+00 0.75970425E+03</pdfrwt>
<pdfrwt beam="2">  1       -2 0.16080924E+00 0.75970425E+03</pdfrwt>
<totfact> 0.23859206E+00</totfact>
</mgrwt>
</event>
<event>
12    1  0.1418317E-007  0.8256384E+03  0.7818608E-02  0.9523631E-01
         -1   -1    0    0    0  501 -0.00000000000E+00  0.00000000000E+00  0.46114528845E+03  0.46114528845E+03  0.00000000000E+00 0.  1.
          1   -1    0    0  501    0  0.00000000000E+00 -0.00000000000E+00 -0.20098783833E+04  0.20098783833E+04  0.00000000000E+00 0. -1.
         23    2    1    2    0    0 -0.64765778030E+03  0.37960861195E+03 -0.12566307860E+04  0.14666074496E+04  0.90847015985E+02 0.  0.
    5000000    2    1    2    0    0  0.64765778030E+03 -0.37960861195E+03 -0.29210230882E+03  0.10044162221E+04  0.59997074073E+03 0.  0.
         23    2    4    4    0    0 -0.25042124207E+01 -0.21574802937E+03 -0.22405521475E+03  0.32418225979E+03  0.91323135340E+02 0.  0.
         23    2    4    4    0    0  0.65016199272E+03 -0.16386058258E+03 -0.68047094074E+02  0.68023396230E+03  0.92341372943E+02 0.  0.
          1    1    3    3  502    0 -0.18454378378E+03  0.14103028348E+03 -0.32939422968E+03  0.40304653272E+03  0.00000000000E+00 0. -1.
         -1    1    3    3    0  502 -0.46311399652E+03  0.23857832848E+03 -0.92723655633E+03  0.10635609169E+04  0.00000000000E+00 0.  1.
         13    1    5    5    0    0  0.29909197948E+02 -0.15572269733E+03 -0.11629167561E+03  0.19664148189E+03  0.00000000000E+00 0.  1.
        -13    1    5    5    0    0 -0.32413410368E+02 -0.60025332050E+02 -0.10776353914E+03  0.12754077790E+03  0.00000000000E+00 0. -1.
          3    1    6    6  503    0  0.32024406860E+03 -0.64045032628E+02 -0.76571300954E+02  0.33544178900E+03  0.00000000000E+00 0. -1.
         -3    1    6    6    0  503  0.32991792412E+03 -0.99815549950E+02  0.85242068796E+01  0.34479217330E+03  0.00000000000E+00 0.  1.
<mgrwt>
<rscale>  0 0.82563836E+03</rscale>
<asrwt>0</asrwt>
<pdfrwt beam="1">  1        1 0.30921205E+00 0.82563836E+03</pdfrwt>
<pdfrwt beam="2">  1       -1 0.70945430E-01 0.82563836E+03</pdfrwt>
<totfact> 0.61022970E+00</totfact>
</mgrwt>
</event>
<event>
12    1  0.1418317E-007  0.1591561E+04  0.7818608E-02  0.8825749E-01
          2   -1    0    0  501    0  0.00000000000E+00  0.00000000000E+00  0.13847811389E+04  0.13847811389E+04  0.00000000000E+00 0. -1.
         -2   -1    0    0    0  501 -0.00000000000E+00 -0.00000000000E+00 -0.27326235546E+04  0.27326235546E+04  0.00000000000E+00 0.  1.
         23    2    1    2    0    0 -0.10213963010E+04  0.11510453951E+04  0.51705069959E+03  0.16261108996E+04  0.93484366594E+02 0.  0.
    5000000    2    1    2    0    0  0.10213963010E+04 -0.11510453951E+04 -0.18648931154E+04  0.24912937938E+04  0.60046859231E+03 0.  0.
         23    2    4    4    0    0  0.89274499821E+03 -0.11836747213E+04 -0.17356072474E+04  0.22847673027E+04  0.98740228405E+02 0.  0.
         23    2    4    4    0    0  0.12865130278E+03  0.32629326246E+02 -0.12928586799E+03  0.20652649114E+03  0.91227875349E+02 0.  0.
          4    1    3    3  502    0 -0.74861436308E+02  0.10881731751E+03  0.23135031683E+02  0.13409203156E+03  0.00000000000E+00 0. -1.
         -4    1    3    3    0  502 -0.94653486468E+03  0.10422280775E+04  0.49391566791E+03  0.14920188681E+04  0.00000000000E+00 0.  1.
         13    1    5    5    0    0  0.53960165709E+03 -0.72391372974E+03 -0.11298107228E+04  0.14462687530E+04  0.00000000000E+00 0. -1.
        -13    1    5    5    0    0  0.35314334112E+03 -0.45976099156E+03 -0.60579652458E+03  0.83849854975E+03  0.00000000000E+00 0.  1.
          4    1    6    6  503    0  0.55828754979E+02  0.60700953255E+02 -0.57989203294E+02  0.10081767359E+03  0.00000000000E+00 0. -1.
         -4    1    6    6    0  503  0.72822547800E+02 -0.28071627008E+02 -0.71296664697E+02  0.10570881755E+03  0.00000000000E+00 0.  1.
<mgrwt>
<rscale>  0 0.15915608E+04</rscale>
<asrwt>0</asrwt>
<pdfrwt beam="1">  1        2 0.21304326E+00 0.15915608E+04</pdfrwt>
<pdfrwt beam="2">  1       -2 0.42040362E+00 0.15915608E+04</pdfrwt>
<totfact> 0.75087182E-02</totfact>
</mgrwt>
</event>
<event>
12    1  0.1418317E-007  0.1730063E+04  0.7818608E-02  0.8744402E-01
          2   -1    0    0  501    0  0.00000000000E+00  0.00000000000E+00  0.36830257386E+04  0.36830257386E+04  0.00000000000E+00 0. -1.
         -2   -1    0    0    0  501 -0.00000000000E+00 -0.00000000000E+00 -0.89521526892E+03  0.89521526892E+03  0.00000000000E+00 0.  1.
         23    2    1    2    0    0  0.17081298362E+04 -0.12410647436E+03  0.18949184994E+04  0.25558001131E+04  0.91039245906E+02 0.  0.
    5000000    2    1    2    0    0 -0.17081298362E+04  0.12410647436E+03  0.89289197024E+03  0.20224408944E+04  0.59991761670E+03 0.  0.
         23    2    4    4    0    0 -0.63894217734E+03  0.20177394730E+03  0.60528080995E+03  0.90839933807E+03  0.99321028613E+02 0.  0.
         23    2    4    4    0    0 -0.10691876588E+04 -0.77667472948E+02  0.28761116028E+03  0.11140415564E+04  0.95780601677E+02 0.  0.
          3    1    3    3  502    0  0.52716607924E+03 -0.60120701614E+02  0.53387594387E+03  0.75268990781E+03  0.00000000000E+00 0. -1.
         -3    1    3    3    0  502  0.11809637569E+04 -0.63985772742E+02  0.13610425555E+04  0.18031102053E+04  0.00000000000E+00 0.  1.
         13    1    5    5    0    0 -0.55082987836E+03  0.15789200731E+03  0.47007618792E+03  0.74115792063E+03  0.00000000000E+00 0. -1.
        -13    1    5    5    0    0 -0.88112298979E+02  0.43881939995E+02  0.13520462204E+03  0.16724141744E+03  0.00000000000E+00 0.  1.
          4    1    6    6  503    0 -0.50704126824E+03  0.58982608403E+01  0.11319576897E+03  0.51955646401E+03  0.00000000000E+00 0. -1.
         -4    1    6    6    0  503 -0.56214639058E+03 -0.83565733788E+02  0.17441539132E+03  0.59448509235E+03  0.00000000000E+00 0.  1.
<mgrwt>
<rscale>  0 0.17300629E+04</rscale>
<asrwt>0</asrwt>
<pdfrwt beam="1">  1        2 0.56661933E+00 0.17300629E+04</pdfrwt>
<pdfrwt beam="2">  1       -2 0.13772543E+00 0.17300629E+04</pdfrwt>
<totfact> 0.20976384E-01</totfact>
</mgrwt>
</event>
<event>
12    1  0.1418317E-007  0.1639920E+04  0.7818608E-02  0.8796392E-01
         -2   -1    0    0    0  501 -0.00000000000E+00  0.00000000000E+00  0.20580840988E+04  0.20580840988E+04  0.00000000000E+00 0.  1.
          2   -1    0    0  501    0  0.00000000000E+00 -0.00000000000E+00 -0.21768985014E+04  0.21768985014E+04  0.00000000000E+00 0. -1.
         23    2    1    2    0    0  0.25690839174E+03  0.15821938577E+04 -0.13734530097E+04  0.21128085933E+04  0.90816612261E+02 0.  0.
    5000000    2    1    2    0    0 -0.25690839174E+03 -0.15821938577E+04  0.12546386071E+04  0.21221740068E+04  0.60013761395E+03 0.  0.
         23    2    4    4    0    0 -0.27817459406E+03 -0.42119423140E+03  0.19829727268E+03  0.54972892877E+03  0.89968891438E+02 0.  0.
         23    2    4    4    0    0  0.21266202322E+02 -0.11609996263E+04  0.10563413344E+04  0.15724450780E+04  0.91400902868E+02 0.  0.
          3    1    3    3  502    0  0.19011389748E+02  0.13219651556E+03 -0.14924341927E+03  0.20027718258E+03  0.00000000000E+00 0. -1.
         -3    1    3    3    0  502  0.23789700199E+03  0.14499973421E+04 -0.12242095904E+04  0.19125314107E+04  0.00000000000E+00 0.  1.
         13    1    5    5    0    0 -0.11967326369E+02  0.25438251565E+01  0.34331892844E+01  0.12707270971E+02  0.00000000000E+00 0.  1.
        -13    1    5    5    0    0 -0.26620726769E+03 -0.42373805655E+03  0.19486408340E+03  0.53702165779E+03  0.00000000000E+00 0. -1.
          4    1    6    6  503    0  0.34289429238E+02 -0.11312652422E+04  0.10343376586E+04  0.15332290127E+04  0.00000000000E+00 0. -1.
         -4    1    6    6    0  503 -0.13023226916E+02 -0.29734384079E+02  0.22003675779E+02  0.39216065377E+02  0.00000000000E+00 0.  1.
<mgrwt>
<rscale>  0 0.16399204E+04</rscale>
<asrwt>0</asrwt>
<pdfrwt beam="1">  1        2 0.33490746E+00 0.16399204E+04</pdfrwt>
<pdfrwt beam="2">  1       -2 0.31662832E+00 0.16399204E+04</pdfrwt>
<totfact> 0.12327362E-01</totfact>
</mgrwt>
</event>
<event>
12    1  0.1418317E-007  0.5090538E+03  0.7818608E-02  0.1011442E+00
         -2   -1    0    0    0  501 -0.00000000000E+00  0.00000000000E+00  0.10141892306E+04  0.10141892306E+04  0.00000000000E+00 0. -1.
          2   -1    0    0  501    0  0.00000000000E+00 -0.00000000000E+00 -0.34005728003E+03  0.34005728003E+03  0.00000000000E+00 0.  1.
         23    2    1    2    0    0 -0.34472515345E+03  0.40499549270E+02 -0.37079428936E+02  0.36116755779E+03  0.92690214386E+02 0.  0.
    5000000    2    1    2    0    0  0.34472515345E+03 -0.40499549270E+02  0.71121137947E+03  0.99307895280E+03  0.59992377457E+03 0.  0.
         23    2    4    4    0    0  0.30029021937E+03  0.21943922897E+03  0.55251368361E+03  0.67230850066E+03  0.91649104911E+02 0.  0.
         23    2    4    4    0    0  0.44434934080E+02 -0.25993877824E+03  0.15869769587E+03  0.32077045214E+03  0.90366434556E+02 0.  0.
          3    1    3    3  502    0 -0.32995455669E+03  0.57126936761E+02 -0.44307535818E+02  0.33778196239E+03  0.00000000000E+00 0. -1.
         -3    1    3    3    0  502 -0.14770596751E+02 -0.16627387491E+02  0.72281068823E+01  0.23385595401E+02  0.00000000000E+00 0.  1.
         11    1    5    5    0    0  0.84022819880E+02  0.11565903452E+03  0.21725498036E+03  0.26007032322E+03  0.00000000000E+00 0. -1.
        -11    1    5    5    0    0  0.21626739949E+03  0.10378019445E+03  0.33525870325E+03  0.41223817745E+03  0.00000000000E+00 0.  1.
          4    1    6    6  503    0 -0.12504444648E+02 -0.17770681671E+03  0.11159894052E+03  0.21021512164E+03  0.00000000000E+00 0. -1.
         -4    1    6    6    0  503  0.56939378728E+02 -0.82231961525E+02  0.47098755349E+02  0.11055533050E+03  0.00000000000E+00 0.  1.
<mgrwt>
<rscale>  0 0.50905377E+03</rscale>
<asrwt>0</asrwt>
<pdfrwt beam="1">  1        2 0.52316505E-01 0.50905377E+03</pdfrwt>
<pdfrwt beam="2">  1       -2 0.15602911E+00 0.50905377E+03</pdfrwt>
<totfact> 0.26638802E+01</totfact>
</mgrwt>
</event>
<event>
12    1  0.1418317E-007  0.5808616E+03  0.7818608E-02  0.9945927E-01
          2   -1    0    0  501    0  0.00000000000E+00  0.00000000000E+00  0.27083297758E+04  0.27083297758E+04  0.00000000000E+00 0. -1.
         -2   -1    0    0    0  501 -0.00000000000E+00 -0.00000000000E+00 -0.21435504296E+03  0.21435504296E+03  0.00000000000E+00 0.  1.
         23    2    1    2    0    0  0.37010639253E+03 -0.29086179806E+03  0.18898415634E+04  0.19497075073E+04  0.90988470925E+02 0.  0.
    5000000    2    1    2    0    0 -0.37010639253E+03  0.29086179806E+03  0.60413316943E+03  0.97297731147E+03  0.60010718614E+03 0.  0.
         23    2    4    4    0    0  0.62931903940E+02  0.21302109804E+03  0.42485222555E+03  0.48837123522E+03  0.93105515897E+02 0.  0.
         23    2    4    4    0    0 -0.43303829647E+03  0.77840700015E+02  0.17928094389E+03  0.48460607625E+03  0.95498960765E+02 0.  0.
          3    1    3    3  502    0  0.55002508098E+02 -0.70854228090E+02  0.48624988100E+03  0.49445378380E+03  0.00000000000E+00 0. -1.
         -3    1    3    3    0  502  0.31510388443E+03 -0.22000756997E+03  0.14035916824E+04  0.14552537235E+04  0.00000000000E+00 0.  1.
         11    1    5    5    0    0  0.76060766611E+02  0.94875363723E+02  0.20123467607E+03  0.23512118091E+03  0.00000000000E+00 0.  1.
        -11    1    5    5    0    0 -0.13128862671E+02  0.11814573432E+03  0.22361754948E+03  0.25325005431E+03  0.00000000000E+00 0. -1.
          1    1    6    6  503    0 -0.19486063155E+03  0.75722671725E+02  0.11165375805E+03  0.23700453673E+03  0.00000000000E+00 0. -1.
         -1    1    6    6    0  503 -0.23817766492E+03  0.21180282908E+01  0.67627185836E+02  0.24760153952E+03  0.00000000000E+00 0.  1.
<mgrwt>
<rscale>  0 0.58086164E+03</rscale>
<asrwt>0</asrwt>
<pdfrwt beam="1">  1        2 0.41666609E+00 0.58086164E+03</pdfrwt>
<pdfrwt beam="2">  1       -2 0.32977701E-01 0.58086164E+03</pdfrwt>
<totfact> 0.24368601E+01</totfact>
</mgrwt>
</event>
<event>
12    1  0.1418317E-007  0.5038673E+03  0.7818608E-02  0.1012774E+00
         -1   -1    0    0    0  501 -0.00000000000E+00  0.00000000000E+00  0.61549426237E+03  0.61549426237E+03  0.00000000000E+00 0.  1.
          1   -1    0    0  501    0  0.00000000000E+00 -0.00000000000E+00 -0.55075613198E+03  0.55075613198E+03  0.00000000000E+00 0. -1.
         23    2    1    2    0    0  0.33061795523E+03 -0.45026822071E+02  0.28210062995E+03  0.44612473563E+03  0.90060353635E+02 0.  0.
    5000000    2    1    2    0    0 -0.33061795523E+03  0.45026822071E+02 -0.21736249956E+03  0.72012565873E+03  0.59999905093E+03 0.  0.
         23    2    4    4    0    0  0.11327614715E+03  0.16287160060E+03 -0.48462454476E+02  0.22237302967E+03  0.87991539580E+02 0.  0.
         23    2    4    4    0    0 -0.44389410238E+03 -0.11784477853E+03 -0.16890004509E+03  0.49775262905E+03  0.91110309774E+02 0.  0.
          2    1    3    3  502    0  0.23197305323E+03 -0.49379901081E+02  0.24404121249E+03  0.34030278496E+03  0.00000000000E+00 0. -1.
         -2    1    3    3    0  502  0.98644901993E+02  0.43530790101E+01  0.38059417462E+02  0.10582195067E+03  0.00000000000E+00 0.  1.
         13    1    5    5    0    0  0.11251013750E+03  0.13478001692E+03 -0.11504860592E+02  0.17594472376E+03  0.00000000000E+00 0. -1.
        -13    1    5    5    0    0  0.76600964746E+00  0.28091583683E+02 -0.36957593884E+02  0.46428305916E+02  0.00000000000E+00 0.  1.
          2    1    6    6  503    0 -0.22345604242E+03 -0.10619703599E+03 -0.93479049506E+02  0.26447825250E+03  0.00000000000E+00 0. -1.
         -2    1    6    6    0  503 -0.22043805995E+03 -0.11647742541E+02 -0.75420995584E+02  0.23327437656E+03  0.00000000000E+00 0.  1.
<mgrwt>
<rscale>  0 0.50386731E+03</rscale>
<asrwt>0</asrwt>
<pdfrwt beam="1">  1        1 0.84731712E-01 0.50386731E+03</pdfrwt>
<pdfrwt beam="2">  1       -1 0.94691425E-01 0.50386731E+03</pdfrwt>
<totfact> 0.43848970E+01</totfact>
</mgrwt>
</event>
<event>
12    1  0.1418317E-007  0.4665308E+03  0.7818608E-02  0.1022904E+00
          2   -1    0    0  501    0  0.00000000000E+00  0.00000000000E+00  0.13282478926E+04  0.13282478926E+04  0.00000000000E+00 0.  1.
         -2   -1    0    0    0  501 -0.00000000000E+00 -0.00000000000E+00 -0.65766005064E+03  0.65766005064E+03  0.00000000000E+00 0. -1.
         23    2    1    2    0    0  0.34041473975E+03 -0.81059247219E+02 -0.50477834070E+03  0.62063542869E+03  0.89075055492E+02 0.  0.
    5000000    2    1    2    0    0 -0.34041473975E+03  0.81059247219E+02  0.11753661827E+04  0.13652725146E+04  0.60002548200E+03 0.  0.
         23    2    4    4    0    0 -0.37486151982E+03 -0.86114693889E+02  0.38717057298E+03  0.55340777692E+03  0.91772628990E+02 0.  0.
         23    2    4    4    0    0  0.34446780076E+02  0.16717394111E+03  0.78819560973E+03  0.81186473767E+03  0.93479012777E+02 0.  0.
          1    1    3    3  502    0  0.27034537827E+03 -0.26770876145E+02 -0.39766540167E+03  0.48160261113E+03  0.00000000000E+00 0. -1.
         -1    1    3    3    0  502  0.70069361477E+02 -0.54288371074E+02 -0.10711293903E+03  0.13903281756E+03  0.00000000000E+00 0.  1.
         11    1    5    5    0    0 -0.17277164202E+03 -0.19176329303E+02  0.11743564551E+03  0.20978298960E+03  0.00000000000E+00 0.  1.
        -11    1    5    5    0    0 -0.20208987781E+03 -0.66938364587E+02  0.26973492747E+03  0.34362478732E+03  0.00000000000E+00 0. -1.
          4    1    6    6  503    0  0.20609347066E+02  0.24773931389E+01  0.19412616536E+03  0.19523281163E+03  0.00000000000E+00 0. -1.
         -4    1    6    6    0  503  0.13837433010E+02  0.16469654797E+03  0.59406944438E+03  0.61663192603E+03  0.00000000000E+00 0.  1.
<mgrwt>
<rscale>  0 0.46653080E+03</rscale>
<asrwt>0</asrwt>
<pdfrwt beam="1">  1        2 0.20434583E+00 0.46653080E+03</pdfrwt>
<pdfrwt beam="2">  1       -2 0.10117847E+00 0.46653080E+03</pdfrwt>
<totfact> 0.13658281E+01</totfact>
</mgrwt>
</event>
<event>
12    1  0.1739421E-007  0.1201917E+04  0.7818608E-02  0.9111180E-01
         -1   -1    0    0    0  501 -0.00000000000E+00  0.00000000000E+00  0.75299313476E+03  0.75299313476E+03  0.00000000000E+00 0.  1.
          1   -1    0    0  501    0  0.00000000000E+00 -0.00000000000E+00 -0.25939293312E+04  0.25939293312E+04  0.00000000000E+00 0. -1.
         23    2    1    2    0    0  0.11254008661E+04  0.11534848413E+03 -0.38090970699E+02  0.11355847326E+04  0.90936135207E+02 0.  0.
    5000000    2    1    2    0    0 -0.11254008661E+04 -0.11534848413E+03 -0.18028452258E+04  0.22113377333E+04  0.59994273116E+03 0.  0.
         23    2    4    4    0    0 -0.11659424213E+04 -0.79435819372E+02 -0.16843108787E+04  0.20520618954E+04  0.91231063223E+02 0.  0.
         23    2    4    4    0    0  0.40541555202E+02 -0.35912664754E+02 -0.11853434701E+03  0.15927583799E+03  0.91569994863E+02 0.  0.
          2    1    3    3  502    0  0.75475311477E+03  0.85276852655E+02  0.16492770923E+02  0.75973443870E+03  0.00000000000E+00 0.  1.
         -2    1    3    3    0  502  0.37064775134E+03  0.30071631472E+02 -0.54583741622E+02  0.37585029392E+03  0.00000000000E+00 0. -1.
         13    1    5    5    0    0 -0.66777312509E+03 -0.36144538984E+01 -0.92982386032E+03  0.11447735244E+04  0.00000000000E+00 0. -1.
        -13    1    5    5    0    0 -0.49816929622E+03 -0.75821365474E+02 -0.75448701842E+03  0.90728837099E+03  0.00000000000E+00 0.  1.
          1    1    6    6  503    0  0.17892191873E+02 -0.62955666256E+02 -0.50595435260E+02  0.82725114161E+02  0.00000000000E+00 0. -1.
         -1    1    6    6    0  503  0.22649363329E+02  0.27043001502E+02 -0.67938911746E+02  0.76550723828E+02  0.00000000000E+00 0.  1.
<mgrwt>
<rscale>  0 0.12019170E+04</rscale>
<asrwt>0</asrwt>
<pdfrwt beam="1">  1        1 0.39906605E+00 0.12019170E+04</pdfrwt>
<pdfrwt beam="2">  1       -1 0.11584510E+00 0.12019170E+04</pdfrwt>
<totfact> 0.77768485E-01</totfact>
</mgrwt>
</event>
<event>
12    1  0.1418317E-007  0.6600213E+03  0.7818608E-02  0.9788155E-01
          2   -1    0    0  501    0  0.00000000000E+00  0.00000000000E+00  0.22769892032E+04  0.22769892032E+04  0.00000000000E+00 0. -1.
         -2   -1    0    0    0  501 -0.00000000000E+00 -0.00000000000E+00 -0.21721464973E+03  0.21721464973E+03  0.00000000000E+00 0.  1.
         23    2    1    2    0    0 -0.22650113193E+03  0.52001393348E+03  0.96390649764E+03  0.11220968900E+04  0.90930965634E+02 0.  0.
    5000000    2    1    2    0    0  0.22650113193E+03 -0.52001393348E+03  0.10958680558E+04  0.13721069629E+04  0.60002788954E+03 0.  0.
         23    2    4    4    0    0  0.37939295508E+03 -0.39303535697E+03  0.97708566761E+03  0.11229085416E+04  0.88382038363E+02 0.  0.
         23    2    4    4    0    0 -0.15289182315E+03 -0.12697857652E+03  0.11878238818E+03  0.24919842135E+03  0.92147322150E+02 0.  0.
          3    1    3    3  502    0 -0.11682151636E+03  0.24161092202E+03  0.37015076386E+03  0.45720311931E+03  0.00000000000E+00 0. -1.
         -3    1    3    3    0  502 -0.10967961557E+03  0.27840301146E+03  0.59375573378E+03  0.66489377066E+03  0.00000000000E+00 0.  1.
         11    1    5    5    0    0  0.25799369424E+03 -0.20673616908E+03  0.56287117330E+03  0.65278215938E+03  0.00000000000E+00 0.  1.
        -11    1    5    5    0    0  0.12139926084E+03 -0.18629918788E+03  0.41421449431E+03  0.47012638219E+03  0.00000000000E+00 0. -1.
          2    1    6    6  503    0 -0.39971001242E+02 -0.43292027982E+02  0.87038364223E+02  0.10510736165E+03  0.00000000000E+00 0. -1.
         -2    1    6    6    0  503 -0.11292082191E+03 -0.83686548534E+02  0.31744023952E+02  0.14409105969E+03  0.00000000000E+00 0.  1.
<mgrwt>
<rscale>  0 0.66002131E+03</rscale>
<asrwt>0</asrwt>
<pdfrwt beam="1">  1        2 0.35030601E+00 0.66002131E+03</pdfrwt>
<pdfrwt beam="2">  1       -2 0.33417640E-01 0.66002131E+03</pdfrwt>
<totfact> 0.41040469E+01</totfact>
</mgrwt>
</event>
<event>
12    1  0.1418317E-007  0.2550770E+04  0.7818608E-02  0.8385119E-01
          2   -1    0    0  501    0  0.00000000000E+00  0.00000000000E+00  0.37585028123E+04  0.37585028123E+04  0.00000000000E+00 0. -1.
         -2   -1    0    0    0  501 -0.00000000000E+00 -0.00000000000E+00 -0.17774757751E+04  0.17774757751E+04  0.00000000000E+00 0.  1.
         23    2    1    2    0    0 -0.24674760856E+04  0.57773776837E+03  0.68312184253E+03  0.26262044932E+04  0.89863375869E+02 0.  0.
    5000000    2    1    2    0    0  0.24674760856E+04 -0.57773776837E+03  0.12979051946E+04  0.29097740942E+04  0.60000685229E+03 0.  0.
         23    2    4    4    0    0  0.10579550957E+04 -0.44881428056E+03  0.81283787310E+03  0.14107293810E+04  0.93534674860E+02 0.  0.
         23    2    4    4    0    0  0.14095209899E+04 -0.12892348781E+03  0.48506732153E+03  0.14990447132E+04  0.92054652803E+02 0.  0.
          4    1    3    3  502    0 -0.10253403392E+04  0.27883000917E+03  0.26220521538E+03  0.10944498893E+04  0.00000000000E+00 0. -1.
         -4    1    3    3    0  502 -0.14421357465E+04  0.29890775919E+03  0.42091662715E+03  0.15317546040E+04  0.00000000000E+00 0.  1.
         13    1    5    5    0    0  0.91239852484E+02 -0.21088143840E+02  0.43228400050E+02  0.10314123842E+03  0.00000000000E+00 0. -1.
        -13    1    5    5    0    0  0.96671524326E+03 -0.42772613672E+03  0.76960947305E+03  0.13075881426E+04  0.00000000000E+00 0.  1.
          1    1    6    6  503    0  0.11405068584E+04 -0.10666349749E+03  0.43012176581E+03  0.12235757963E+04  0.00000000000E+00 0. -1.
         -1    1    6    6    0  503  0.26901413146E+03 -0.22259990322E+02  0.54945555723E+02  0.27546891692E+03  0.00000000000E+00 0.  1.
<mgrwt>
<rscale>  0 0.25507695E+04</rscale>
<asrwt>0</asrwt>
<pdfrwt beam="1">  1        2 0.57823120E+00 0.25507695E+04</pdfrwt>
<pdfrwt beam="2">  1       -2 0.27345781E+00 0.25507695E+04</pdfrwt>
<totfact> 0.20440224E-02</totfact>
</mgrwt>
</event>
<event>
12    1  0.1418317E-007  0.6570403E+03  0.7818608E-02  0.9793657E-01
         -2   -1    0    0    0  501 -0.00000000000E+00  0.00000000000E+00  0.19850140843E+04  0.19850140843E+04  0.00000000000E+00 0.  1.
          2   -1    0    0  501    0  0.00000000000E+00 -0.00000000000E+00 -0.24960395000E+03  0.24960395000E+03  0.00000000000E+00 0. -1.
         23    2    1    2    0    0  0.51107026635E+03 -0.22271974719E+03  0.91638945967E+03  0.10764026698E+04  0.89867473807E+02 0.  0.
    5000000    2    1    2    0    0 -0.51107026635E+03  0.22271974719E+03  0.81902067464E+03  0.11582153645E+04  0.59989254215E+03 0.  0.
         23    2    4    4    0    0  0.77018063203E+02 -0.53065014108E+02  0.32821556942E+02  0.13401853989E+03  0.90199981439E+02 0.  0.
         23    2    4    4    0    0 -0.58808832955E+03  0.27578476130E+03  0.78619911770E+03  0.10241968246E+04  0.94683498790E+02 0.  0.
          1    1    3    3  502    0  0.24297795680E+03 -0.15160118322E+03  0.43463607693E+03  0.52050910233E+03  0.00000000000E+00 0. -1.
         -1    1    3    3    0  502  0.26809230955E+03 -0.71118563972E+02  0.48175338274E+03  0.55589356748E+03  0.00000000000E+00 0.  1.
         13    1    5    5    0    0  0.19291503769E+01 -0.76060940692E+01  0.44751473265E+02  0.45434223307E+02  0.00000000000E+00 0. -1.
        -13    1    5    5    0    0  0.75088912827E+02 -0.45458920039E+02 -0.11929916323E+02  0.88584316581E+02  0.00000000000E+00 0.  1.
          1    1    6    6  503    0 -0.33528565258E+03  0.11209466458E+03  0.46118442738E+03  0.58109616993E+03  0.00000000000E+00 0. -1.
         -1    1    6    6    0  503 -0.25280267698E+03  0.16369009672E+03  0.32501469032E+03  0.44310065467E+03  0.00000000000E+00 0.  1.
<mgrwt>
<rscale>  0 0.65704031E+03</rscale>
<asrwt>0</asrwt>
<pdfrwt beam="1">  1        2 0.38400609E-01 0.65704031E+03</pdfrwt>
<pdfrwt beam="2">  1       -2 0.30538677E+00 0.65704031E+03</pdfrwt>
<totfact> 0.41859789E+00</totfact>
</mgrwt>
</event>
<event>
12    1  0.1513057E-007  0.1544233E+04  0.7818608E-02  0.8855560E-01
          2   -1    0    0  501    0  0.00000000000E+00  0.00000000000E+00  0.26484849639E+04  0.26484849639E+04  0.00000000000E+00 0. -1.
         -2   -1    0    0    0  501 -0.00000000000E+00 -0.00000000000E+00 -0.10171158245E+04  0.10171158245E+04  0.00000000000E+00 0.  1.
         23    2    1    2    0    0  0.83309496008E+03  0.12953655478E+04  0.37054612708E+03  0.15867246296E+04  0.91495916927E+02 0.  0.
    5000000    2    1    2    0    0 -0.83309496008E+03 -0.12953655478E+04  0.12608230124E+04  0.20788761588E+04  0.60002691615E+03 0.  0.
         23    2    4    4    0    0 -0.62899491034E+03 -0.85353541990E+03  0.11586173836E+04  0.15732222970E+04  0.92069778368E+02 0.  0.
         23    2    4    4    0    0 -0.20410004974E+03 -0.44183012791E+03  0.10220562878E+03  0.50565386175E+03  0.91483031848E+02 0.  0.
          2    1    3    3  502    0  0.25322742119E+03  0.36757732530E+03  0.14775423527E+03  0.47017925407E+03  0.00000000000E+00 0.  1.
         -2    1    3    3    0  502  0.57986753889E+03  0.92778822251E+03  0.22279189181E+03  0.11165453755E+04  0.00000000000E+00 0. -1.
         11    1    5    5    0    0 -0.52849118857E+03 -0.69161009151E+03  0.90094059495E+03  0.12527255927E+04  0.00000000000E+00 0.  1.
        -11    1    5    5    0    0 -0.10050372176E+03 -0.16192532839E+03  0.25767678863E+03  0.32049670429E+03  0.00000000000E+00 0. -1.
          1    1    6    6  503    0 -0.67900594086E+02 -0.16738924383E+03 -0.59781537307E+01  0.18073568532E+03  0.00000000000E+00 0. -1.
         -1    1    6    6    0  503 -0.13619945565E+03 -0.27444088408E+03  0.10818378251E+03  0.32491817643E+03  0.00000000000E+00 0.  1.
<mgrwt>
<rscale>  0 0.15442330E+04</rscale>
<asrwt>0</asrwt>
<pdfrwt beam="1">  1        2 0.40745922E+00 0.15442330E+04</pdfrwt>
<pdfrwt beam="2">  1       -2 0.15647936E+00 0.15442330E+04</pdfrwt>
<totfact> 0.71683267E-01</totfact>
</mgrwt>
</event>
<event>
12    1  0.1418317E-007  0.1513775E+04  0.7818608E-02  0.8875344E-01
          1   -1    0    0  501    0  0.00000000000E+00  0.00000000000E+00  0.22050489740E+04  0.22050489740E+04  0.00000000000E+00 0. -1.
         -1   -1    0    0    0  501 -0.00000000000E+00 -0.00000000000E+00 -0.15589467123E+04  0.15589467123E+04  0.00000000000E+00 0.  1.
         23    2    1    2    0    0 -0.14621379740E+04 -0.32585792341E+03 -0.70619768516E+03  0.16586888374E+04  0.92209801011E+02 0.  0.
    5000000    2    1    2    0    0  0.14621379740E+04  0.32585792341E+03  0.13522999469E+04  0.21053068489E+04  0.59964234384E+03 0.  0.
         23    2    4    4    0    0  0.12467773280E+04  0.19049527974E+03  0.13277451773E+04  0.18335709419E+04  0.91285191045E+02 0.  0.
         23    2    4    4    0    0  0.21536064603E+03  0.13536264367E+03  0.24554769568E+02  0.27173590698E+03  0.92380805778E+02 0.  0.
          1    1    3    3  502    0 -0.61960616823E+03 -0.12156255792E+03 -0.25071939430E+03  0.67937432529E+03  0.00000000000E+00 0. -1.
         -1    1    3    3    0  502 -0.84253180580E+03 -0.20429536549E+03 -0.45547829086E+03  0.97931451209E+03  0.00000000000E+00 0.  1.
         13    1    5    5    0    0  0.89473305363E+03  0.15948776538E+03  0.90526384245E+03  0.12827650638E+04  0.00000000000E+00 0.  1.
        -13    1    5    5    0    0  0.35204427437E+03  0.31007514353E+02  0.42248133484E+03  0.55080587810E+03  0.00000000000E+00 0. -1.
          4    1    6    6  503    0  0.11942492138E+03  0.12086868240E+03  0.37054259436E+02  0.17390965578E+03  0.00000000000E+00 0. -1.
         -4    1    6    6    0  503  0.95935724648E+02  0.14493961272E+02 -0.12499489868E+02  0.97826251201E+02  0.00000000000E+00 0.  1.
<mgrwt>
<rscale>  0 0.15137747E+04</rscale>
<asrwt>0</asrwt>
<pdfrwt beam="1">  1        1 0.33923830E+00 0.15137747E+04</pdfrwt>
<pdfrwt beam="2">  1       -1 0.23983795E+00 0.15137747E+04</pdfrwt>
<totfact> 0.16543818E-01</totfact>
</mgrwt>
</event>
<event>
12    1  0.1418317E-007  0.6314162E+03  0.7818608E-02  0.9842289E-01
         -1   -1    0    0    0  501 -0.00000000000E+00  0.00000000000E+00  0.46947574342E+03  0.46947574342E+03  0.00000000000E+00 0.  1.
          1   -1    0    0  501    0  0.00000000000E+00 -0.00000000000E+00 -0.11068239860E+04  0.11068239860E+04  0.00000000000E+00 0. -1.
         23    2    1    2    0    0 -0.56128477631E+03  0.10716207166E+03 -0.43163223946E+03  0.72248907290E+03  0.95706638270E+02 0.  0.
    5000000    2    1    2    0    0  0.56128477631E+03 -0.10716207166E+03 -0.20571600316E+03  0.85381065656E+03  0.60012436510E+03 0.  0.
         23    2    4    4    0    0  0.23680456426E+03 -0.22949398315E+03 -0.32880607161E+03  0.47433417798E+03  0.90197503983E+02 0.  0.
         23    2    4    4    0    0  0.32448021205E+03  0.12233191149E+03  0.12309006845E+03  0.37947647858E+03  0.92729327942E+02 0.  0.
          4    1    3    3  502    0 -0.17646394841E+03  0.18565633058E+02 -0.18790450919E+03  0.25844208711E+03  0.00000000000E+00 0. -1.
         -4    1    3    3    0  502 -0.38482082790E+03  0.88596438597E+02 -0.24372773027E+03  0.46404698579E+03  0.00000000000E+00 0.  1.
         11    1    5    5    0    0  0.17076771989E+03 -0.19092131733E+03 -0.20184863608E+03  0.32612181077E+03  0.00000000000E+00 0. -1.
        -11    1    5    5    0    0  0.66036844362E+02 -0.38572665818E+02 -0.12695743552E+03  0.14821236722E+03  0.00000000000E+00 0.  1.
          3    1    6    6  503    0  0.96696131410E+02  0.81509598832E+02  0.29552851785E+02  0.12987427605E+03  0.00000000000E+00 0. -1.
         -3    1    6    6    0  503  0.22778408064E+03  0.40822312661E+02  0.93537216661E+02  0.24960220253E+03  0.00000000000E+00 0.  1.
<mgrwt>
<rscale>  0 0.63141624E+03</rscale>
<asrwt>0</asrwt>
<pdfrwt beam="1">  1        1 0.17028061E+00 0.63141624E+03</pdfrwt>
<pdfrwt beam="2">  1       -1 0.72227037E-01 0.63141624E+03</pdfrwt>
<totfact> 0.25318429E+01</totfact>
</mgrwt>
</event>
<event>
12    1  0.1418317E-007  0.6327162E+03  0.7818608E-02  0.9839763E-01
          2   -1    0    0  501    0  0.00000000000E+00  0.00000000000E+00  0.39832984702E+03  0.39832984702E+03  0.00000000000E+00 0. -1.
         -2   -1    0    0    0  501 -0.00000000000E+00 -0.00000000000E+00 -0.16776027532E+04  0.16776027532E+04  0.00000000000E+00 0.  1.
         23    2    1    2    0    0 -0.22601462419E+03  0.55740723378E+03 -0.10205226549E+04  0.11880940731E+04  0.91189927351E+02 0.  0.
    5000000    2    1    2    0    0  0.22601462419E+03 -0.55740723378E+03 -0.25875025130E+03  0.88783852710E+03  0.59959996919E+03 0.  0.
         23    2    4    4    0    0  0.65967524080E+02 -0.19174927684E+02 -0.29693643262E+03  0.31755549002E+03  0.89167550942E+02 0.  0.
         23    2    4    4    0    0  0.16004710011E+03 -0.53823230609E+03  0.38186181320E+02  0.57028303708E+03  0.91953620732E+02 0.  0.
          3    1    3    3  502    0 -0.18595065308E+03  0.35860518229E+03 -0.71930037588E+03  0.82496566771E+03  0.00000000000E+00 0. -1.
         -3    1    3    3    0  502 -0.40063971103E+02  0.19880205149E+03 -0.30122227900E+03  0.36312840542E+03  0.00000000000E+00 0.  1.
         13    1    5    5    0    0  0.50438837334E+02 -0.39923709842E+02 -0.27829115714E+03  0.28562903749E+03  0.00000000000E+00 0. -1.
        -13    1    5    5    0    0  0.15528686746E+02  0.20748782158E+02 -0.18645275479E+02  0.31926452524E+02  0.00000000000E+00 0.  1.
          3    1    6    6  503    0  0.54455012774E+02 -0.33517268671E+03  0.35237716617E+02  0.34139094160E+03  0.00000000000E+00 0. -1.
         -3    1    6    6    0  503  0.10559208733E+03 -0.20305961938E+03  0.29484647026E+01  0.22889209548E+03  0.00000000000E+00 0.  1.
<mgrwt>
<rscale>  0 0.63271624E+03</rscale>
<asrwt>0</asrwt>
<pdfrwt beam="1">  1        2 0.61281515E-01 0.63271624E+03</pdfrwt>
<pdfrwt beam="2">  1       -2 0.25809273E+00 0.63271624E+03</pdfrwt>
<totfact> 0.47954015E+00</totfact>
</mgrwt>
</event>
<event>
12    1  0.1418317E-007  0.5039617E+03  0.7818608E-02  0.1012750E+00
          2   -1    0    0  501    0  0.00000000000E+00  0.00000000000E+00  0.11173901531E+04  0.11173901531E+04  0.00000000000E+00 0. -1.
         -2   -1    0    0    0  501 -0.00000000000E+00 -0.00000000000E+00 -0.37678909185E+03  0.37678909185E+03  0.00000000000E+00 0.  1.
         23    2    1    2    0    0 -0.37848902175E+03 -0.42120338755E+02 -0.89430235494E+02  0.40150820058E+03  0.90459966767E+02 0.  0.
    5000000    2    1    2    0    0  0.37848902175E+03  0.42120338755E+02  0.83003129674E+03  0.10926710444E+04  0.59995832782E+03 0.  0.
         23    2    4    4    0    0 -0.12130728950E+03  0.16800706410E+02  0.39459223298E+03  0.42335456802E+03  0.92348999529E+02 0.  0.
         23    2    4    4    0    0  0.49979631126E+03  0.25319632345E+02  0.43543906377E+03  0.66931647636E+03  0.89106289016E+02 0.  0.
          4    1    3    3  502    0 -0.32828184086E+03 -0.49760143367E+02 -0.10525371039E+03  0.34831506206E+03  0.00000000000E+00 0.  1.
         -4    1    3    3    0  502 -0.50207180893E+02  0.76398046121E+01  0.15823474898E+02  0.53193138519E+02  0.00000000000E+00 0. -1.
         13    1    5    5    0    0 -0.10590416477E+03  0.15340310462E+02  0.18908064408E+03  0.21726137992E+03  0.00000000000E+00 0. -1.
        -13    1    5    5    0    0 -0.15403124733E+02  0.14603959477E+01  0.20551158890E+03  0.20609318810E+03  0.00000000000E+00 0.  1.
          2    1    6    6  503    0  0.30542059274E+02 -0.97541621366E+01  0.57239844412E+02  0.65607628001E+02  0.00000000000E+00 0.  1.
         -2    1    6    6    0  503  0.46925425198E+03  0.35073794482E+02  0.37819921935E+03  0.60370884836E+03  0.00000000000E+00 0. -1.
<mgrwt>
<rscale>  0 0.50396173E+03</rscale>
<asrwt>0</asrwt>
<pdfrwt beam="1">  1        2 0.17190618E+00 0.50396173E+03</pdfrwt>
<pdfrwt beam="2">  1       -2 0.57967553E-01 0.50396173E+03</pdfrwt>
<totfact> 0.61757502E+01</totfact>
</mgrwt>
</event>
<event>
12    1  0.1418317E-007  0.1644697E+04  0.7818608E-02  0.8793550E-01
         -1   -1    0    0    0  501 -0.00000000000E+00  0.00000000000E+00  0.44147042384E+04  0.44147042384E+04  0.00000000000E+00 0.  1.
          1   -1    0    0  501    0  0.00000000000E+00 -0.00000000000E+00 -0.64719617589E+03  0.64719617589E+03  0.00000000000E+00 0. -1.
         23    2    1    2    0    0 -0.84797938752E+03  0.13479692404E+04  0.23853622307E+04  0.28695616154E+04  0.91327859415E+02 0.  0.
    5000000    2    1    2    0    0  0.84797938752E+03 -0.13479692404E+04  0.13821458318E+04  0.21923387989E+04  0.59994349245E+03 0.  0.
         23    2    4    4    0    0  0.27156487514E+03 -0.95099957511E+03  0.74760067055E+03  0.12432887303E+04  0.93340403672E+02 0.  0.
         23    2    4    4    0    0  0.57641451238E+03 -0.39696966531E+03  0.63454516126E+03  0.94905006866E+03  0.90608310191E+02 0.  0.
          3    1    3    3  502    0 -0.44418132404E+03  0.71998467468E+03  0.11859641124E+04  0.14567724106E+04  0.00000000000E+00 0. -1.
         -3    1    3    3    0  502 -0.40379806348E+03  0.62798456574E+03  0.11993981184E+04  0.14127892048E+04  0.00000000000E+00 0.  1.
         13    1    5    5    0    0  0.12013553885E+03 -0.57691462413E+03  0.46388859443E+03  0.74997043893E+03  0.00000000000E+00 0.  1.
        -13    1    5    5    0    0  0.15142933629E+03 -0.37408495098E+03  0.28371207612E+03  0.49331829134E+03  0.00000000000E+00 0. -1.
          2    1    6    6  503    0  0.38420089532E+03 -0.22029463529E+03  0.36631443405E+03  0.57474021861E+03  0.00000000000E+00 0.  1.
         -2    1    6    6    0  503  0.19221361706E+03 -0.17667503002E+03  0.26823072721E+03  0.37430985004E+03  0.00000000000E+00 0. -1.
<mgrwt>
<rscale>  0 0.16446970E+04</rscale>
<asrwt>0</asrwt>
<pdfrwt beam="1">  1        1 0.99568645E-01 0.16446970E+04</pdfrwt>
<pdfrwt beam="2">  1       -1 0.67918525E+00 0.16446970E+04</pdfrwt>
<totfact> 0.66385229E-03</totfact>
</mgrwt>
</event>
<event>
12    1  0.1418317E-007  0.5776153E+03  0.7818608E-02  0.9952967E-01
         -1   -1    0    0    0  501 -0.00000000000E+00  0.00000000000E+00  0.49558851993E+03  0.49558851993E+03  0.00000000000E+00 0.  1.
          1   -1    0    0  501    0  0.00000000000E+00 -0.00000000000E+00 -0.72813562031E+03  0.72813562031E+03  0.00000000000E+00 0. -1.
         23    2    1    2    0    0  0.42306861152E+03 -0.10660559942E+03 -0.17993472026E+03  0.48019908097E+03  0.88672712446E+02 0.  0.
    5000000    2    1    2    0    0 -0.42306861152E+03  0.10660559942E+03 -0.52612380122E+02  0.74352505926E+03  0.59975799063E+03 0.  0.
         23    2    4    4    0    0 -0.17422291879E+03 -0.22099929371E+03 -0.11458272419E+03  0.31742433312E+03  0.91840586464E+02 0.  0.
         23    2    4    4    0    0 -0.24884569272E+03  0.32760489314E+03  0.61970344065E+02  0.42610072614E+03  0.92045426150E+02 0.  0.
          3    1    3    3  502    0  0.29931017636E+03 -0.33909212059E+02 -0.13198301582E+03  0.32887069313E+03  0.00000000000E+00 0. -1.
         -3    1    3    3    0  502  0.12375843516E+03 -0.72696387363E+02 -0.47951704440E+02  0.15132838784E+03  0.00000000000E+00 0.  1.
         11    1    5    5    0    0 -0.10687241076E+03 -0.69235495183E+02 -0.70858751198E+02  0.14572655419E+03  0.00000000000E+00 0.  1.
        -11    1    5    5    0    0 -0.67350508036E+02 -0.15176379853E+03 -0.43723972988E+02  0.17169777893E+03  0.00000000000E+00 0. -1.
          1    1    6    6  503    0 -0.39709453283E+02  0.18293129373E+02  0.26301574376E+02  0.51022074409E+02  0.00000000000E+00 0. -1.
         -1    1    6    6    0  503 -0.20913623944E+03  0.30931176376E+03  0.35668769689E+02  0.37507865173E+03  0.00000000000E+00 0.  1.
<mgrwt>
<rscale>  0 0.57761533E+03</rscale>
<asrwt>0</asrwt>
<pdfrwt beam="1">  1        1 0.11202086E+00 0.57761533E+03</pdfrwt>
<pdfrwt beam="2">  1       -1 0.76244388E-01 0.57761533E+03</pdfrwt>
<totfact> 0.46148413E+01</totfact>
</mgrwt>
</event>
<event>
12    1  0.1589041E-007  0.1411796E+04  0.7818608E-02  0.8945324E-01
          2   -1    0    0  501    0  0.00000000000E+00  0.00000000000E+00  0.12757014728E+04  0.12757014728E+04  0.00000000000E+00 0. -1.
         -2   -1    0    0    0  501 -0.00000000000E+00 -0.00000000000E+00 -0.16606267422E+04  0.16606267422E+04  0.00000000000E+00 0.  1.
         23    2    1    2    0    0 -0.24706512161E+03 -0.13477371944E+04 -0.43244435963E+03  0.14397516773E+04  0.91869736949E+02 0.  0.
    5000000    2    1    2    0    0  0.24706512161E+03  0.13477371944E+04  0.47519090229E+02  0.14965765378E+04  0.60003879047E+03 0.  0.
         23    2    4    4    0    0  0.38562110873E+03  0.10064303447E+04 -0.10648441162E+03  0.10869895245E+04  0.92744908917E+02 0.  0.
         23    2    4    4    0    0 -0.13855598713E+03  0.34130684968E+03  0.15400350185E+03  0.40958701333E+03  0.91412885829E+02 0.  0.
          3    1    3    3  502    0 -0.20071634943E+03 -0.85020040031E+03 -0.27251807804E+03  0.91509227758E+03  0.00000000000E+00 0. -1.
         -3    1    3    3    0  502 -0.46348772174E+02 -0.49753679408E+03 -0.15992628159E+03  0.52465939970E+03  0.00000000000E+00 0.  1.
         11    1    5    5    0    0  0.18468623818E+03  0.47827764489E+03 -0.41507671608E+01  0.51271409288E+03  0.00000000000E+00 0.  1.
        -11    1    5    5    0    0  0.20093487055E+03  0.52815269983E+03 -0.10233364446E+03  0.57427543159E+03  0.00000000000E+00 0. -1.
          2    1    6    6  503    0 -0.26848906264E+02  0.23503935610E+02  0.40818704170E+02  0.54216836562E+02  0.00000000000E+00 0. -1.
         -2    1    6    6    0  503 -0.11170708086E+03  0.31780291407E+03  0.11318479768E+03  0.35537017676E+03  0.00000000000E+00 0.  1.
<mgrwt>
<rscale>  0 0.14117956E+04</rscale>
<asrwt>0</asrwt>
<pdfrwt beam="1">  1        2 0.19626177E+00 0.14117956E+04</pdfrwt>
<pdfrwt beam="2">  1       -2 0.25548104E+00 0.14117956E+04</pdfrwt>
<totfact> 0.96597577E-01</totfact>
</mgrwt>
</event>
<event>
12    1  0.1418317E-007  0.5781870E+03  0.7818608E-02  0.9951724E-01
          2   -1    0    0  501    0  0.00000000000E+00  0.00000000000E+00  0.17260046236E+04  0.17260046236E+04  0.00000000000E+00 0.  1.
         -2   -1    0    0    0  501 -0.00000000000E+00 -0.00000000000E+00 -0.20417047745E+03  0.20417047745E+03  0.00000000000E+00 0. -1.
         23    2    1    2    0    0  0.43591115394E+03  0.50204774181E+01  0.56930612973E+03  0.72299690420E+03  0.92581395594E+02 0.  0.
    5000000    2    1    2    0    0 -0.43591115394E+03 -0.50204774181E+01  0.95252801643E+03  0.12071781969E+04  0.59993819479E+03 0.  0.
         23    2    4    4    0    0  0.10554000992E+03  0.84424208620E+02  0.10717999338E+03  0.19518038205E+03  0.91332852036E+02 0.  0.
         23    2    4    4    0    0 -0.54145116386E+03 -0.89444686038E+02  0.84534802305E+03  0.10119978148E+04  0.91414344650E+02 0.  0.
          1    1    3    3  502    0  0.30022860364E+03  0.39667556924E+02  0.42557149205E+03  0.52232348632E+03  0.00000000000E+00 0. -1.
         -1    1    3    3    0  502  0.13568255029E+03 -0.34647079506E+02  0.14373463768E+03  0.20067341787E+03  0.00000000000E+00 0.  1.
         11    1    5    5    0    0  0.39430773510E+02 -0.15061880346E+02  0.39921017592E+02  0.58097622884E+02  0.00000000000E+00 0.  1.
        -11    1    5    5    0    0  0.66109236410E+02  0.99486088966E+02  0.67258975793E+02  0.13708275917E+03  0.00000000000E+00 0. -1.
          3    1    6    6  503    0 -0.17528541945E+03 -0.16280172273E+01  0.33095028798E+03  0.37450730544E+03  0.00000000000E+00 0. -1.
         -3    1    6    6    0  503 -0.36616574440E+03 -0.87816668810E+02  0.51439773507E+03  0.63749050937E+03  0.00000000000E+00 0.  1.
<mgrwt>
<rscale>  0 0.57818699E+03</rscale>
<asrwt>0</asrwt>
<pdfrwt beam="1">  1        2 0.26553916E+00 0.57818699E+03</pdfrwt>
<pdfrwt beam="2">  1       -2 0.31410844E-01 0.57818699E+03</pdfrwt>
<totfact> 0.92958340E+01</totfact>
</mgrwt>
</event>
<event>
12    1  0.1418317E-007  0.7347788E+03  0.7818608E-02  0.9659537E-01
         -2   -1    0    0    0  501 -0.00000000000E+00  0.00000000000E+00  0.36867749795E+03  0.36867749795E+03  0.00000000000E+00 0.  1.
          2   -1    0    0  501    0  0.00000000000E+00 -0.00000000000E+00 -0.27476519491E+04  0.27476519491E+04  0.00000000000E+00 0. -1.
         23    2    1    2    0    0  0.70402080065E+03 -0.72910708164E+02 -0.19831966061E+04  0.21076567219E+04  0.90481047056E+02 0.  0.
    5000000    2    1    2    0    0 -0.70402080065E+03  0.72910708164E+02 -0.39577784501E+03  0.10086727251E+04  0.59984940162E+03 0.  0.
         23    2    4    4    0    0 -0.21638412146E+03 -0.10549322954E+03  0.10727376661E+03  0.27991728528E+03  0.94313923133E+02 0.  0.
         23    2    4    4    0    0 -0.48763667919E+03  0.17840393770E+03 -0.50305161162E+03  0.72875543981E+03  0.91684629154E+02 0.  0.
          4    1    3    3  502    0  0.15970071441E+03 -0.60964814026E+00 -0.55570971450E+03  0.57820236651E+03  0.00000000000E+00 0. -1.
         -4    1    3    3    0  502  0.54432008623E+03 -0.72301060023E+02 -0.14274868916E+04  0.15294543554E+04  0.00000000000E+00 0.  1.
         11    1    5    5    0    0 -0.11141360959E+03 -0.46607608942E+02  0.32156852767E+01  0.12081226032E+03  0.00000000000E+00 0. -1.
        -11    1    5    5    0    0 -0.10497051188E+03 -0.58885620598E+02  0.10405808133E+03  0.15910502496E+03  0.00000000000E+00 0.  1.
          2    1    6    6  503    0 -0.27773563488E+03  0.91127063988E+02 -0.34345830311E+03  0.45100424682E+03  0.00000000000E+00 0. -1.
         -2    1    6    6    0  503 -0.20990104431E+03  0.87276873715E+02 -0.15959330851E+03  0.27775119299E+03  0.00000000000E+00 0.  1.
<mgrwt>
<rscale>  0 0.73477880E+03</rscale>
<asrwt>0</asrwt>
<pdfrwt beam="1">  1        2 0.42271569E+00 0.73477880E+03</pdfrwt>
<pdfrwt beam="2">  1       -2 0.56719615E-01 0.73477880E+03</pdfrwt>
<totfact> 0.76810488E+00</totfact>
</mgrwt>
</event>
<event>
12    1  0.1632176E-007  0.6578776E+03  0.7818608E-02  0.9792109E-01
         -1   -1    0    0    0  501 -0.00000000000E+00  0.00000000000E+00  0.37172638510E+03  0.37172638510E+03  0.00000000000E+00 0.  1.
          1   -1    0    0  501    0  0.00000000000E+00 -0.00000000000E+00 -0.18317134810E+04  0.18317134810E+04  0.00000000000E+00 0. -1.
         23    2    1    2    0    0 -0.60385561453E+03  0.18609080729E+03 -0.18828330272E+03  0.66183050300E+03  0.57424914934E+02 0.  0.
    5000000    2    1    2    0    0  0.60385561453E+03 -0.18609080729E+03 -0.12717037931E+04  0.15416093631E+04  0.60004791394E+03 0.  0.
         23    2    4    4    0    0  0.52736426210E+03 -0.21056133317E+03 -0.50496138428E+03  0.76540856930E+03  0.91734063351E+02 0.  0.
         23    2    4    4    0    0  0.76491352428E+02  0.24470525875E+02 -0.76674240887E+03  0.77620079376E+03  0.90244207808E+02 0.  0.
          4    1    3    3  502    0 -0.18703697580E+03  0.79696491852E+02 -0.43260876826E+02  0.20786020445E+03  0.00000000000E+00 0. -1.
         -4    1    3    3    0  502 -0.41681863873E+03  0.10639431544E+03 -0.14502242590E+03  0.45397029855E+03  0.00000000000E+00 0.  1.
         11    1    5    5    0    0  0.18240500968E+03 -0.44441232763E+02 -0.21291663939E+03  0.28386635245E+03  0.00000000000E+00 0.  1.
        -11    1    5    5    0    0  0.34495925242E+03 -0.16612010040E+03 -0.29204474489E+03  0.48154221685E+03  0.00000000000E+00 0. -1.
          4    1    6    6  503    0 -0.52101085386E+01  0.29342885397E+02 -0.36447883496E+03  0.36569518904E+03  0.00000000000E+00 0. -1.
         -4    1    6    6    0  503  0.81701460966E+02 -0.48723595222E+01 -0.40226357392E+03  0.41050560472E+03  0.00000000000E+00 0.  1.
<mgrwt>
<rscale>  0 0.65787765E+03</rscale>
<asrwt>0</asrwt>
<pdfrwt beam="1">  1        1 0.28180208E+00 0.65787765E+03</pdfrwt>
<pdfrwt beam="2">  1       -1 0.57188674E-01 0.65787765E+03</pdfrwt>
<totfact> 0.12692034E+01</totfact>
</mgrwt>
</event>
<event>
12    1  0.1418317E-007  0.6523571E+03  0.7818608E-02  0.9802366E-01
          1   -1    0    0  501    0  0.00000000000E+00  0.00000000000E+00  0.17630384310E+04  0.17630384310E+04  0.00000000000E+00 0. -1.
         -1   -1    0    0    0  501 -0.00000000000E+00 -0.00000000000E+00 -0.36345299722E+03  0.36345299722E+03  0.00000000000E+00 0.  1.
         23    2    1    2    0    0  0.14009046712E+02 -0.53808074176E+03  0.11653462506E+04  0.12870040827E+04  0.92846577812E+02 0.  0.
    5000000    2    1    2    0    0 -0.14009046712E+02  0.53808074176E+03  0.23423918321E+03  0.83948734556E+03  0.60011987999E+03 0.  0.
         23    2    4    4    0    0 -0.17836911976E+03  0.13692435394E+02  0.19168246756E+03  0.28017519324E+03  0.98756999068E+02 0.  0.
         23    2    4    4    0    0  0.16436007305E+03  0.52438830637E+03  0.42556715652E+02  0.55931215233E+03  0.94982525899E+02 0.  0.
          3    1    3    3  502    0  0.50741392594E+02 -0.37855909721E+03  0.84222096354E+03  0.92477988215E+03  0.00000000000E+00 0. -1.
         -3    1    3    3    0  502 -0.36732345882E+02 -0.15952164455E+03  0.32312528706E+03  0.36222420053E+03  0.00000000000E+00 0.  1.
         11    1    5    5    0    0 -0.72656225272E+02 -0.42791012352E+02  0.84737252230E+02  0.11954245992E+03  0.00000000000E+00 0. -1.
        -11    1    5    5    0    0 -0.10571289449E+03  0.56483447746E+02  0.10694521533E+03  0.16063273331E+03  0.00000000000E+00 0.  1.
          1    1    6    6  503    0  0.10353836217E+03  0.20383811251E+03 -0.99583910390E+01  0.22884347949E+03  0.00000000000E+00 0. -1.
         -1    1    6    6    0  503  0.60821710875E+02  0.32055019386E+03  0.52515106691E+02  0.33046867284E+03  0.00000000000E+00 0.  1.
<mgrwt>
<rscale>  0 0.65235709E+03</rscale>
<asrwt>0</asrwt>
<pdfrwt beam="1">  1        1 0.27123668E+00 0.65235709E+03</pdfrwt>
<pdfrwt beam="2">  1       -1 0.55915846E-01 0.65235709E+03</pdfrwt>
<totfact> 0.14748212E+01</totfact>
</mgrwt>
</event>
<event>
12    1  0.1418317E-007  0.6234907E+03  0.7818608E-02  0.9857834E-01
          2   -1    0    0  501    0  0.00000000000E+00  0.00000000000E+00  0.16579242203E+04  0.16579242203E+04  0.00000000000E+00 0.  1.
         -2   -1    0    0    0  501 -0.00000000000E+00 -0.00000000000E+00 -0.28314200517E+03  0.28314200517E+03  0.00000000000E+00 0. -1.
         23    2    1    2    0    0 -0.35749129798E+02 -0.52902353833E+03  0.76285659266E+03  0.93344347908E+03  0.90678791873E+02 0.  0.
    5000000    2    1    2    0    0  0.35749129798E+02  0.52902353833E+03  0.61192562246E+03  0.10076227464E+04  0.59975555620E+03 0.  0.
         23    2    4    4    0    0  0.17867420381E+03  0.28370594631E+02  0.46837430156E+01  0.20318442141E+03  0.92372127330E+02 0.  0.
         23    2    4    4    0    0 -0.14292507401E+03  0.50065294370E+03  0.60724187944E+03  0.80443832496E+03  0.85424655145E+02 0.  0.
          4    1    3    3  502    0 -0.58061443277E+02 -0.21012680298E+03  0.29537526157E+03  0.36711163108E+03  0.00000000000E+00 0. -1.
         -4    1    3    3    0  502  0.22312313478E+02 -0.31889673534E+03  0.46748133109E+03  0.56633184800E+03  0.00000000000E+00 0.  1.
         13    1    5    5    0    0  0.14141753922E+03  0.15208354525E+02 -0.35742230649E+02  0.14665511071E+03  0.00000000000E+00 0. -1.
        -13    1    5    5    0    0  0.37256664589E+02  0.13162240106E+02  0.40425973664E+02  0.56529310694E+02  0.00000000000E+00 0.  1.
          3    1    6    6  503    0 -0.11628426309E+03  0.25262468954E+03  0.31415928775E+03  0.41956801795E+03  0.00000000000E+00 0. -1.
         -3    1    6    6    0  503 -0.26640810923E+02  0.24802825415E+03  0.29308259169E+03  0.38487030701E+03  0.00000000000E+00 0.  1.
<mgrwt>
<rscale>  0 0.62349072E+03</rscale>
<asrwt>0</asrwt>
<pdfrwt beam="1">  1        2 0.25506526E+00 0.62349072E+03</pdfrwt>
<pdfrwt beam="2">  1       -2 0.43560309E-01 0.62349072E+03</pdfrwt>
<totfact> 0.53762962E+01</totfact>
</mgrwt>
</event>
<event>
12    1  0.1418317E-007  0.6192615E+03  0.7818608E-02  0.9866231E-01
          1   -1    0    0  501    0  0.00000000000E+00  0.00000000000E+00  0.79434835596E+03  0.79434835596E+03  0.00000000000E+00 0. -1.
         -1   -1    0    0    0  501 -0.00000000000E+00 -0.00000000000E+00 -0.72241486759E+03  0.72241486759E+03  0.00000000000E+00 0.  1.
         23    2    1    2    0    0  0.52901733333E+03 -0.16811467277E+03  0.33895397931E+03  0.65685140896E+03  0.91880853235E+02 0.  0.
    5000000    2    1    2    0    0 -0.52901733333E+03  0.16811467277E+03 -0.26702049094E+03  0.85991181460E+03  0.60002208638E+03 0.  0.
         23    2    4    4    0    0 -0.21281939375E+03 -0.11402508399E+03 -0.33277389652E+03  0.42084776418E+03  0.89891936664E+02 0.  0.
         23    2    4    4    0    0 -0.31619793958E+03  0.28213975676E+03  0.65753405578E+02  0.43906405042E+03  0.94179353818E+02 0.  0.
          2    1    3    3  502    0  0.36938000319E+03 -0.86146913108E+02  0.26532380307E+03  0.46288184008E+03  0.00000000000E+00 0. -1.
         -2    1    3    3    0  502  0.15963733014E+03 -0.81967759664E+02  0.73630176237E+02  0.19396956888E+03  0.00000000000E+00 0.  1.
         11    1    5    5    0    0 -0.65197079225E+01 -0.16066925038E+02 -0.72682830579E+02  0.74722463373E+02  0.00000000000E+00 0. -1.
        -11    1    5    5    0    0 -0.20629968583E+03 -0.97958158951E+02 -0.26009106594E+03  0.34612530081E+03  0.00000000000E+00 0.  1.
          1    1    6    6  503    0 -0.12788362328E+03  0.17706869923E+03  0.29812348483E+02  0.22044573362E+03  0.00000000000E+00 0. -1.
         -1    1    6    6    0  503 -0.18831431630E+03  0.10507105753E+03  0.35941057095E+02  0.21861831680E+03  0.00000000000E+00 0.  1.
<mgrwt>
<rscale>  0 0.61926153E+03</rscale>
<asrwt>0</asrwt>
<pdfrwt beam="1">  1        1 0.12220744E+00 0.61926153E+03</pdfrwt>
<pdfrwt beam="2">  1       -1 0.11114075E+00 0.61926153E+03</pdfrwt>
<totfact> 0.17421991E+01</totfact>
</mgrwt>
</event>
<event>
12    1  0.1418317E-007  0.9516890E+03  0.7818608E-02  0.9363179E-01
         -2   -1    0    0    0  501 -0.00000000000E+00  0.00000000000E+00  0.63800902070E+03  0.63800902070E+03  0.00000000000E+00 0. -1.
          2   -1    0    0  501    0  0.00000000000E+00 -0.00000000000E+00 -0.17454052559E+04  0.17454052559E+04  0.00000000000E+00 0.  1.
         23    2    1    2    0    0 -0.94006660858E+03 -0.82026370809E+02 -0.75157760664E+03  0.12099236431E+04  0.92697191767E+02 0.  0.
    5000000    2    1    2    0    0  0.94006660858E+03  0.82026370809E+02 -0.35581862855E+03  0.11734906335E+04  0.60001651335E+03 0.  0.
         23    2    4    4    0    0  0.50735099173E+03 -0.17142407100E+01 -0.48273505483E+03  0.70635316133E+03  0.92161206207E+02 0.  0.
         23    2    4    4    0    0  0.43271561685E+03  0.83740611519E+02  0.12691642628E+03  0.46713747212E+03  0.88624734219E+02 0.  0.
          2    1    3    3  502    0 -0.14506699007E+03 -0.44537309034E+02 -0.13573601152E+03  0.20359830138E+03  0.00000000000E+00 0. -1.
         -2    1    3    3    0  502 -0.79499961852E+03 -0.37489061774E+02 -0.61584159513E+03  0.10063253418E+04  0.00000000000E+00 0.  1.
         11    1    5    5    0    0  0.75322507567E+02  0.30394965793E+02 -0.94682029833E+02  0.12474782910E+03  0.00000000000E+00 0.  1.
        -11    1    5    5    0    0  0.43202848417E+03 -0.32109206502E+02 -0.38805302500E+03  0.58160533223E+03  0.00000000000E+00 0. -1.
          3    1    6    6  503    0  0.29730590806E+03  0.67965447533E+02  0.12815127103E+03  0.33080636828E+03  0.00000000000E+00 0. -1.
         -3    1    6    6    0  503  0.13540970879E+03  0.15775163985E+02 -0.12348447533E+01  0.13633110384E+03  0.00000000000E+00 0.  1.
<mgrwt>
<rscale>  0 0.95168898E+03</rscale>
<asrwt>0</asrwt>
<pdfrwt beam="1">  1        2 0.26852389E+00 0.95168898E+03</pdfrwt>
<pdfrwt beam="2">  1       -2 0.98155233E-01 0.95168898E+03</pdfrwt>
<totfact> 0.80117065E+00</totfact>
</mgrwt>
</event>
<event>
12    1  0.1418317E-007  0.4898699E+03  0.7818608E-02  0.1016457E+00
         -2   -1    0    0    0  501 -0.00000000000E+00  0.00000000000E+00  0.97312304745E+02  0.97312304745E+02  0.00000000000E+00 0. -1.
          2   -1    0    0  501    0  0.00000000000E+00 -0.00000000000E+00 -0.28630365787E+04  0.28630365787E+04  0.00000000000E+00 0.  1.
         23    2    1    2    0    0 -0.22103519505E+03  0.23433088344E+03 -0.56531496343E+03  0.65693903939E+03  0.90666273814E+02 0.  0.
    5000000    2    1    2    0    0  0.22103519505E+03 -0.23433088344E+03 -0.22004093105E+04  0.23034098440E+04  0.60010687003E+03 0.  0.
         23    2    4    4    0    0 -0.17803645230E+03 -0.59547129042E+02 -0.10398890883E+04  0.10605295890E+04  0.90060281631E+02 0.  0.
         23    2    4    4    0    0  0.39907164735E+03 -0.17478375440E+03 -0.11605202222E+04  0.12428802550E+04  0.90203113015E+02 0.  0.
          4    1    3    3  502    0 -0.80871963248E+02  0.37277343418E+02 -0.19887106662E+03  0.21789808606E+03  0.00000000000E+00 0.  1.
         -4    1    3    3    0  502 -0.14016323180E+03  0.19705354003E+03 -0.36644389681E+03  0.43904095333E+03  0.00000000000E+00 0. -1.
         13    1    5    5    0    0 -0.80306413993E+02 -0.70323340446E+02 -0.63244481879E+03  0.64138985115E+03  0.00000000000E+00 0.  1.
        -13    1    5    5    0    0 -0.97730038310E+02  0.10776211405E+02 -0.40744426951E+03  0.41913973789E+03  0.00000000000E+00 0. -1.
          4    1    6    6  503    0  0.25691404659E+03 -0.67286696818E+02 -0.73680972825E+03  0.78321191420E+03  0.00000000000E+00 0. -1.
         -4    1    6    6    0  503  0.14215760076E+03 -0.10749705758E+03 -0.42371049393E+03  0.45966834077E+03  0.00000000000E+00 0.  1.
<mgrwt>
<rscale>  0 0.48986994E+03</rscale>
<asrwt>0</asrwt>
<pdfrwt beam="1">  1        2 0.44046721E+00 0.48986994E+03</pdfrwt>
<pdfrwt beam="2">  1       -2 0.14971122E-01 0.48986994E+03</pdfrwt>
<totfact> 0.81499506E+01</totfact>
</mgrwt>
</event>
<event>
12    1  0.1418317E-007  0.5052666E+03  0.7818608E-02  0.1012413E+00
         -1   -1    0    0    0  501 -0.00000000000E+00  0.00000000000E+00  0.18521940010E+03  0.18521940010E+03  0.00000000000E+00 0.  1.
          1   -1    0    0  501    0  0.00000000000E+00 -0.00000000000E+00 -0.14729922201E+04  0.14729922201E+04  0.00000000000E+00 0. -1.
         23    2    1    2    0    0  0.39776797368E+02 -0.33041064283E+03 -0.56003877057E+03  0.65795191175E+03  0.92216631531E+02 0.  0.
    5000000    2    1    2    0    0 -0.39776797368E+02  0.33041064283E+03 -0.72773404946E+03  0.10002597085E+04  0.60014102608E+03 0.  0.
         23    2    4    4    0    0 -0.20317209465E+03 -0.71181216854E+02 -0.33037794090E+03  0.40508385940E+03  0.92723695120E+02 0.  0.
         23    2    4    4    0    0  0.16339529729E+03  0.40159185968E+03 -0.39735610856E+03  0.59517584909E+03  0.91478792029E+02 0.  0.
          2    1    3    3  502    0 -0.81348262197E+00 -0.15354815318E+03 -0.17848123626E+03  0.23544266562E+03  0.00000000000E+00 0. -1.
         -2    1    3    3    0  502  0.40590279990E+02 -0.17686248965E+03 -0.38155753431E+03  0.42250924613E+03  0.00000000000E+00 0.  1.
         13    1    5    5    0    0 -0.11439527076E+03  0.64405863209E+01 -0.18856693391E+03  0.22064733782E+03  0.00000000000E+00 0.  1.
        -13    1    5    5    0    0 -0.88776823898E+02 -0.77621803174E+02 -0.14181100699E+03  0.18443652158E+03  0.00000000000E+00 0. -1.
          1    1    6    6  503    0  0.13151892947E+03  0.20296025020E+03 -0.22271809678E+03  0.32877567216E+03  0.00000000000E+00 0. -1.
         -1    1    6    6    0  503  0.31876367819E+02  0.19863160948E+03 -0.17463801178E+03  0.26640017693E+03  0.00000000000E+00 0.  1.
<mgrwt>
<rscale>  0 0.50526664E+03</rscale>
<asrwt>0</asrwt>
<pdfrwt beam="1">  1        1 0.22661418E+00 0.50526664E+03</pdfrwt>
<pdfrwt beam="2">  1       -1 0.28495294E-01 0.50526664E+03</pdfrwt>
<totfact> 0.80395804E+01</totfact>
</mgrwt>
</event>
<event>
12    1  0.1418317E-007  0.3471351E+03  0.7818608E-02  0.1063797E+00
         -4   -1    0    0    0  501 -0.00000000000E+00  0.00000000000E+00  0.40553146927E+03  0.40553146927E+03  0.00000000000E+00 0.  1.
          4   -1    0    0  501    0  0.00000000000E+00 -0.00000000000E+00 -0.55330920583E+03  0.55330920583E+03  0.00000000000E+00 0. -1.
         23    2    1    2    0    0  0.20042420995E+03 -0.15857166620E+03  0.24342968809E+02  0.28443430673E+03  0.12245594090E+03 0.  0.
    5000000    2    1    2    0    0 -0.20042420995E+03  0.15857166620E+03 -0.17212070536E+03  0.67440636837E+03  0.59990297151E+03 0.  0.
         23    2    4    4    0    0 -0.19977880196E+03  0.24792734315E+03 -0.33247864141E+03  0.46946187633E+03  0.92048189242E+02 0.  0.
         23    2    4    4    0    0 -0.64540799194E+00 -0.89355676957E+02  0.16035793604E+03  0.20494449204E+03  0.91119282306E+02 0.  0.
          4    1    3    3  502    0  0.33922940474E+02 -0.12244049481E+02  0.49612357823E+02  0.61335704829E+02  0.00000000000E+00 0. -1.
         -4    1    3    3    0  502  0.16650126948E+03 -0.14632761672E+03 -0.25269389014E+02  0.22309860191E+03  0.00000000000E+00 0.  1.
         13    1    5    5    0    0 -0.49032688172E+02  0.49866081272E+02 -0.25925342130E+02  0.74585212579E+02  0.00000000000E+00 0. -1.
        -13    1    5    5    0    0 -0.15074611379E+03  0.19806126188E+03 -0.30655329928E+03  0.39487666375E+03  0.00000000000E+00 0.  1.
          4    1    6    6  503    0 -0.38622423802E+02 -0.46273420024E+02  0.12142231694E+03  0.13555921242E+03  0.00000000000E+00 0. -1.
         -4    1    6    6    0  503  0.37977015810E+02 -0.43082256933E+02  0.38935619103E+02  0.69385279615E+02  0.00000000000E+00 0.  1.
<mgrwt>
<rscale>  0 0.34713505E+03</rscale>
<asrwt>0</asrwt>
<pdfrwt beam="1">  1        4 0.85124493E-01 0.34713505E+03</pdfrwt>
<pdfrwt beam="2">  1       -4 0.62389457E-01 0.34713505E+03</pdfrwt>
<totfact> 0.55480496E+00</totfact>
</mgrwt>
</event>
<event>
12    1  0.1418317E-007  0.1115471E+04  0.7818608E-02  0.9190243E-01
         -2   -1    0    0    0  501 -0.00000000000E+00  0.00000000000E+00  0.91431222727E+03  0.91431222727E+03  0.00000000000E+00 0.  1.
          2   -1    0    0  501    0  0.00000000000E+00 -0.00000000000E+00 -0.14744868699E+04  0.14744868699E+04  0.00000000000E+00 0. -1.
         23    2    1    2    0    0 -0.10508409194E+04  0.19398662454E+03 -0.89465801740E+02  0.10759260808E+04  0.87837083336E+02 0.  0.
    5000000    2    1    2    0    0  0.10508409194E+04 -0.19398662454E+03 -0.47070884088E+03  0.13128730164E+04  0.60014272963E+03 0.  0.
         23    2    4    4    0    0  0.85857831966E+03 -0.33038858174E+03 -0.51210416869E+03  0.10567574293E+04  0.90400436532E+02 0.  0.
         23    2    4    4    0    0  0.19226259974E+03  0.13640195720E+03  0.41395327804E+02  0.25611558707E+03  0.91165890498E+02 0.  0.
          4    1    3    3  502    0 -0.94919410728E+03  0.17987339585E+03 -0.54924252562E+02  0.96764692184E+03  0.00000000000E+00 0. -1.
         -4    1    3    3    0  502 -0.10164681212E+03  0.14113228697E+02 -0.34541549178E+02  0.10827915893E+03  0.00000000000E+00 0.  1.
         13    1    5    5    0    0  0.40366188252E+03 -0.11900363453E+03 -0.26758967348E+03  0.49870734282E+03  0.00000000000E+00 0. -1.
        -13    1    5    5    0    0  0.45491643715E+03 -0.21138494721E+03 -0.24451449521E+03  0.55805008652E+03  0.00000000000E+00 0.  1.
          3    1    6    6  503    0  0.15220817202E+03  0.12791640190E+03  0.13233689168E+01  0.19882576496E+03  0.00000000000E+00 0. -1.
         -3    1    6    6    0  503  0.40054427716E+02  0.84855552940E+01  0.40071958887E+02  0.57289822110E+02  0.00000000000E+00 0.  1.
<mgrwt>
<rscale>  0 0.11154708E+04</rscale>
<asrwt>0</asrwt>
<pdfrwt beam="1">  1        2 0.22684413E+00 0.11154708E+04</pdfrwt>
<pdfrwt beam="2">  1       -2 0.14066342E+00 0.11154708E+04</pdfrwt>
<totfact> 0.45662101E+00</totfact>
</mgrwt>
</event>
<event>
12    1  0.1418317E-007  0.1587110E+04  0.7818608E-02  0.8828506E-01
          2   -1    0    0  501    0  0.00000000000E+00  0.00000000000E+00  0.22654066290E+04  0.22654066290E+04  0.00000000000E+00 0. -1.
         -2   -1    0    0    0  501 -0.00000000000E+00 -0.00000000000E+00 -0.12404992549E+04  0.12404992549E+04  0.00000000000E+00 0.  1.
         23    2    1    2    0    0  0.39575734938E+03  0.15099885312E+04  0.95500436415E+03  0.18321657545E+04  0.90048723503E+02 0.  0.
    5000000    2    1    2    0    0 -0.39575734938E+03 -0.15099885312E+04  0.69903010044E+02  0.16737401294E+04  0.59985860500E+03 0.  0.
         23    2    4    4    0    0 -0.44404403079E+03 -0.13792152651E+04  0.19769708338E+03  0.14652121919E+04  0.91393553464E+02 0.  0.
         23    2    4    4    0    0  0.48286681406E+02 -0.13077326604E+03 -0.12779407334E+03  0.20852793749E+03  0.87859688254E+02 0.  0.
          2    1    3    3  502    0  0.27227789735E+03  0.89128224733E+03  0.59692170950E+03  0.11067225601E+04  0.00000000000E+00 0. -1.
         -2    1    3    3    0  502  0.12347945203E+03  0.61870628385E+03  0.35808265465E+03  0.72544319441E+03  0.00000000000E+00 0.  1.
         11    1    5    5    0    0 -0.40454403970E+03 -0.11496621627E+04  0.17303755610E+03  0.12309837384E+04  0.00000000000E+00 0. -1.
        -11    1    5    5    0    0 -0.39499991088E+02 -0.22955310245E+03  0.24659527284E+02  0.23422845349E+03  0.00000000000E+00 0.  1.
          4    1    6    6  503    0 -0.60158057456E+01 -0.93782076254E+02 -0.49160363574E+02  0.10605663153E+03  0.00000000000E+00 0.  1.
         -4    1    6    6    0  503  0.54302487152E+02 -0.36991189785E+02 -0.78633709763E+02  0.10247130595E+03  0.00000000000E+00 0. -1.
<mgrwt>
<rscale>  0 0.15871096E+04</rscale>
<asrwt>0</asrwt>
<pdfrwt beam="1">  1        2 0.34852410E+00 0.15871096E+04</pdfrwt>
<pdfrwt beam="2">  1       -2 0.19084604E+00 0.15871096E+04</pdfrwt>
<totfact> 0.67603914E-01</totfact>
</mgrwt>
</event>
<event>
12    1  0.1418317E-007  0.1292672E+04  0.7818608E-02  0.9035396E-01
          1   -1    0    0  501    0  0.00000000000E+00  0.00000000000E+00  0.20574465830E+04  0.20574465830E+04  0.00000000000E+00 0. -1.
         -1   -1    0    0    0  501 -0.00000000000E+00 -0.00000000000E+00 -0.11264393148E+04  0.11264393148E+04  0.00000000000E+00 0.  1.
         23    2    1    2    0    0 -0.58813330469E+03  0.11482544318E+04  0.11664693296E+04  0.17416796884E+04  0.91697415048E+02 0.  0.
    5000000    2    1    2    0    0  0.58813330469E+03 -0.11482544318E+04 -0.23546206130E+03  0.14422062094E+04  0.60010611071E+03 0.  0.
         23    2    4    4    0    0  0.39844646594E+03 -0.71029291112E+03 -0.42223563044E+03  0.92162881167E+03  0.88550172702E+02 0.  0.
         23    2    4    4    0    0  0.18968683875E+03 -0.43796152064E+03  0.18677356914E+03  0.52057739777E+03  0.91241824749E+02 0.  0.
          2    1    3    3  502    0 -0.38972723852E+03  0.84961611029E+03  0.85226802446E+03  0.12649488689E+04  0.00000000000E+00 0. -1.
         -2    1    3    3    0  502 -0.19840606617E+03  0.29863832147E+03  0.31420130509E+03  0.47673081950E+03  0.00000000000E+00 0.  1.
         13    1    5    5    0    0  0.18098578726E+03 -0.34216911689E+03 -0.24932010641E+03  0.46043031525E+03  0.00000000000E+00 0. -1.
        -13    1    5    5    0    0  0.21746067868E+03 -0.36812379423E+03 -0.17291552403E+03  0.46119849642E+03  0.00000000000E+00 0.  1.
          4    1    6    6  503    0  0.13202908330E+03 -0.31839363822E+03  0.89809451296E+02  0.35619085508E+03  0.00000000000E+00 0.  1.
         -4    1    6    6    0  503  0.57657755446E+02 -0.11956788241E+03  0.96964117846E+02  0.16438654269E+03  0.00000000000E+00 0. -1.
<mgrwt>
<rscale>  0 0.12926725E+04</rscale>
<asrwt>0</asrwt>
<pdfrwt beam="1">  1        1 0.31653024E+00 0.12926725E+04</pdfrwt>
<pdfrwt beam="2">  1       -1 0.17329836E+00 0.12926725E+04</pdfrwt>
<totfact> 0.61528277E-01</totfact>
</mgrwt>
</event>
<event>
12    1  0.1418317E-007  0.1131112E+04  0.7818608E-02  0.9175387E-01
         -2   -1    0    0    0  501 -0.00000000000E+00  0.00000000000E+00  0.11652707076E+04  0.11652707076E+04  0.00000000000E+00 0.  1.
          2   -1    0    0  501    0  0.00000000000E+00 -0.00000000000E+00 -0.13734673807E+04  0.13734673807E+04  0.00000000000E+00 0. -1.
         23    2    1    2    0    0 -0.58182088695E+03 -0.92703651970E+03 -0.57204094124E+03  0.12386604953E+04  0.95586247442E+02 0.  0.
    5000000    2    1    2    0    0  0.58182088695E+03  0.92703651970E+03  0.36384426810E+03  0.13000775930E+04  0.59992236422E+03 0.  0.
         23    2    4    4    0    0  0.57658807257E+03  0.89951944676E+03  0.45618261544E+03  0.11652714498E+04  0.90365550272E+02 0.  0.
         23    2    4    4    0    0  0.52328143831E+01  0.27517072941E+02 -0.92338347339E+02  0.13480614317E+03  0.94136890735E+02 0.  0.
          2    1    3    3  502    0 -0.11164734908E+03 -0.21014119720E+03 -0.85200930116E+02  0.25275215491E+03  0.00000000000E+00 0. -1.
         -2    1    3    3    0  502 -0.47017353787E+03 -0.71689532249E+03 -0.48684001112E+03  0.98590834034E+03  0.00000000000E+00 0.  1.
         11    1    5    5    0    0  0.37130170855E+03  0.50906525085E+03  0.29356863910E+03  0.69512224412E+03  0.00000000000E+00 0. -1.
        -11    1    5    5    0    0  0.20528636402E+03  0.39045419590E+03  0.16261397635E+03  0.47014920573E+03  0.00000000000E+00 0.  1.
          3    1    6    6  503    0  0.43631309605E+02 -0.68800687997E+01 -0.57835624503E+02  0.72773525311E+02  0.00000000000E+00 0. -1.
         -3    1    6    6    0  503 -0.38398495222E+02  0.34397141741E+02 -0.34502722836E+02  0.62032617858E+02  0.00000000000E+00 0.  1.
<mgrwt>
<rscale>  0 0.11311123E+04</rscale>
<asrwt>0</asrwt>
<pdfrwt beam="1">  1        2 0.21130267E+00 0.11311123E+04</pdfrwt>
<pdfrwt beam="2">  1       -2 0.17927242E+00 0.11311123E+04</pdfrwt>
<totfact> 0.26875700E+00</totfact>
</mgrwt>
</event>
<event>
12    1  0.1418317E-007  0.1135355E+04  0.7818608E-02  0.9171401E-01
          1   -1    0    0  501    0  0.00000000000E+00  0.00000000000E+00  0.14764082666E+04  0.14764082666E+04  0.00000000000E+00 0. -1.
         -1   -1    0    0    0  501 -0.00000000000E+00 -0.00000000000E+00 -0.90754992454E+03  0.90754992454E+03  0.00000000000E+00 0.  1.
         23    2    1    2    0    0 -0.45250591909E+03 -0.95577109965E+03  0.48047603188E+03  0.11649613552E+04  0.89541834540E+02 0.  0.
    5000000    2    1    2    0    0  0.45250591909E+03  0.95577109965E+03  0.88382310169E+02  0.12189968359E+04  0.59990153489E+03 0.  0.
         23    2    4    4    0    0  0.35320249678E+02  0.72094431158E+03  0.34401017972E+02  0.72825894460E+03  0.90384953988E+02 0.  0.
         23    2    4    4    0    0  0.41718566941E+03  0.23482678807E+03  0.53981292196E+02  0.49073789135E+03  0.93392692121E+02 0.  0.
          4    1    3    3  502    0 -0.19823568829E+03 -0.43219117572E+03  0.26468351877E+03  0.54419111128E+03  0.00000000000E+00 0. -1.
         -4    1    3    3    0  502 -0.25427023080E+03 -0.52357992393E+03  0.21579251311E+03  0.62077024391E+03  0.00000000000E+00 0.  1.
         11    1    5    5    0    0  0.58567296288E+02  0.64056154831E+03  0.39349709350E+02  0.64443589673E+03  0.00000000000E+00 0.  1.
        -11    1    5    5    0    0 -0.23247046610E+02  0.80382763270E+02 -0.49486913781E+01  0.83823047865E+02  0.00000000000E+00 0. -1.
          1    1    6    6  503    0  0.31880348757E+03  0.13534020078E+03  0.20947631724E+02  0.34697469203E+03  0.00000000000E+00 0. -1.
         -1    1    6    6    0  503  0.98382181840E+02  0.99486587289E+02  0.33033660472E+02  0.14376319932E+03  0.00000000000E+00 0.  1.
<mgrwt>
<rscale>  0 0.11353552E+04</rscale>
<asrwt>0</asrwt>
<pdfrwt beam="1">  1        1 0.22713973E+00 0.11353552E+04</pdfrwt>
<pdfrwt beam="2">  1       -1 0.13962307E+00 0.11353552E+04</pdfrwt>
<totfact> 0.28351588E+00</totfact>
</mgrwt>
</event>
<event>
12    1  0.1418317E-007  0.2422606E+04  0.7818608E-02  0.8431089E-01
          2   -1    0    0  501    0  0.00000000000E+00  0.00000000000E+00  0.13691049214E+04  0.13691049214E+04  0.00000000000E+00 0. -1.
         -2   -1    0    0    0  501 -0.00000000000E+00 -0.00000000000E+00 -0.53990844305E+04  0.53990844305E+04  0.00000000000E+00 0.  1.
         23    2    1    2    0    0  0.16820813797E+04 -0.17067949135E+04 -0.48342990528E+03  0.24460639404E+04  0.83532522871E+02 0.  0.
    5000000    2    1    2    0    0 -0.16820813797E+04  0.17067949135E+04 -0.35465496038E+04  0.43221254115E+04  0.60017275508E+03 0.  0.
         23    2    4    4    0    0 -0.25354791369E+03  0.82075233638E+02 -0.24671641347E+03  0.37533905934E+03  0.94802596376E+02 0.  0.
         23    2    4    4    0    0 -0.14285334660E+04  0.16247196798E+04 -0.32998331904E+04  0.39467863522E+04  0.88326236420E+02 0.  0.
          1    1    3    3  502    0  0.10904017945E+04 -0.10499919103E+04 -0.31276046760E+03  0.15457290174E+04  0.00000000000E+00 0. -1.
         -1    1    3    3    0  502  0.59167958518E+03 -0.65680300321E+03 -0.17066943769E+03  0.90033492296E+03  0.00000000000E+00 0.  1.
         13    1    5    5    0    0 -0.20029619069E+03  0.20931961932E+02 -0.18469554191E+03  0.27325657217E+03  0.00000000000E+00 0. -1.
        -13    1    5    5    0    0 -0.53251722997E+02  0.61143271706E+02 -0.62020871566E+02  0.10208248717E+03  0.00000000000E+00 0.  1.
          3    1    6    6  503    0 -0.10415023795E+04  0.11282722989E+04 -0.23126793663E+04  0.27760063830E+04  0.00000000000E+00 0. -1.
         -3    1    6    6    0  503 -0.38703108649E+03  0.49644738087E+03 -0.98715382412E+03  0.11707799692E+04  0.00000000000E+00 0.  1.
<mgrwt>
<rscale>  0 0.24226055E+04</rscale>
<asrwt>0</asrwt>
<pdfrwt beam="1">  1        2 0.21063153E+00 0.24226055E+04</pdfrwt>
<pdfrwt beam="2">  1       -2 0.83062837E+00 0.24226055E+04</pdfrwt>
<totfact> 0.62080867E-04</totfact>
</mgrwt>
</event>
<event>
12    1  0.1418317E-007  0.5617646E+03  0.7818608E-02  0.9988070E-01
         -2   -1    0    0    0  501 -0.00000000000E+00  0.00000000000E+00  0.66557268228E+03  0.66557268228E+03  0.00000000000E+00 0.  1.
          2   -1    0    0  501    0  0.00000000000E+00 -0.00000000000E+00 -0.61252976973E+03  0.61252976973E+03  0.00000000000E+00 0. -1.
         23    2    1    2    0    0 -0.41442656228E+03 -0.27190240949E+03  0.21852018567E+02  0.49918432641E+03  0.55019861967E+02 0.  0.
    5000000    2    1    2    0    0  0.41442656228E+03  0.27190240949E+03  0.31190893987E+02  0.77891812560E+03  0.60005023015E+03 0.  0.
         23    2    4    4    0    0  0.48177840990E+03  0.26610135625E+03 -0.13267503905E+03  0.57422481247E+03  0.95974482163E+02 0.  0.
         23    2    4    4    0    0 -0.67351847624E+02  0.58010532436E+01  0.16386593304E+03  0.20469331312E+03  0.10235909745E+03 0.  0.
          3    1    3    3  502    0 -0.10622431545E+03 -0.88133649349E+02  0.25360171811E+02  0.14033632336E+03  0.00000000000E+00 0. -1.
         -3    1    3    3    0  502 -0.30820224682E+03 -0.18376876014E+03 -0.35081532438E+01  0.35884800305E+03  0.00000000000E+00 0.  1.
         11    1    5    5    0    0  0.20564033768E+03  0.10578200604E+03 -0.10423157457E+03  0.25365725383E+03  0.00000000000E+00 0.  1.
        -11    1    5    5    0    0  0.27613807222E+03  0.16031935020E+03 -0.28443464478E+02  0.32056755864E+03  0.00000000000E+00 0. -1.
          2    1    6    6  503    0 -0.54642639582E+02  0.18944540390E+02  0.17429866617E+03  0.18364296529E+03  0.00000000000E+00 0. -1.
         -2    1    6    6    0  503 -0.12709208041E+02 -0.13143487146E+02 -0.10432733131E+02  0.21050347836E+02  0.00000000000E+00 0.  1.
<mgrwt>
<rscale>  0 0.56176463E+03</rscale>
<asrwt>0</asrwt>
<pdfrwt beam="1">  1        2 0.94235349E-01 0.56176463E+03</pdfrwt>
<pdfrwt beam="2">  1       -2 0.10239580E+00 0.56176463E+03</pdfrwt>
<totfact> 0.38874748E+01</totfact>
</mgrwt>
</event>
<event>
12    1  0.1418317E-007  0.7254588E+03  0.7818608E-02  0.9674658E-01
         -1   -1    0    0    0  501 -0.00000000000E+00  0.00000000000E+00  0.14371427726E+04  0.14371427726E+04  0.00000000000E+00 0.  1.
          1   -1    0    0  501    0  0.00000000000E+00 -0.00000000000E+00 -0.83559948495E+03  0.83559948495E+03  0.00000000000E+00 0. -1.
         23    2    1    2    0    0  0.66041477621E+02  0.65550436388E+03  0.10751534527E+04  0.12636593017E+04  0.82658551714E+02 0.  0.
    5000000    2    1    2    0    0 -0.66041477621E+02 -0.65550436388E+03 -0.47361016508E+03  0.10090829558E+04  0.59991197298E+03 0.  0.
         23    2    4    4    0    0 -0.23367470760E+03 -0.49424117194E+03 -0.51253698175E+03  0.75566503585E+03  0.97248566768E+02 0.  0.
         23    2    4    4    0    0  0.16763322997E+03 -0.16126319194E+03  0.38926816666E+02  0.25341791992E+03  0.92728788487E+02 0.  0.
          3    1    3    3  502    0  0.84249972739E+02  0.54734142125E+03  0.91535468124E+03  0.10698387176E+04  0.00000000000E+00 0. -1.
         -3    1    3    3    0  502 -0.18208495117E+02  0.10816294264E+03  0.15979877147E+03  0.19382058409E+03  0.00000000000E+00 0.  1.
         11    1    5    5    0    0 -0.20558230241E+03 -0.33452956884E+03 -0.37663300901E+03  0.54408320960E+03  0.00000000000E+00 0.  1.
        -11    1    5    5    0    0 -0.28092405184E+02 -0.15971160310E+03 -0.13590397274E+03  0.21158182625E+03  0.00000000000E+00 0. -1.
          3    1    6    6  503    0  0.67252420516E+02 -0.66934404670E+02 -0.29831408510E+02  0.99463639223E+02  0.00000000000E+00 0. -1.
         -3    1    6    6    0  503  0.10038080946E+03 -0.94328787274E+02  0.68758225177E+02  0.15395428070E+03  0.00000000000E+00 0.  1.
<mgrwt>
<rscale>  0 0.72545883E+03</rscale>
<asrwt>0</asrwt>
<pdfrwt beam="1">  1        1 0.12855377E+00 0.72545883E+03</pdfrwt>
<pdfrwt beam="2">  1       -1 0.22109889E+00 0.72545883E+03</pdfrwt>
<totfact> 0.23349047E+00</totfact>
</mgrwt>
</event>
<event>
12    1  0.1418317E-007  0.5635090E+03  0.7818608E-02  0.9984146E-01
          2   -1    0    0  501    0  0.00000000000E+00  0.00000000000E+00  0.43836203803E+04  0.43836203803E+04  0.00000000000E+00 0. -1.
         -2   -1    0    0    0  501 -0.00000000000E+00 -0.00000000000E+00 -0.11885099279E+03  0.11885099279E+03  0.00000000000E+00 0.  1.
         23    2    1    2    0    0  0.47653267129E+03 -0.27478799308E+03  0.24642850665E+04  0.25265446447E+04  0.90194925798E+02 0.  0.
    5000000    2    1    2    0    0 -0.47653267129E+03  0.27478799308E+03  0.18004843209E+04  0.19759267283E+04  0.59995901350E+03 0.  0.
         23    2    4    4    0    0 -0.89548011404E+02  0.47380269468E+02  0.12614151022E+04  0.12685706696E+04  0.88542348390E+02 0.  0.
         23    2    4    4    0    0 -0.38698465988E+03  0.22740772362E+03  0.53906921872E+03  0.70735605871E+03  0.91025114554E+02 0.  0.
          1    1    3    3  502    0  0.35911811395E+03 -0.18702750276E+03  0.16340550307E+04  0.16834728836E+04  0.00000000000E+00 0. -1.
         -1    1    3    3    0  502  0.11741455733E+03 -0.87760490325E+02  0.83023003588E+03  0.84307176112E+03  0.00000000000E+00 0.  1.
         13    1    5    5    0    0  0.11316235892E+02  0.11369725597E+02  0.42822749618E+03  0.42852784780E+03  0.00000000000E+00 0.  1.
        -13    1    5    5    0    0 -0.10086424730E+03  0.36010543871E+02  0.83318760604E+03  0.84004282183E+03  0.00000000000E+00 0. -1.
          3    1    6    6  503    0 -0.19900909384E+03  0.84259856673E+02  0.20270398208E+03  0.29629925283E+03  0.00000000000E+00 0. -1.
         -3    1    6    6    0  503 -0.18797556604E+03  0.14314786694E+03  0.33636523664E+03  0.41105680588E+03  0.00000000000E+00 0.  1.
<mgrwt>
<rscale>  0 0.56350904E+03</rscale>
<asrwt>0</asrwt>
<pdfrwt beam="1">  1        2 0.67440301E+00 0.56350904E+03</pdfrwt>
<pdfrwt beam="2">  1       -2 0.18284771E-01 0.56350904E+03</pdfrwt>
<totfact> 0.46885989E+00</totfact>
</mgrwt>
</event>
<event>
12    1  0.1418317E-007  0.2589896E+03  0.7818608E-02  0.1107752E+00
          1   -1    0    0  501    0  0.00000000000E+00  0.00000000000E+00  0.19197294284E+03  0.19197294284E+03  0.00000000000E+00 0. -1.
         -1   -1    0    0    0  501 -0.00000000000E+00 -0.00000000000E+00 -0.65630317903E+03  0.65630317903E+03  0.00000000000E+00 0.  1.
         23    2    1    2    0    0 -0.17428852047E+02 -0.52228786825E+02 -0.54248728623E+02  0.11946712293E+03  0.91092578447E+02 0.  0.
    5000000    2    1    2    0    0  0.17428852047E+02  0.52228786825E+02 -0.41008150757E+03  0.72880899894E+03  0.59997008511E+03 0.  0.
         23    2    4    4    0    0  0.19601315254E+03 -0.18660227746E+01  0.51850219856E+02  0.22192382293E+03  0.90205874946E+02 0.  0.
         23    2    4    4    0    0 -0.17858430050E+03  0.54094809600E+02 -0.46193172743E+03  0.50688517601E+03  0.93450842920E+02 0.  0.
          3    1    3    3  502    0  0.16848946420E+02 -0.66925702886E+02 -0.32377073630E+02  0.76231303275E+02  0.00000000000E+00 0. -1.
         -3    1    3    3    0  502 -0.34277798467E+02  0.14696916061E+02 -0.21871654993E+02  0.43235819659E+02  0.00000000000E+00 0.  1.
         11    1    5    5    0    0  0.89252778762E+02 -0.43949158806E+02  0.10904456910E+02  0.10008243731E+03  0.00000000000E+00 0. -1.
        -11    1    5    5    0    0  0.10676037378E+03  0.42083136032E+02  0.40945762947E+02  0.12184138563E+03  0.00000000000E+00 0.  1.
          1    1    6    6  503    0 -0.11602485619E+03  0.20388830062E+01 -0.18625938016E+03  0.21945040669E+03  0.00000000000E+00 0. -1.
         -1    1    6    6    0  503 -0.62559444304E+02  0.52055926593E+02 -0.27567234727E+03  0.28743476932E+03  0.00000000000E+00 0.  1.
<mgrwt>
<rscale>  0 0.25898962E+03</rscale>
<asrwt>0</asrwt>
<pdfrwt beam="1">  1        1 0.29534299E-01 0.25898962E+03</pdfrwt>
<pdfrwt beam="2">  1       -1 0.10096972E+00 0.25898962E+03</pdfrwt>
<totfact> 0.15370416E+02</totfact>
</mgrwt>
</event>
<event>
12    1  0.1418317E-007  0.3780369E+03  0.7818608E-02  0.1051662E+00
          2   -1    0    0  501    0  0.00000000000E+00  0.00000000000E+00  0.72310263827E+03  0.72310263827E+03  0.00000000000E+00 0. -1.
         -2   -1    0    0    0  501 -0.00000000000E+00 -0.00000000000E+00 -0.22658626705E+03  0.22658626705E+03  0.00000000000E+00 0.  1.
         23    2    1    2    0    0  0.12736266653E+03 -0.88458993636E+02  0.17587243494E+03  0.25187708106E+03  0.92003848887E+02 0.  0.
    5000000    2    1    2    0    0 -0.12736266653E+03  0.88458993636E+02  0.32064393628E+03  0.69781182425E+03  0.60006880090E+03 0.  0.
         23    2    4    4    0    0  0.21086322748E+03 -0.34522766649E+02  0.20462786924E+03  0.30878544414E+03  0.88435080848E+02 0.  0.
         23    2    4    4    0    0 -0.33822589401E+03  0.12298176029E+03  0.11601606704E+03  0.38902638011E+03  0.91435922219E+02 0.  0.
          1    1    3    3  502    0  0.79884347071E+02 -0.47096283592E+02  0.16310930726E+03  0.18762786294E+03  0.00000000000E+00 0. -1.
         -1    1    3    3    0  502  0.47478319464E+02 -0.41362710045E+02  0.12763127679E+02  0.64249218124E+02  0.00000000000E+00 0.  1.
         13    1    5    5    0    0  0.76526995057E+02 -0.56076062121E+02  0.76114965560E+02  0.12163220666E+03  0.00000000000E+00 0.  1.
        -13    1    5    5    0    0  0.13433623242E+03  0.21553295471E+02  0.12851290368E+03  0.18715323748E+03  0.00000000000E+00 0. -1.
          2    1    6    6  503    0 -0.15216579499E+03  0.99732195654E+02  0.37592344641E+02  0.18577977390E+03  0.00000000000E+00 0. -1.
         -2    1    6    6    0  503 -0.18606009902E+03  0.23249564632E+02  0.78423722395E+02  0.20324660622E+03  0.00000000000E+00 0.  1.
<mgrwt>
<rscale>  0 0.37803686E+03</rscale>
<asrwt>0</asrwt>
<pdfrwt beam="1">  1        2 0.11124656E+00 0.37803686E+03</pdfrwt>
<pdfrwt beam="2">  1       -2 0.34859426E-01 0.37803686E+03</pdfrwt>
<totfact> 0.31168947E+02</totfact>
</mgrwt>
</event>
<event>
12    1  0.1418317E-007  0.4666849E+03  0.7818608E-02  0.1022860E+00
         -4   -1    0    0    0  501 -0.00000000000E+00  0.00000000000E+00  0.43700022186E+03  0.43700022186E+03  0.00000000000E+00 0.  1.
          4   -1    0    0  501    0  0.00000000000E+00 -0.00000000000E+00 -0.69580918406E+03  0.69580918406E+03  0.00000000000E+00 0. -1.
         23    2    1    2    0    0  0.25696126522E+03 -0.27449310783E+03 -0.15777075460E+03  0.41765320698E+03  0.90371633968E+02 0.  0.
    5000000    2    1    2    0    0 -0.25696126522E+03  0.27449310783E+03 -0.10103820761E+03  0.71515619894E+03  0.59988674882E+03 0.  0.
         23    2    4    4    0    0  0.80216987900E+02  0.11032342374E+03  0.17573442270E+03  0.24056727815E+03  0.91564212551E+02 0.  0.
         23    2    4    4    0    0 -0.33717825312E+03  0.16416968409E+03 -0.27677263031E+03  0.47458892079E+03  0.89390689069E+02 0.  0.
          4    1    3    3  502    0  0.24406111114E+03 -0.21569375050E+03 -0.14267065735E+03  0.35559040545E+03  0.00000000000E+00 0. -1.
         -4    1    3    3    0  502  0.12900154079E+02 -0.58799357331E+02 -0.15100097252E+02  0.62062801539E+02  0.00000000000E+00 0.  1.
         11    1    5    5    0    0  0.87135420505E+02  0.46438548035E+02  0.91452215645E+02  0.13458316387E+03  0.00000000000E+00 0.  1.
        -11    1    5    5    0    0 -0.69184326047E+01  0.63884875707E+02  0.84282207059E+02  0.10598411428E+03  0.00000000000E+00 0. -1.
          3    1    6    6  503    0 -0.76014643395E+02  0.56085212228E-01 -0.41117567668E+02  0.86422702613E+02  0.00000000000E+00 0. -1.
         -3    1    6    6    0  503 -0.26116360972E+03  0.16411359888E+03 -0.23565506264E+03  0.38816621817E+03  0.00000000000E+00 0.  1.
<mgrwt>
<rscale>  0 0.46668489E+03</rscale>
<asrwt>0</asrwt>
<pdfrwt beam="1">  1        4 0.10704757E+00 0.46668489E+03</pdfrwt>
<pdfrwt beam="2">  1       -4 0.67230804E-01 0.46668489E+03</pdfrwt>
<totfact> 0.27892032E+00</totfact>
</mgrwt>
</event>
<event>
12    1  0.1418317E-007  0.8517697E+03  0.7818608E-02  0.9487965E-01
         -1   -1    0    0    0  501 -0.00000000000E+00  0.00000000000E+00  0.36906422536E+03  0.36906422536E+03  0.00000000000E+00 0.  1.
          1   -1    0    0  501    0  0.00000000000E+00 -0.00000000000E+00 -0.21592473452E+04  0.21592473452E+04  0.00000000000E+00 0. -1.
         23    2    1    2    0    0 -0.56624646540E+03  0.49606127903E+03 -0.45548815264E+03  0.88273406026E+03  0.70979657768E+02 0.  0.
    5000000    2    1    2    0    0  0.56624646540E+03 -0.49606127903E+03 -0.13346949672E+04  0.16455775103E+04  0.59983567321E+03 0.  0.
         23    2    4    4    0    0  0.42761215210E+03 -0.61671720775E+03 -0.10864088715E+04  0.13235539460E+04  0.91206057704E+02 0.  0.
         23    2    4    4    0    0  0.13863431330E+03  0.12065592873E+03 -0.24828609577E+03  0.32202356436E+03  0.90971779638E+02 0.  0.
          4    1    3    3  502    0 -0.46554806625E+03  0.43498220501E+03 -0.40220212601E+03  0.75346603827E+03  0.00000000000E+00 0. -1.
         -4    1    3    3    0  502 -0.10069839915E+03  0.61079074016E+02 -0.53286026635E+02  0.12926802199E+03  0.00000000000E+00 0.  1.
         13    1    5    5    0    0  0.14485358308E+03 -0.27962195657E+03 -0.48842725246E+03  0.58114729637E+03  0.00000000000E+00 0.  1.
        -13    1    5    5    0    0  0.28275856903E+03 -0.33709525118E+03 -0.59798161901E+03  0.74240664962E+03  0.00000000000E+00 0. -1.
          3    1    6    6  503    0  0.10292460033E+03  0.49703798669E+02 -0.92051855234E+02  0.14675655013E+03  0.00000000000E+00 0. -1.
         -3    1    6    6    0  503  0.35709712965E+02  0.70952130058E+02 -0.15623424053E+03  0.17526701422E+03  0.00000000000E+00 0.  1.
<mgrwt>
<rscale>  0 0.85176969E+03</rscale>
<asrwt>0</asrwt>
<pdfrwt beam="1">  1        1 0.33219189E+00 0.85176969E+03</pdfrwt>
<pdfrwt beam="2">  1       -1 0.56779113E-01 0.85176969E+03</pdfrwt>
<totfact> 0.75375560E+00</totfact>
</mgrwt>
</event>
<event>
12    1  0.1418317E-007  0.3706491E+03  0.7818608E-02  0.1054445E+00
          2   -1    0    0  501    0  0.00000000000E+00  0.00000000000E+00  0.33432799042E+04  0.33432799042E+04  0.00000000000E+00 0. -1.
         -2   -1    0    0    0  501 -0.00000000000E+00 -0.00000000000E+00 -0.82127541022E+02  0.82127541022E+02  0.00000000000E+00 0.  1.
         23    2    1    2    0    0  0.26161879009E+03 -0.22218980320E+03  0.10285078784E+04  0.10881978385E+04  0.92376295118E+02 0.  0.
    5000000    2    1    2    0    0 -0.26161879009E+03  0.22218980320E+03  0.22326444848E+04  0.23372096067E+04  0.60002887446E+03 0.  0.
         23    2    4    4    0    0 -0.93815115865E+02  0.10288547978E+03  0.10315668352E+03  0.19586783557E+03  0.91302846310E+02 0.  0.
         23    2    4    4    0    0 -0.16780367422E+03  0.11930432342E+03  0.21294878013E+04  0.21413417711E+04  0.90745194446E+02 0.  0.
          3    1    3    3  502    0  0.55403394697E+02 -0.10312486982E+03  0.35905152179E+03  0.37765363790E+03  0.00000000000E+00 0. -1.
         -3    1    3    3    0  502  0.20621539539E+03 -0.11906493337E+03  0.66945635661E+03  0.71054420064E+03  0.00000000000E+00 0.  1.
         11    1    5    5    0    0 -0.40221511028E+02  0.10500258340E+03  0.76284128108E+02  0.13587707927E+03  0.00000000000E+00 0.  1.
        -11    1    5    5    0    0 -0.53593604836E+02 -0.21171036279E+01  0.26872555411E+02  0.59990756300E+02  0.00000000000E+00 0. -1.
          4    1    6    6  503    0 -0.68395270464E+02  0.96100348589E+02  0.13613914919E+04  0.13664918530E+04  0.00000000000E+00 0.  1.
         -4    1    6    6    0  503 -0.99408403760E+02  0.23203974831E+02  0.76809630937E+03  0.77484991815E+03  0.00000000000E+00 0. -1.
<mgrwt>
<rscale>  0 0.37064910E+03</rscale>
<asrwt>0</asrwt>
<pdfrwt beam="1">  1        2 0.51435065E+00 0.37064910E+03</pdfrwt>
<pdfrwt beam="2">  1       -2 0.12635009E-01 0.37064910E+03</pdfrwt>
<totfact> 0.56403340E+01</totfact>
</mgrwt>
</event>
<event>
12    1  0.1418317E-007  0.2614191E+03  0.7818608E-02  0.1106294E+00
         -2   -1    0    0    0  501 -0.00000000000E+00  0.00000000000E+00  0.15747977745E+03  0.15747977745E+03  0.00000000000E+00 0.  1.
          2   -1    0    0  501    0  0.00000000000E+00 -0.00000000000E+00 -0.11537444345E+04  0.11537444345E+04  0.00000000000E+00 0. -1.
         23    2    1    2    0    0  0.17771315005E+03  0.88831349762E+02 -0.22216982553E+03  0.31194317457E+03  0.92065956687E+02 0.  0.
    5000000    2    1    2    0    0 -0.17771315005E+03 -0.88831349762E+02 -0.77409483153E+03  0.99928103739E+03  0.59988899896E+03 0.  0.
         23    2    4    4    0    0 -0.39898143419E+02  0.73985556581E+02 -0.75654635567E+03  0.76645918522E+03  0.89619026440E+02 0.  0.
         23    2    4    4    0    0 -0.13781500663E+03 -0.16281690634E+03 -0.17548475857E+02  0.23282185216E+03  0.91628296910E+02 0.  0.
          3    1    3    3  502    0  0.14884318758E+03  0.52683792777E+02 -0.21240633458E+03  0.26466266733E+03  0.00000000000E+00 0. -1.
         -3    1    3    3    0  502  0.28869962475E+02  0.36147556985E+02 -0.97634909587E+01  0.47280507241E+02  0.00000000000E+00 0.  1.
         13    1    5    5    0    0  0.81988273336E+01 -0.61368574524E+01 -0.31337167168E+03  0.31353897110E+03  0.00000000000E+00 0. -1.
        -13    1    5    5    0    0 -0.48096970753E+02  0.80122414034E+02 -0.44317468400E+03  0.45292021412E+03  0.00000000000E+00 0.  1.
          2    1    6    6  503    0 -0.86911561571E+02 -0.12175714855E+03 -0.52661270687E+02  0.15859266121E+03  0.00000000000E+00 0. -1.
         -2    1    6    6    0  503 -0.50903445062E+02 -0.41059757790E+02  0.35112794830E+02  0.74229190955E+02  0.00000000000E+00 0.  1.
<mgrwt>
<rscale>  0 0.26141908E+03</rscale>
<asrwt>0</asrwt>
<pdfrwt beam="1">  1        2 0.17749914E+00 0.26141908E+03</pdfrwt>
<pdfrwt beam="2">  1       -2 0.24227658E-01 0.26141908E+03</pdfrwt>
<totfact> 0.32212296E+02</totfact>
</mgrwt>
</event>
<event>
12    1  0.1418317E-007  0.2744412E+03  0.7818608E-02  0.1098764E+00
          1   -1    0    0  501    0  0.00000000000E+00  0.00000000000E+00  0.10348858897E+03  0.10348858897E+03  0.00000000000E+00 0. -1.
         -1   -1    0    0    0  501 -0.00000000000E+00 -0.00000000000E+00 -0.16548209855E+04  0.16548209855E+04  0.00000000000E+00 0.  1.
         23    2    1    2    0    0  0.11816697585E+03  0.13591195916E+03 -0.38044300361E+03  0.43038601741E+03  0.89776111326E+02 0.  0.
    5000000    2    1    2    0    0 -0.11816697585E+03 -0.13591195916E+03 -0.11708893929E+04  0.13279235571E+04  0.59996958931E+03 0.  0.
         23    2    4    4    0    0 -0.44524209478E+01 -0.20297023365E+03 -0.98465906936E+02  0.24308778342E+03  0.90440012253E+02 0.  0.
         23    2    4    4    0    0 -0.11371455491E+03  0.67058274490E+02 -0.10724234860E+04  0.10848357737E+04  0.96688728873E+02 0.  0.
          3    1    3    3  502    0  0.53789367705E+02  0.63470694157E+02 -0.82863418111E+02  0.11742304355E+03  0.00000000000E+00 0. -1.
         -3    1    3    3    0  502  0.64377608150E+02  0.72441265005E+02 -0.29757958550E+03  0.31296297387E+03  0.00000000000E+00 0.  1.
         13    1    5    5    0    0 -0.47269567616E+02 -0.96669518408E+02 -0.50123442911E+02  0.11870875006E+03  0.00000000000E+00 0. -1.
        -13    1    5    5    0    0  0.42817146669E+02 -0.10630071524E+03 -0.48342464025E+02  0.12437903335E+03  0.00000000000E+00 0.  1.
          2    1    6    6  503    0 -0.12097714486E+03  0.55941751252E+02 -0.72444559341E+03  0.73660462049E+03  0.00000000000E+00 0. -1.
         -2    1    6    6    0  503  0.72625899537E+01  0.11116523237E+02 -0.34797789259E+03  0.34823115316E+03  0.00000000000E+00 0.  1.
<mgrwt>
<rscale>  0 0.27444121E+03</rscale>
<asrwt>0</asrwt>
<pdfrwt beam="1">  1        1 0.15921322E-01 0.27444121E+03</pdfrwt>
<pdfrwt beam="2">  1       -1 0.25458783E+00 0.27444121E+03</pdfrwt>
<totfact> 0.25651031E+01</totfact>
</mgrwt>
</event>
<event>
12    1  0.1418317E-007  0.1887964E+04  0.7818608E-02  0.8660871E-01
         -2   -1    0    0    0  501 -0.00000000000E+00  0.00000000000E+00  0.29715922635E+04  0.29715922635E+04  0.00000000000E+00 0. -1.
          2   -1    0    0  501    0  0.00000000000E+00 -0.00000000000E+00 -0.12093462851E+04  0.12093462851E+04  0.00000000000E+00 0.  1.
         23    2    1    2    0    0 -0.77360332757E+03  0.16766383332E+04  0.90998228985E+03  0.20604995669E+04  0.89512506083E+02 0.  0.
    5000000    2    1    2    0    0  0.77360332757E+03 -0.16766383332E+04  0.85226368859E+03  0.21204389817E+04  0.60027483008E+03 0.  0.
         23    2    4    4    0    0 -0.61542047568E+02 -0.37139550360E+03  0.21215295606E+03  0.44136240702E+03  0.89832365246E+02 0.  0.
         23    2    4    4    0    0  0.83514537514E+03 -0.13052428296E+04  0.64011073253E+03  0.16790765747E+04  0.91813681290E+02 0.  0.
          2    1    3    3  502    0 -0.15332813925E+03  0.36637117416E+03  0.15841162773E+03  0.42758811880E+03  0.00000000000E+00 0.  1.
         -2    1    3    3    0  502 -0.62027518833E+03  0.13102671590E+04  0.75157066212E+03  0.16329114481E+04  0.00000000000E+00 0. -1.
         13    1    5    5    0    0 -0.11958336769E+02 -0.14678635968E+03  0.13202805999E+03  0.19778939767E+03  0.00000000000E+00 0. -1.
        -13    1    5    5    0    0 -0.49583710798E+02 -0.22460914393E+03  0.80124896071E+02  0.24357300935E+03  0.00000000000E+00 0.  1.
          1    1    6    6  503    0  0.58994813317E+03 -0.98975984873E+03  0.49322944122E+03  0.12533709107E+04  0.00000000000E+00 0. -1.
         -1    1    6    6    0  503  0.24519724197E+03 -0.31548298082E+03  0.14688129131E+03  0.42570566404E+03  0.00000000000E+00 0.  1.
<mgrwt>
<rscale>  0 0.18879636E+04</rscale>
<asrwt>0</asrwt>
<pdfrwt beam="1">  1        2 0.18605328E+00 0.18879636E+04</pdfrwt>
<pdfrwt beam="2">  1       -2 0.45716804E+00 0.18879636E+04</pdfrwt>
<totfact> 0.52679287E-02</totfact>
</mgrwt>
</event>
<event>
12    1  0.1418317E-007  0.9732998E+03  0.7818608E-02  0.9338324E-01
         -2   -1    0    0    0  501 -0.00000000000E+00  0.00000000000E+00  0.11307790144E+04  0.11307790144E+04  0.00000000000E+00 0.  1.
          2   -1    0    0  501    0  0.00000000000E+00 -0.00000000000E+00 -0.87009047888E+03  0.87009047888E+03  0.00000000000E+00 0. -1.
         23    2    1    2    0    0 -0.62915942354E+02 -0.89116930185E+03  0.22831991698E+02  0.89847837588E+03  0.92741316193E+02 0.  0.
    5000000    2    1    2    0    0  0.62915942354E+02  0.89116930185E+03  0.23785654382E+03  0.11023911174E+04  0.60045757545E+03 0.  0.
         23    2    4    4    0    0 -0.19779974117E+03  0.65140979529E+03  0.26359285049E+03  0.73581920974E+03  0.92137178126E+02 0.  0.
         23    2    4    4    0    0  0.26071568353E+03  0.23975950656E+03 -0.25736306668E+02  0.36657190765E+03  0.90858777096E+02 0.  0.
          3    1    3    3  502    0  0.23084445093E+02 -0.22141152011E+03 -0.46903308391E+01  0.22266106990E+03  0.00000000000E+00 0. -1.
         -3    1    3    3    0  502 -0.86000387447E+02 -0.66975778173E+03  0.27522322537E+02  0.67581730599E+03  0.00000000000E+00 0.  1.
         11    1    5    5    0    0 -0.17690053757E+03  0.49093523289E+03  0.16975489303E+03  0.54875124309E+03  0.00000000000E+00 0. -1.
        -11    1    5    5    0    0 -0.20899203604E+02  0.16047456240E+03  0.93837957455E+02  0.18706796666E+03  0.00000000000E+00 0.  1.
          2    1    6    6  503    0  0.18695692586E+03  0.21999708711E+03 -0.28874193615E+02  0.29014708256E+03  0.00000000000E+00 0.  1.
         -2    1    6    6    0  503  0.73758757664E+02  0.19762419449E+02  0.31378869476E+01  0.76424825084E+02  0.00000000000E+00 0. -1.
<mgrwt>
<rscale>  0 0.97329984E+03</rscale>
<asrwt>0</asrwt>
<pdfrwt beam="1">  1        2 0.13386007E+00 0.97329984E+03</pdfrwt>
<pdfrwt beam="2">  1       -2 0.17396600E+00 0.97329984E+03</pdfrwt>
<totfact> 0.61048017E+00</totfact>
</mgrwt>
</event>
<event>
12    1  0.1418317E-007  0.6041495E+03  0.7818608E-02  0.9896834E-01
          2   -1    0    0  501    0  0.00000000000E+00  0.00000000000E+00  0.52854152443E+03  0.52854152443E+03  0.00000000000E+00 0. -1.
         -2   -1    0    0    0  501 -0.00000000000E+00 -0.00000000000E+00 -0.91473703354E+03  0.91473703354E+03  0.00000000000E+00 0.  1.
         23    2    1    2    0    0  0.99036367977E+02  0.52891229674E+03  0.75017634431E+01  0.54627416084E+03  0.93823038313E+02 0.  0.
    5000000    2    1    2    0    0 -0.99036367977E+02 -0.52891229674E+03 -0.39369727255E+03  0.89700439713E+03  0.60005243623E+03 0.  0.
         23    2    4    4    0    0  0.12685287261E+03 -0.34121407640E+03  0.25818803683E+02  0.37665377759E+03  0.93181330355E+02 0.  0.
         23    2    4    4    0    0 -0.22588924059E+03 -0.18769822035E+03 -0.41951607624E+03  0.52035061954E+03  0.92273821313E+02 0.  0.
          3    1    3    3  502    0  0.23352315689E+01  0.24437177204E+03  0.22215564710E+02  0.24539060209E+03  0.00000000000E+00 0. -1.
         -3    1    3    3    0  502  0.96701136408E+02  0.28454052470E+03 -0.14713801267E+02  0.30088355875E+03  0.00000000000E+00 0.  1.
         11    1    5    5    0    0  0.50858380164E+02 -0.17622349115E+03  0.57592073077E+02  0.19224500136E+03  0.00000000000E+00 0. -1.
        -11    1    5    5    0    0  0.75994492447E+02 -0.16499058524E+03 -0.31773269395E+02  0.18440877623E+03  0.00000000000E+00 0.  1.
          1    1    6    6  503    0 -0.14157041966E+03 -0.83781467617E+02 -0.16612459834E+03  0.23379242976E+03  0.00000000000E+00 0. -1.
         -1    1    6    6    0  503 -0.84318820930E+02 -0.10391675273E+03 -0.25339147790E+03  0.28655818978E+03  0.00000000000E+00 0.  1.
<mgrwt>
<rscale>  0 0.60414951E+03</rscale>
<asrwt>0</asrwt>
<pdfrwt beam="1">  1        2 0.81314081E-01 0.60414951E+03</pdfrwt>
<pdfrwt beam="2">  1       -2 0.14072877E+00 0.60414951E+03</pdfrwt>
<totfact> 0.21011815E+01</totfact>
</mgrwt>
</event>
<event>
12    1  0.1418317E-007  0.4207962E+03  0.7818608E-02  0.1036807E+00
          2   -1    0    0  501    0  0.00000000000E+00  0.00000000000E+00  0.24250937371E+04  0.24250937371E+04  0.00000000000E+00 0.  1.
         -2   -1    0    0    0  501 -0.00000000000E+00 -0.00000000000E+00 -0.18501639749E+03  0.18501639749E+03  0.00000000000E+00 0. -1.
         23    2    1    2    0    0 -0.17713610558E+03 -0.12038353517E+03  0.18465637420E+04  0.18612728794E+04  0.93111131545E+02 0.  0.
    5000000    2    1    2    0    0  0.17713610558E+03  0.12038353517E+03  0.39351359767E+03  0.74883725528E+03  0.60002907254E+03 0.  0.
         23    2    4    4    0    0 -0.20822571975E+03  0.15734980670E+02  0.16723011860E+03  0.28145117924E+03  0.87426047289E+02 0.  0.
         23    2    4    4    0    0  0.38536182533E+03  0.10464855450E+03  0.22628347907E+03  0.46738607604E+03  0.88263666360E+02 0.  0.
          3    1    3    3  502    0 -0.29678771308E+02 -0.43384924340E+02  0.21855699579E+03  0.22478932700E+03  0.00000000000E+00 0. -1.
         -3    1    3    3    0  502 -0.14745733427E+03 -0.76998610827E+02  0.16280067462E+04  0.16364835524E+04  0.00000000000E+00 0.  1.
         11    1    5    5    0    0 -0.10196326867E+03 -0.15159681102E+02  0.34640905300E+02  0.10874886854E+03  0.00000000000E+00 0.  1.
        -11    1    5    5    0    0 -0.10626245108E+03  0.30894661772E+02  0.13258921330E+03  0.17270231069E+03  0.00000000000E+00 0. -1.
          3    1    6    6  503    0  0.11054643649E+03  0.72595295483E+02  0.75666291925E+02  0.15236790765E+03  0.00000000000E+00 0. -1.
         -3    1    6    6    0  503  0.27481538884E+03  0.32053259014E+02  0.15061718714E+03  0.31501816839E+03  0.00000000000E+00 0.  1.
<mgrwt>
<rscale>  0 0.42079616E+03</rscale>
<asrwt>0</asrwt>
<pdfrwt beam="1">  1        2 0.37309132E+00 0.42079616E+03</pdfrwt>
<pdfrwt beam="2">  1       -2 0.28464063E-01 0.42079616E+03</pdfrwt>
<totfact> 0.47899661E+01</totfact>
</mgrwt>
</event>
<event>
12    1  0.1418317E-007  0.1340095E+04  0.7818608E-02  0.8998360E-01
         -2   -1    0    0    0  501 -0.00000000000E+00  0.00000000000E+00  0.21647763488E+04  0.21647763488E+04  0.00000000000E+00 0.  1.
          2   -1    0    0  501    0  0.00000000000E+00 -0.00000000000E+00 -0.95279099076E+03  0.95279099076E+03  0.00000000000E+00 0. -1.
         23    2    1    2    0    0 -0.53959557089E+03 -0.11805491304E+04  0.10624540994E+04  0.16798312356E+04  0.90358382525E+02 0.  0.
    5000000    2    1    2    0    0  0.53959557089E+03  0.11805491304E+04  0.14953125861E+03  0.14377361039E+04  0.59988822103E+03 0.  0.
         23    2    4    4    0    0  0.56633648086E+02  0.65020160905E+03 -0.11273639240E+03  0.66840434233E+03  0.89918675333E+02 0.  0.
         23    2    4    4    0    0  0.48296192281E+03  0.53034752138E+03  0.26226765100E+03  0.76933176159E+03  0.92554450500E+02 0.  0.
          1    1    3    3  502    0 -0.34581874160E+03 -0.65076611896E+03  0.61254603464E+03  0.95827959812E+03  0.00000000000E+00 0. -1.
         -1    1    3    3    0  502 -0.19377682929E+03 -0.52978301147E+03  0.44990806477E+03  0.72155163749E+03  0.00000000000E+00 0.  1.
         11    1    5    5    0    0 -0.13187820007E+02  0.34250861489E+03 -0.45049654211E+02  0.34571019831E+03  0.00000000000E+00 0. -1.
        -11    1    5    5    0    0  0.69821468093E+02  0.30769299416E+03 -0.67686738185E+02  0.32269414402E+03  0.00000000000E+00 0.  1.
          4    1    6    6  503    0  0.20938624635E+03  0.17834040595E+03  0.13062912229E+03  0.30448623638E+03  0.00000000000E+00 0. -1.
         -4    1    6    6    0  503  0.27357567646E+03  0.35200711543E+03  0.13163852871E+03  0.46484552521E+03  0.00000000000E+00 0.  1.
<mgrwt>
<rscale>  0 0.13400952E+04</rscale>
<asrwt>0</asrwt>
<pdfrwt beam="1">  1        2 0.14658323E+00 0.13400952E+04</pdfrwt>
<pdfrwt beam="2">  1       -2 0.33304252E+00 0.13400952E+04</pdfrwt>
<totfact> 0.51887050E-01</totfact>
</mgrwt>
</event>
<event>
12    1  0.1418317E-007  0.6110554E+03  0.7818608E-02  0.9882731E-01
          1   -1    0    0  501    0  0.00000000000E+00  0.00000000000E+00  0.15600306253E+04  0.15600306253E+04  0.00000000000E+00 0. -1.
         -1   -1    0    0    0  501 -0.00000000000E+00 -0.00000000000E+00 -0.31648199826E+03  0.31648199826E+03  0.00000000000E+00 0.  1.
         23    2    1    2    0    0  0.56804093019E+03 -0.49568646716E+02  0.50379024830E+03  0.76646437367E+03  0.92387622083E+02 0.  0.
    5000000    2    1    2    0    0 -0.56804093019E+03  0.49568646716E+02  0.73975837871E+03  0.11100482499E+04  0.59986424217E+03 0.  0.
         23    2    4    4    0    0 -0.12723927973E+03 -0.91761230134E+02 -0.51644354443E+02  0.18866997187E+03  0.91209984536E+02 0.  0.
         23    2    4    4    0    0 -0.44080165046E+03  0.14132987685E+03  0.79140273316E+03  0.92137827799E+03  0.91320402785E+02 0.  0.
          1    1    3    3  502    0  0.36433768044E+03 -0.34896287118E+02  0.38023591500E+03  0.52776798624E+03  0.00000000000E+00 0. -1.
         -1    1    3    3    0  502  0.20370324975E+03 -0.14672359598E+02  0.12355433329E+03  0.23869638742E+03  0.00000000000E+00 0.  1.
         13    1    5    5    0    0 -0.11965551965E+03 -0.35779608157E+02 -0.32945420689E+02  0.12916278290E+03  0.00000000000E+00 0.  1.
        -13    1    5    5    0    0 -0.75837600837E+01 -0.55981621977E+02 -0.18698933754E+02  0.59507188975E+02  0.00000000000E+00 0. -1.
          2    1    6    6  503    0 -0.18450152335E+03  0.16013527033E+02  0.27815206881E+03  0.33416435858E+03  0.00000000000E+00 0. -1.
         -2    1    6    6    0  503 -0.25630012711E+03  0.12531634982E+03  0.51325066435E+03  0.58721391940E+03  0.00000000000E+00 0.  1.
<mgrwt>
<rscale>  0 0.61105542E+03</rscale>
<asrwt>0</asrwt>
<pdfrwt beam="1">  1        1 0.24000471E+00 0.61105542E+03</pdfrwt>
<pdfrwt beam="2">  1       -1 0.48689539E-01 0.61105542E+03</pdfrwt>
<totfact> 0.26453424E+01</totfact>
</mgrwt>
</event>
<event>
12    1  0.1418317E-007  0.1073254E+04  0.7818608E-02  0.9231660E-01
         -2   -1    0    0    0  501 -0.00000000000E+00  0.00000000000E+00  0.34520872419E+03  0.34520872419E+03  0.00000000000E+00 0.  1.
          2   -1    0    0  501    0  0.00000000000E+00 -0.00000000000E+00 -0.33743248645E+04  0.33743248645E+04  0.00000000000E+00 0. -1.
         23    2    1    2    0    0 -0.57311658179E+03  0.81003170013E+03 -0.14765107954E+04  0.17813003642E+04  0.91284648713E+02 0.  0.
    5000000    2    1    2    0    0  0.57311658179E+03 -0.81003170013E+03 -0.15526053449E+04  0.19382332245E+04  0.60129086460E+03 0.  0.
         23    2    4    4    0    0  0.45846542088E+03 -0.88177071960E+03 -0.13456828477E+04  0.16753659047E+04  0.90985954838E+02 0.  0.
         23    2    4    4    0    0  0.11465116091E+03  0.71739019464E+02 -0.20692249723E+03  0.26286731978E+03  0.89392014949E+02 0.  0.
          1    1    3    3  502    0 -0.35061630630E+03  0.47855744127E+03 -0.80334834312E+03  0.99865788899E+03  0.00000000000E+00 0. -1.
         -1    1    3    3    0  502 -0.22250027550E+03  0.33147425886E+03 -0.67316245226E+03  0.78264247522E+03  0.00000000000E+00 0.  1.
         11    1    5    5    0    0  0.21337676161E+03 -0.48943982277E+03 -0.76619666926E+03  0.93388346088E+03  0.00000000000E+00 0.  1.
        -11    1    5    5    0    0  0.24508865928E+03 -0.39233089682E+03 -0.57948617842E+03  0.74148244381E+03  0.00000000000E+00 0. -1.
          3    1    6    6  503    0  0.64641090805E+02 -0.61616990308E+01 -0.11699776559E+03  0.13380924597E+03  0.00000000000E+00 0. -1.
         -3    1    6    6    0  503  0.50010070104E+02  0.77900718494E+02 -0.89924731646E+02  0.12905807381E+03  0.00000000000E+00 0.  1.
<mgrwt>
<rscale>  0 0.10732537E+04</rscale>
<asrwt>0</asrwt>
<pdfrwt beam="1">  1        2 0.51912689E+00 0.10732537E+04</pdfrwt>
<pdfrwt beam="2">  1       -2 0.53109036E-01 0.10732537E+04</pdfrwt>
<totfact> 0.33912472E+00</totfact>
</mgrwt>
</event>
<event>
12    1  0.1418317E-007  0.6612626E+03  0.7818608E-02  0.9785872E-01
          2   -1    0    0  501    0  0.00000000000E+00  0.00000000000E+00  0.19074873282E+04  0.19074873282E+04  0.00000000000E+00 0. -1.
         -2   -1    0    0    0  501 -0.00000000000E+00 -0.00000000000E+00 -0.30413482941E+03  0.30413482941E+03  0.00000000000E+00 0.  1.
         23    2    1    2    0    0 -0.58595294030E+03  0.49654957527E+02  0.31452996685E+03  0.67318117106E+03  0.91854918029E+02 0.  0.
    5000000    2    1    2    0    0  0.58595294030E+03 -0.49654957527E+02  0.12888225319E+04  0.15384409865E+04  0.59994223657E+03 0.  0.
         23    2    4    4    0    0 -0.38947835808E+02  0.52458783370E+02  0.54994334737E+03  0.56108254894E+03  0.90039344384E+02 0.  0.
         23    2    4    4    0    0  0.62490077611E+03 -0.10211374090E+03  0.73887918455E+03  0.97735843760E+03  0.91426856701E+02 0.  0.
          2    1    3    3  502    0 -0.47327220036E+03  0.63084965186E+02  0.22099351456E+03  0.52612205993E+03  0.00000000000E+00 0. -1.
         -2    1    3    3    0  502 -0.11268073994E+03 -0.13430007660E+02  0.93536452288E+02  0.14705911113E+03  0.00000000000E+00 0.  1.
         11    1    5    5    0    0 -0.56785012879E+02  0.51417992113E+02  0.27245543182E+03  0.28301998150E+03  0.00000000000E+00 0. -1.
        -11    1    5    5    0    0  0.17837177070E+02  0.10407912576E+01  0.27748791555E+03  0.27806256743E+03  0.00000000000E+00 0.  1.
          3    1    6    6  503    0  0.30263300749E+03 -0.13712189373E+02  0.39577089969E+03  0.49840682820E+03  0.00000000000E+00 0. -1.
         -3    1    6    6    0  503  0.32226776862E+03 -0.88401551524E+02  0.34310828485E+03  0.47895160939E+03  0.00000000000E+00 0.  1.
<mgrwt>
<rscale>  0 0.66126260E+03</rscale>
<asrwt>0</asrwt>
<pdfrwt beam="1">  1        2 0.29345958E+00 0.66126260E+03</pdfrwt>
<pdfrwt beam="2">  1       -2 0.46789975E-01 0.66126260E+03</pdfrwt>
<totfact> 0.33951686E+01</totfact>
</mgrwt>
</event>
<event>
12    1  0.1418317E-007  0.6356639E+03  0.7818608E-02  0.9834058E-01
         -1   -1    0    0    0  501 -0.00000000000E+00  0.00000000000E+00  0.12676224344E+04  0.12676224344E+04  0.00000000000E+00 0.  1.
          1   -1    0    0  501    0  0.00000000000E+00 -0.00000000000E+00 -0.82772686469E+03  0.82772686469E+03  0.00000000000E+00 0. -1.
         23    2    1    2    0    0  0.36252603297E+03 -0.35182673436E+03 -0.60205936613E+03  0.79116996005E+03  0.90924417710E+02 0.  0.
    5000000    2    1    2    0    0 -0.36252603297E+03  0.35182673436E+03  0.10419549358E+04  0.13041793390E+04  0.60000540369E+03 0.  0.
         23    2    4    4    0    0  0.14822719862E+03  0.37805358142E+02  0.19358502093E+03  0.26086908306E+03  0.84717003342E+02 0.  0.
         23    2    4    4    0    0 -0.51075323159E+03  0.31402137622E+03  0.84836991491E+03  0.10433102560E+04  0.96366432955E+02 0.  0.
          3    1    3    3  502    0  0.38428278176E+02 -0.46092855288E+02 -0.33155593747E+02  0.68560756041E+02  0.00000000000E+00 0. -1.
         -3    1    3    3    0  502  0.32409775480E+03 -0.30573387907E+03 -0.56890377239E+03  0.72260920400E+03  0.00000000000E+00 0.  1.
         13    1    5    5    0    0  0.12092254405E+03  0.11126361891E+02  0.18571403811E+03  0.22189132822E+03  0.00000000000E+00 0.  1.
        -13    1    5    5    0    0  0.27304654565E+02  0.26678996251E+02  0.78709828201E+01  0.38977754841E+02  0.00000000000E+00 0. -1.
          4    1    6    6  503    0 -0.10986246730E+03  0.11333723260E+03  0.24919450724E+03  0.29497964752E+03  0.00000000000E+00 0. -1.
         -4    1    6    6    0  503 -0.40089076429E+03  0.20068414362E+03  0.59917540767E+03  0.74833060846E+03  0.00000000000E+00 0.  1.
<mgrwt>
<rscale>  0 0.63566389E+03</rscale>
<asrwt>0</asrwt>
<pdfrwt beam="1">  1        1 0.12734259E+00 0.63566389E+03</pdfrwt>
<pdfrwt beam="2">  1       -1 0.19501884E+00 0.63566389E+03</pdfrwt>
<totfact> 0.36134407E+00</totfact>
</mgrwt>
</event>
<event>
12    1  0.1418317E-007  0.1269199E+04  0.7818608E-02  0.9054354E-01
         -1   -1    0    0    0  501 -0.00000000000E+00  0.00000000000E+00  0.24683856106E+04  0.24683856106E+04  0.00000000000E+00 0.  1.
          1   -1    0    0  501    0  0.00000000000E+00 -0.00000000000E+00 -0.74189661091E+03  0.74189661091E+03  0.00000000000E+00 0. -1.
         23    2    1    2    0    0 -0.37793066419E+03 -0.12075748507E+04  0.10917589267E+04  0.16727898667E+04  0.72248025301E+02 0.  0.
    5000000    2    1    2    0    0  0.37793066419E+03  0.12075748507E+04  0.63473007300E+03  0.15374923548E+04  0.59994322121E+03 0.  0.
         23    2    4    4    0    0  0.31390194839E+03  0.79980270453E+03  0.69750819064E+03  0.11103792650E+04  0.90584969542E+02 0.  0.
         23    2    4    4    0    0  0.64028715798E+02  0.40777214614E+03 -0.62778117648E+02  0.42711308984E+03  0.90037213673E+02 0.  0.
          3    1    3    3  502    0 -0.11838181389E+03 -0.44026321053E+03  0.35482847733E+03  0.57771030519E+03  0.00000000000E+00 0. -1.
         -3    1    3    3    0  502 -0.25954885030E+03 -0.76731164014E+03  0.73693044940E+03  0.10950795615E+04  0.00000000000E+00 0.  1.
         11    1    5    5    0    0  0.38285307986E+02  0.11687941737E+03  0.62458573674E+02  0.13794069899E+03  0.00000000000E+00 0.  1.
        -11    1    5    5    0    0  0.27561664041E+03  0.68292328716E+03  0.63504961697E+03  0.97243856599E+03  0.00000000000E+00 0. -1.
          1    1    6    6  503    0  0.50409378194E+02  0.27572301516E+03 -0.84153521455E+02  0.29265355230E+03  0.00000000000E+00 0. -1.
         -1    1    6    6    0  503  0.13619337603E+02  0.13204913098E+03  0.21375403807E+02  0.13445953754E+03  0.00000000000E+00 0.  1.
<mgrwt>
<rscale>  0 0.12691988E+04</rscale>
<asrwt>0</asrwt>
<pdfrwt beam="1">  1        1 0.11413794E+00 0.12691988E+04</pdfrwt>
<pdfrwt beam="2">  1       -1 0.37975163E+00 0.12691988E+04</pdfrwt>
<totfact> 0.24080558E-01</totfact>
</mgrwt>
</event>
<event>
12    1  0.1418317E-007  0.5339747E+03  0.7818608E-02  0.1005273E+00
         -1   -1    0    0    0  501 -0.00000000000E+00  0.00000000000E+00  0.13069086261E+03  0.13069086261E+03  0.00000000000E+00 0.  1.
          1   -1    0    0  501    0  0.00000000000E+00 -0.00000000000E+00 -0.31250213156E+04  0.31250213156E+04  0.00000000000E+00 0. -1.
         23    2    1    2    0    0 -0.36609080441E+03 -0.23295305385E+03 -0.57510040867E+03  0.72569508775E+03  0.87196777224E+02 0.  0.
    5000000    2    1    2    0    0  0.36609080441E+03  0.23295305385E+03 -0.24192300443E+04  0.25300170904E+04  0.60001905661E+03 0.  0.
         23    2    4    4    0    0 -0.87842458055E+02  0.45349538844E+02 -0.13236818252E+03  0.18923511889E+03  0.92280639170E+02 0.  0.
         23    2    4    4    0    0  0.45393326246E+03  0.18760351501E+03 -0.22868618618E+04  0.23407819715E+04  0.90953712814E+02 0.  0.
          4    1    3    3  502    0 -0.23193891741E+03 -0.99126582682E+02 -0.30566033269E+03  0.39629531891E+03  0.00000000000E+00 0. -1.
         -4    1    3    3    0  502 -0.13415188699E+03 -0.13382647117E+03 -0.26944007598E+03  0.32939976884E+03  0.00000000000E+00 0.  1.
         13    1    5    5    0    0 -0.36498232603E+02  0.64896529996E+02 -0.48105668818E+02  0.88644435590E+02  0.00000000000E+00 0.  1.
        -13    1    5    5    0    0 -0.51344225452E+02 -0.19546991152E+02 -0.84262513705E+02  0.10059068330E+03  0.00000000000E+00 0. -1.
          3    1    6    6  503    0  0.95737285250E+02  0.74159737061E+02 -0.66809373717E+03  0.67898051226E+03  0.00000000000E+00 0. -1.
         -3    1    6    6    0  503  0.35819597721E+03  0.11344377795E+03 -0.16187681246E+04  0.16618014593E+04  0.00000000000E+00 0.  1.
<mgrwt>
<rscale>  0 0.53397474E+03</rscale>
<asrwt>0</asrwt>
<pdfrwt beam="1">  1        1 0.48077250E+00 0.53397474E+03</pdfrwt>
<pdfrwt beam="2">  1       -1 0.20106287E-01 0.53397474E+03</pdfrwt>
<totfact> 0.10891996E+01</totfact>
</mgrwt>
</event>
<event>
12    1  0.1418317E-007  0.6687124E+03  0.7818608E-02  0.9772287E-01
         -1   -1    0    0    0  501 -0.00000000000E+00  0.00000000000E+00  0.61372376047E+03  0.61372376047E+03  0.00000000000E+00 0. -1.
          1   -1    0    0  501    0  0.00000000000E+00 -0.00000000000E+00 -0.98321190239E+03  0.98321190239E+03  0.00000000000E+00 0.  1.
         23    2    1    2    0    0  0.36939531692E+03  0.52819997139E+03 -0.28978180761E+03  0.71275770850E+03  0.92746671471E+02 0.  0.
    5000000    2    1    2    0    0 -0.36939531692E+03 -0.52819997139E+03 -0.79706334303E+02  0.88417795435E+03  0.59997453721E+03 0.  0.
         23    2    4    4    0    0 -0.27352858150E+03 -0.24296565782E+03  0.23121881448E+03  0.44204480633E+03  0.89951513896E+02 0.  0.
         23    2    4    4    0    0 -0.95866735414E+02 -0.28523431357E+03 -0.31092514878E+03  0.44213314803E+03  0.90874792131E+02 0.  0.
          1    1    3    3  502    0  0.22281665826E+03  0.23916095206E+03 -0.13588091867E+03  0.35398989851E+03  0.00000000000E+00 0. -1.
         -1    1    3    3    0  502  0.14657865866E+03  0.28903901933E+03 -0.15390088894E+03  0.35876781000E+03  0.00000000000E+00 0.  1.
         13    1    5    5    0    0 -0.11746795739E+03 -0.16429831112E+03  0.12574466472E+03  0.23791674333E+03  0.00000000000E+00 0. -1.
        -13    1    5    5    0    0 -0.15606062412E+03 -0.78667346700E+02  0.10547414976E+03  0.20412806300E+03  0.00000000000E+00 0.  1.
          1    1    6    6  503    0 -0.30736164747E+01 -0.12144636369E+03 -0.15976344195E+03  0.20070631219E+03  0.00000000000E+00 0. -1.
         -1    1    6    6    0  503 -0.92793118940E+02 -0.16378794988E+03 -0.15116170683E+03  0.24142683583E+03  0.00000000000E+00 0.  1.
<mgrwt>
<rscale>  0 0.66871242E+03</rscale>
<asrwt>0</asrwt>
<pdfrwt beam="1">  1        1 0.15126337E+00 0.66871242E+03</pdfrwt>
<pdfrwt beam="2">  1       -1 0.94419041E-01 0.66871242E+03</pdfrwt>
<totfact> 0.17622662E+01</totfact>
</mgrwt>
</event>
<event>
12    1  0.2132384E-007  0.1442771E+04  0.7818608E-02  0.8923427E-01
          2   -1    0    0  501    0  0.00000000000E+00  0.00000000000E+00  0.16136493190E+04  0.16136493190E+04  0.00000000000E+00 0. -1.
         -2   -1    0    0    0  501 -0.00000000000E+00 -0.00000000000E+00 -0.14847445632E+04  0.14847445632E+04  0.00000000000E+00 0.  1.
         23    2    1    2    0    0  0.72176414991E+03  0.12244823529E+04  0.50371855530E+03  0.15107333119E+04  0.91006790738E+02 0.  0.
    5000000    2    1    2    0    0 -0.72176414991E+03 -0.12244823529E+04 -0.37481379951E+03  0.15876605703E+04  0.59990014302E+03 0.  0.
         23    2    4    4    0    0 -0.13297408188E+03 -0.50836561707E+03 -0.38200730769E+03  0.65606125435E+03  0.91482671887E+02 0.  0.
         23    2    4    4    0    0 -0.58879006803E+03 -0.71611673585E+03  0.71935081802E+01  0.93159931599E+03  0.91261248191E+02 0.  0.
          2    1    3    3  502    0  0.41867929359E+03  0.65338036901E+03  0.31174688119E+03  0.83629203956E+03  0.00000000000E+00 0. -1.
         -2    1    3    3    0  502  0.30308485631E+03  0.57110198391E+03  0.19197167411E+03  0.67444127232E+03  0.00000000000E+00 0.  1.
         13    1    5    5    0    0  0.35039975958E+01 -0.12320306793E+03 -0.10981369942E+03  0.16507671709E+03  0.00000000000E+00 0.  1.
        -13    1    5    5    0    0 -0.13647807947E+03 -0.38516254914E+03 -0.27219360827E+03  0.49098453726E+03  0.00000000000E+00 0. -1.
          4    1    6    6  503    0 -0.33610575297E+03 -0.47461896877E+03 -0.97881574218E+01  0.58165801871E+03  0.00000000000E+00 0. -1.
         -4    1    6    6    0  503 -0.25268431505E+03 -0.24149776708E+03  0.16981665602E+02  0.34994129728E+03  0.00000000000E+00 0.  1.
<mgrwt>
<rscale>  0 0.14427712E+04</rscale>
<asrwt>0</asrwt>
<pdfrwt beam="1">  1        2 0.24825374E+00 0.14427712E+04</pdfrwt>
<pdfrwt beam="2">  1       -2 0.22842224E+00 0.14427712E+04</pdfrwt>
<totfact> 0.90591238E-01</totfact>
</mgrwt>
</event>
<event>
12    1  0.1418317E-007  0.7070495E+03  0.7818608E-02  0.9705252E-01
         -1   -1    0    0    0  501 -0.00000000000E+00  0.00000000000E+00  0.20012620158E+03  0.20012620158E+03  0.00000000000E+00 0.  1.
          1   -1    0    0  501    0  0.00000000000E+00 -0.00000000000E+00 -0.28944035976E+04  0.28944035976E+04  0.00000000000E+00 0. -1.
         23    2    1    2    0    0 -0.28722626139E+03  0.56762458680E+03 -0.10061453182E+04  0.11938205379E+04  0.90457053518E+02 0.  0.
    5000000    2    1    2    0    0  0.28722626139E+03 -0.56762458680E+03 -0.16881320778E+04  0.19007092613E+04  0.59850579537E+03 0.  0.
         23    2    4    4    0    0 -0.10373383883E+03 -0.47209691125E+02 -0.69320359047E+03  0.70832470288E+03  0.90571533097E+02 0.  0.
         23    2    4    4    0    0  0.39096010022E+03 -0.52041489567E+03 -0.99492848732E+03  0.11923845584E+04  0.90646437581E+02 0.  0.
          3    1    3    3  502    0 -0.53339396978E+02  0.16515893991E+03 -0.22027646188E+03  0.28043588636E+03  0.00000000000E+00 0. -1.
         -3    1    3    3    0  502 -0.23388686441E+03  0.40246564689E+03 -0.78586885637E+03  0.91338465155E+03  0.00000000000E+00 0.  1.
         13    1    5    5    0    0 -0.11266242348E+02 -0.17795623289E+02 -0.37652510701E+03  0.37711373435E+03  0.00000000000E+00 0.  1.
        -13    1    5    5    0    0 -0.92467596484E+02 -0.29414067836E+02 -0.31667848346E+03  0.33121096853E+03  0.00000000000E+00 0. -1.
          4    1    6    6  503    0  0.52632438684E+02 -0.13052737486E+03 -0.20025397256E+03  0.24476360578E+03  0.00000000000E+00 0. -1.
         -4    1    6    6    0  503  0.33832766154E+03 -0.38988752082E+03 -0.79467451476E+03  0.94762095263E+03  0.00000000000E+00 0.  1.
<mgrwt>
<rscale>  0 0.70704948E+03</rscale>
<asrwt>0</asrwt>
<pdfrwt beam="1">  1        1 0.44529288E+00 0.70704948E+03</pdfrwt>
<pdfrwt beam="2">  1       -1 0.30788645E-01 0.70704948E+03</pdfrwt>
<totfact> 0.74423257E+00</totfact>
</mgrwt>
</event>
<event>
12    1  0.1418317E-007  0.7908348E+03  0.7818608E-02  0.9573379E-01
          2   -1    0    0  501    0  0.00000000000E+00  0.00000000000E+00  0.27336594525E+04  0.27336594525E+04  0.00000000000E+00 0. -1.
         -2   -1    0    0    0  501 -0.00000000000E+00 -0.00000000000E+00 -0.25650508877E+03  0.25650508877E+03  0.00000000000E+00 0.  1.
         23    2    1    2    0    0  0.31511949440E+03 -0.61508555899E+03  0.68201165684E+03  0.97518320448E+03  0.90619212095E+02 0.  0.
    5000000    2    1    2    0    0 -0.31511949440E+03  0.61508555899E+03  0.17951427069E+04  0.20149813368E+04  0.59998492387E+03 0.  0.
         23    2    4    4    0    0 -0.41362327750E+03  0.64454597952E+03  0.15942150780E+04  0.17709766245E+04  0.91174306014E+02 0.  0.
         23    2    4    4    0    0  0.98503783102E+02 -0.29460420534E+02  0.20092762884E+03  0.24400471227E+03  0.92711789525E+02 0.  0.
          1    1    3    3  502    0  0.18350592196E+03 -0.33042995962E+03  0.43283040844E+03  0.57463078936E+03  0.00000000000E+00 0. -1.
         -1    1    3    3    0  502  0.13161357245E+03 -0.28465559937E+03  0.24918124840E+03  0.40055241512E+03  0.00000000000E+00 0.  1.
         11    1    5    5    0    0 -0.27189002102E+03  0.43133641228E+03  0.95926260066E+03  0.10863517023E+04  0.00000000000E+00 0.  1.
        -11    1    5    5    0    0 -0.14173325649E+03  0.21320956724E+03  0.63495247736E+03  0.68462492217E+03  0.00000000000E+00 0. -1.
          1    1    6    6  503    0  0.80647735330E+02  0.96293616462E+01  0.73552676035E+02  0.10957544420E+03  0.00000000000E+00 0. -1.
         -1    1    6    6    0  503  0.17856047772E+02 -0.39089782180E+02  0.12737495280E+03  0.13442926807E+03  0.00000000000E+00 0.  1.
<mgrwt>
<rscale>  0 0.79083485E+03</rscale>
<asrwt>0</asrwt>
<pdfrwt beam="1">  1        2 0.42056297E+00 0.79083485E+03</pdfrwt>
<pdfrwt beam="2">  1       -2 0.39462323E-01 0.79083485E+03</pdfrwt>
<totfact> 0.16107975E+01</totfact>
</mgrwt>
</event>
<event>
12    1  0.1418317E-007  0.1178572E+04  0.7818608E-02  0.9131822E-01
         -1   -1    0    0    0  501 -0.00000000000E+00  0.00000000000E+00  0.14670238705E+04  0.14670238705E+04  0.00000000000E+00 0.  1.
          1   -1    0    0  501    0  0.00000000000E+00 -0.00000000000E+00 -0.11220252658E+04  0.11220252658E+04  0.00000000000E+00 0. -1.
         23    2    1    2    0    0  0.11157325544E+04  0.65733763092E+02  0.63376971853E+03  0.12881330721E+04  0.91884137915E+02 0.  0.
    5000000    2    1    2    0    0 -0.11157325544E+04 -0.65733763092E+02 -0.28877111387E+03  0.13009160642E+04  0.59984480440E+03 0.  0.
         23    2    4    4    0    0 -0.29778674398E+02  0.12190771905E+03 -0.75531669839E+02  0.17473681578E+03  0.95287251120E+02 0.  0.
         23    2    4    4    0    0 -0.10859538800E+04 -0.18764148214E+03 -0.21323944403E+03  0.11261792484E+04  0.91123453737E+02 0.  0.
          2    1    3    3  502    0  0.68283227338E+03 -0.46738872589E+01  0.38675196519E+03  0.78476674329E+03  0.00000000000E+00 0. -1.
         -2    1    3    3    0  502  0.43290028097E+03  0.70407650351E+02  0.24701775334E+03  0.50336632879E+03  0.00000000000E+00 0.  1.
         13    1    5    5    0    0 -0.92251173625E+01  0.10807752911E+03 -0.15217052971E+02  0.10953270648E+03  0.00000000000E+00 0. -1.
        -13    1    5    5    0    0 -0.20553557036E+02  0.13830189942E+02 -0.60314616868E+02  0.65204109292E+02  0.00000000000E+00 0.  1.
          1    1    6    6  503    0 -0.11278472643E+03 -0.10141959784E+02  0.42868942952E+01  0.11332092184E+03  0.00000000000E+00 0. -1.
         -1    1    6    6    0  503 -0.97316915353E+03 -0.17749952236E+03 -0.21752633833E+03  0.10128583266E+04  0.00000000000E+00 0.  1.
<mgrwt>
<rscale>  0 0.11785723E+04</rscale>
<asrwt>0</asrwt>
<pdfrwt beam="1">  1        1 0.17261927E+00 0.11785723E+04</pdfrwt>
<pdfrwt beam="2">  1       -1 0.22569598E+00 0.11785723E+04</pdfrwt>
<totfact> 0.12098636E+00</totfact>
</mgrwt>
</event>
<event>
12    1  0.1418317E-007  0.1159453E+04  0.7818608E-02  0.9149106E-01
         -1   -1    0    0    0  501 -0.00000000000E+00  0.00000000000E+00  0.55913174386E+03  0.55913174386E+03  0.00000000000E+00 0.  1.
          1   -1    0    0  501    0  0.00000000000E+00 -0.00000000000E+00 -0.31352967862E+04  0.31352967862E+04  0.00000000000E+00 0. -1.
         23    2    1    2    0    0 -0.47302363623E+02  0.10869772470E+04 -0.20942194691E+04  0.23617688903E+04  0.91869784876E+02 0.  0.
    5000000    2    1    2    0    0  0.47302363623E+02 -0.10869772470E+04 -0.48194557318E+03  0.13326596397E+04  0.59996094109E+03 0.  0.
         23    2    4    4    0    0  0.18563261946E+03 -0.10354982549E+04 -0.34669088466E+03  0.11113852346E+04  0.90920101450E+02 0.  0.
         23    2    4    4    0    0 -0.13833025584E+03 -0.51478992036E+02 -0.13525468853E+03  0.22127440512E+03  0.94250651404E+02 0.  0.
          4    1    3    3  502    0 -0.61646354906E+01  0.72043883416E+03 -0.14602270205E+04  0.16282914567E+04  0.00000000000E+00 0. -1.
         -4    1    3    3    0  502 -0.41137728132E+02  0.36653841280E+03 -0.63399244859E+03  0.73347743360E+03  0.00000000000E+00 0.  1.
         11    1    5    5    0    0  0.14663936674E+03 -0.60159056738E+03 -0.22803646097E+03  0.65985978978E+03  0.00000000000E+00 0.  1.
        -11    1    5    5    0    0  0.38993252716E+02 -0.43390768754E+03 -0.11865442369E+03  0.45152544483E+03  0.00000000000E+00 0. -1.
          4    1    6    6  503    0 -0.12380767682E+03 -0.76697876897E+02 -0.10707200388E+03  0.18076315768E+03  0.00000000000E+00 0.  1.
         -4    1    6    6    0  503 -0.14522579021E+02  0.25218884861E+02 -0.28182684644E+02  0.40511247436E+02  0.00000000000E+00 0. -1.
<mgrwt>
<rscale>  0 0.11594534E+04</rscale>
<asrwt>0</asrwt>
<pdfrwt beam="1">  1        1 0.48235335E+00 0.11594534E+04</pdfrwt>
<pdfrwt beam="2">  1       -1 0.86020269E-01 0.11594534E+04</pdfrwt>
<totfact> 0.63715815E-01</totfact>
</mgrwt>
</event>
<event>
12    1  0.1418317E-007  0.6466417E+03  0.7818608E-02  0.9813101E-01
         -2   -1    0    0    0  501 -0.00000000000E+00  0.00000000000E+00  0.51289796537E+03  0.51289796537E+03  0.00000000000E+00 0.  1.
          2   -1    0    0  501    0  0.00000000000E+00 -0.00000000000E+00 -0.21827762696E+04  0.21827762696E+04  0.00000000000E+00 0. -1.
         23    2    1    2    0    0 -0.57596398331E+03  0.76454476150E+02  0.21780264991E+03  0.63145972787E+03  0.11714775549E+03 0.  0.
    5000000    2    1    2    0    0  0.57596398331E+03 -0.76454476150E+02 -0.18876809542E+04  0.20642145071E+04  0.60005195586E+03 0.  0.
         23    2    4    4    0    0  0.13212150432E+03  0.15034706252E+03 -0.18183984327E+03  0.28466551266E+03  0.88929153738E+02 0.  0.
         23    2    4    4    0    0  0.44384247899E+03 -0.22680153867E+03 -0.17058411109E+04  0.17795489945E+04  0.92008934413E+02 0.  0.
          1    1    3    3  502    0 -0.42843804827E+03  0.30529161554E+02  0.20636845450E+03  0.47652820475E+03  0.00000000000E+00 0. -1.
         -1    1    3    3    0  502 -0.14752593504E+03  0.45925314596E+02  0.11434195407E+02  0.15493152311E+03  0.00000000000E+00 0.  1.
         11    1    5    5    0    0  0.11150554395E+03  0.10295529869E+03 -0.17639430623E+03  0.23269772481E+03  0.00000000000E+00 0.  1.
        -11    1    5    5    0    0  0.20615960368E+02  0.47391763828E+02 -0.54455370444E+01  0.51967787853E+02  0.00000000000E+00 0. -1.
          4    1    6    6  503    0  0.34561085998E+03 -0.21459429952E+03 -0.14153809485E+04  0.14726848981E+04  0.00000000000E+00 0. -1.
         -4    1    6    6    0  503  0.98231619018E+02 -0.12207239148E+02 -0.29046016244E+03  0.30686409635E+03  0.00000000000E+00 0.  1.
<mgrwt>
<rscale>  0 0.64664171E+03</rscale>
<asrwt>0</asrwt>
<pdfrwt beam="1">  1        2 0.33581173E+00 0.64664171E+03</pdfrwt>
<pdfrwt beam="2">  1       -2 0.78907380E-01 0.64664171E+03</pdfrwt>
<totfact> 0.79746224E+00</totfact>
</mgrwt>
</event>
<event>
12    1  0.1418317E-007  0.6164909E+03  0.7818608E-02  0.9871771E-01
          1   -1    0    0  501    0  0.00000000000E+00  0.00000000000E+00  0.82045606062E+03  0.82045606062E+03  0.00000000000E+00 0. -1.
         -1   -1    0    0    0  501 -0.00000000000E+00 -0.00000000000E+00 -0.62184001722E+03  0.62184001722E+03  0.00000000000E+00 0.  1.
         23    2    1    2    0    0 -0.46327120776E+03  0.88835552673E+02 -0.26571307672E+03  0.54896737030E+03  0.90828228831E+02 0.  0.
    5000000    2    1    2    0    0  0.46327120776E+03 -0.88835552673E+02  0.46432912012E+03  0.89332870754E+03  0.59993556369E+03 0.  0.
         23    2    4    4    0    0  0.35852770076E+03  0.21415629904E+03  0.24050776150E+03  0.49042831358E+03  0.90944569839E+02 0.  0.
         23    2    4    4    0    0  0.10474350700E+03 -0.30299185171E+03  0.22382135861E+03  0.40290039397E+03  0.97249485472E+02 0.  0.
          4    1    3    3  502    0 -0.30124264778E+03  0.98935614325E+02 -0.15914041429E+03  0.35476902357E+03  0.00000000000E+00 0. -1.
         -4    1    3    3    0  502 -0.16202855997E+03 -0.10100061652E+02 -0.10657266243E+03  0.19419834672E+03  0.00000000000E+00 0.  1.
         11    1    5    5    0    0  0.13289687800E+01 -0.95828241340E+00  0.17482098734E+02  0.17558708362E+02  0.00000000000E+00 0. -1.
        -11    1    5    5    0    0  0.35719873198E+03  0.21511458145E+03  0.22302566277E+03  0.47286960522E+03  0.00000000000E+00 0.  1.
          3    1    6    6  503    0  0.10748121850E+02  0.57731130872E+01  0.68073806219E+01  0.13971091187E+02  0.00000000000E+00 0. -1.
         -3    1    6    6    0  503  0.93995385149E+02 -0.30876496480E+03  0.21701397799E+03  0.38892930278E+03  0.00000000000E+00 0.  1.
<mgrwt>
<rscale>  0 0.61649090E+03</rscale>
<asrwt>0</asrwt>
<pdfrwt beam="1">  1        1 0.12622401E+00 0.61649090E+03</pdfrwt>
<pdfrwt beam="2">  1       -1 0.95667695E-01 0.61649090E+03</pdfrwt>
<totfact> 0.23359094E+01</totfact>
</mgrwt>
</event>
<event>
12    1  0.1418317E-007  0.5131557E+03  0.7818608E-02  0.1010401E+00
         -1   -1    0    0    0  501 -0.00000000000E+00  0.00000000000E+00  0.11796970178E+04  0.11796970178E+04  0.00000000000E+00 0.  1.
          1   -1    0    0  501    0  0.00000000000E+00 -0.00000000000E+00 -0.37258464308E+03  0.37258464308E+03  0.00000000000E+00 0. -1.
         23    2    1    2    0    0 -0.31936566002E+03  0.20831469408E+03 -0.95810206170E+02  0.40317710310E+03  0.89346204666E+02 0.  0.
    5000000    2    1    2    0    0  0.31936566002E+03 -0.20831469408E+03  0.90292258088E+03  0.11491045578E+04  0.59981885687E+03 0.  0.
         23    2    4    4    0    0  0.24497497656E+02  0.15451940280E+03  0.47025067056E+03  0.50377630431E+03  0.90435050707E+02 0.  0.
         23    2    4    4    0    0  0.29486816237E+03 -0.36283409688E+03  0.43267191032E+03  0.64532825346E+03  0.10318797262E+03 0.  0.
          3    1    3    3  502    0 -0.70322526925E+02  0.30897105078E+02  0.14392848231E+02  0.78147571783E+02  0.00000000000E+00 0. -1.
         -3    1    3    3    0  502 -0.24904313310E+03  0.17741758900E+03 -0.11020305440E+03  0.32502953132E+03  0.00000000000E+00 0.  1.
         13    1    5    5    0    0  0.40379135393E+02  0.84309393797E+02  0.16020195767E+03  0.18548103865E+03  0.00000000000E+00 0.  1.
        -13    1    5    5    0    0 -0.15881637738E+02  0.70210009002E+02  0.31004871288E+03  0.31829526566E+03  0.00000000000E+00 0. -1.
          3    1    6    6  503    0  0.12580635050E+03 -0.81061991338E+02  0.14970819494E+03  0.21168568184E+03  0.00000000000E+00 0. -1.
         -3    1    6    6    0  503  0.16906181187E+03 -0.28177210554E+03  0.28296371538E+03  0.43364257162E+03  0.00000000000E+00 0.  1.
<mgrwt>
<rscale>  0 0.51315568E+03</rscale>
<asrwt>0</asrwt>
<pdfrwt beam="1">  1        1 0.57320715E-01 0.51315568E+03</pdfrwt>
<pdfrwt beam="2">  1       -1 0.18149185E+00 0.51315568E+03</pdfrwt>
<totfact> 0.14223597E+01</totfact>
</mgrwt>
</event>
<event>
12    1  0.1418317E-007  0.4982244E+03  0.7818608E-02  0.1014243E+00
          1   -1    0    0  501    0  0.00000000000E+00  0.00000000000E+00  0.16865058468E+04  0.16865058468E+04  0.00000000000E+00 0. -1.
         -1   -1    0    0    0  501 -0.00000000000E+00 -0.00000000000E+00 -0.26754967525E+03  0.26754967525E+03  0.00000000000E+00 0.  1.
         23    2    1    2    0    0  0.38664651023E+03 -0.27997325767E+03  0.22709220685E+03  0.53657913150E+03  0.92009483536E+02 0.  0.
    5000000    2    1    2    0    0 -0.38664651023E+03  0.27997325767E+03  0.11918639647E+04  0.14174763905E+04  0.60068216096E+03 0.  0.
         23    2    4    4    0    0 -0.38289375351E+02  0.12122568874E+03  0.93403367673E+03  0.94693571980E+03  0.90036682986E+02 0.  0.
         23    2    4    4    0    0 -0.34835713488E+03  0.15874756893E+03  0.25783028794E+03  0.47054067072E+03  0.91534591031E+02 0.  0.
          1    1    3    3  502    0  0.36367965195E+03 -0.24233761108E+03  0.18167884948E+03  0.47328385915E+03  0.00000000000E+00 0. -1.
         -1    1    3    3    0  502  0.22966858287E+02 -0.37635646591E+02  0.45413357372E+02  0.63295272348E+02  0.00000000000E+00 0.  1.
         11    1    5    5    0    0  0.53976213701E+01  0.23273199727E+02  0.47251237324E+03  0.47311596782E+03  0.00000000000E+00 0. -1.
        -11    1    5    5    0    0 -0.43686996721E+02  0.97952489012E+02  0.46152130350E+03  0.47381975198E+03  0.00000000000E+00 0.  1.
          2    1    6    6  503    0 -0.10725798506E+03  0.32710541616E+02  0.31033182991E+02  0.11634996063E+03  0.00000000000E+00 0. -1.
         -2    1    6    6    0  503 -0.24109914982E+03  0.12603702732E+03  0.22679710495E+03  0.35419071009E+03  0.00000000000E+00 0.  1.
<mgrwt>
<rscale>  0 0.49822443E+03</rscale>
<asrwt>0</asrwt>
<pdfrwt beam="1">  1        1 0.25946243E+00 0.49822443E+03</pdfrwt>
<pdfrwt beam="2">  1       -1 0.41161490E-01 0.49822443E+03</pdfrwt>
<totfact> 0.30247392E+01</totfact>
</mgrwt>
</event>
<event>
12    1  0.1418317E-007  0.8861501E+03  0.7818608E-02  0.9443062E-01
          1   -1    0    0  501    0  0.00000000000E+00  0.00000000000E+00  0.13940775334E+04  0.13940775334E+04  0.00000000000E+00 0. -1.
         -1   -1    0    0    0  501 -0.00000000000E+00 -0.00000000000E+00 -0.74424946556E+03  0.74424946556E+03  0.00000000000E+00 0.  1.
         23    2    1    2    0    0 -0.80818330464E+03 -0.58638369158E+02 -0.17695014911E+03  0.83440715525E+03  0.91242716089E+02 0.  0.
    5000000    2    1    2    0    0  0.80818330464E+03  0.58638369158E+02  0.82677821696E+03  0.13039198437E+04  0.60003835426E+03 0.  0.
         23    2    4    4    0    0  0.23943116321E+01  0.13109093605E+03  0.19221679678E+02  0.15746646666E+03  0.85062617587E+02 0.  0.
         23    2    4    4    0    0  0.80578899300E+03 -0.72452566893E+02  0.80755653728E+03  0.11464533771E+04  0.87535759373E+02 0.  0.
          1    1    3    3  502    0 -0.55063155093E+03 -0.81678514687E+02 -0.12923342714E+03  0.57146107771E+03  0.00000000000E+00 0. -1.
         -1    1    3    3    0  502 -0.25755175370E+03  0.23040145529E+02 -0.47716721964E+02  0.26294607755E+03  0.00000000000E+00 0.  1.
         13    1    5    5    0    0  0.29309843392E+02  0.25874028257E+02  0.28624683098E+02  0.48455182802E+02  0.00000000000E+00 0. -1.
        -13    1    5    5    0    0 -0.26915531760E+02  0.10521690779E+03 -0.94030034197E+01  0.10901128386E+03  0.00000000000E+00 0.  1.
          3    1    6    6  503    0  0.44213035982E+03 -0.51160888878E+02  0.38442078538E+03  0.58811226127E+03  0.00000000000E+00 0. -1.
         -3    1    6    6    0  503  0.36365863318E+03 -0.21291678015E+02  0.42313575191E+03  0.55834111579E+03  0.00000000000E+00 0.  1.
<mgrwt>
<rscale>  0 0.88615008E+03</rscale>
<asrwt>0</asrwt>
<pdfrwt beam="1">  1        1 0.21447347E+00 0.88615008E+03</pdfrwt>
<pdfrwt beam="2">  1       -1 0.11449992E+00 0.88615008E+03</pdfrwt>
<totfact> 0.54837526E+00</totfact>
</mgrwt>
</event>
<event>
12    1  0.1418317E-007  0.1243022E+04  0.7818608E-02  0.9076011E-01
          2   -1    0    0  501    0  0.00000000000E+00  0.00000000000E+00  0.23393222261E+04  0.23393222261E+04  0.00000000000E+00 0. -1.
         -2   -1    0    0    0  501 -0.00000000000E+00 -0.00000000000E+00 -0.74209114575E+03  0.74209114575E+03  0.00000000000E+00 0.  1.
         23    2    1    2    0    0  0.16513757670E+03  0.12183552303E+04  0.10053845471E+04  0.15907755122E+04  0.90048633635E+02 0.  0.
    5000000    2    1    2    0    0 -0.16513757670E+03 -0.12183552303E+04  0.59184653329E+03  0.14906378597E+04  0.60004918409E+03 0.  0.
         23    2    4    4    0    0 -0.14209699314E+03 -0.12111399973E+04  0.64168203929E+03  0.13810812709E+04  0.92617431748E+02 0.  0.
         23    2    4    4    0    0 -0.23040583562E+02 -0.72152329518E+01 -0.49835506002E+02  0.10955658878E+03  0.94531161052E+02 0.  0.
          3    1    3    3  502    0  0.71731791271E+02  0.81475235238E+03  0.64346916111E+03  0.10406821834E+04  0.00000000000E+00 0. -1.
         -3    1    3    3    0  502  0.93405785426E+02  0.40360287789E+03  0.36191538599E+03  0.55009332881E+03  0.00000000000E+00 0.  1.
         13    1    5    5    0    0 -0.34971031252E+02 -0.14300342968E+03  0.10559953748E+03  0.18117454635E+03  0.00000000000E+00 0. -1.
        -13    1    5    5    0    0 -0.10712596188E+03 -0.10681365676E+04  0.53608250180E+03  0.11999067245E+04  0.00000000000E+00 0.  1.
          1    1    6    6  503    0 -0.27042970353E+02 -0.27834135164E+01  0.23526300246E+02  0.35952140959E+02  0.00000000000E+00 0.  1.
         -1    1    6    6    0  503  0.40023867909E+01 -0.44318194355E+01 -0.73361806247E+02  0.73604447823E+02  0.00000000000E+00 0. -1.
<mgrwt>
<rscale>  0 0.12430221E+04</rscale>
<asrwt>0</asrwt>
<pdfrwt beam="1">  1        2 0.35989572E+00 0.12430221E+04</pdfrwt>
<pdfrwt beam="2">  1       -2 0.11416787E+00 0.12430221E+04</pdfrwt>
<totfact> 0.25198526E+00</totfact>
</mgrwt>
</event>
<event>
12    1  0.1418317E-007  0.1116982E+04  0.7818608E-02  0.9188796E-01
         -1   -1    0    0    0  501 -0.00000000000E+00  0.00000000000E+00  0.10471629056E+04  0.10471629056E+04  0.00000000000E+00 0.  1.
          1   -1    0    0  501    0  0.00000000000E+00 -0.00000000000E+00 -0.14721362180E+04  0.14721362180E+04  0.00000000000E+00 0. -1.
         23    2    1    2    0    0 -0.46911425275E+03  0.10130098004E+04 -0.54598327619E+03  0.12461405627E+04  0.92257934337E+02 0.  0.
    5000000    2    1    2    0    0  0.46911425275E+03 -0.10130098004E+04  0.12100996381E+03  0.12731585609E+04  0.60002689283E+03 0.  0.
         23    2    4    4    0    0  0.22503037745E+03 -0.46670931818E+03 -0.22949313919E+03  0.57402717951E+03  0.91563330153E+02 0.  0.
         23    2    4    4    0    0  0.24408387530E+03 -0.54630048219E+03  0.35050310300E+03  0.69913138141E+03  0.88944410949E+02 0.  0.
          4    1    3    3  502    0 -0.15967428944E+03  0.29512605144E+03 -0.12359876327E+03  0.35759183328E+03  0.00000000000E+00 0. -1.
         -4    1    3    3    0  502 -0.30943996331E+03  0.71788374894E+03 -0.42238451291E+03  0.88854872946E+03  0.00000000000E+00 0.  1.
         13    1    5    5    0    0  0.14446191952E+03 -0.28351283989E+03 -0.92040885999E+02  0.33124054895E+03  0.00000000000E+00 0.  1.
        -13    1    5    5    0    0  0.80568457928E+02 -0.18319647830E+03 -0.13745225319E+03  0.24278663056E+03  0.00000000000E+00 0. -1.
          2    1    6    6  503    0  0.17843806306E+03 -0.39765251116E+03  0.29942821479E+03  0.52879572407E+03  0.00000000000E+00 0. -1.
         -2    1    6    6    0  503  0.65645812239E+02 -0.14864797104E+03  0.51074888203E+02  0.17033565735E+03  0.00000000000E+00 0.  1.
<mgrwt>
<rscale>  0 0.11169825E+04</rscale>
<asrwt>0</asrwt>
<pdfrwt beam="1">  1        1 0.22648249E+00 0.11169825E+04</pdfrwt>
<pdfrwt beam="2">  1       -1 0.16110199E+00 0.11169825E+04</pdfrwt>
<totfact> 0.19418027E+00</totfact>
</mgrwt>
</event>
<event>
12    1  0.1418317E-007  0.3462812E+03  0.7818608E-02  0.1064152E+00
         -2   -1    0    0    0  501 -0.00000000000E+00  0.00000000000E+00  0.16334370843E+03  0.16334370843E+03  0.00000000000E+00 0.  1.
          2   -1    0    0  501    0  0.00000000000E+00 -0.00000000000E+00 -0.81946586142E+03  0.81946586142E+03  0.00000000000E+00 0. -1.
         23    2    1    2    0    0  0.14807366689E+02  0.68566299758E+02 -0.44883875192E+02  0.12347608204E+03  0.91165700854E+02 0.  0.
    5000000    2    1    2    0    0 -0.14807366689E+02 -0.68566299758E+02 -0.61123827780E+03  0.85933348782E+03  0.59993434263E+03 0.  0.
         23    2    4    4    0    0 -0.96568113774E+01 -0.31871007383E+03 -0.39198990558E+03  0.51381060371E+03  0.93144432137E+02 0.  0.
         23    2    4    4    0    0 -0.51505553120E+01  0.25014377407E+03 -0.21924837222E+03  0.34552288411E+03  0.93369046266E+02 0.  0.
          1    1    3    3  502    0  0.18159364872E+02  0.90593046674E+02 -0.39915833142E+02  0.10064857860E+03  0.00000000000E+00 0. -1.
         -1    1    3    3    0  502 -0.33519981829E+01 -0.22026746916E+02 -0.49680420498E+01  0.22827503440E+02  0.00000000000E+00 0.  1.
         13    1    5    5    0    0  0.83135446968E+00 -0.30207287477E+03 -0.39103192351E+03  0.49412010486E+03  0.00000000000E+00 0. -1.
        -13    1    5    5    0    0 -0.10488165847E+02 -0.16637199057E+02 -0.95798207528E+00  0.19690498850E+02  0.00000000000E+00 0.  1.
          4    1    6    6  503    0  0.19550625910E+02  0.19172788215E+03 -0.20328955369E+03  0.28012220620E+03  0.00000000000E+00 0. -1.
         -4    1    6    6    0  503 -0.24701181222E+02  0.58415891917E+02 -0.15958818523E+02  0.65400677909E+02  0.00000000000E+00 0.  1.
<mgrwt>
<rscale>  0 0.34628124E+03</rscale>
<asrwt>0</asrwt>
<pdfrwt beam="1">  1        2 0.12607167E+00 0.34628124E+03</pdfrwt>
<pdfrwt beam="2">  1       -2 0.25129801E-01 0.34628124E+03</pdfrwt>
<totfact> 0.48471244E+02</totfact>
</mgrwt>
</event>
<event>
12    1  0.1418317E-007  0.6432658E+03  0.7818608E-02  0.9819498E-01
         -1   -1    0    0    0  501 -0.00000000000E+00  0.00000000000E+00  0.54140811591E+03  0.54140811591E+03  0.00000000000E+00 0.  1.
          1   -1    0    0  501    0  0.00000000000E+00 -0.00000000000E+00 -0.80942603384E+03  0.80942603384E+03  0.00000000000E+00 0. -1.
         23    2    1    2    0    0 -0.50294657661E+03  0.68727625522E+02 -0.23038624227E+03  0.56395411382E+03  0.85367888822E+02 0.  0.
    5000000    2    1    2    0    0  0.50294657661E+03 -0.68727625522E+02 -0.37631675667E+02  0.78688003593E+03  0.60007108121E+03 0.  0.
         23    2    4    4    0    0  0.22462214389E+03  0.25224689835E+03  0.72721003511E+01  0.35029521024E+03  0.92575621085E+02 0.  0.
         23    2    4    4    0    0  0.27832443272E+03 -0.32097452387E+03 -0.44903776018E+02  0.43658482569E+03  0.90004589361E+02 0.  0.
          3    1    3    3  502    0 -0.41555429682E+03  0.30294781531E+02 -0.16449190457E+03  0.44795170952E+03  0.00000000000E+00 0. -1.
         -3    1    3    3    0  502 -0.87392279788E+02  0.38432843991E+02 -0.65894337696E+02  0.11600240430E+03  0.00000000000E+00 0.  1.
         11    1    5    5    0    0  0.53567791331E+02  0.10314136313E+03  0.35750271490E+02  0.12159659110E+03  0.00000000000E+00 0.  1.
        -11    1    5    5    0    0  0.17105435256E+03  0.14910553522E+03 -0.28478171139E+02  0.22869861913E+03  0.00000000000E+00 0. -1.
          2    1    6    6  503    0  0.19055892601E+03 -0.16397086668E+03 -0.83515096010E+00  0.25139579726E+03  0.00000000000E+00 0. -1.
         -2    1    6    6    0  503  0.87765506704E+02 -0.15700365719E+03 -0.44068625058E+02  0.18518902844E+03  0.00000000000E+00 0.  1.
<mgrwt>
<rscale>  0 0.64326580E+03</rscale>
<asrwt>0</asrwt>
<pdfrwt beam="1">  1        1 0.12452708E+00 0.64326580E+03</pdfrwt>
<pdfrwt beam="2">  1       -1 0.83293557E-01 0.64326580E+03</pdfrwt>
<totfact> 0.32206803E+01</totfact>
</mgrwt>
</event>
<event>
12    1  0.1418317E-007  0.1360141E+04  0.7818608E-02  0.8983187E-01
         -2   -1    0    0    0  501 -0.00000000000E+00  0.00000000000E+00  0.13894846991E+04  0.13894846991E+04  0.00000000000E+00 0.  1.
          2   -1    0    0  501    0  0.00000000000E+00 -0.00000000000E+00 -0.14824583825E+04  0.14824583825E+04  0.00000000000E+00 0. -1.
         23    2    1    2    0    0  0.12849048646E+04  0.31243615107E+03  0.31805013684E+03  0.13627854120E+04  0.86205163465E+02 0.  0.
    5000000    2    1    2    0    0 -0.12849048646E+04 -0.31243615107E+03 -0.41102382019E+03  0.15091576696E+04  0.60001619258E+03 0.  0.
         23    2    4    4    0    0 -0.10436274616E+04 -0.65543122083E+02 -0.13621939106E+03  0.10586573124E+04  0.93516860169E+02 0.  0.
         23    2    4    4    0    0 -0.24127740290E+03 -0.24689302899E+03 -0.27480442914E+03  0.45050035711E+03  0.90896339666E+02 0.  0.
          2    1    3    3  502    0  0.10488336584E+04  0.25669616444E+03  0.22496548433E+03  0.11029752640E+04  0.00000000000E+00 0. -1.
         -2    1    3    3    0  502  0.23607120613E+03  0.55739986635E+02  0.93084652508E+02  0.25981014801E+03  0.00000000000E+00 0.  1.
         11    1    5    5    0    0 -0.14167200226E+03 -0.98782561556E+01  0.13542161885E+02  0.14266017776E+03  0.00000000000E+00 0. -1.
        -11    1    5    5    0    0 -0.90195545939E+03 -0.55664865927E+02 -0.14976155294E+03  0.91599713469E+03  0.00000000000E+00 0.  1.
          4    1    6    6  503    0 -0.13727880722E+03 -0.90495303969E+02 -0.16500716869E+03  0.23294256089E+03  0.00000000000E+00 0.  1.
         -4    1    6    6    0  503 -0.10399859568E+03 -0.15639772502E+03 -0.10979726045E+03  0.21755779622E+03  0.00000000000E+00 0. -1.
<mgrwt>
<rscale>  0 0.13601405E+04</rscale>
<asrwt>0</asrwt>
<pdfrwt beam="1">  1        2 0.22807052E+00 0.13601405E+04</pdfrwt>
<pdfrwt beam="2">  1       -2 0.21376688E+00 0.13601405E+04</pdfrwt>
<totfact> 0.13419363E+00</totfact>
</mgrwt>
</event>
<event>
12    1  0.1418317E-007  0.1224127E+04  0.7818608E-02  0.9091996E-01
          2   -1    0    0  501    0  0.00000000000E+00  0.00000000000E+00  0.14150217916E+04  0.14150217916E+04  0.00000000000E+00 0. -1.
         -2   -1    0    0    0  501 -0.00000000000E+00 -0.00000000000E+00 -0.13362022455E+04  0.13362022455E+04  0.00000000000E+00 0.  1.
         23    2    1    2    0    0  0.10703373182E+04 -0.55192465694E+03  0.54720206538E+03  0.13265787959E+04  0.10068962152E+03 0.  0.
    5000000    2    1    2    0    0 -0.10703373182E+04  0.55192465694E+03 -0.46838251929E+03  0.14246452412E+04  0.59999089759E+03 0.  0.
         23    2    4    4    0    0 -0.21489169722E+03  0.23625815395E+03  0.98359979083E+02  0.34718419682E+03  0.94158505690E+02 0.  0.
         23    2    4    4    0    0 -0.85544562094E+03  0.31566650299E+03 -0.56674249837E+03  0.10774610443E+04  0.91064214216E+02 0.  0.
          2    1    3    3  502    0  0.55619360955E+03 -0.25800493718E+03  0.32589953935E+03  0.69435465625E+03  0.00000000000E+00 0. -1.
         -2    1    3    3    0  502  0.51414370862E+03 -0.29391971976E+03  0.22130252603E+03  0.63222413969E+03  0.00000000000E+00 0.  1.
         13    1    5    5    0    0 -0.72094860008E+02  0.34385356898E+02 -0.30299351393E+01  0.79932484732E+02  0.00000000000E+00 0. -1.
        -13    1    5    5    0    0 -0.14279683722E+03  0.20187279705E+03  0.10138991422E+03  0.26725171209E+03  0.00000000000E+00 0.  1.
          4    1    6    6  503    0 -0.46871523671E+03  0.21774419751E+03 -0.30036438013E+03  0.59776690233E+03  0.00000000000E+00 0. -1.
         -4    1    6    6    0  503 -0.38673038423E+03  0.97922305480E+02 -0.26637811824E+03  0.47969414200E+03  0.00000000000E+00 0.  1.
<mgrwt>
<rscale>  0 0.12241270E+04</rscale>
<asrwt>0</asrwt>
<pdfrwt beam="1">  1        2 0.21769566E+00 0.12241270E+04</pdfrwt>
<pdfrwt beam="2">  1       -2 0.20556958E+00 0.12241270E+04</pdfrwt>
<totfact> 0.16792612E+00</totfact>
</mgrwt>
</event>
<event>
12    1  0.1418317E-007  0.1097967E+04  0.7818608E-02  0.9207176E-01
         -1   -1    0    0    0  501 -0.00000000000E+00  0.00000000000E+00  0.14992131158E+04  0.14992131158E+04  0.00000000000E+00 0. -1.
          1   -1    0    0  501    0  0.00000000000E+00 -0.00000000000E+00 -0.87280342992E+03  0.87280342992E+03  0.00000000000E+00 0.  1.
         23    2    1    2    0    0  0.12682523212E+03  0.10166686424E+04  0.58622065229E+03  0.11839828523E+04  0.91983549535E+02 0.  0.
    5000000    2    1    2    0    0 -0.12682523212E+03 -0.10166686424E+04  0.40189033551E+02  0.11880336934E+04  0.60009093485E+03 0.  0.
         23    2    4    4    0    0 -0.30789644153E+03 -0.30628189308E+03  0.61770829025E+02  0.44897017810E+03  0.95654423653E+02 0.  0.
         23    2    4    4    0    0  0.18107120940E+03 -0.71038674936E+03 -0.21581795474E+02  0.73906351526E+03  0.91175595125E+02 0.  0.
          2    1    3    3  502    0  0.97316548951E+02  0.74829291918E+03  0.47711787559E+03  0.89277895966E+03  0.00000000000E+00 0. -1.
         -2    1    3    3    0  502  0.29508683173E+02  0.26837572326E+03  0.10910277670E+03  0.29120389267E+03  0.00000000000E+00 0.  1.
         11    1    5    5    0    0 -0.86842874914E+02 -0.74920126096E+02  0.58977060558E+02  0.12896900360E+03  0.00000000000E+00 0. -1.
        -11    1    5    5    0    0 -0.22105356661E+03 -0.23136176699E+03  0.27937684672E+01  0.32000117450E+03  0.00000000000E+00 0.  1.
          4    1    6    6  503    0  0.10314042100E+03 -0.53338048576E+03 -0.40321775501E+02  0.54475548149E+03  0.00000000000E+00 0.  1.
         -4    1    6    6    0  503  0.77930788405E+02 -0.17700626360E+03  0.18739980027E+02  0.19430803377E+03  0.00000000000E+00 0. -1.
<mgrwt>
<rscale>  0 0.10979670E+04</rscale>
<asrwt>0</asrwt>
<pdfrwt beam="1">  1        1 0.13427745E+00 0.10979670E+04</pdfrwt>
<pdfrwt beam="2">  1       -1 0.23064817E+00 0.10979670E+04</pdfrwt>
<totfact> 0.17802909E+00</totfact>
</mgrwt>
</event>
<event>
12    1  0.1418317E-007  0.1101970E+04  0.7818608E-02  0.9203274E-01
          1   -1    0    0  501    0  0.00000000000E+00  0.00000000000E+00  0.21633133792E+04  0.21633133792E+04  0.00000000000E+00 0. -1.
         -1   -1    0    0    0  501 -0.00000000000E+00 -0.00000000000E+00 -0.72160867108E+03  0.72160867108E+03  0.00000000000E+00 0.  1.
         23    2    1    2    0    0  0.64207820242E+03  0.88310974227E+03  0.17729230939E+03  0.11099534169E+04  0.91743064361E+02 0.  0.
    5000000    2    1    2    0    0 -0.64207820242E+03 -0.88310974227E+03  0.12644123987E+04  0.17749686334E+04  0.59968967012E+03 0.  0.
         23    2    4    4    0    0 -0.13870428395E+03 -0.33527386274E+03  0.82657863310E+03  0.90696493597E+03  0.87782213187E+02 0.  0.
         23    2    4    4    0    0 -0.50337391847E+03 -0.54783587953E+03  0.43783376563E+03  0.86800369740E+03  0.90678330790E+02 0.  0.
          2    1    3    3  502    0  0.10513483381E+03  0.17045873221E+03  0.65371713552E+02  0.21067266932E+03  0.00000000000E+00 0. -1.
         -2    1    3    3    0  502  0.53694336861E+03  0.71265101006E+03  0.11192059584E+03  0.89928074760E+03  0.00000000000E+00 0.  1.
         11    1    5    5    0    0 -0.57892052786E+02 -0.21201162071E+03  0.41178194159E+03  0.46675987886E+03  0.00000000000E+00 0.  1.
        -11    1    5    5    0    0 -0.80812231168E+02 -0.12326224203E+03  0.41479669151E+03  0.44020505711E+03  0.00000000000E+00 0. -1.
          3    1    6    6  503    0 -0.15787639671E+03 -0.18462676525E+03  0.95727119563E+02  0.26110473092E+03  0.00000000000E+00 0. -1.
         -3    1    6    6    0  503 -0.34549752176E+03 -0.36320911428E+03  0.34210664607E+03  0.60689896648E+03  0.00000000000E+00 0.  1.
<mgrwt>
<rscale>  0 0.11019695E+04</rscale>
<asrwt>0</asrwt>
<pdfrwt beam="1">  1        1 0.33281744E+00 0.11019695E+04</pdfrwt>
<pdfrwt beam="2">  1       -1 0.11101672E+00 0.11019695E+04</pdfrwt>
<totfact> 0.17211760E+00</totfact>
</mgrwt>
</event>
<event>
12    1  0.1418317E-007  0.1124963E+04  0.7818608E-02  0.9181197E-01
          2   -1    0    0  501    0  0.00000000000E+00  0.00000000000E+00  0.21419442503E+04  0.21419442503E+04  0.00000000000E+00 0. -1.
         -2   -1    0    0    0  501 -0.00000000000E+00 -0.00000000000E+00 -0.61945586084E+03  0.61945586084E+03  0.00000000000E+00 0.  1.
         23    2    1    2    0    0 -0.10216658469E+04 -0.30865976163E+03  0.82875408807E+03  0.13541699340E+04  0.88718208511E+02 0.  0.
    5000000    2    1    2    0    0  0.10216658469E+04  0.30865976163E+03  0.69373430137E+03  0.14072301771E+04  0.59996461515E+03 0.  0.
         23    2    4    4    0    0  0.67305169626E+02  0.17965452060E+03 -0.76495981042E+01  0.21263413138E+03  0.91372998437E+02 0.  0.
         23    2    4    4    0    0  0.95436067724E+03  0.12900524103E+03  0.70138389947E+03  0.11945960458E+04  0.87599564014E+02 0.  0.
          1    1    3    3  502    0 -0.67201758467E+03 -0.15872483577E+03  0.53661060751E+03  0.87450108729E+03  0.00000000000E+00 0.  1.
         -1    1    3    3    0  502 -0.34964826221E+03 -0.14993492586E+03  0.29214348056E+03  0.47966884670E+03  0.00000000000E+00 0. -1.
         13    1    5    5    0    0 -0.11945699171E+02  0.97301464186E+02  0.73432320141E+00  0.98034758591E+02  0.00000000000E+00 0. -1.
        -13    1    5    5    0    0  0.79250868797E+02  0.82353056418E+02 -0.83839213056E+01  0.11459937279E+03  0.00000000000E+00 0.  1.
          2    1    6    6  503    0  0.74734958508E+03  0.13553561123E+03  0.56436805487E+03  0.94626244012E+03  0.00000000000E+00 0.  1.
         -2    1    6    6    0  503  0.20701109217E+03 -0.65303702082E+01  0.13701584460E+03  0.24833360563E+03  0.00000000000E+00 0. -1.
<mgrwt>
<rscale>  0 0.11249631E+04</rscale>
<asrwt>0</asrwt>
<pdfrwt beam="1">  1        2 0.32952988E+00 0.11249631E+04</pdfrwt>
<pdfrwt beam="2">  1       -2 0.95300903E-01 0.11249631E+04</pdfrwt>
<totfact> 0.50900219E+00</totfact>
</mgrwt>
</event>
<event>
12    1  0.1418317E-007  0.3962783E+03  0.7818608E-02  0.1045076E+00
          1   -1    0    0  501    0  0.00000000000E+00  0.00000000000E+00  0.30762917569E+04  0.30762917569E+04  0.00000000000E+00 0. -1.
         -1   -1    0    0    0  501 -0.00000000000E+00 -0.00000000000E+00 -0.78269914915E+02  0.78269914915E+02  0.00000000000E+00 0.  1.
         23    2    1    2    0    0 -0.25769502288E+02  0.24036726582E+03  0.15122800252E+04  0.15341359345E+04  0.90231374287E+02 0.  0.
    5000000    2    1    2    0    0  0.25769502288E+02 -0.24036726582E+03  0.14857418167E+04  0.16204257373E+04  0.59992527414E+03 0.  0.
         23    2    4    4    0    0  0.21798930439E+03 -0.26010525789E+03  0.49997641303E+03  0.61177013191E+03  0.95457837277E+02 0.  0.
         23    2    4    4    0    0 -0.19221980211E+03  0.19737992069E+02  0.98576540367E+03  0.10086556054E+04  0.91184749813E+02 0.  0.
          3    1    3    3  502    0 -0.54278585997E+02  0.13476599672E+03  0.73766350193E+03  0.75183474305E+03  0.00000000000E+00 0. -1.
         -3    1    3    3    0  502  0.28509083710E+02  0.10560126910E+03  0.77461652331E+03  0.78230119141E+03  0.00000000000E+00 0.  1.
         11    1    5    5    0    0  0.19324989197E+03 -0.21096924029E+03  0.35019652896E+03  0.45220697693E+03  0.00000000000E+00 0. -1.
        -11    1    5    5    0    0  0.24739412426E+02 -0.49136017598E+02  0.14977988407E+03  0.15956315497E+03  0.00000000000E+00 0.  1.
          3    1    6    6  503    0 -0.74221567184E+02  0.25915136635E+02  0.21574588193E+03  0.22962299735E+03  0.00000000000E+00 0. -1.
         -3    1    6    6    0  503 -0.11799823492E+03 -0.61771445658E+01  0.77001952174E+03  0.77903260806E+03  0.00000000000E+00 0.  1.
<mgrwt>
<rscale>  0 0.39627834E+03</rscale>
<asrwt>0</asrwt>
<pdfrwt beam="1">  1        1 0.47327556E+00 0.39627834E+03</pdfrwt>
<pdfrwt beam="2">  1       -1 0.12041528E-01 0.39627834E+03</pdfrwt>
<totfact> 0.28027385E+01</totfact>
</mgrwt>
</event>
<event>
12    1  0.1418317E-007  0.1539610E+04  0.7818608E-02  0.8858531E-01
         -1   -1    0    0    0  501 -0.00000000000E+00  0.00000000000E+00  0.24248583747E+04  0.24248583747E+04  0.00000000000E+00 0.  1.
          1   -1    0    0  501    0  0.00000000000E+00 -0.00000000000E+00 -0.10301009942E+04  0.10301009942E+04  0.00000000000E+00 0. -1.
         23    2    1    2    0    0  0.12094851511E+04 -0.89628929866E+03  0.91909918623E+03  0.17661541169E+04  0.91477936979E+02 0.  0.
    5000000    2    1    2    0    0 -0.12094851511E+04  0.89628929866E+03  0.47565819431E+03  0.16888052519E+04  0.59968627095E+03 0.  0.
         23    2    4    4    0    0 -0.45583755939E+03  0.60668142282E+03  0.42665662102E+03  0.87484833875E+03  0.86449489309E+02 0.  0.
         23    2    4    4    0    0 -0.75364759171E+03  0.28960787584E+03  0.49001573288E+02  0.81395691320E+03  0.90924628800E+02 0.  0.
          3    1    3    3  502    0  0.47755167973E+03 -0.40753379076E+03  0.36715622917E+03  0.72728474069E+03  0.00000000000E+00 0. -1.
         -3    1    3    3    0  502  0.73193347137E+03 -0.48875550790E+03  0.55194295705E+03  0.10388693762E+04  0.00000000000E+00 0.  1.
         13    1    5    5    0    0 -0.21399940953E+03  0.34614502064E+03  0.25336059507E+03  0.47937846607E+03  0.00000000000E+00 0.  1.
        -13    1    5    5    0    0 -0.24183814985E+03  0.26053640218E+03  0.17329602595E+03  0.39546987268E+03  0.00000000000E+00 0. -1.
          1    1    6    6  503    0 -0.18937102047E+03  0.95865791600E+02 -0.20830969188E+02  0.21327344577E+03  0.00000000000E+00 0. -1.
         -1    1    6    6    0  503 -0.56427657124E+03  0.19374208424E+03  0.69832542476E+02  0.60068346743E+03  0.00000000000E+00 0.  1.
<mgrwt>
<rscale>  0 0.15396105E+04</rscale>
<asrwt>0</asrwt>
<pdfrwt beam="1">  1        1 0.15847708E+00 0.15396105E+04</pdfrwt>
<pdfrwt beam="2">  1       -1 0.37305513E+00 0.15396105E+04</pdfrwt>
<totfact> 0.14810415E-01</totfact>
</mgrwt>
</event>
<event>
12    1  0.1418317E-007  0.1060066E+04  0.7818608E-02  0.9245013E-01
         -1   -1    0    0    0  501 -0.00000000000E+00  0.00000000000E+00  0.48629485568E+03  0.48629485568E+03  0.00000000000E+00 0.  1.
          1   -1    0    0  501    0  0.00000000000E+00 -0.00000000000E+00 -0.29115297566E+04  0.29115297566E+04  0.00000000000E+00 0. -1.
         23    2    1    2    0    0  0.10247988534E+04 -0.24765062797E+03 -0.63765321191E+03  0.12374046579E+04  0.11412775836E+03 0.  0.
    5000000    2    1    2    0    0 -0.10247988534E+04  0.24765062797E+03 -0.17875816890E+04  0.21604199544E+04  0.60035203089E+03 0.  0.
         23    2    4    4    0    0 -0.19112625204E+03  0.35858726954E+01 -0.53141395532E+02  0.21849665006E+03  0.91513252954E+02 0.  0.
         23    2    4    4    0    0 -0.83367260136E+03  0.24406475528E+03 -0.17344402935E+04  0.19419233043E+04  0.90583537443E+02 0.  0.
          4    1    3    3  502    0  0.62278534109E+03 -0.18870374193E+03 -0.44023986724E+03  0.78567284795E+03  0.00000000000E+00 0. -1.
         -4    1    3    3    0  502  0.40201351231E+03 -0.58946886046E+02 -0.19741334467E+03  0.45173180993E+03  0.00000000000E+00 0.  1.
         13    1    5    5    0    0 -0.19333343729E+02  0.10029920001E+02  0.21928728892E+02  0.30907064334E+02  0.00000000000E+00 0.  1.
        -13    1    5    5    0    0 -0.17179290831E+03 -0.64440473054E+01 -0.75070124423E+02  0.18758958572E+03  0.00000000000E+00 0. -1.
          1    1    6    6  503    0 -0.67703300348E+03  0.18371162854E+03 -0.13212555551E+04  0.14959411392E+04  0.00000000000E+00 0. -1.
         -1    1    6    6    0  503 -0.15663959788E+03  0.60353126733E+02 -0.41318473843E+03  0.44598216512E+03  0.00000000000E+00 0.  1.
<mgrwt>
<rscale>  0 0.10600660E+04</rscale>
<asrwt>0</asrwt>
<pdfrwt beam="1">  1        1 0.44792766E+00 0.10600660E+04</pdfrwt>
<pdfrwt beam="2">  1       -1 0.74814592E-01 0.10600660E+04</pdfrwt>
<totfact> 0.12666140E+00</totfact>
</mgrwt>
</event>
<event>
12    1  0.1418317E-007  0.6914747E+03  0.7818608E-02  0.9731924E-01
         -2   -1    0    0    0  501 -0.00000000000E+00  0.00000000000E+00  0.24461384764E+03  0.24461384764E+03  0.00000000000E+00 0.  1.
          2   -1    0    0  501    0  0.00000000000E+00 -0.00000000000E+00 -0.23202366291E+04  0.23202366291E+04  0.00000000000E+00 0. -1.
         23    2    1    2    0    0 -0.43076302455E+03 -0.40951416245E+03 -0.52032553376E+03  0.79518624224E+03  0.91235224585E+02 0.  0.
    5000000    2    1    2    0    0  0.43076302455E+03  0.40951416245E+03 -0.15552972477E+04  0.17696642345E+04  0.59958597514E+03 0.  0.
         23    2    4    4    0    0  0.39168362200E+03  0.50896760483E+03 -0.96682990621E+03  0.11642612962E+04  0.90995690426E+02 0.  0.
         23    2    4    4    0    0  0.39079402548E+02 -0.99453442387E+02 -0.58846734152E+03  0.60540293837E+03  0.93812146545E+02 0.  0.
          1    1    3    3  502    0 -0.17143995378E+03 -0.14569625181E+03 -0.14197025598E+03  0.26603497726E+03  0.00000000000E+00 0. -1.
         -1    1    3    3    0  502 -0.25932307076E+03 -0.26381791064E+03 -0.37835527778E+03  0.52915126498E+03  0.00000000000E+00 0.  1.
         13    1    5    5    0    0  0.88053787568E+02  0.68945437024E+02 -0.20574171053E+03  0.23417214660E+03  0.00000000000E+00 0. -1.
        -13    1    5    5    0    0  0.30362983443E+03  0.44002216781E+03 -0.76108819568E+03  0.93008914956E+03  0.00000000000E+00 0.  1.
          3    1    6    6  503    0  0.35568993436E+02  0.60018332723E+01 -0.12675962668E+03  0.13179217827E+03  0.00000000000E+00 0. -1.
         -3    1    6    6    0  503  0.35104091122E+01 -0.10545527566E+03 -0.46170771484E+03  0.47361076010E+03  0.00000000000E+00 0.  1.
<mgrwt>
<rscale>  0 0.69147474E+03</rscale>
<asrwt>0</asrwt>
<pdfrwt beam="1">  1        2 0.35695948E+00 0.69147474E+03</pdfrwt>
<pdfrwt beam="2">  1       -2 0.37632900E-01 0.69147474E+03</pdfrwt>
<totfact> 0.30823431E+01</totfact>
</mgrwt>
</event>
<event>
12    1  0.1418317E-007  0.1526382E+04  0.7818608E-02  0.8867097E-01
          2   -1    0    0  501    0  0.00000000000E+00  0.00000000000E+00  0.14651168726E+04  0.14651168726E+04  0.00000000000E+00 0. -1.
         -2   -1    0    0    0  501 -0.00000000000E+00 -0.00000000000E+00 -0.17470441674E+04  0.17470441674E+04  0.00000000000E+00 0.  1.
         23    2    1    2    0    0 -0.14554625227E+04 -0.25387735767E+03  0.30805716185E+03  0.15119674914E+04  0.91222871739E+02 0.  0.
    5000000    2    1    2    0    0  0.14554625227E+04  0.25387735767E+03 -0.58998445667E+03  0.17001935487E+04  0.59979294438E+03 0.  0.
         23    2    4    4    0    0  0.19209407888E+03  0.23419399785E+03 -0.39608470385E+02  0.31896181600E+03  0.91765164281E+02 0.  0.
         23    2    4    4    0    0  0.12633684438E+04  0.19683359821E+02 -0.55037598628E+03  0.13812317327E+04  0.91652133427E+02 0.  0.
          3    1    3    3  502    0 -0.44539916809E+03 -0.11856011207E+03  0.10898251044E+03  0.47361810216E+03  0.00000000000E+00 0. -1.
         -3    1    3    3    0  502 -0.10100633546E+04 -0.13531724560E+03  0.19907465141E+03  0.10383493892E+04  0.00000000000E+00 0.  1.
         13    1    5    5    0    0  0.16102792292E+03  0.22284910571E+03 -0.10881319685E+02  0.27515471828E+03  0.00000000000E+00 0. -1.
        -13    1    5    5    0    0  0.31066155960E+02  0.11344892141E+02 -0.28727150700E+02  0.43807097726E+02  0.00000000000E+00 0.  1.
          4    1    6    6  503    0  0.86875994934E+03 -0.12357301847E+02 -0.34099648311E+03  0.93336764138E+03  0.00000000000E+00 0. -1.
         -4    1    6    6    0  503  0.39460849448E+03  0.32040661668E+02 -0.20937950317E+03  0.44786409129E+03  0.00000000000E+00 0.  1.
<mgrwt>
<rscale>  0 0.15263816E+04</rscale>
<asrwt>0</asrwt>
<pdfrwt beam="1">  1        2 0.22540260E+00 0.15263816E+04</pdfrwt>
<pdfrwt beam="2">  1       -2 0.26877603E+00 0.15263816E+04</pdfrwt>
<totfact> 0.61463042E-01</totfact>
</mgrwt>
</event>
<event>
12    1  0.1418317E-007  0.5417715E+03  0.7818608E-02  0.1003417E+00
         -2   -1    0    0    0  501 -0.00000000000E+00  0.00000000000E+00  0.30693998233E+03  0.30693998233E+03  0.00000000000E+00 0.  1.
          2   -1    0    0  501    0  0.00000000000E+00 -0.00000000000E+00 -0.13011881363E+04  0.13011881363E+04  0.00000000000E+00 0. -1.
         23    2    1    2    0    0 -0.36497446903E+03 -0.22342206920E+03 -0.67541351722E+03  0.80499642857E+03  0.93338345357E+02 0.  0.
    5000000    2    1    2    0    0  0.36497446903E+03  0.22342206920E+03 -0.31883463675E+03  0.80313169007E+03  0.60020096797E+03 0.  0.
         23    2    4    4    0    0  0.48070918343E+03  0.17878365352E+03 -0.37072691658E+03  0.63938572915E+03  0.91272943191E+02 0.  0.
         23    2    4    4    0    0 -0.11573471439E+03  0.44638415680E+02  0.51892279836E+02  0.16374596092E+03  0.93449551850E+02 0.  0.
          1    1    3    3  502    0 -0.65057027679E+02 -0.83876344658E+02 -0.14101140741E+03  0.17649893785E+03  0.00000000000E+00 0. -1.
         -1    1    3    3    0  502 -0.29991744135E+03 -0.13954572454E+03 -0.53440210981E+03  0.62849749072E+03  0.00000000000E+00 0.  1.
         11    1    5    5    0    0  0.29920269017E+03  0.64722898765E+02 -0.20498860483E+03  0.36841774053E+03  0.00000000000E+00 0. -1.
        -11    1    5    5    0    0  0.18150649326E+03  0.11406075475E+03 -0.16573831175E+03  0.27096798861E+03  0.00000000000E+00 0.  1.
          1    1    6    6  503    0 -0.47967074406E+02  0.66677423673E+01 -0.24952476507E+02  0.54478666459E+02  0.00000000000E+00 0. -1.
         -1    1    6    6    0  503 -0.67767639988E+02  0.37970673312E+02  0.76844756344E+02  0.10926729446E+03  0.00000000000E+00 0.  1.
<mgrwt>
<rscale>  0 0.54177146E+03</rscale>
<asrwt>0</asrwt>
<pdfrwt beam="1">  1        2 0.20018279E+00 0.54177146E+03</pdfrwt>
<pdfrwt beam="2">  1       -2 0.47221535E-01 0.54177146E+03</pdfrwt>
<totfact> 0.72993801E+01</totfact>
</mgrwt>
</event>
<event>
12    1  0.1418317E-007  0.7555032E+03  0.7818608E-02  0.9626756E-01
         -2   -1    0    0    0  501 -0.00000000000E+00  0.00000000000E+00  0.59031073387E+03  0.59031073387E+03  0.00000000000E+00 0. -1.
          2   -1    0    0  501    0  0.00000000000E+00 -0.00000000000E+00 -0.13851418898E+04  0.13851418898E+04  0.00000000000E+00 0.  1.
         23    2    1    2    0    0  0.33862118389E+03  0.55218143707E+03 -0.87080069795E+03  0.10892717846E+04  0.93008168790E+02 0.  0.
    5000000    2    1    2    0    0 -0.33862118389E+03 -0.55218143707E+03  0.75969542051E+02  0.88618083907E+03  0.59998038518E+03 0.  0.
         23    2    4    4    0    0  0.14698395055E+03 -0.16908338660E+03 -0.52289172694E+02  0.24801695493E+03  0.92654082524E+02 0.  0.
         23    2    4    4    0    0 -0.48560513444E+03 -0.38309805047E+03  0.12825871475E+03  0.63816388414E+03  0.90699405986E+02 0.  0.
          1    1    3    3  502    0  0.48283138649E+02  0.11682103130E+03 -0.22495183662E+03  0.25803438459E+03  0.00000000000E+00 0. -1.
         -1    1    3    3    0  502  0.29033804524E+03  0.43536040577E+03 -0.64584886134E+03  0.83123739998E+03  0.00000000000E+00 0.  1.
         13    1    5    5    0    0  0.60439670009E+02 -0.13448214325E+03 -0.46641933621E+02  0.15464110235E+03  0.00000000000E+00 0. -1.
        -13    1    5    5    0    0  0.86544280543E+02 -0.34601243349E+02 -0.56472390727E+01  0.93375852581E+02  0.00000000000E+00 0.  1.
          2    1    6    6  503    0 -0.20822538602E+03 -0.13220543225E+03  0.13832400590E+02  0.24703729072E+03  0.00000000000E+00 0. -1.
         -2    1    6    6    0  503 -0.27737974842E+03 -0.25089261822E+03  0.11442631416E+03  0.39112659342E+03  0.00000000000E+00 0.  1.
<mgrwt>
<rscale>  0 0.75550322E+03</rscale>
<asrwt>0</asrwt>
<pdfrwt beam="1">  1        2 0.21309875E+00 0.75550322E+03</pdfrwt>
<pdfrwt beam="2">  1       -2 0.90817037E-01 0.75550322E+03</pdfrwt>
<totfact> 0.15602468E+01</totfact>
</mgrwt>
</event>
<event>
12    1  0.1418317E-007  0.5171265E+03  0.7818608E-02  0.1009403E+00
          1   -1    0    0  501    0  0.00000000000E+00  0.00000000000E+00  0.12044297083E+04  0.12044297083E+04  0.00000000000E+00 0. -1.
         -1   -1    0    0    0  501 -0.00000000000E+00 -0.00000000000E+00 -0.74356632711E+03  0.74356632711E+03  0.00000000000E+00 0.  1.
         23    2    1    2    0    0  0.14942268403E+03  0.37476435762E+03  0.97604916775E+03  0.10601294859E+04  0.91799165028E+02 0.  0.
    5000000    2    1    2    0    0 -0.14942268403E+03 -0.37476435762E+03 -0.51518578658E+03  0.88786654952E+03  0.60009595302E+03 0.  0.
         23    2    4    4    0    0  0.38155806259E+02 -0.42684472575E+03 -0.51029855292E+03  0.67225354822E+03  0.88701378444E+02 0.  0.
         23    2    4    4    0    0 -0.18757849028E+03  0.52080368134E+02 -0.48872336637E+01  0.21561300130E+03  0.92558233099E+02 0.  0.
          3    1    3    3  502    0  0.11038091051E+02  0.48219078292E+02  0.21326857554E+03  0.21893013561E+03  0.00000000000E+00 0. -1.
         -3    1    3    3    0  502  0.13838459297E+03  0.32654527933E+03  0.76278059221E+03  0.84119935026E+03  0.00000000000E+00 0.  1.
         13    1    5    5    0    0  0.49782127636E+02 -0.24047160922E+03 -0.34083220249E+03  0.42008504535E+03  0.00000000000E+00 0. -1.
        -13    1    5    5    0    0 -0.11626321377E+02 -0.18637311653E+03 -0.16946635043E+03  0.25216850287E+03  0.00000000000E+00 0.  1.
          4    1    6    6  503    0 -0.96557494811E+02  0.85699310973E+01 -0.45217354814E+02  0.10696449270E+03  0.00000000000E+00 0. -1.
         -4    1    6    6    0  503 -0.91020995474E+02  0.43510437036E+02  0.40330121150E+02  0.10864850860E+03  0.00000000000E+00 0.  1.
<mgrwt>
<rscale>  0 0.51712649E+03</rscale>
<asrwt>0</asrwt>
<pdfrwt beam="1">  1        1 0.18529688E+00 0.51712649E+03</pdfrwt>
<pdfrwt beam="2">  1       -1 0.11439482E+00 0.51712649E+03</pdfrwt>
<totfact> 0.79676649E+00</totfact>
</mgrwt>
</event>
<event>
12    1  0.1418317E-007  0.5584659E+03  0.7818608E-02  0.9995532E-01
         -2   -1    0    0    0  501 -0.00000000000E+00  0.00000000000E+00  0.37497144412E+03  0.37497144412E+03  0.00000000000E+00 0. -1.
          2   -1    0    0  501    0  0.00000000000E+00 -0.00000000000E+00 -0.14375048849E+04  0.14375048849E+04  0.00000000000E+00 0.  1.
         23    2    1    2    0    0 -0.12070372342E+03  0.38797266806E+03  0.11259241789E+03  0.43193744485E+03  0.93812172374E+02 0.  0.
    5000000    2    1    2    0    0  0.12070372342E+03 -0.38797266806E+03 -0.11751258587E+04  0.13805388842E+04  0.59989553007E+03 0.  0.
         23    2    4    4    0    0  0.79451797105E+02 -0.52696998094E+03 -0.76618021451E+03  0.93766361726E+03  0.90393523812E+02 0.  0.
         23    2    4    4    0    0  0.41251926311E+02  0.13899731288E+03 -0.40894564418E+03  0.44287526694E+03  0.88769295104E+02 0.  0.
          2    1    3    3  502    0  0.13408547464E+02  0.27325424698E+02 -0.18757313818E+01  0.30495677534E+02  0.00000000000E+00 0.  1.
         -2    1    3    3    0  502 -0.13411227088E+03  0.36064724336E+03  0.11446814927E+03  0.40144176731E+03  0.00000000000E+00 0. -1.
         11    1    5    5    0    0  0.77540692709E+02 -0.44084374966E+03 -0.58102016920E+03  0.73344407262E+03  0.00000000000E+00 0.  1.
        -11    1    5    5    0    0  0.19111043967E+01 -0.86126231285E+02 -0.18516004531E+03  0.20421954464E+03  0.00000000000E+00 0. -1.
          3    1    6    6  503    0 -0.21283793427E+02  0.78860634069E+01 -0.82574606043E+02  0.85637348288E+02  0.00000000000E+00 0. -1.
         -3    1    6    6    0  503  0.62535719738E+02  0.13111124947E+03 -0.32637103814E+03  0.35723791865E+03  0.00000000000E+00 0.  1.
<mgrwt>
<rscale>  0 0.55846585E+03</rscale>
<asrwt>0</asrwt>
<pdfrwt beam="1">  1        2 0.22115459E+00 0.55846585E+03</pdfrwt>
<pdfrwt beam="2">  1       -2 0.57687916E-01 0.55846585E+03</pdfrwt>
<totfact> 0.40543148E+01</totfact>
</mgrwt>
</event>
<event>
12    1  0.1418317E-007  0.1006471E+04  0.7818608E-02  0.9301476E-01
          2   -1    0    0  501    0  0.00000000000E+00  0.00000000000E+00  0.16573408015E+04  0.16573408015E+04  0.00000000000E+00 0. -1.
         -2   -1    0    0    0  501 -0.00000000000E+00 -0.00000000000E+00 -0.85276621909E+03  0.85276621909E+03  0.00000000000E+00 0.  1.
         23    2    1    2    0    0 -0.19894578558E+03  0.90429623359E+03  0.10257893268E+04  0.13847769489E+04  0.89623387563E+02 0.  0.
    5000000    2    1    2    0    0  0.19894578558E+03 -0.90429623359E+03 -0.22121474432E+03  0.11253300717E+04  0.60008391376E+03 0.  0.
         23    2    4    4    0    0 -0.18103423979E+03 -0.20539526480E+03  0.19734955187E+02  0.28901707475E+03  0.90447721140E+02 0.  0.
         23    2    4    4    0    0  0.37998002537E+03 -0.69890096878E+03 -0.24094969951E+03  0.83631299698E+03  0.92278314762E+02 0.  0.
          1    1    3    3  502    0 -0.13703863257E+03  0.55065793522E+03  0.68811412625E+03  0.89191075741E+03  0.00000000000E+00 0. -1.
         -1    1    3    3    0  502 -0.61907153018E+02  0.35363829836E+03  0.33767520054E+03  0.49286619150E+03  0.00000000000E+00 0.  1.
         11    1    5    5    0    0 -0.15959785491E+03 -0.21173475227E+03  0.12202301308E+02  0.26542791257E+03  0.00000000000E+00 0. -1.
        -11    1    5    5    0    0 -0.21436384876E+02  0.63394874682E+01  0.75326538784E+01  0.23589162180E+02  0.00000000000E+00 0.  1.
          2    1    6    6  503    0  0.25828803734E+03 -0.39880289324E+03 -0.17130156547E+03  0.50507492931E+03  0.00000000000E+00 0. -1.
         -2    1    6    6    0  503  0.12169198804E+03 -0.30009807554E+03 -0.69648134040E+02  0.33123806767E+03  0.00000000000E+00 0.  1.
<mgrwt>
<rscale>  0 0.10064713E+04</rscale>
<asrwt>0</asrwt>
<pdfrwt beam="1">  1        2 0.25497551E+00 0.10064713E+04</pdfrwt>
<pdfrwt beam="2">  1       -2 0.13119480E+00 0.10064713E+04</pdfrwt>
<totfact> 0.43686003E+00</totfact>
</mgrwt>
</event>
<event>
12    1  0.1418317E-007  0.6680019E+03  0.7818608E-02  0.9773574E-01
          1   -1    0    0  501    0  0.00000000000E+00  0.00000000000E+00  0.18885312684E+04  0.18885312684E+04  0.00000000000E+00 0. -1.
         -1   -1    0    0    0  501 -0.00000000000E+00 -0.00000000000E+00 -0.38515453892E+03  0.38515453892E+03  0.00000000000E+00 0.  1.
         23    2    1    2    0    0  0.55489700026E+03 -0.55791294447E+02  0.41508663381E+01  0.56513333319E+03  0.91296797032E+02 0.  0.
    5000000    2    1    2    0    0 -0.55489700026E+03  0.55791294447E+02  0.14992258631E+04  0.17085524741E+04  0.60037489848E+03 0.  0.
         23    2    4    4    0    0 -0.62850403464E+03  0.11179455098E+03  0.99356175047E+03  0.11845528980E+04  0.92115540902E+02 0.  0.
         23    2    4    4    0    0  0.73607034374E+02 -0.56003256533E+02  0.50566411267E+03  0.52399957618E+03  0.10161201081E+03 0.  0.
          2    1    3    3  502    0  0.38199456236E+03 -0.50215311356E+02  0.43480132764E+02  0.38772663709E+03  0.00000000000E+00 0. -1.
         -2    1    3    3    0  502  0.17290243790E+03 -0.55759830914E+01 -0.39329266426E+02  0.17740669609E+03  0.00000000000E+00 0.  1.
         11    1    5    5    0    0 -0.26230620250E+03  0.17642855180E+02  0.47318616396E+03  0.54131410473E+03  0.00000000000E+00 0. -1.
        -11    1    5    5    0    0 -0.36619783214E+03  0.94151695801E+02  0.52037558651E+03  0.64323879323E+03  0.00000000000E+00 0.  1.
          3    1    6    6  503    0  0.77618966923E+02 -0.80544187073E+02  0.39198862330E+03  0.40763605201E+03  0.00000000000E+00 0.  1.
         -3    1    6    6    0  503 -0.40119325487E+01  0.24540930541E+02  0.11367548937E+03  0.11636352418E+03  0.00000000000E+00 0. -1.
<mgrwt>
<rscale>  0 0.66800194E+03</rscale>
<asrwt>0</asrwt>
<pdfrwt beam="1">  1        1 0.29054327E+00 0.66800194E+03</pdfrwt>
<pdfrwt beam="2">  1       -1 0.59254546E-01 0.66800194E+03</pdfrwt>
<totfact> 0.10833887E+01</totfact>
</mgrwt>
</event>
<event>
12    1  0.1418317E-007  0.6824930E+03  0.7818608E-02  0.9747649E-01
          2   -1    0    0  501    0  0.00000000000E+00  0.00000000000E+00  0.25166375019E+04  0.25166375019E+04  0.00000000000E+00 0.  1.
         -2   -1    0    0    0  501 -0.00000000000E+00 -0.00000000000E+00 -0.22068775286E+03  0.22068775286E+03  0.00000000000E+00 0. -1.
         23    2    1    2    0    0  0.22908979565E+03 -0.55584628564E+03  0.68471156847E+03  0.91592543050E+03  0.92963619336E+02 0.  0.
    5000000    2    1    2    0    0 -0.22908979565E+03  0.55584628564E+03  0.16112381806E+04  0.18213998242E+04  0.59996801374E+03 0.  0.
         23    2    4    4    0    0 -0.33992440373E+03  0.23903655700E+03  0.49782713379E+03  0.65464978896E+03  0.89707386609E+02 0.  0.
         23    2    4    4    0    0  0.11083460808E+03  0.31680972864E+03  0.11134110468E+04  0.11667500353E+04  0.94703596821E+02 0.  0.
          2    1    3    3  502    0  0.15900215352E+03 -0.35382884140E+03  0.37476435781E+03  0.53937450599E+03  0.00000000000E+00 0. -1.
         -2    1    3    3    0  502  0.70087642130E+02 -0.20201744424E+03  0.30994721066E+03  0.37655092451E+03  0.00000000000E+00 0.  1.
         11    1    5    5    0    0 -0.75774822741E+02  0.67786836751E+02  0.69808151058E+02  0.12332905964E+03  0.00000000000E+00 0.  1.
        -11    1    5    5    0    0 -0.26414958098E+03  0.17124972025E+03  0.42801898273E+03  0.53132072931E+03  0.00000000000E+00 0. -1.
          3    1    6    6  503    0  0.13114655478E+02  0.16942048569E+03  0.48375664169E+03  0.51273363801E+03  0.00000000000E+00 0. -1.
         -3    1    6    6    0  503  0.97719952601E+02  0.14738924295E+03  0.62965440508E+03  0.65401639728E+03  0.00000000000E+00 0.  1.
<mgrwt>
<rscale>  0 0.68249296E+03</rscale>
<asrwt>0</asrwt>
<pdfrwt beam="1">  1        2 0.38717498E+00 0.68249296E+03</pdfrwt>
<pdfrwt beam="2">  1       -2 0.33951964E-01 0.68249296E+03</pdfrwt>
<totfact> 0.29157300E+01</totfact>
</mgrwt>
</event>
<event>
12    1  0.1418317E-007  0.1756190E+04  0.7818608E-02  0.8729950E-01
          2   -1    0    0  501    0  0.00000000000E+00  0.00000000000E+00  0.43435896333E+04  0.43435896333E+04  0.00000000000E+00 0. -1.
         -2   -1    0    0    0  501 -0.00000000000E+00 -0.00000000000E+00 -0.72863711410E+03  0.72863711410E+03  0.00000000000E+00 0.  1.
         23    2    1    2    0    0 -0.87745483857E+03 -0.14813231272E+04  0.15612332416E+04  0.23259370065E+04  0.91041322263E+02 0.  0.
    5000000    2    1    2    0    0  0.87745483857E+03  0.14813231272E+04  0.20537192777E+04  0.27462897410E+04  0.60008271840E+03 0.  0.
         23    2    4    4    0    0  0.91669092936E+03  0.13451090050E+04  0.19787523328E+04  0.25639063875E+04  0.92274991027E+02 0.  0.
         23    2    4    4    0    0 -0.39236090788E+02  0.13621412222E+03  0.74966944849E+02  0.18238335346E+03  0.86890085093E+02 0.  0.
          4    1    3    3  502    0 -0.75998799307E+03 -0.12881126808E+04  0.13960038816E+04  0.20458843725E+04  0.00000000000E+00 0. -1.
         -4    1    3    3    0  502 -0.11746684550E+03 -0.19321044644E+03  0.16522935995E+03  0.28005263397E+03  0.00000000000E+00 0.  1.
         11    1    5    5    0    0  0.14875909662E+03  0.23561464123E+03  0.28809037395E+03  0.40079869205E+03  0.00000000000E+00 0. -1.
        -11    1    5    5    0    0  0.76793183274E+03  0.11094943638E+04  0.16906619589E+04  0.21631076955E+04  0.00000000000E+00 0.  1.
          4    1    6    6  503    0 -0.43969043693E+02  0.14564381877E+03  0.78579449807E+02  0.17123121410E+03  0.00000000000E+00 0. -1.
         -4    1    6    6    0  503  0.47329529057E+01 -0.94296965530E+01 -0.36125049576E+01  0.11152139362E+02  0.00000000000E+00 0.  1.
<mgrwt>
<rscale>  0 0.17561902E+04</rscale>
<asrwt>0</asrwt>
<pdfrwt beam="1">  1        2 0.66824454E+00 0.17561902E+04</pdfrwt>
<pdfrwt beam="2">  1       -2 0.11209802E+00 0.17561902E+04</pdfrwt>
<totfact> 0.10237669E-01</totfact>
</mgrwt>
</event>
<event>
12    1  0.1418317E-007  0.8444473E+03  0.7818608E-02  0.9497820E-01
         -1   -1    0    0    0  501 -0.00000000000E+00  0.00000000000E+00  0.14812025624E+04  0.14812025624E+04  0.00000000000E+00 0.  1.
          1   -1    0    0  501    0  0.00000000000E+00 -0.00000000000E+00 -0.55865156311E+03  0.55865156311E+03  0.00000000000E+00 0. -1.
         23    2    1    2    0    0 -0.72681096579E+03  0.35208992462E+03  0.43839976214E+03  0.92334463442E+03  0.90274400911E+02 0.  0.
    5000000    2    1    2    0    0  0.72681096579E+03 -0.35208992462E+03  0.48415123713E+03  0.11165094911E+04  0.59997460628E+03 0.  0.
         23    2    4    4    0    0  0.70344714070E+03 -0.35298170077E+03  0.57765001614E+03  0.98041639026E+03  0.90015533717E+02 0.  0.
         23    2    4    4    0    0  0.23363825095E+02  0.89177615561E+00 -0.93498779011E+02  0.13609310079E+03  0.96086663066E+02 0.  0.
          3    1    3    3  502    0 -0.12850055044E+03  0.60616219446E+02  0.11806958227E+03  0.18473533442E+03  0.00000000000E+00 0. -1.
         -3    1    3    3    0  502 -0.59831041535E+03  0.29147370517E+03  0.32033017987E+03  0.73860930001E+03  0.00000000000E+00 0.  1.
         13    1    5    5    0    0  0.40679257157E+03 -0.16322499370E+03  0.28825135412E+03  0.52460598357E+03  0.00000000000E+00 0.  1.
        -13    1    5    5    0    0  0.29665456913E+03 -0.18975670707E+03  0.28939866202E+03  0.45581040669E+03  0.00000000000E+00 0. -1.
          3    1    6    6  503    0 -0.17289829378E+02  0.34156813215E+02 -0.67220722177E+02  0.77357944511E+02  0.00000000000E+00 0. -1.
         -3    1    6    6    0  503  0.40653654473E+02 -0.33265037059E+02 -0.26278056834E+02  0.58735156282E+02  0.00000000000E+00 0.  1.
<mgrwt>
<rscale>  0 0.84444727E+03</rscale>
<asrwt>0</asrwt>
<pdfrwt beam="1">  1        1 0.85946395E-01 0.84444727E+03</pdfrwt>
<pdfrwt beam="2">  1       -1 0.22787732E+00 0.84444727E+03</pdfrwt>
<totfact> 0.37945358E+00</totfact>
</mgrwt>
</event>
<event>
12    1  0.1418317E-007  0.4855887E+03  0.7818608E-02  0.1017610E+00
         -2   -1    0    0    0  501 -0.00000000000E+00  0.00000000000E+00  0.10398505486E+04  0.10398505486E+04  0.00000000000E+00 0.  1.
          2   -1    0    0  501    0  0.00000000000E+00 -0.00000000000E+00 -0.32352324180E+03  0.32352324180E+03  0.00000000000E+00 0. -1.
         23    2    1    2    0    0 -0.17552862427E+03  0.36556742639E+03  0.38639583018E+03  0.56760368000E+03  0.91773410087E+02 0.  0.
    5000000    2    1    2    0    0  0.17552862427E+03 -0.36556742639E+03  0.32993147663E+03  0.79577011041E+03  0.59995453843E+03 0.  0.
         23    2    4    4    0    0  0.29371095128E+02  0.60930822821E+02 -0.11116515206E+03  0.15877798231E+03  0.90980933364E+02 0.  0.
         23    2    4    4    0    0  0.14615752915E+03 -0.42649824921E+03  0.44109662870E+03  0.63699212810E+03  0.89050297634E+02 0.  0.
          2    1    3    3  502    0 -0.55606330709E+02  0.12003852964E+03  0.70432804381E+02  0.14987358855E+03  0.00000000000E+00 0. -1.
         -2    1    3    3    0  502 -0.11992229356E+03  0.24552889675E+03  0.31596302580E+03  0.41773009145E+03  0.00000000000E+00 0.  1.
         13    1    5    5    0    0  0.60653097389E+02  0.24883118159E+02 -0.61323892191E+02  0.89769635989E+02  0.00000000000E+00 0. -1.
        -13    1    5    5    0    0 -0.31282002261E+02  0.36047704662E+02 -0.49841259873E+02  0.69008346325E+02  0.00000000000E+00 0.  1.
          2    1    6    6  503    0  0.14495184189E+03 -0.39385793623E+03  0.43367416777E+03  0.60349680545E+03  0.00000000000E+00 0.  1.
         -2    1    6    6    0  503  0.12056872551E+01 -0.32640312978E+02  0.74224609270E+01  0.33495322648E+02  0.00000000000E+00 0. -1.
<mgrwt>
<rscale>  0 0.48558868E+03</rscale>
<asrwt>0</asrwt>
<pdfrwt beam="1">  1        2 0.49772807E-01 0.48558868E+03</pdfrwt>
<pdfrwt beam="2">  1       -2 0.15997701E+00 0.48558868E+03</pdfrwt>
<totfact> 0.26391773E+01</totfact>
</mgrwt>
</event>
<event>
12    1  0.1418317E-007  0.1321171E+04  0.7818608E-02  0.9012943E-01
          2   -1    0    0  501    0  0.00000000000E+00  0.00000000000E+00  0.25486858777E+04  0.25486858777E+04  0.00000000000E+00 0. -1.
         -2   -1    0    0    0  501 -0.00000000000E+00 -0.00000000000E+00 -0.81674299357E+03  0.81674299357E+03  0.00000000000E+00 0.  1.
         23    2    1    2    0    0 -0.12883352901E+04  0.18036011019E+03  0.13622049733E+04  0.18858870867E+04  0.92898468971E+02 0.  0.
    5000000    2    1    2    0    0  0.12883352901E+04 -0.18036011019E+03  0.36973791089E+03  0.14795417846E+04  0.60000015039E+03 0.  0.
         23    2    4    4    0    0  0.51433034386E+03  0.78059258956E+02  0.39258345430E+03  0.65805470743E+03  0.91023507155E+02 0.  0.
         23    2    4    4    0    0  0.77400494626E+03 -0.25841936915E+03 -0.22845543412E+02  0.82148707716E+03  0.91950377331E+02 0.  0.
          2    1    3    3  502    0 -0.67255200599E+03  0.13933646824E+03  0.73514496463E+03  0.10060710567E+04  0.00000000000E+00 0. -1.
         -2    1    3    3    0  502 -0.61578328413E+03  0.41023641948E+02  0.62706000862E+03  0.87981602999E+03  0.00000000000E+00 0.  1.
         13    1    5    5    0    0  0.21982864407E+03  0.42259877147E+02  0.22470398493E+03  0.31717883096E+03  0.00000000000E+00 0. -1.
        -13    1    5    5    0    0  0.29450169979E+03  0.35799381810E+02  0.16787946937E+03  0.34087587646E+03  0.00000000000E+00 0.  1.
          2    1    6    6  503    0  0.28813272922E+03 -0.12423375982E+03  0.27180394702E+02  0.31494963182E+03  0.00000000000E+00 0. -1.
         -2    1    6    6    0  503  0.48587221704E+03 -0.13418560933E+03 -0.50025938114E+02  0.50653744534E+03  0.00000000000E+00 0.  1.
<mgrwt>
<rscale>  0 0.13211707E+04</rscale>
<asrwt>0</asrwt>
<pdfrwt beam="1">  1        2 0.39210552E+00 0.13211707E+04</pdfrwt>
<pdfrwt beam="2">  1       -2 0.12565277E+00 0.13211707E+04</pdfrwt>
<totfact> 0.14921534E+00</totfact>
</mgrwt>
</event>
<event>
12    1  0.1418317E-007  0.1197097E+04  0.7818608E-02  0.9115401E-01
         -2   -1    0    0    0  501 -0.00000000000E+00  0.00000000000E+00  0.66688210334E+03  0.66688210334E+03  0.00000000000E+00 0.  1.
          2   -1    0    0  501    0  0.00000000000E+00 -0.00000000000E+00 -0.22883229579E+04  0.22883229579E+04  0.00000000000E+00 0. -1.
         23    2    1    2    0    0  0.96586184796E+03  0.63447906206E+03 -0.89284673633E+03  0.14631288150E+04  0.90099085703E+02 0.  0.
    5000000    2    1    2    0    0 -0.96586184796E+03 -0.63447906206E+03 -0.72859411822E+03  0.14920762462E+04  0.59999112150E+03 0.  0.
         23    2    4    4    0    0 -0.77367624662E+03 -0.26980224036E+03 -0.67767503933E+03  0.10672640578E+04  0.91874516094E+02 0.  0.
         23    2    4    4    0    0 -0.19218560133E+03 -0.36467682170E+03 -0.50919078889E+02  0.42481218839E+03  0.89152415350E+02 0.  0.
          1    1    3    3  502    0  0.26185811370E+03  0.16044046505E+03 -0.18965035961E+03  0.36094054003E+03  0.00000000000E+00 0. -1.
         -1    1    3    3    0  502  0.70400373426E+03  0.47403859701E+03 -0.70319637672E+03  0.11021882750E+04  0.00000000000E+00 0.  1.
         11    1    5    5    0    0 -0.52083003409E+03 -0.17181553862E+03 -0.50680481818E+03  0.74675004349E+03  0.00000000000E+00 0.  1.
        -11    1    5    5    0    0 -0.25284621254E+03 -0.97986701745E+02 -0.17087022115E+03  0.32051401434E+03  0.00000000000E+00 0. -1.
          3    1    6    6  503    0 -0.91063027333E+02 -0.99108224497E+02  0.71047587551E+01  0.13477905144E+03  0.00000000000E+00 0. -1.
         -3    1    6    6    0  503 -0.10112257400E+03 -0.26556859720E+03 -0.58023837644E+02  0.29003313695E+03  0.00000000000E+00 0.  1.
<mgrwt>
<rscale>  0 0.11970971E+04</rscale>
<asrwt>0</asrwt>
<pdfrwt beam="1">  1        2 0.35204969E+00 0.11970971E+04</pdfrwt>
<pdfrwt beam="2">  1       -2 0.10259725E+00 0.11970971E+04</pdfrwt>
<totfact> 0.35092508E+00</totfact>
</mgrwt>
</event>
<event>
12    1  0.1418317E-007  0.1030572E+04  0.7818608E-02  0.9275635E-01
          2   -1    0    0  501    0  0.00000000000E+00  0.00000000000E+00  0.15964709710E+04  0.15964709710E+04  0.00000000000E+00 0. -1.
         -2   -1    0    0    0  501 -0.00000000000E+00 -0.00000000000E+00 -0.69579763353E+03  0.69579763353E+03  0.00000000000E+00 0.  1.
         23    2    1    2    0    0  0.92541105730E+03 -0.23176778207E+03  0.24782905370E+03  0.98978535420E+03  0.90298824771E+02 0.  0.
    5000000    2    1    2    0    0 -0.92541105730E+03  0.23176778207E+03  0.65284428373E+03  0.13024832503E+04  0.60012917668E+03 0.  0.
         23    2    4    4    0    0 -0.94838671792E+03  0.30050504231E+03  0.52372453061E+03  0.11280607434E+04  0.92157526039E+02 0.  0.
         23    2    4    4    0    0  0.22975660624E+02 -0.68737260240E+02  0.12911975312E+03  0.17442250691E+03  0.92187896950E+02 0.  0.
          1    1    3    3  502    0  0.38421841086E+03 -0.87234443773E+02  0.57483724604E+02  0.39816832373E+03  0.00000000000E+00 0. -1.
         -1    1    3    3    0  502  0.54119264644E+03 -0.14453333829E+03  0.19034532910E+03  0.59161703047E+03  0.00000000000E+00 0.  1.
         11    1    5    5    0    0 -0.64288556318E+03  0.24106140778E+03  0.33355199126E+03  0.76332783294E+03  0.00000000000E+00 0. -1.
        -11    1    5    5    0    0 -0.30550115474E+03  0.59443634525E+02  0.19017253935E+03  0.36473291043E+03  0.00000000000E+00 0.  1.
          1    1    6    6  503    0  0.34597583424E+02  0.46068362057E+01  0.74399599729E+02  0.82179779499E+02  0.00000000000E+00 0. -1.
         -1    1    6    6    0  503 -0.11621922799E+02 -0.73344096446E+02  0.54720153393E+02  0.92242727412E+02  0.00000000000E+00 0.  1.
<mgrwt>
<rscale>  0 0.10305723E+04</rscale>
<asrwt>0</asrwt>
<pdfrwt beam="1">  1        2 0.24561092E+00 0.10305723E+04</pdfrwt>
<pdfrwt beam="2">  1       -2 0.10704579E+00 0.10305723E+04</pdfrwt>
<totfact> 0.78019487E+00</totfact>
</mgrwt>
</event>
<event>
12    1  0.1418317E-007  0.4450503E+03  0.7818608E-02  0.1029208E+00
          1   -1    0    0  501    0  0.00000000000E+00  0.00000000000E+00  0.77688328452E+03  0.77688328452E+03  0.00000000000E+00 0. -1.
         -1   -1    0    0    0  501 -0.00000000000E+00 -0.00000000000E+00 -0.12467067741E+04  0.12467067741E+04  0.00000000000E+00 0.  1.
         23    2    1    2    0    0 -0.26966827708E+03 -0.68192245920E+02  0.65579132691E+03  0.71807628806E+03  0.90554563425E+02 0.  0.
    5000000    2    1    2    0    0  0.26966827708E+03  0.68192245920E+02 -0.11256148165E+04  0.13055137705E+04  0.59998860651E+03 0.  0.
         23    2    4    4    0    0  0.36182044205E+03 -0.11842363298E+03 -0.47027196781E+03  0.61193532531E+03  0.91492784025E+02 0.  0.
         23    2    4    4    0    0 -0.92152164968E+02  0.18661587890E+03 -0.65534284867E+03  0.69357844523E+03  0.90880705449E+02 0.  0.
          2    1    3    3  502    0 -0.12529149305E+03 -0.58891790324E+02  0.23083115800E+03  0.26916393648E+03  0.00000000000E+00 0.  1.
         -2    1    3    3    0  502 -0.14437678404E+03 -0.93004555964E+01  0.42496016891E+03  0.44891235158E+03  0.00000000000E+00 0. -1.
         13    1    5    5    0    0  0.26038899813E+03 -0.85573759836E+02 -0.26830029087E+03  0.38354966406E+03  0.00000000000E+00 0. -1.
        -13    1    5    5    0    0  0.10143144392E+03 -0.32849873141E+02 -0.20197167694E+03  0.22838566125E+03  0.00000000000E+00 0.  1.
          3    1    6    6  503    0  0.10314965752E+02  0.71169789897E+02 -0.23676549492E+03  0.24744582659E+03  0.00000000000E+00 0. -1.
         -3    1    6    6    0  503 -0.10246713072E+03  0.11544608900E+03 -0.41857735375E+03  0.44613261865E+03  0.00000000000E+00 0.  1.
<mgrwt>
<rscale>  0 0.44505033E+03</rscale>
<asrwt>0</asrwt>
<pdfrwt beam="1">  1        1 0.11952051E+00 0.44505033E+03</pdfrwt>
<pdfrwt beam="2">  1       -1 0.19180104E+00 0.44505033E+03</pdfrwt>
<totfact> 0.43881257E+00</totfact>
</mgrwt>
</event>
<event>
12    1  0.1418317E-007  0.1403813E+04  0.7818608E-02  0.8951063E-01
         -2   -1    0    0    0  501 -0.00000000000E+00  0.00000000000E+00  0.14704238458E+04  0.14704238458E+04  0.00000000000E+00 0. -1.
          2   -1    0    0  501    0  0.00000000000E+00 -0.00000000000E+00 -0.20119482793E+04  0.20119482793E+04  0.00000000000E+00 0.  1.
         23    2    1    2    0    0  0.73569203311E+03 -0.11444383761E+04 -0.12367486445E+04  0.18409831186E+04  0.93218394572E+02 0.  0.
    5000000    2    1    2    0    0 -0.73569203311E+03  0.11444383761E+04  0.69522421100E+03  0.16413890065E+04  0.59986598756E+03 0.  0.
         23    2    4    4    0    0  0.60038178565E+02  0.19710256871E+03  0.13214663008E+02  0.22565659577E+03  0.91061882357E+02 0.  0.
         23    2    4    4    0    0 -0.79573021167E+03  0.94733580737E+03  0.68200954800E+03  0.14157324108E+04  0.92355474536E+02 0.  0.
          3    1    3    3  502    0  0.41702253232E+02 -0.53223678608E+02 -0.37579164524E+02  0.77356521997E+02  0.00000000000E+00 0. -1.
         -3    1    3    3    0  502  0.69398977987E+03 -0.10912146975E+04 -0.11991694800E+04  0.17636265966E+04  0.00000000000E+00 0.  1.
         11    1    5    5    0    0  0.11325410915E+02  0.48264031968E+02 -0.36259767357E+02  0.61420293413E+02  0.00000000000E+00 0.  1.
        -11    1    5    5    0    0  0.48712767650E+02  0.14883853674E+03  0.49474430365E+02  0.16423630236E+03  0.00000000000E+00 0. -1.
          4    1    6    6  503    0 -0.44939780429E+03  0.60509117414E+03  0.41272904750E+03  0.85932472452E+03  0.00000000000E+00 0. -1.
         -4    1    6    6    0  503 -0.34633240738E+03  0.34224463322E+03  0.26928050050E+03  0.55640768626E+03  0.00000000000E+00 0.  1.
<mgrwt>
<rscale>  0 0.14038128E+04</rscale>
<asrwt>0</asrwt>
<pdfrwt beam="1">  1        2 0.30953051E+00 0.14038128E+04</pdfrwt>
<pdfrwt beam="2">  1       -2 0.22621905E+00 0.14038128E+04</pdfrwt>
<totfact> 0.56320807E-01</totfact>
</mgrwt>
</event>
<event>
12    1  0.1418317E-007  0.4938801E+03  0.7818608E-02  0.1015389E+00
         -1   -1    0    0    0  501 -0.00000000000E+00  0.00000000000E+00  0.29089165099E+03  0.29089165099E+03  0.00000000000E+00 0.  1.
          1   -1    0    0  501    0  0.00000000000E+00 -0.00000000000E+00 -0.12609915224E+04  0.12609915224E+04  0.00000000000E+00 0. -1.
         23    2    1    2    0    0 -0.51226799934E+02  0.44767939246E+03 -0.40462613887E+03  0.61226625552E+03  0.90036836497E+02 0.  0.
    5000000    2    1    2    0    0  0.51226799934E+02 -0.44767939246E+03 -0.56547373250E+03  0.93961691783E+03  0.60006531867E+03 0.  0.
         23    2    4    4    0    0 -0.95258543486E+02 -0.33763266287E+03 -0.62895633106E+03  0.72580590293E+03  0.90211624583E+02 0.  0.
         23    2    4    4    0    0  0.14648534342E+03 -0.11004672959E+03  0.63482598559E+02  0.21381101490E+03  0.90093680370E+02 0.  0.
          1    1    3    3  502    0 -0.44193091282E+02  0.42406077559E+03 -0.34743798363E+03  0.54999429377E+03  0.00000000000E+00 0. -1.
         -1    1    3    3    0  502 -0.70337086520E+01  0.23618616866E+02 -0.57188155237E+02  0.62271961745E+02  0.00000000000E+00 0.  1.
         11    1    5    5    0    0 -0.26338333289E+02 -0.16337239846E+03 -0.21417142036E+03  0.27065410708E+03  0.00000000000E+00 0.  1.
        -11    1    5    5    0    0 -0.68920210197E+02 -0.17426026441E+03 -0.41478491070E+03  0.45515179585E+03  0.00000000000E+00 0. -1.
          1    1    6    6  503    0  0.66729770239E+02 -0.59910423964E+02 -0.15338756789E+02  0.90980209911E+02  0.00000000000E+00 0. -1.
         -1    1    6    6    0  503  0.79755573181E+02 -0.50136305625E+02  0.78821355348E+02  0.12283080499E+03  0.00000000000E+00 0.  1.
<mgrwt>
<rscale>  0 0.49388010E+03</rscale>
<asrwt>0</asrwt>
<pdfrwt beam="1">  1        1 0.19399869E+00 0.49388010E+03</pdfrwt>
<pdfrwt beam="2">  1       -1 0.44752562E-01 0.49388010E+03</pdfrwt>
<totfact> 0.50629947E+01</totfact>
</mgrwt>
</event>
<event>
12    1  0.1418317E-007  0.2355189E+03  0.7818608E-02  0.1122814E+00
         -2   -1    0    0    0  501 -0.00000000000E+00  0.00000000000E+00  0.14426263836E+03  0.14426263836E+03  0.00000000000E+00 0.  1.
          2   -1    0    0  501    0  0.00000000000E+00 -0.00000000000E+00 -0.10852539054E+04  0.10852539054E+04  0.00000000000E+00 0. -1.
         23    2    1    2    0    0  0.35807184279E+02 -0.75237656096E+02 -0.39398446706E+03  0.41345141529E+03  0.93677388849E+02 0.  0.
    5000000    2    1    2    0    0 -0.35807184279E+02  0.75237656096E+02 -0.54700679995E+03  0.81606512844E+03  0.59983580697E+03 0.  0.
         23    2    4    4    0    0  0.22882253263E+02  0.18368793776E+03 -0.61403675947E+03  0.64714617933E+03  0.86557376637E+02 0.  0.
         23    2    4    4    0    0 -0.58689437542E+02 -0.10845028166E+03  0.67029959521E+02  0.16891894911E+03  0.93992990291E+02 0.  0.
          1    1    3    3  502    0 -0.17687381809E+01 -0.75752499908E+02 -0.33537937039E+03  0.34383265080E+03  0.00000000000E+00 0. -1.
         -1    1    3    3    0  502  0.37575922460E+02  0.51484381169E+00 -0.58605096669E+02  0.69618764485E+02  0.00000000000E+00 0.  1.
         11    1    5    5    0    0 -0.16456540836E+02  0.15130627206E+03 -0.42789796953E+03  0.45415974946E+03  0.00000000000E+00 0. -1.
        -11    1    5    5    0    0  0.39338794099E+02  0.32381665700E+02 -0.18613878994E+03  0.19298642987E+03  0.00000000000E+00 0.  1.
          2    1    6    6  503    0 -0.83894055909E+02 -0.74126294713E+02  0.54614245526E+02  0.12456177583E+03  0.00000000000E+00 0. -1.
         -2    1    6    6    0  503  0.25204618366E+02 -0.34323986950E+02  0.12415713995E+02  0.44357173277E+02  0.00000000000E+00 0.  1.
<mgrwt>
<rscale>  0 0.23551895E+03</rscale>
<asrwt>0</asrwt>
<pdfrwt beam="1">  1        2 0.16696214E+00 0.23551895E+03</pdfrwt>
<pdfrwt beam="2">  1       -2 0.22194252E-01 0.23551895E+03</pdfrwt>
<totfact> 0.41310364E+02</totfact>
</mgrwt>
</event>
<event>
12    1  0.1418317E-007  0.5671947E+03  0.7818608E-02  0.9975906E-01
          2   -1    0    0  501    0  0.00000000000E+00  0.00000000000E+00  0.76563368561E+03  0.76563368561E+03  0.00000000000E+00 0. -1.
         -2   -1    0    0    0  501 -0.00000000000E+00 -0.00000000000E+00 -0.73029775804E+03  0.73029775804E+03  0.00000000000E+00 0.  1.
         23    2    1    2    0    0 -0.16822834852E+02 -0.55814648490E+03 -0.26270366501E+03  0.62405557619E+03  0.92852787722E+02 0.  0.
    5000000    2    1    2    0    0  0.16822834852E+02  0.55814648490E+03  0.29803959258E+03  0.87187586746E+03  0.59960772438E+03 0.  0.
         23    2    4    4    0    0  0.38102578668E+02  0.41781629488E+03 -0.98547479074E+02  0.44056747071E+03  0.91464899537E+02 0.  0.
         23    2    4    4    0    0 -0.21279743816E+02  0.14033019002E+03  0.39658707166E+03  0.43130839675E+03  0.92737468020E+02 0.  0.
          1    1    3    3  502    0  0.54695710758E+01 -0.13005218462E+03 -0.20744519965E+02  0.13180979494E+03  0.00000000000E+00 0. -1.
         -1    1    3    3    0  502 -0.22292405928E+02 -0.42809430028E+03 -0.24195914505E+03  0.49224578126E+03  0.00000000000E+00 0.  1.
         11    1    5    5    0    0  0.11993112763E+01  0.29068623097E+03 -0.10222260893E+03  0.30813858084E+03  0.00000000000E+00 0. -1.
        -11    1    5    5    0    0  0.36903267392E+02  0.12713006391E+03  0.36751298541E+01  0.13242888987E+03  0.00000000000E+00 0.  1.
          3    1    6    6  503    0 -0.37112882463E+02  0.12518673669E+03  0.38496809163E+03  0.40650893798E+03  0.00000000000E+00 0. -1.
         -3    1    6    6    0  503  0.15833138647E+02  0.15143453334E+02  0.11618980026E+02  0.24799458767E+02  0.00000000000E+00 0.  1.
<mgrwt>
<rscale>  0 0.56719470E+03</rscale>
<asrwt>0</asrwt>
<pdfrwt beam="1">  1        2 0.11778980E+00 0.56719470E+03</pdfrwt>
<pdfrwt beam="2">  1       -2 0.11235350E+00 0.56719470E+03</pdfrwt>
<totfact> 0.23559654E+01</totfact>
</mgrwt>
</event>
<event>
12    1  0.1418317E-007  0.9566288E+03  0.7818608E-02  0.9357436E-01
         -1   -1    0    0    0  501 -0.00000000000E+00  0.00000000000E+00  0.26253531930E+03  0.26253531930E+03  0.00000000000E+00 0.  1.
          1   -1    0    0  501    0  0.00000000000E+00 -0.00000000000E+00 -0.36452045103E+04  0.36452045103E+04  0.00000000000E+00 0. -1.
         23    2    1    2    0    0  0.71958921353E+03  0.51311954200E+03 -0.15206984299E+04  0.17611201250E+04  0.88994826904E+02 0.  0.
    5000000    2    1    2    0    0 -0.71958921353E+03 -0.51311954200E+03 -0.18619707611E+04  0.21466197047E+04  0.59995061512E+03 0.  0.
         23    2    4    4    0    0 -0.76783216486E+03 -0.55667330564E+03 -0.16293636208E+04  0.18876525031E+04  0.94629599750E+02 0.  0.
         23    2    4    4    0    0  0.48242951337E+02  0.43553763638E+02 -0.23260714030E+03  0.25896720152E+03  0.93453823172E+02 0.  0.
          4    1    3    3  502    0  0.54060368789E+03  0.41572596730E+03 -0.11125240860E+04  0.13049100618E+04  0.00000000000E+00 0. -1.
         -4    1    3    3    0  502  0.17898552563E+03  0.97393574703E+02 -0.40817434387E+03  0.45621006321E+03  0.00000000000E+00 0.  1.
         11    1    5    5    0    0 -0.13679474895E+03 -0.89099437396E+02 -0.35450596584E+03  0.39028962695E+03  0.00000000000E+00 0. -1.
        -11    1    5    5    0    0 -0.63103741591E+03 -0.46757386825E+03 -0.12748576550E+04  0.14973628762E+04  0.00000000000E+00 0.  1.
          3    1    6    6  503    0  0.17373485718E+01  0.30539647591E+02 -0.19598892427E+03  0.19836165681E+03  0.00000000000E+00 0. -1.
         -3    1    6    6    0  503  0.46505602765E+02  0.13014116047E+02 -0.36618216030E+02  0.60605544716E+02  0.00000000000E+00 0.  1.
<mgrwt>
<rscale>  0 0.95662877E+03</rscale>
<asrwt>0</asrwt>
<pdfrwt beam="1">  1        1 0.56080064E+00 0.95662877E+03</pdfrwt>
<pdfrwt beam="2">  1       -1 0.40390053E-01 0.95662877E+03</pdfrwt>
<totfact> 0.12018580E+00</totfact>
</mgrwt>
</event>
<event>
12    1  0.1418317E-007  0.5722481E+03  0.7818608E-02  0.9964716E-01
          1   -1    0    0  501    0  0.00000000000E+00  0.00000000000E+00  0.16171059028E+04  0.16171059028E+04  0.00000000000E+00 0. -1.
         -1   -1    0    0    0  501 -0.00000000000E+00 -0.00000000000E+00 -0.28284919187E+03  0.28284919187E+03  0.00000000000E+00 0.  1.
         23    2    1    2    0    0  0.39908603568E+03  0.29271870057E+03  0.24047740344E+03  0.55770381413E+03  0.90830948432E+02 0.  0.
    5000000    2    1    2    0    0 -0.39908603568E+03 -0.29271870057E+03  0.10937793075E+04  0.13422512805E+04  0.60027612402E+03 0.  0.
         23    2    4    4    0    0 -0.45476887683E+03 -0.28323231295E+03  0.49879665363E+03  0.73772428603E+03  0.91671948259E+02 0.  0.
         23    2    4    4    0    0  0.55682841152E+02 -0.94863876196E+01  0.59498265383E+03  0.60452699447E+03  0.90873309299E+02 0.  0.
          4    1    3    3  502    0  0.18430754062E+03  0.11214228127E+03  0.15041833178E+03  0.26300348917E+03  0.00000000000E+00 0. -1.
         -4    1    3    3    0  502  0.21477849506E+03  0.18057641929E+03  0.90059071664E+02  0.29470032496E+03  0.00000000000E+00 0.  1.
         11    1    5    5    0    0 -0.29734475880E+03 -0.22665396476E+03  0.37567635328E+03  0.53001759192E+03  0.00000000000E+00 0. -1.
        -11    1    5    5    0    0 -0.15742411804E+03 -0.56578348183E+02  0.12312030035E+03  0.20770669412E+03  0.00000000000E+00 0.  1.
          1    1    6    6  503    0  0.73444890171E+02  0.16725531529E+02  0.41522200356E+03  0.42199906106E+03  0.00000000000E+00 0. -1.
         -1    1    6    6    0  503 -0.17762049019E+02 -0.26211919149E+02  0.17976065027E+03  0.18252793341E+03  0.00000000000E+00 0.  1.
<mgrwt>
<rscale>  0 0.57224806E+03</rscale>
<asrwt>0</asrwt>
<pdfrwt beam="1">  1        1 0.24878552E+00 0.57224806E+03</pdfrwt>
<pdfrwt beam="2">  1       -1 0.43515261E-01 0.57224806E+03</pdfrwt>
<totfact> 0.30012853E+01</totfact>
</mgrwt>
</event>
<event>
12    1  0.1418317E-007  0.1098677E+04  0.7818608E-02  0.9206483E-01
          2   -1    0    0  501    0  0.00000000000E+00  0.00000000000E+00  0.99435082770E+03  0.99435082770E+03  0.00000000000E+00 0. -1.
         -2   -1    0    0    0  501 -0.00000000000E+00 -0.00000000000E+00 -0.18102945814E+04  0.18102945814E+04  0.00000000000E+00 0.  1.
         23    2    1    2    0    0  0.36015998287E+03  0.95930399018E+03  0.40162613527E+03  0.11038850150E+04  0.85318315624E+02 0.  0.
    5000000    2    1    2    0    0 -0.36015998287E+03 -0.95930399018E+03 -0.12175698889E+04  0.17007603941E+04  0.60010842748E+03 0.  0.
         23    2    4    4    0    0 -0.27612241185E+03 -0.83291747057E+02 -0.33177826356E+03  0.44873103105E+03  0.90009002916E+02 0.  0.
         23    2    4    4    0    0 -0.84037571015E+02 -0.87601224313E+03 -0.88579162537E+03  0.12520293630E+04  0.92146398734E+02 0.  0.
          4    1    3    3  502    0  0.20965735692E+03  0.49514729335E+03  0.17149041936E+03  0.56438994796E+03  0.00000000000E+00 0.  1.
         -4    1    3    3    0  502  0.15050262594E+03  0.46415669683E+03  0.23013571591E+03  0.53949506705E+03  0.00000000000E+00 0. -1.
         13    1    5    5    0    0 -0.23206823255E+03 -0.63999688729E+02 -0.31773085157E+03  0.39862829648E+03  0.00000000000E+00 0.  1.
        -13    1    5    5    0    0 -0.44054179297E+02 -0.19292058328E+02 -0.14047411995E+02  0.50102734574E+02  0.00000000000E+00 0. -1.
          4    1    6    6  503    0 -0.20134230755E+02 -0.43713011107E+02 -0.30926534457E+02  0.57207212148E+02  0.00000000000E+00 0. -1.
         -4    1    6    6    0  503 -0.63903340260E+02 -0.83229923202E+03 -0.85486509092E+03  0.11948221509E+04  0.00000000000E+00 0.  1.
<mgrwt>
<rscale>  0 0.10986766E+04</rscale>
<asrwt>0</asrwt>
<pdfrwt beam="1">  1        2 0.15297705E+00 0.10986766E+04</pdfrwt>
<pdfrwt beam="2">  1       -2 0.27850686E+00 0.10986766E+04</pdfrwt>
<totfact> 0.10792589E+00</totfact>
</mgrwt>
</event>
<event>
12    1  0.1418317E-007  0.6253615E+03  0.7818608E-02  0.9854143E-01
         -2   -1    0    0    0  501 -0.00000000000E+00  0.00000000000E+00  0.38971779327E+03  0.38971779327E+03  0.00000000000E+00 0.  1.
          2   -1    0    0  501    0  0.00000000000E+00 -0.00000000000E+00 -0.13479933544E+04  0.13479933544E+04  0.00000000000E+00 0. -1.
         23    2    1    2    0    0 -0.21431844867E+03  0.47064238344E+03 -0.75903515566E+03  0.92100599724E+03  0.68418044993E+02 0.  0.
    5000000    2    1    2    0    0  0.21431844867E+03 -0.47064238344E+03 -0.19924040547E+03  0.81670515042E+03  0.59989491832E+03 0.  0.
         23    2    4    4    0    0  0.17095954926E+03  0.57542484484E+02 -0.19152336521E+03  0.27865916552E+03  0.91822797276E+02 0.  0.
         23    2    4    4    0    0  0.43358899405E+02 -0.52818486793E+03 -0.77170402536E+01  0.53804598491E+03  0.92599569639E+02 0.  0.
          3    1    3    3  502    0 -0.27572948942E+02  0.10273517416E+03 -0.12007603195E+03  0.16041520181E+03  0.00000000000E+00 0. -1.
         -3    1    3    3    0  502 -0.18674549973E+03  0.36790720929E+03 -0.63895912372E+03  0.76059079543E+03  0.00000000000E+00 0.  1.
         13    1    5    5    0    0  0.10754298530E+03 -0.80467188473E+01 -0.12858397084E+03  0.16782157468E+03  0.00000000000E+00 0.  1.
        -13    1    5    5    0    0  0.63416563959E+02  0.65589203332E+02 -0.62939394378E+02  0.11083759084E+03  0.00000000000E+00 0. -1.
          2    1    6    6  503    0 -0.80107093263E+01 -0.22774888822E+03  0.33986751201E+02  0.23041012740E+03  0.00000000000E+00 0. -1.
         -2    1    6    6    0  503  0.51369608731E+02 -0.30043597970E+03 -0.41703791454E+02  0.30763585751E+03  0.00000000000E+00 0.  1.
<mgrwt>
<rscale>  0 0.62536150E+03</rscale>
<asrwt>0</asrwt>
<pdfrwt beam="1">  1        2 0.20738359E+00 0.62536150E+03</pdfrwt>
<pdfrwt beam="2">  1       -2 0.59956583E-01 0.62536150E+03</pdfrwt>
<totfact> 0.41607672E+01</totfact>
</mgrwt>
</event>
<event>
12    1  0.1418317E-007  0.1087887E+04  0.7818608E-02  0.9217079E-01
          2   -1    0    0  501    0  0.00000000000E+00  0.00000000000E+00  0.11611020532E+04  0.11611020532E+04  0.00000000000E+00 0. -1.
         -2   -1    0    0    0  501 -0.00000000000E+00 -0.00000000000E+00 -0.16070320337E+04  0.16070320337E+04  0.00000000000E+00 0.  1.
         23    2    1    2    0    0  0.83464421929E+03  0.69177123656E+03 -0.93652919416E+03  0.14355140421E+04  0.91843436904E+02 0.  0.
    5000000    2    1    2    0    0 -0.83464421929E+03 -0.69177123656E+03  0.49059921358E+03  0.13326200448E+04  0.60000848241E+03 0.  0.
         23    2    4    4    0    0 -0.56249623342E+03 -0.42512657941E+03  0.82391357458E+01  0.71106483792E+03  0.91709864396E+02 0.  0.
         23    2    4    4    0    0 -0.27214798587E+03 -0.26664465715E+03  0.48236007784E+03  0.62155520691E+03  0.92172290533E+02 0.  0.
          1    1    3    3  502    0  0.70219268789E+02  0.63572011572E+02 -0.11853844406E+03  0.15173499624E+03  0.00000000000E+00 0. -1.
         -1    1    3    3    0  502  0.76442495050E+03  0.62819922499E+03 -0.81799075010E+03  0.12837790458E+04  0.00000000000E+00 0.  1.
         13    1    5    5    0    0 -0.39177053972E+02 -0.60609734971E+02  0.12771978745E+02  0.73290551726E+02  0.00000000000E+00 0. -1.
        -13    1    5    5    0    0 -0.52331917945E+03 -0.36451684444E+03 -0.45328429989E+01  0.63777428619E+03  0.00000000000E+00 0.  1.
          3    1    6    6  503    0 -0.37017071820E+01 -0.84687231307E+01  0.50210859761E+02  0.51054405740E+02  0.00000000000E+00 0. -1.
         -3    1    6    6    0  503 -0.26844627869E+03 -0.25817593402E+03  0.43214921808E+03  0.57050080117E+03  0.00000000000E+00 0.  1.
<mgrwt>
<rscale>  0 0.10878871E+04</rscale>
<asrwt>0</asrwt>
<pdfrwt beam="1">  1        2 0.17863108E+00 0.10878871E+04</pdfrwt>
<pdfrwt beam="2">  1       -2 0.24723570E+00 0.10878871E+04</pdfrwt>
<totfact> 0.13165059E+00</totfact>
</mgrwt>
</event>
<event>
12    1  0.1418317E-007  0.3605979E+03  0.7818608E-02  0.1058347E+00
         -2   -1    0    0    0  501 -0.00000000000E+00  0.00000000000E+00  0.15610070362E+03  0.15610070362E+03  0.00000000000E+00 0.  1.
          2   -1    0    0  501    0  0.00000000000E+00 -0.00000000000E+00 -0.14511064236E+04  0.14511064236E+04  0.00000000000E+00 0. -1.
         23    2    1    2    0    0  0.40188400779E+01  0.23394824147E+03 -0.14871331427E+03  0.29238765362E+03  0.92881426481E+02 0.  0.
    5000000    2    1    2    0    0 -0.40188400779E+01 -0.23394824147E+03 -0.11462924057E+04  0.13148194736E+04  0.60001336486E+03 0.  0.
         23    2    4    4    0    0 -0.19886826882E+03 -0.15483334823E+03 -0.17538958278E+03  0.31724300200E+03  0.79747492132E+02 0.  0.
         23    2    4    4    0    0  0.19484942874E+03 -0.79114893235E+02 -0.97090282294E+03  0.99757647161E+03  0.91000323642E+02 0.  0.
          4    1    3    3  502    0 -0.81264366553E+01  0.10940052899E+03 -0.12267080411E+03  0.16456804337E+03  0.00000000000E+00 0. -1.
         -4    1    3    3    0  502  0.12145276733E+02  0.12454771247E+03 -0.26042510163E+02  0.12781961025E+03  0.00000000000E+00 0.  1.
         11    1    5    5    0    0 -0.14388786726E+03 -0.79748652356E+02 -0.14515245862E+03  0.21939189170E+03  0.00000000000E+00 0.  1.
        -11    1    5    5    0    0 -0.54980401561E+02 -0.75084695875E+02 -0.30237124158E+02  0.97851110305E+02  0.00000000000E+00 0. -1.
          1    1    6    6  503    0  0.40067822919E+02  0.20207314113E+02 -0.21357340710E+03  0.21823694966E+03  0.00000000000E+00 0. -1.
         -1    1    6    6    0  503  0.15478160582E+03 -0.99322207349E+02 -0.75732941584E+03  0.77933952195E+03  0.00000000000E+00 0.  1.
<mgrwt>
<rscale>  0 0.36059793E+03</rscale>
<asrwt>0</asrwt>
<pdfrwt beam="1">  1        2 0.22324714E+00 0.36059793E+03</pdfrwt>
<pdfrwt beam="2">  1       -2 0.24015493E-01 0.36059793E+03</pdfrwt>
<totfact> 0.21991200E+02</totfact>
</mgrwt>
</event>
<event>
12    1  0.1418317E-007  0.1921295E+04  0.7818608E-02  0.8644329E-01
         -2   -1    0    0    0  501 -0.00000000000E+00  0.00000000000E+00  0.14249287876E+04  0.14249287876E+04  0.00000000000E+00 0. -1.
          2   -1    0    0  501    0  0.00000000000E+00 -0.00000000000E+00 -0.29137027761E+04  0.29137027761E+04  0.00000000000E+00 0.  1.
         23    2    1    2    0    0  0.17557216630E+04 -0.69074342689E+03 -0.47074006727E+02  0.18895178088E+04  0.91523482164E+02 0.  0.
    5000000    2    1    2    0    0 -0.17557216630E+04  0.69074342689E+03 -0.14416999818E+04  0.24491137550E+04  0.59997858924E+03 0.  0.
         23    2    4    4    0    0 -0.38119439963E+03  0.38306558467E+03 -0.57279788254E+03  0.79182590168E+03  0.82718993402E+02 0.  0.
         23    2    4    4    0    0 -0.13745272634E+04  0.30767784222E+03 -0.86890209927E+03  0.16572878533E+04  0.87300161598E+02 0.  0.
          2    1    3    3  502    0  0.10446147143E+04 -0.36273732708E+03 -0.31771846746E+02  0.11062584328E+04  0.00000000000E+00 0. -1.
         -2    1    3    3    0  502  0.71110694868E+03 -0.32800609980E+03 -0.15302159981E+02  0.78325937599E+03  0.00000000000E+00 0.  1.
         13    1    5    5    0    0 -0.19480009519E+03  0.16246408319E+03 -0.31728845195E+03  0.40621868144E+03  0.00000000000E+00 0.  1.
        -13    1    5    5    0    0 -0.18639430444E+03  0.22060150148E+03 -0.25550943060E+03  0.38560722024E+03  0.00000000000E+00 0. -1.
          4    1    6    6  503    0 -0.59522994453E+03  0.89223668530E+02 -0.36544292437E+03  0.70413640785E+03  0.00000000000E+00 0. -1.
         -4    1    6    6    0  503 -0.77929731884E+03  0.21845417369E+03 -0.50345917491E+03  0.95315144544E+03  0.00000000000E+00 0.  1.
<mgrwt>
<rscale>  0 0.19212949E+04</rscale>
<asrwt>0</asrwt>
<pdfrwt beam="1">  1        2 0.44826196E+00 0.19212949E+04</pdfrwt>
<pdfrwt beam="2">  1       -2 0.21921982E+00 0.19212949E+04</pdfrwt>
<totfact> 0.17691703E-01</totfact>
</mgrwt>
</event>
<event>
12    1  0.1418317E-007  0.9619552E+03  0.7818608E-02  0.9351285E-01
          1   -1    0    0  501    0  0.00000000000E+00  0.00000000000E+00  0.26505455486E+03  0.26505455486E+03  0.00000000000E+00 0. -1.
         -1   -1    0    0    0  501 -0.00000000000E+00 -0.00000000000E+00 -0.40100392752E+04  0.40100392752E+04  0.00000000000E+00 0.  1.
         23    2    1    2    0    0 -0.86527355901E+03 -0.20057490403E+03 -0.10719562886E+04  0.13951219793E+04  0.91358788337E+02 0.  0.
    5000000    2    1    2    0    0  0.86527355901E+03  0.20057490403E+03 -0.26730284317E+04  0.28799718508E+04  0.60019017044E+03 0.  0.
         23    2    4    4    0    0  0.91347067296E+03  0.10801128738E+03 -0.21508176952E+04  0.23410376680E+04  0.91353687775E+02 0.  0.
         23    2    4    4    0    0 -0.48197113952E+02  0.92563616645E+02 -0.52221073645E+03  0.53893418280E+03  0.82795019174E+02 0.  0.
          4    1    3    3  502    0 -0.38610770187E+03 -0.12785241635E+03 -0.44869205906E+03  0.60559884550E+03  0.00000000000E+00 0. -1.
         -4    1    3    3    0  502 -0.47916585714E+03 -0.72722487681E+02 -0.62326422958E+03  0.78952313376E+03  0.00000000000E+00 0.  1.
         11    1    5    5    0    0  0.54132712034E+03  0.45998850325E+02 -0.13721380712E+04  0.14757756712E+04  0.00000000000E+00 0. -1.
        -11    1    5    5    0    0  0.37214355262E+03  0.62012437058E+02 -0.77867962407E+03  0.86526199677E+03  0.00000000000E+00 0.  1.
          1    1    6    6  503    0 -0.35480387296E+02  0.25431331028E+02 -0.36388867039E+03  0.36649771475E+03  0.00000000000E+00 0. -1.
         -1    1    6    6    0  503 -0.12716726656E+02  0.67132285618E+02 -0.15832206606E+03  0.17243646804E+03  0.00000000000E+00 0.  1.
<mgrwt>
<rscale>  0 0.96195523E+03</rscale>
<asrwt>0</asrwt>
<pdfrwt beam="1">  1        1 0.40777626E-01 0.96195523E+03</pdfrwt>
<pdfrwt beam="2">  1       -1 0.61692908E+00 0.96195523E+03</pdfrwt>
<totfact> 0.38835808E-02</totfact>
</mgrwt>
</event>
<event>
12    1  0.1418317E-007  0.1082448E+04  0.7818608E-02  0.9222470E-01
         -3   -1    0    0    0  501 -0.00000000000E+00  0.00000000000E+00  0.20112048766E+04  0.20112048766E+04  0.00000000000E+00 0.  1.
          3   -1    0    0  501    0  0.00000000000E+00 -0.00000000000E+00 -0.81034406669E+03  0.81034406669E+03  0.00000000000E+00 0. -1.
         23    2    1    2    0    0  0.52523366514E+03  0.86183107349E+03 -0.15802039275E+03  0.10256800723E+04  0.91793049892E+02 0.  0.
    5000000    2    1    2    0    0 -0.52523366514E+03 -0.86183107349E+03  0.13588812026E+04  0.17958688709E+04  0.59996972965E+03 0.  0.
         23    2    4    4    0    0 -0.17410313144E+02 -0.54405349899E+03  0.50737214978E+03  0.74977491460E+03  0.91861827906E+02 0.  0.
         23    2    4    4    0    0 -0.50782335200E+03 -0.31777757450E+03  0.85150905284E+03  0.10460939563E+04  0.10187126534E+03 0.  0.
          3    1    3    3  502    0  0.15834047713E+03  0.34234602433E+03 -0.47601408185E+02  0.38018206314E+03  0.00000000000E+00 0. -1.
         -3    1    3    3    0  502  0.36689318801E+03  0.51948504917E+03 -0.11041898456E+03  0.64549800919E+03  0.00000000000E+00 0.  1.
         11    1    5    5    0    0 -0.15435297054E+02 -0.36262246167E+03  0.39462976868E+03  0.53615851428E+03  0.00000000000E+00 0.  1.
        -11    1    5    5    0    0 -0.19750160892E+01 -0.18143103732E+03  0.11274238110E+03  0.21361640033E+03  0.00000000000E+00 0. -1.
          3    1    6    6  503    0 -0.12450996768E+03 -0.30166903581E+02  0.16590739101E+03  0.20961401794E+03  0.00000000000E+00 0. -1.
         -3    1    6    6    0  503 -0.38331338432E+03 -0.28761067092E+03  0.68560166182E+03  0.83647993838E+03  0.00000000000E+00 0.  1.
<mgrwt>
<rscale>  0 0.10824481E+04</rscale>
<asrwt>0</asrwt>
<pdfrwt beam="1">  1        3 0.12466832E+00 0.10824481E+04</pdfrwt>
<pdfrwt beam="2">  1       -3 0.30941614E+00 0.10824481E+04</pdfrwt>
<totfact> 0.43997764E-02</totfact>
</mgrwt>
</event>
<event>
12    1  0.1418317E-007  0.5681054E+03  0.7818608E-02  0.9973880E-01
          2   -1    0    0  501    0  0.00000000000E+00  0.00000000000E+00  0.39513004581E+04  0.39513004581E+04  0.00000000000E+00 0.  1.
         -2   -1    0    0    0  501 -0.00000000000E+00 -0.00000000000E+00 -0.10275362913E+03  0.10275362913E+03  0.00000000000E+00 0. -1.
         23    2    1    2    0    0 -0.43097742068E+02 -0.47642864146E+03  0.11609580630E+04  0.12590802600E+04  0.92832167509E+02 0.  0.
    5000000    2    1    2    0    0  0.43097742068E+02  0.47642864146E+03  0.26875887660E+04  0.27949738273E+04  0.59991970637E+03 0.  0.
         23    2    4    4    0    0  0.23107474217E+03  0.26672642509E+03  0.74464476790E+03  0.82948559215E+03  0.94931527490E+02 0.  0.
         23    2    4    4    0    0 -0.18797700010E+03  0.20970221636E+03  0.19429439981E+04  0.19654882351E+04  0.93820309240E+02 0.  0.
          3    1    3    3  502    0  0.19942052870E+02 -0.25758678230E+03  0.57279499536E+03  0.62836513477E+03  0.00000000000E+00 0. -1.
         -3    1    3    3    0  502 -0.63039794938E+02 -0.21884185916E+03  0.58816306760E+03  0.63071512520E+03  0.00000000000E+00 0.  1.
         13    1    5    5    0    0  0.10886384741E+03  0.10422102274E+03  0.42211803948E+03  0.44821534792E+03  0.00000000000E+00 0. -1.
        -13    1    5    5    0    0  0.12221089476E+03  0.16250540235E+03  0.32252672842E+03  0.38127024423E+03  0.00000000000E+00 0.  1.
          2    1    6    6  503    0 -0.56215158771E+02  0.13110505308E+03  0.10067935965E+04  0.10168490670E+04  0.00000000000E+00 0. -1.
         -2    1    6    6    0  503 -0.13176184133E+03  0.78597163281E+02  0.93615040161E+03  0.94863916814E+03  0.00000000000E+00 0.  1.
<mgrwt>
<rscale>  0 0.56810538E+03</rscale>
<asrwt>0</asrwt>
<pdfrwt beam="1">  1        2 0.60789226E+00 0.56810538E+03</pdfrwt>
<pdfrwt beam="2">  1       -2 0.15808254E-01 0.56810538E+03</pdfrwt>
<totfact> 0.13732081E+01</totfact>
</mgrwt>
</event>
<event>
12    1  0.1418317E-007  0.2227888E+04  0.7818608E-02  0.8506909E-01
          2   -1    0    0  501    0  0.00000000000E+00  0.00000000000E+00  0.44845441016E+04  0.44845441016E+04  0.00000000000E+00 0. -1.
         -2   -1    0    0    0  501 -0.00000000000E+00 -0.00000000000E+00 -0.12951289626E+04  0.12951289626E+04  0.00000000000E+00 0.  1.
         23    2    1    2    0    0  0.94271793932E+03 -0.20165701887E+04  0.25519034490E+04  0.33876576130E+04  0.93490379909E+02 0.  0.
    5000000    2    1    2    0    0 -0.94271793932E+03  0.20165701887E+04  0.63751169000E+03  0.23920154512E+04  0.60003693599E+03 0.  0.
         23    2    4    4    0    0 -0.44644959413E+03  0.95146386509E+03  0.61080741026E+01  0.10548617244E+04  0.89973454028E+02 0.  0.
         23    2    4    4    0    0 -0.49626834520E+03  0.10651063237E+04  0.63140361590E+03  0.13371537268E+04  0.92605678368E+02 0.  0.
          3    1    3    3  502    0  0.82455589983E+03 -0.17762261025E+04  0.22888331003E+04  0.30122464309E+04  0.00000000000E+00 0. -1.
         -3    1    3    3    0  502  0.11816203949E+03 -0.24034408622E+03  0.26307034863E+03  0.37541118215E+03  0.00000000000E+00 0.  1.
         13    1    5    5    0    0 -0.26097605410E+03  0.55287882364E+03 -0.40815390929E+02  0.61273925170E+03  0.00000000000E+00 0.  1.
        -13    1    5    5    0    0 -0.18547354003E+03  0.39858504145E+03  0.46923465032E+02  0.44212247272E+03  0.00000000000E+00 0. -1.
          1    1    6    6  503    0 -0.15663701519E+03  0.44322724459E+03  0.24795574066E+03  0.53147680495E+03  0.00000000000E+00 0. -1.
         -1    1    6    6    0  503 -0.33963133000E+03  0.62187907907E+03  0.38344787523E+03  0.80567692180E+03  0.00000000000E+00 0.  1.
<mgrwt>
<rscale>  0 0.22278879E+04</rscale>
<asrwt>0</asrwt>
<pdfrwt beam="1">  1        2 0.68992986E+00 0.22278879E+04</pdfrwt>
<pdfrwt beam="2">  1       -2 0.19925061E+00 0.22278879E+04</pdfrwt>
<totfact> 0.15026156E-02</totfact>
</mgrwt>
</event>
<event>
12    1  0.1418317E-007  0.5986603E+03  0.7818608E-02  0.9908189E-01
         -1   -1    0    0    0  501 -0.00000000000E+00  0.00000000000E+00  0.27149237047E+03  0.27149237047E+03  0.00000000000E+00 0.  1.
          1   -1    0    0  501    0  0.00000000000E+00 -0.00000000000E+00 -0.14628550146E+04  0.14628550146E+04  0.00000000000E+00 0. -1.
         23    2    1    2    0    0 -0.25922415063E+03  0.40006289321E+03 -0.56315384603E+03  0.74335233880E+03  0.90459750801E+02 0.  0.
    5000000    2    1    2    0    0  0.25922415063E+03 -0.40006289321E+03 -0.62820879810E+03  0.99099504626E+03  0.60014782255E+03 0.  0.
         23    2    4    4    0    0  0.12907985074E+03  0.12237562631E+03 -0.27633212431E+03  0.34118172353E+03  0.91695821950E+02 0.  0.
         23    2    4    4    0    0  0.13014429989E+03 -0.52243851952E+03 -0.35187667379E+03  0.64981332274E+03  0.92523593613E+02 0.  0.
          1    1    3    3  502    0 -0.14124458410E+03  0.20250837714E+03 -0.35920083425E+03  0.43587258996E+03  0.00000000000E+00 0. -1.
         -1    1    3    3    0  502 -0.11797956653E+03  0.19755451606E+03 -0.20395301178E+03  0.30747974885E+03  0.00000000000E+00 0.  1.
         13    1    5    5    0    0  0.81086447639E+02  0.95581536685E+02 -0.11268085016E+03  0.16854618399E+03  0.00000000000E+00 0. -1.
        -13    1    5    5    0    0  0.47993403101E+02  0.26794089624E+02 -0.16365127415E+03  0.17263553953E+03  0.00000000000E+00 0.  1.
          1    1    6    6  503    0  0.76884434580E+01 -0.96820555422E+02 -0.27811025325E+02  0.10102863577E+03  0.00000000000E+00 0. -1.
         -1    1    6    6    0  503  0.12245585644E+03 -0.42561796410E+03 -0.32406564847E+03  0.54878468697E+03  0.00000000000E+00 0.  1.
<mgrwt>
<rscale>  0 0.59866027E+03</rscale>
<asrwt>0</asrwt>
<pdfrwt beam="1">  1        1 0.22505462E+00 0.59866027E+03</pdfrwt>
<pdfrwt beam="2">  1       -1 0.41768057E-01 0.59866027E+03</pdfrwt>
<totfact> 0.40979860E+01</totfact>
</mgrwt>
</event>
<event>
12    1  0.1418317E-007  0.8121316E+03  0.7818608E-02  0.9542621E-01
          2   -1    0    0  501    0  0.00000000000E+00  0.00000000000E+00  0.78203479578E+03  0.78203479578E+03  0.00000000000E+00 0. -1.
         -2   -1    0    0    0  501 -0.00000000000E+00 -0.00000000000E+00 -0.11725647349E+04  0.11725647349E+04  0.00000000000E+00 0.  1.
         23    2    1    2    0    0  0.45622291944E+03 -0.56884092535E+03  0.29078888604E+03  0.79027606151E+03  0.90877536124E+02 0.  0.
    5000000    2    1    2    0    0 -0.45622291944E+03  0.56884092535E+03 -0.68131882514E+03  0.11643234691E+04  0.59977866646E+03 0.  0.
         23    2    4    4    0    0  0.48783986419E+02 -0.63634621162E+02 -0.14490519466E+03  0.18907263488E+03  0.91223371351E+02 0.  0.
         23    2    4    4    0    0 -0.50500690586E+03  0.63247554652E+03 -0.53641363048E+03  0.97525083427E+03  0.91199313960E+02 0.  0.
          4    1    3    3  502    0  0.10149636941E+03 -0.87660845646E+02  0.26712921672E+02  0.13674617745E+03  0.00000000000E+00 0. -1.
         -4    1    3    3    0  502  0.35472655003E+03 -0.48118007971E+03  0.26407596436E+03  0.65352988406E+03  0.00000000000E+00 0.  1.
         11    1    5    5    0    0  0.22305429808E+02 -0.18219759961E+02 -0.13177753941E+03  0.13488814531E+03  0.00000000000E+00 0.  1.
        -11    1    5    5    0    0  0.26478556611E+02 -0.45414861200E+02 -0.13127655250E+02  0.54184489574E+02  0.00000000000E+00 0. -1.
          1    1    6    6  503    0 -0.32471179798E+03  0.36646210940E+03 -0.27920998345E+03  0.56364035008E+03  0.00000000000E+00 0. -1.
         -1    1    6    6    0  503 -0.18029510788E+03  0.26601343712E+03 -0.25720364703E+03  0.41161048419E+03  0.00000000000E+00 0.  1.
<mgrwt>
<rscale>  0 0.81213165E+03</rscale>
<asrwt>0</asrwt>
<pdfrwt beam="1">  1        2 0.12031305E+00 0.81213165E+03</pdfrwt>
<pdfrwt beam="2">  1       -2 0.18039457E+00 0.81213165E+03</pdfrwt>
<totfact> 0.64701773E+00</totfact>
</mgrwt>
</event>
<event>
12    1  0.1435836E-007  0.9459963E+03  0.7818608E-02  0.9369843E-01
         -1   -1    0    0    0  501 -0.00000000000E+00  0.00000000000E+00  0.10088688906E+04  0.10088688906E+04  0.00000000000E+00 0.  1.
          1   -1    0    0  501    0  0.00000000000E+00 -0.00000000000E+00 -0.12066661586E+04  0.12066661586E+04  0.00000000000E+00 0. -1.
         23    2    1    2    0    0  0.16060373770E+02  0.87336897713E+03 -0.61995607078E+03  0.10747870673E+04  0.88263268274E+02 0.  0.
    5000000    2    1    2    0    0 -0.16060373770E+02 -0.87336897713E+03  0.42215880277E+03  0.11407479819E+04  0.60004716294E+03 0.  0.
         23    2    4    4    0    0 -0.14361548629E+02  0.67256291657E+02  0.32574133725E+02  0.11853370919E+03  0.90881808850E+02 0.  0.
         23    2    4    4    0    0 -0.16988251415E+01 -0.94062526879E+03  0.38958466904E+03  0.10222142728E+04  0.91471431557E+02 0.  0.
          1    1    3    3  502    0 -0.25178378546E+02  0.51920573702E+03 -0.39930392974E+03  0.65547858577E+03  0.00000000000E+00 0. -1.
         -1    1    3    3    0  502  0.41238752317E+02  0.35416324011E+03 -0.22065214104E+03  0.41930848153E+03  0.00000000000E+00 0.  1.
         11    1    5    5    0    0 -0.18048225527E+02  0.45133652105E+02 -0.26487754991E+02  0.55356898048E+02  0.00000000000E+00 0. -1.
        -11    1    5    5    0    0  0.36866768979E+01  0.22122639552E+02  0.59061888716E+02  0.63176811142E+02  0.00000000000E+00 0.  1.
          2    1    6    6  503    0 -0.40638368838E+02 -0.66267230100E+03  0.25886697615E+03  0.71259958383E+03  0.00000000000E+00 0. -1.
         -2    1    6    6    0  503  0.38939543697E+02 -0.27795296779E+03  0.13071769289E+03  0.30961468893E+03  0.00000000000E+00 0.  1.
<mgrwt>
<rscale>  0 0.94599634E+03</rscale>
<asrwt>0</asrwt>
<pdfrwt beam="1">  1        1 0.18564095E+00 0.94599634E+03</pdfrwt>
<pdfrwt beam="2">  1       -1 0.15521060E+00 0.94599634E+03</pdfrwt>
<totfact> 0.33948202E+00</totfact>
</mgrwt>
</event>
<event>
12    1  0.1418317E-007  0.1194070E+04  0.7818608E-02  0.9118063E-01
         -1   -1    0    0    0  501 -0.00000000000E+00  0.00000000000E+00  0.47853047763E+03  0.47853047763E+03  0.00000000000E+00 0.  1.
          1   -1    0    0  501    0  0.00000000000E+00 -0.00000000000E+00 -0.32042601768E+04  0.32042601768E+04  0.00000000000E+00 0. -1.
         23    2    1    2    0    0 -0.10835447348E+04  0.36957415395E+03 -0.97417560465E+03  0.15059509665E+04  0.90641918824E+02 0.  0.
    5000000    2    1    2    0    0  0.10835447348E+04 -0.36957415395E+03 -0.17515540945E+04  0.21768396879E+04  0.60002919369E+03 0.  0.
         23    2    4    4    0    0 -0.10008607553E+02 -0.57504786787E+02 -0.36628545192E+03  0.38217810283E+03  0.92130870323E+02 0.  0.
         23    2    4    4    0    0  0.10935533423E+04 -0.31206936716E+03 -0.13852686426E+04  0.17946615851E+04  0.92708092131E+02 0.  0.
          1    1    3    3  502    0 -0.66469674554E+03  0.24201178723E+03 -0.54653218791E+03  0.89391772614E+03  0.00000000000E+00 0. -1.
         -1    1    3    3    0  502 -0.41884798921E+03  0.12756236672E+03 -0.42764341673E+03  0.61203324039E+03  0.00000000000E+00 0.  1.
         13    1    5    5    0    0 -0.15901138355E+02  0.20710570177E+02 -0.51164938708E+02  0.57442361294E+02  0.00000000000E+00 0. -1.
        -13    1    5    5    0    0  0.58925308024E+01 -0.78215356964E+02 -0.31512051321E+03  0.32473574153E+03  0.00000000000E+00 0.  1.
          3    1    6    6  503    0  0.65706384784E+03 -0.16132011709E+03 -0.76307164279E+03  0.10198212649E+04  0.00000000000E+00 0. -1.
         -3    1    6    6    0  503  0.43648949446E+03 -0.15074925007E+03 -0.62219699981E+03  0.77484032016E+03  0.00000000000E+00 0.  1.
<mgrwt>
<rscale>  0 0.11940697E+04</rscale>
<asrwt>0</asrwt>
<pdfrwt beam="1">  1        1 0.49296309E+00 0.11940697E+04</pdfrwt>
<pdfrwt beam="2">  1       -1 0.73620075E-01 0.11940697E+04</pdfrwt>
<totfact> 0.78617520E-01</totfact>
</mgrwt>
</event>
<event>
12    1  0.1418317E-007  0.6949947E+03  0.7818608E-02  0.9725830E-01
         -2   -1    0    0    0  501 -0.00000000000E+00  0.00000000000E+00  0.14642254387E+04  0.14642254387E+04  0.00000000000E+00 0. -1.
          2   -1    0    0  501    0  0.00000000000E+00 -0.00000000000E+00 -0.79717957431E+03  0.79717957431E+03  0.00000000000E+00 0.  1.
         23    2    1    2    0    0 -0.52338749784E+02  0.56464202542E+03  0.11631882527E+04  0.12982655870E+04  0.10453067233E+03 0.  0.
    5000000    2    1    2    0    0  0.52338749784E+02 -0.56464202542E+03 -0.49614238835E+03  0.96313942601E+03  0.59993359867E+03 0.  0.
         23    2    4    4    0    0  0.30952449397E+03 -0.27353019826E+03 -0.20584635148E+03  0.47019068846E+03  0.89902065478E+02 0.  0.
         23    2    4    4    0    0 -0.25718574418E+03 -0.29111182716E+03 -0.29029603687E+03  0.49294873755E+03  0.88521556127E+02 0.  0.
          4    1    3    3  502    0 -0.75048478834E+02  0.25293676230E+03  0.51347817211E+03  0.57729465019E+03  0.00000000000E+00 0.  1.
         -4    1    3    3    0  502  0.22709729050E+02  0.31170526312E+03  0.64971008063E+03  0.72097093680E+03  0.00000000000E+00 0. -1.
         13    1    5    5    0    0  0.23753580277E+03 -0.16457102649E+03 -0.16783333853E+03  0.33417796139E+03  0.00000000000E+00 0. -1.
        -13    1    5    5    0    0  0.71988691197E+02 -0.10895917177E+03 -0.38013012950E+02  0.13601272707E+03  0.00000000000E+00 0.  1.
          3    1    6    6  503    0 -0.12097969024E+03 -0.88412840693E+02 -0.75848760925E+02  0.16794627231E+03  0.00000000000E+00 0. -1.
         -3    1    6    6    0  503 -0.13620605395E+03 -0.20269898647E+03 -0.21444727595E+03  0.32500246523E+03  0.00000000000E+00 0.  1.
<mgrwt>
<rscale>  0 0.69499469E+03</rscale>
<asrwt>0</asrwt>
<pdfrwt beam="1">  1        2 0.12264301E+00 0.69499469E+03</pdfrwt>
<pdfrwt beam="2">  1       -2 0.22526545E+00 0.69499469E+03</pdfrwt>
<totfact> 0.32792877E+00</totfact>
</mgrwt>
</event>
<event>
12    1  0.1418317E-007  0.3742845E+03  0.7818608E-02  0.1053067E+00
         -1   -1    0    0    0  501 -0.00000000000E+00  0.00000000000E+00  0.43912931193E+03  0.43912931193E+03  0.00000000000E+00 0.  1.
          1   -1    0    0  501    0  0.00000000000E+00 -0.00000000000E+00 -0.10414139090E+04  0.10414139090E+04  0.00000000000E+00 0. -1.
         23    2    1    2    0    0  0.11884931484E+03  0.13738315055E+03  0.31230902205E+03  0.37171802441E+03  0.87396079560E+02 0.  0.
    5000000    2    1    2    0    0 -0.11884931484E+03 -0.13738315055E+03 -0.91459361912E+03  0.11088251965E+04  0.60001044877E+03 0.  0.
         23    2    4    4    0    0 -0.30602411059E+03 -0.26202854184E+02 -0.76552557060E+03  0.82948581244E+03  0.87635426396E+02 0.  0.
         23    2    4    4    0    0  0.18717479576E+03 -0.11118029637E+03 -0.14906804852E+03  0.27933938409E+03  0.91726473532E+02 0.  0.
          1    1    3    3  502    0  0.54284112435E+02  0.88009885485E+01  0.60953600425E+02  0.82094845557E+02  0.00000000000E+00 0. -1.
         -1    1    3    3    0  502  0.64565202401E+02  0.12858216200E+03  0.25135542162E+03  0.28962317885E+03  0.00000000000E+00 0.  1.
         11    1    5    5    0    0 -0.73103140247E+02 -0.37416357442E+02 -0.26232487288E+03  0.27487886759E+03  0.00000000000E+00 0.  1.
        -11    1    5    5    0    0 -0.23292097035E+03  0.11213503257E+02 -0.50320069773E+03  0.55460694485E+03  0.00000000000E+00 0. -1.
          3    1    6    6  503    0  0.15198133844E+03 -0.43478307629E+02 -0.11653605089E+03  0.19639078804E+03  0.00000000000E+00 0. -1.
         -3    1    6    6    0  503  0.35193457315E+02 -0.67701988740E+02 -0.32531997625E+02  0.82948596050E+02  0.00000000000E+00 0.  1.
<mgrwt>
<rscale>  0 0.37428447E+03</rscale>
<asrwt>0</asrwt>
<pdfrwt beam="1">  1        1 0.16021752E+00 0.37428447E+03</pdfrwt>
<pdfrwt beam="2">  1       -1 0.67558356E-01 0.37428447E+03</pdfrwt>
<totfact> 0.33933598E+01</totfact>
</mgrwt>
</event>
<event>
12    1  0.1418317E-007  0.2012821E+04  0.7818608E-02  0.8600650E-01
         -1   -1    0    0    0  501 -0.00000000000E+00  0.00000000000E+00  0.23334474719E+04  0.23334474719E+04  0.00000000000E+00 0.  1.
          1   -1    0    0  501    0  0.00000000000E+00 -0.00000000000E+00 -0.21313434861E+04  0.21313434861E+04  0.00000000000E+00 0. -1.
         23    2    1    2    0    0  0.15870974547E+04 -0.12288249953E+04 -0.77428220605E+03  0.21535733128E+04  0.97344127654E+02 0.  0.
    5000000    2    1    2    0    0 -0.15870974547E+04  0.12288249953E+04  0.97638619185E+03  0.23112176453E+04  0.59958970020E+03 0.  0.
         23    2    4    4    0    0 -0.13230135273E+04  0.94455027997E+03  0.10018278463E+04  0.19117477399E+04  0.92630246752E+02 0.  0.
         23    2    4    4    0    0 -0.26408392741E+03  0.28427471534E+03 -0.25441654432E+02  0.39946990543E+03  0.91523183201E+02 0.  0.
          4    1    3    3  502    0  0.40764663176E+03 -0.35307012437E+03 -0.24176694852E+03  0.59100384644E+03  0.00000000000E+00 0. -1.
         -4    1    3    3    0  502  0.11794508229E+04 -0.87575487094E+03 -0.53251525753E+03  0.15625694664E+04  0.00000000000E+00 0.  1.
         13    1    5    5    0    0 -0.59058647599E+03  0.43617838004E+03  0.50488560005E+03  0.89104064665E+03  0.00000000000E+00 0. -1.
        -13    1    5    5    0    0 -0.73242705129E+03  0.50837189992E+03  0.49694224623E+03  0.10207070932E+04  0.00000000000E+00 0.  1.
          3    1    6    6  503    0 -0.59167978597E+02  0.34536783481E+02 -0.33629225899E+02  0.76318830829E+02  0.00000000000E+00 0. -1.
         -3    1    6    6    0  503 -0.20491594882E+03  0.24973793186E+03  0.81875714674E+01  0.32315107460E+03  0.00000000000E+00 0.  1.
<mgrwt>
<rscale>  0 0.20128208E+04</rscale>
<asrwt>0</asrwt>
<pdfrwt beam="1">  1        1 0.32789900E+00 0.20128208E+04</pdfrwt>
<pdfrwt beam="2">  1       -1 0.35899192E+00 0.20128208E+04</pdfrwt>
<totfact> 0.29131192E-02</totfact>
</mgrwt>
</event>
<event>
12    1  0.1418317E-007  0.4422605E+03  0.7818608E-02  0.1030056E+00
         -2   -1    0    0    0  501 -0.00000000000E+00  0.00000000000E+00  0.36150084774E+03  0.36150084774E+03  0.00000000000E+00 0.  1.
          2   -1    0    0  501    0  0.00000000000E+00 -0.00000000000E+00 -0.68999208059E+03  0.68999208059E+03  0.00000000000E+00 0. -1.
         23    2    1    2    0    0 -0.27623640520E+03 -0.75998603910E+02 -0.23361635407E+03  0.37987915649E+03  0.87459895347E+02 0.  0.
    5000000    2    1    2    0    0  0.27623640520E+03  0.75998603910E+02 -0.94874878778E+02  0.67161377184E+03  0.59998456359E+03 0.  0.
         23    2    4    4    0    0  0.42704193749E+03  0.72425483552E+02 -0.17786151540E+03  0.47711389130E+03  0.91611568954E+02 0.  0.
         23    2    4    4    0    0 -0.15080553229E+03  0.35731203578E+01  0.82986636624E+02  0.19449988054E+03  0.90489479570E+02 0.  0.
          4    1    3    3  502    0 -0.69825321020E+02  0.75219318324E+01 -0.92958843360E+02  0.11650537100E+03  0.00000000000E+00 0. -1.
         -4    1    3    3    0  502 -0.20641108418E+03 -0.83520535742E+02 -0.14065751071E+03  0.26337378549E+03  0.00000000000E+00 0.  1.
         13    1    5    5    0    0  0.28746027732E+03  0.52326298262E+02 -0.72401509145E+02  0.30102064888E+03  0.00000000000E+00 0. -1.
        -13    1    5    5    0    0  0.13958166017E+03  0.20099185290E+02 -0.10546000626E+03  0.17609324242E+03  0.00000000000E+00 0.  1.
          4    1    6    6  503    0 -0.77019011715E+02 -0.22372639525E+02  0.84187277340E+02  0.11627536640E+03  0.00000000000E+00 0. -1.
         -4    1    6    6    0  503 -0.73786520579E+02  0.25945759882E+02 -0.12006407155E+01  0.78224514144E+02  0.00000000000E+00 0.  1.
<mgrwt>
<rscale>  0 0.44226045E+03</rscale>
<asrwt>0</asrwt>
<pdfrwt beam="1">  1        2 0.10615263E+00 0.44226045E+03</pdfrwt>
<pdfrwt beam="2">  1       -2 0.55615515E-01 0.44226045E+03</pdfrwt>
<totfact> 0.13101611E+02</totfact>
</mgrwt>
</event>
<event>
12    1  0.1418317E-007  0.2884336E+03  0.7818608E-02  0.1091170E+00
         -1   -1    0    0    0  501 -0.00000000000E+00  0.00000000000E+00  0.21922289162E+03  0.21922289162E+03  0.00000000000E+00 0.  1.
          1   -1    0    0  501    0  0.00000000000E+00 -0.00000000000E+00 -0.10179954313E+04  0.10179954313E+04  0.00000000000E+00 0. -1.
         23    2    1    2    0    0 -0.20488219921E+03  0.89186053492E+02 -0.41284789765E+02  0.24542417304E+03  0.92723908224E+02 0.  0.
    5000000    2    1    2    0    0  0.20488219921E+03 -0.89186053492E+02 -0.75748774994E+03  0.99179414991E+03  0.59994756170E+03 0.  0.
         23    2    4    4    0    0 -0.55626307274E+02  0.21304037915E+02 -0.67337775183E+03  0.68254661789E+03  0.94255720454E+02 0.  0.
         23    2    4    4    0    0  0.26050850648E+03 -0.11049009141E+03 -0.84109998110E+02  0.30924753202E+03  0.92123840726E+02 0.  0.
          3    1    3    3  502    0 -0.11318411882E+03  0.53806157357E+02 -0.69320832988E+02  0.14321705628E+03  0.00000000000E+00 0. -1.
         -3    1    3    3    0  502 -0.91698080384E+02  0.35379896134E+02  0.28036043222E+02  0.10220711676E+03  0.00000000000E+00 0.  1.
         13    1    5    5    0    0 -0.45407990511E+02  0.15665334142E+02 -0.66795076149E+03  0.66967567380E+03  0.00000000000E+00 0.  1.
        -13    1    5    5    0    0 -0.10218316763E+02  0.56387037731E+01 -0.54269903388E+01  0.12870944093E+02  0.00000000000E+00 0. -1.
          1    1    6    6  503    0  0.49525967928E+02 -0.57750395685E+02 -0.10556942490E-01  0.76078445124E+02  0.00000000000E+00 0. -1.
         -1    1    6    6    0  503  0.21098253855E+03 -0.52739695721E+02 -0.84099441168E+02  0.23316908690E+03  0.00000000000E+00 0.  1.
<mgrwt>
<rscale>  0 0.28843360E+03</rscale>
<asrwt>0</asrwt>
<pdfrwt beam="1">  1        1 0.15661468E+00 0.28843360E+03</pdfrwt>
<pdfrwt beam="2">  1       -1 0.33726599E-01 0.28843360E+03</pdfrwt>
<totfact> 0.13042616E+02</totfact>
</mgrwt>
</event>
<event>
12    1  0.1418317E-007  0.7509127E+03  0.7818608E-02  0.9633920E-01
          1   -1    0    0  501    0  0.00000000000E+00  0.00000000000E+00  0.27310618732E+04  0.27310618732E+04  0.00000000000E+00 0. -1.
         -1   -1    0    0    0  501 -0.00000000000E+00 -0.00000000000E+00 -0.27739615710E+03  0.27739615710E+03  0.00000000000E+00 0.  1.
         23    2    1    2    0    0 -0.32366901884E+03 -0.62532681868E+03  0.15965185622E+04  0.17473071368E+04  0.91735744299E+02 0.  0.
    5000000    2    1    2    0    0  0.32366901884E+03  0.62532681868E+03  0.85714715390E+03  0.12611508936E+04  0.60000422410E+03 0.  0.
         23    2    4    4    0    0 -0.29325334101E+02  0.31863442613E+03  0.66564427970E+02  0.33815546183E+03  0.86777995810E+02 0.  0.
         23    2    4    4    0    0  0.35299435294E+03  0.30669239256E+03  0.79058272593E+03  0.92299543173E+03  0.90742953351E+02 0.  0.
          1    1    3    3  502    0 -0.28910655749E+03 -0.50944593959E+03  0.12538693233E+04  0.13839458251E+04  0.00000000000E+00 0. -1.
         -1    1    3    3    0  502 -0.34562461344E+02 -0.11588087910E+03  0.34264923894E+03  0.36336131167E+03  0.00000000000E+00 0.  1.
         11    1    5    5    0    0 -0.20363539712E+02  0.57840660919E+02 -0.17897552639E+02  0.63879090442E+02  0.00000000000E+00 0.  1.
        -11    1    5    5    0    0 -0.89617943890E+01  0.26079376521E+03  0.84461980609E+02  0.27427637138E+03  0.00000000000E+00 0. -1.
          4    1    6    6  503    0  0.25737889115E+03  0.17969440195E+03  0.47034241024E+03  0.56546967608E+03  0.00000000000E+00 0.  1.
         -4    1    6    6    0  503  0.95615461795E+02  0.12699799061E+03  0.32024031570E+03  0.35752575564E+03  0.00000000000E+00 0. -1.
<mgrwt>
<rscale>  0 0.75091268E+03</rscale>
<asrwt>0</asrwt>
<pdfrwt beam="1">  1        1 0.42016335E+00 0.75091268E+03</pdfrwt>
<pdfrwt beam="2">  1       -1 0.42676334E-01 0.75091268E+03</pdfrwt>
<totfact> 0.53565023E+00</totfact>
</mgrwt>
</event>
<event>
12    1  0.1418317E-007  0.1048180E+04  0.7818608E-02  0.9257225E-01
          1   -1    0    0  501    0  0.00000000000E+00  0.00000000000E+00  0.48407021806E+03  0.48407021806E+03  0.00000000000E+00 0. -1.
         -1   -1    0    0    0  501 -0.00000000000E+00 -0.00000000000E+00 -0.33567423674E+04  0.33567423674E+04  0.00000000000E+00 0.  1.
         23    2    1    2    0    0 -0.85715644663E+03 -0.44573344903E+03 -0.28056294580E+03  0.10101685272E+04  0.91265575580E+02 0.  0.
    5000000    2    1    2    0    0  0.85715644663E+03  0.44573344903E+03 -0.25921092035E+04  0.28306440582E+04  0.60010014134E+03 0.  0.
         23    2    4    4    0    0 -0.57533551268E+02 -0.18549939740E+02 -0.25032249301E+03  0.27249722761E+03  0.89102069336E+02 0.  0.
         23    2    4    4    0    0  0.91468999790E+03  0.46428338877E+03 -0.23417867105E+04  0.25581468306E+04  0.89069366187E+02 0.  0.
          2    1    3    3  502    0 -0.62232912349E+03 -0.36093606012E+03 -0.18492707780E+03  0.74280980173E+03  0.00000000000E+00 0. -1.
         -2    1    3    3    0  502 -0.23482732314E+03 -0.84797388904E+02 -0.95635867996E+02  0.26735872551E+03  0.00000000000E+00 0.  1.
         13    1    5    5    0    0 -0.38561235320E+02  0.27855484674E+02 -0.65216760581E+02  0.80722504647E+02  0.00000000000E+00 0.  1.
        -13    1    5    5    0    0 -0.18972315948E+02 -0.46405424414E+02 -0.18510573243E+03  0.19177472296E+03  0.00000000000E+00 0. -1.
          4    1    6    6  503    0  0.44290655990E+03  0.17546583246E+03 -0.10984946441E+04  0.11973491397E+04  0.00000000000E+00 0. -1.
         -4    1    6    6    0  503  0.47178343800E+03  0.28881755631E+03 -0.12432920664E+04  0.13607976909E+04  0.00000000000E+00 0.  1.
<mgrwt>
<rscale>  0 0.10481803E+04</rscale>
<asrwt>0</asrwt>
<pdfrwt beam="1">  1        1 0.74472342E-01 0.10481803E+04</pdfrwt>
<pdfrwt beam="2">  1       -1 0.51642190E+00 0.10481803E+04</pdfrwt>
<totfact> 0.54740022E-02</totfact>
</mgrwt>
</event>
<event>
12    1  0.1418317E-007  0.8437375E+03  0.7818608E-02  0.9498781E-01
          2   -1    0    0  501    0  0.00000000000E+00  0.00000000000E+00  0.25810224204E+04  0.25810224204E+04  0.00000000000E+00 0. -1.
         -2   -1    0    0    0  501 -0.00000000000E+00 -0.00000000000E+00 -0.32036371452E+03  0.32036371452E+03  0.00000000000E+00 0.  1.
         23    2    1    2    0    0 -0.41460437002E+03 -0.69250548194E+03  0.10393216132E+04  0.13192175584E+04  0.93192942895E+02 0.  0.
    5000000    2    1    2    0    0  0.41460437002E+03  0.69250548194E+03  0.12213370926E+04  0.15821685764E+04  0.60011039345E+03 0.  0.
         23    2    4    4    0    0  0.36727102819E+03  0.67131060434E+03  0.67105685903E+03  0.10218415481E+04  0.91087352389E+02 0.  0.
         23    2    4    4    0    0  0.47333341825E+02  0.21194877601E+02  0.55028023358E+03  0.56032702832E+03  0.92023774710E+02 0.  0.
          4    1    3    3  502    0 -0.33721330870E+03 -0.62298173147E+03  0.90045522901E+03  0.11457044439E+04  0.00000000000E+00 0. -1.
         -4    1    3    3    0  502 -0.77391061318E+02 -0.69523750467E+02  0.13886638423E+03  0.17351311455E+03  0.00000000000E+00 0.  1.
         13    1    5    5    0    0  0.28603704660E+02  0.11531591526E+03  0.12068556585E+03  0.16935447451E+03  0.00000000000E+00 0. -1.
        -13    1    5    5    0    0  0.33866732353E+03  0.55599468908E+03  0.55037129318E+03  0.85248707361E+03  0.00000000000E+00 0.  1.
          2    1    6    6  503    0  0.23627583315E+02  0.57327346844E+02  0.29958854087E+03  0.30593787148E+03  0.00000000000E+00 0. -1.
         -2    1    6    6    0  503  0.23705758510E+02 -0.36132469243E+02  0.25069169271E+03  0.25438915684E+03  0.00000000000E+00 0.  1.
<mgrwt>
<rscale>  0 0.84373747E+03</rscale>
<asrwt>0</asrwt>
<pdfrwt beam="1">  1        2 0.39708036E+00 0.84373747E+03</pdfrwt>
<pdfrwt beam="2">  1       -2 0.49286727E-01 0.84373747E+03</pdfrwt>
<totfact> 0.12591668E+01</totfact>
</mgrwt>
</event>
<event>
12    1  0.1418317E-007  0.8935234E+03  0.7818608E-02  0.9433714E-01
          1   -1    0    0  501    0  0.00000000000E+00  0.00000000000E+00  0.18667144192E+04  0.18667144192E+04  0.00000000000E+00 0. -1.
         -1   -1    0    0    0  501 -0.00000000000E+00 -0.00000000000E+00 -0.64524622040E+03  0.64524622040E+03  0.00000000000E+00 0.  1.
         23    2    1    2    0    0  0.82308851545E+03  0.16977631422E+03  0.12147257548E+04  0.14798903946E+04  0.90654396123E+02 0.  0.
    5000000    2    1    2    0    0 -0.82308851545E+03 -0.16977631422E+03  0.67424440277E+01  0.10320702450E+04  0.59901989030E+03 0.  0.
         23    2    4    4    0    0 -0.55564502872E+03  0.89724304564E+02 -0.18953180820E+03  0.60075976550E+03  0.90543584822E+02 0.  0.
         23    2    4    4    0    0 -0.26744348673E+03 -0.25950061879E+03  0.19627425223E+03  0.43131047953E+03  0.92943842810E+02 0.  0.
          2    1    3    3  502    0  0.15133897111E+03 -0.84084465679E+00  0.19272879863E+03  0.24504811980E+03  0.00000000000E+00 0. -1.
         -2    1    3    3    0  502  0.67174954434E+03  0.17061715888E+03  0.10219969562E+04  0.12348422748E+04  0.00000000000E+00 0.  1.
         13    1    5    5    0    0 -0.59785425157E+02  0.37637038324E+02 -0.34535809193E+02  0.78635652421E+02  0.00000000000E+00 0.  1.
        -13    1    5    5    0    0 -0.49585960356E+03  0.52087266240E+02 -0.15499599901E+03  0.52212411308E+03  0.00000000000E+00 0. -1.
          1    1    6    6  503    0 -0.74871445685E+02 -0.58351181773E+02  0.96883708956E+02  0.13563571379E+03  0.00000000000E+00 0. -1.
         -1    1    6    6    0  503 -0.19257204105E+03 -0.20114943701E+03  0.99390543272E+02  0.29567476574E+03  0.00000000000E+00 0.  1.
<mgrwt>
<rscale>  0 0.89352339E+03</rscale>
<asrwt>0</asrwt>
<pdfrwt beam="1">  1        1 0.28718683E+00 0.89352339E+03</pdfrwt>
<pdfrwt beam="2">  1       -1 0.99268650E-01 0.89352339E+03</pdfrwt>
<totfact> 0.36451779E+00</totfact>
</mgrwt>
</event>
<event>
12    1  0.1418317E-007  0.3992176E+03  0.7818608E-02  0.1044051E+00
          2   -1    0    0  501    0  0.00000000000E+00  0.00000000000E+00  0.54439472936E+03  0.54439472936E+03  0.00000000000E+00 0.  1.
         -2   -1    0    0    0  501 -0.00000000000E+00 -0.00000000000E+00 -0.37151619076E+03  0.37151619076E+03  0.00000000000E+00 0. -1.
         23    2    1    2    0    0 -0.69201372083E+02 -0.16477023157E+03  0.20740354660E+03  0.28890512065E+03  0.92259842204E+02 0.  0.
    5000000    2    1    2    0    0  0.69201372083E+02  0.16477023157E+03 -0.34525008010E+02  0.62700579947E+03  0.60000519772E+03 0.  0.
         23    2    4    4    0    0  0.18703461832E+03 -0.16316890827E+03 -0.99594562143E+01  0.26611319157E+03  0.95451552532E+02 0.  0.
         23    2    4    4    0    0 -0.11783324624E+03  0.32793913984E+03 -0.24565551795E+02  0.36089260791E+03  0.90615974032E+02 0.  0.
          1    1    3    3  502    0 -0.46584762199E+02 -0.71765728189E+02  0.36491324694E+02  0.93016539333E+02  0.00000000000E+00 0. -1.
         -1    1    3    3    0  502 -0.22616609885E+02 -0.93004503380E+02  0.17091222191E+03  0.19588858131E+03  0.00000000000E+00 0.  1.
         11    1    5    5    0    0  0.13343141972E+03 -0.55303473570E+02 -0.17125504665E+02  0.14544999439E+03  0.00000000000E+00 0.  1.
        -11    1    5    5    0    0  0.53603198606E+02 -0.10786543470E+03  0.71660484512E+01  0.12066319718E+03  0.00000000000E+00 0. -1.
          3    1    6    6  503    0 -0.78961768431E+02  0.27794968674E+03  0.92681404791E+01  0.28909667529E+03  0.00000000000E+00 0. -1.
         -3    1    6    6    0  503 -0.38871477810E+02  0.49989453095E+02 -0.33833692274E+02  0.71795932620E+02  0.00000000000E+00 0.  1.
<mgrwt>
<rscale>  0 0.39921763E+03</rscale>
<asrwt>0</asrwt>
<pdfrwt beam="1">  1        2 0.83753036E-01 0.39921763E+03</pdfrwt>
<pdfrwt beam="2">  1       -2 0.57156337E-01 0.39921763E+03</pdfrwt>
<totfact> 0.16491215E+02</totfact>
</mgrwt>
</event>
<event>
12    1  0.1418317E-007  0.7131104E+03  0.7818608E-02  0.9695071E-01
          1   -1    0    0  501    0  0.00000000000E+00  0.00000000000E+00  0.27226837625E+04  0.27226837625E+04  0.00000000000E+00 0. -1.
         -1   -1    0    0    0  501 -0.00000000000E+00 -0.00000000000E+00 -0.21842388293E+03  0.21842388293E+03  0.00000000000E+00 0.  1.
         23    2    1    2    0    0  0.22831395451E+03  0.57160417641E+03  0.14698430217E+04  0.15962532739E+04  0.93420606261E+02 0.  0.
    5000000    2    1    2    0    0 -0.22831395451E+03 -0.57160417641E+03  0.10344168578E+04  0.13448543714E+04  0.59979700600E+03 0.  0.
         23    2    4    4    0    0 -0.35027856101E+03 -0.57188175687E+03  0.67701368436E+03  0.95677232638E+03  0.85568344471E+02 0.  0.
         23    2    4    4    0    0  0.12196460651E+03  0.27758045813E+00  0.35740317344E+03  0.38808204507E+03  0.89415899199E+02 0.  0.
          4    1    3    3  502    0  0.36897461101E+02  0.18185957902E+03  0.51185652463E+03  0.54445516888E+03  0.00000000000E+00 0. -1.
         -4    1    3    3    0  502  0.19141649341E+03  0.38974459739E+03  0.95798649710E+03  0.10517981050E+04  0.00000000000E+00 0.  1.
         11    1    5    5    0    0 -0.22289752367E+03 -0.43664904941E+03  0.49540406430E+03  0.69697265752E+03  0.00000000000E+00 0.  1.
        -11    1    5    5    0    0 -0.12738103735E+03 -0.13523270746E+03  0.18160962005E+03  0.25979966886E+03  0.00000000000E+00 0. -1.
          3    1    6    6  503    0  0.25177406392E+02  0.19363105494E+02  0.22428172881E+02  0.38882574321E+02  0.00000000000E+00 0. -1.
         -3    1    6    6    0  503  0.96787200113E+02 -0.19085525036E+02  0.33497500056E+03  0.34919947075E+03  0.00000000000E+00 0.  1.
<mgrwt>
<rscale>  0 0.71311041E+03</rscale>
<asrwt>0</asrwt>
<pdfrwt beam="1">  1        1 0.41887440E+00 0.71311041E+03</pdfrwt>
<pdfrwt beam="2">  1       -1 0.33603676E-01 0.71311041E+03</pdfrwt>
<totfact> 0.84094950E+00</totfact>
</mgrwt>
</event>
<event>
12    1  0.1418317E-007  0.7099595E+03  0.7818608E-02  0.9700350E-01
         -2   -1    0    0    0  501 -0.00000000000E+00  0.00000000000E+00  0.19694795816E+03  0.19694795816E+03  0.00000000000E+00 0. -1.
          2   -1    0    0  501    0  0.00000000000E+00 -0.00000000000E+00 -0.39406618571E+04  0.39406618571E+04  0.00000000000E+00 0.  1.
         23    2    1    2    0    0 -0.31986027453E+03  0.56493533795E+03 -0.66262698791E+03  0.93218770738E+03  0.91852410899E+02 0.  0.
    5000000    2    1    2    0    0  0.31986027453E+03 -0.56493533795E+03 -0.30810869110E+04  0.32054221079E+04  0.60014315388E+03 0.  0.
         23    2    4    4    0    0 -0.37305428507E+02  0.73337191208E+01 -0.12043662160E+04  0.12090350952E+04  0.99108025053E+02 0.  0.
         23    2    4    4    0    0  0.35716570304E+03 -0.57226905708E+03 -0.18767206950E+04  0.19963870127E+04  0.91767774146E+02 0.  0.
          4    1    3    3  502    0 -0.92705326885E+02  0.12947314810E+03 -0.11404720955E+03  0.19586816923E+03  0.00000000000E+00 0.  1.
         -4    1    3    3    0  502 -0.22715494764E+03  0.43546218986E+03 -0.54857977836E+03  0.73631953815E+03  0.00000000000E+00 0. -1.
         13    1    5    5    0    0 -0.40539264638E+02 -0.33211908835E+02 -0.94936166884E+03  0.95080704726E+03  0.00000000000E+00 0. -1.
        -13    1    5    5    0    0  0.32338361303E+01  0.40545627955E+02 -0.25500454718E+03  0.25822804791E+03  0.00000000000E+00 0.  1.
          2    1    6    6  503    0  0.61267614068E+02 -0.13759388979E+03 -0.33054106942E+03  0.36323986237E+03  0.00000000000E+00 0.  1.
         -2    1    6    6    0  503  0.29589808897E+03 -0.43467516728E+03 -0.15461796256E+04  0.16331471503E+04  0.00000000000E+00 0. -1.
<mgrwt>
<rscale>  0 0.70995952E+03</rscale>
<asrwt>0</asrwt>
<pdfrwt beam="1">  1        2 0.60625562E+00 0.70995952E+03</pdfrwt>
<pdfrwt beam="2">  1       -2 0.30299688E-01 0.70995952E+03</pdfrwt>
<totfact> 0.42741224E+00</totfact>
</mgrwt>
</event>
<event>
12    1  0.1418317E-007  0.1605676E+04  0.7818608E-02  0.8817068E-01
          1   -1    0    0  501    0  0.00000000000E+00  0.00000000000E+00  0.20894750145E+04  0.20894750145E+04  0.00000000000E+00 0. -1.
         -1   -1    0    0    0  501 -0.00000000000E+00 -0.00000000000E+00 -0.13009934104E+04  0.13009934104E+04  0.00000000000E+00 0.  1.
         23    2    1    2    0    0  0.17903950712E+03 -0.15722281222E+04  0.19446440084E+03  0.15969196869E+04  0.91540535982E+02 0.  0.
    5000000    2    1    2    0    0 -0.17903950712E+03  0.15722281222E+04  0.59401720326E+03  0.17935487381E+04  0.60000352079E+03 0.  0.
         23    2    4    4    0    0  0.10682209241E+03  0.74028820605E+03  0.50711154898E+02  0.75555258797E+03  0.94077120064E+02 0.  0.
         23    2    4    4    0    0 -0.28586159953E+03  0.83193991615E+03  0.54330604836E+03  0.10379961502E+04  0.91726045386E+02 0.  0.
          2    1    3    3  502    0  0.82569613600E+02 -0.70819795312E+03  0.41805742294E+02  0.71421971548E+03  0.00000000000E+00 0. -1.
         -2    1    3    3    0  502  0.96469893518E+02 -0.86403016907E+03  0.15265865854E+03  0.88269997137E+03  0.00000000000E+00 0.  1.
         11    1    5    5    0    0  0.10027793293E+03  0.72492815614E+03  0.35063934699E+02  0.73267044086E+03  0.00000000000E+00 0.  1.
        -11    1    5    5    0    0  0.65441594773E+01  0.15360049912E+02  0.15647220199E+02  0.22882147113E+02  0.00000000000E+00 0. -1.
          4    1    6    6  503    0 -0.51451176340E+01  0.37558313421E+02  0.46167298448E+02  0.59737078842E+02  0.00000000000E+00 0. -1.
         -4    1    6    6    0  503 -0.28071648189E+03  0.79438160272E+03  0.49713874991E+03  0.97825907132E+03  0.00000000000E+00 0.  1.
<mgrwt>
<rscale>  0 0.16056762E+04</rscale>
<asrwt>0</asrwt>
<pdfrwt beam="1">  1        1 0.32145770E+00 0.16056762E+04</pdfrwt>
<pdfrwt beam="2">  1       -1 0.20015283E+00 0.16056762E+04</pdfrwt>
<totfact> 0.36349343E-01</totfact>
</mgrwt>
</event>
<event>
12    1  0.2236026E-007  0.1027329E+04  0.7818608E-02  0.9279069E-01
         -2   -1    0    0    0  501 -0.00000000000E+00  0.00000000000E+00  0.86742171150E+03  0.86742171150E+03  0.00000000000E+00 0.  1.
          2   -1    0    0  501    0  0.00000000000E+00 -0.00000000000E+00 -0.12941010322E+04  0.12941010322E+04  0.00000000000E+00 0. -1.
         23    2    1    2    0    0 -0.30378631600E+03  0.89666425302E+03  0.28461143843E+02  0.95181427758E+03  0.94061011400E+02 0.  0.
    5000000    2    1    2    0    0  0.30378631600E+03 -0.89666425302E+03 -0.45514046455E+03  0.12097084661E+04  0.59995735025E+03 0.  0.
         23    2    4    4    0    0 -0.29635418261E+02 -0.72949382404E+03 -0.30146459065E+03  0.79535505687E+03  0.93108913346E+02 0.  0.
         23    2    4    4    0    0  0.33342173426E+03 -0.16717042898E+03 -0.15367587390E+03  0.41435340926E+03  0.94638619740E+02 0.  0.
          1    1    3    3  502    0 -0.22968278932E+03  0.63541778715E+03  0.60593359768E+02  0.67836679104E+03  0.00000000000E+00 0. -1.
         -1    1    3    3    0  502 -0.74103526676E+02  0.26124646587E+03 -0.32132215924E+02  0.27344748654E+03  0.00000000000E+00 0.  1.
         11    1    5    5    0    0 -0.22538756317E+02 -0.53847722552E+03 -0.17705754322E+03  0.56728748580E+03  0.00000000000E+00 0.  1.
        -11    1    5    5    0    0 -0.70966619437E+01 -0.19101659852E+03 -0.12440704743E+03  0.22806757106E+03  0.00000000000E+00 0. -1.
          4    1    6    6  503    0  0.21911702272E+03 -0.13947217527E+03 -0.66969288062E+02  0.26823430590E+03  0.00000000000E+00 0. -1.
         -4    1    6    6    0  503  0.11430471154E+03 -0.27698253713E+02 -0.86706585838E+02  0.14611910336E+03  0.00000000000E+00 0.  1.
<mgrwt>
<rscale>  0 0.10273289E+04</rscale>
<asrwt>0</asrwt>
<pdfrwt beam="1">  1        2 0.19909247E+00 0.10273289E+04</pdfrwt>
<pdfrwt beam="2">  1       -2 0.13344949E+00 0.10273289E+04</pdfrwt>
<totfact> 0.66994972E+00</totfact>
</mgrwt>
</event>
<event>
12    1  0.1954220E-007  0.7720973E+03  0.7818608E-02  0.9601307E-01
          2   -1    0    0  501    0  0.00000000000E+00  0.00000000000E+00  0.14533881141E+04  0.14533881141E+04  0.00000000000E+00 0. -1.
         -2   -1    0    0    0  501 -0.00000000000E+00 -0.00000000000E+00 -0.53394320203E+03  0.53394320203E+03  0.00000000000E+00 0.  1.
         23    2    1    2    0    0  0.64707717866E+03  0.37568491416E+03  0.17674271619E+03  0.77425759231E+03  0.91590401516E+02 0.  0.
    5000000    2    1    2    0    0 -0.64707717866E+03 -0.37568491416E+03  0.74270219590E+03  0.12130737238E+04  0.60007772649E+03 0.  0.
         23    2    4    4    0    0 -0.58269938701E+03 -0.32175797957E+03  0.27016524894E+03  0.72428857709E+03  0.92400801551E+02 0.  0.
         23    2    4    4    0    0 -0.64377791646E+02 -0.53926934588E+02  0.47253694696E+03  0.48878514676E+03  0.92558841385E+02 0.  0.
          2    1    3    3  502    0  0.38740298089E+03  0.18018663630E+03  0.75991143006E+02  0.43396191920E+03  0.00000000000E+00 0. -1.
         -2    1    3    3    0  502  0.25967419777E+03  0.19549827786E+03  0.10075157319E+03  0.34029567310E+03  0.00000000000E+00 0.  1.
         11    1    5    5    0    0 -0.34722199749E+03 -0.24262477251E+03  0.16889274272E+03  0.45602045384E+03  0.00000000000E+00 0.  1.
        -11    1    5    5    0    0 -0.23547738953E+03 -0.79133207057E+02  0.10127250622E+03  0.26826812325E+03  0.00000000000E+00 0. -1.
          1    1    6    6  503    0 -0.28522520830E+02 -0.73640892270E+02  0.37103613319E+03  0.37934723848E+03  0.00000000000E+00 0. -1.
         -1    1    6    6    0  503 -0.35855270816E+02  0.19713957682E+02  0.10150081377E+03  0.10943790828E+03  0.00000000000E+00 0.  1.
<mgrwt>
<rscale>  0 0.77209733E+03</rscale>
<asrwt>0</asrwt>
<pdfrwt beam="1">  1        2 0.22359817E+00 0.77209733E+03</pdfrwt>
<pdfrwt beam="2">  1       -2 0.82145109E-01 0.77209733E+03</pdfrwt>
<totfact> 0.17926824E+01</totfact>
</mgrwt>
</event>
<event>
12    1  0.1418317E-007  0.5915481E+03  0.7818608E-02  0.9923098E-01
          1   -1    0    0  501    0  0.00000000000E+00  0.00000000000E+00  0.11988849528E+04  0.11988849528E+04  0.00000000000E+00 0. -1.
         -1   -1    0    0    0  501 -0.00000000000E+00 -0.00000000000E+00 -0.51874551400E+03  0.51874551400E+03  0.00000000000E+00 0.  1.
         23    2    1    2    0    0 -0.44179896673E+03  0.10174655939E+03 -0.24554894905E+03  0.52488489432E+03  0.98342140298E+02 0.  0.
    5000000    2    1    2    0    0  0.44179896673E+03 -0.10174655939E+03  0.92568838786E+03  0.11927455725E+04  0.60017024247E+03 0.  0.
         23    2    4    4    0    0 -0.98075619370E+02 -0.12528733115E+03  0.37127629844E+03  0.41341406003E+03  0.88030408280E+02 0.  0.
         23    2    4    4    0    0  0.53987458610E+03  0.23540771766E+02  0.55441208942E+03  0.77933151247E+03  0.89253037945E+02 0.  0.
          2    1    3    3  502    0 -0.27867300787E+03  0.29729950638E+02 -0.11071772435E+03  0.30133192623E+03  0.00000000000E+00 0. -1.
         -2    1    3    3    0  502 -0.16312595886E+03  0.72016608750E+02 -0.13483122469E+03  0.22355296809E+03  0.00000000000E+00 0.  1.
         11    1    5    5    0    0 -0.34495882471E+02 -0.11016292791E+03  0.25776375188E+03  0.28243227220E+03  0.00000000000E+00 0. -1.
        -11    1    5    5    0    0 -0.63579736899E+02 -0.15124403247E+02  0.11351254656E+03  0.13098178783E+03  0.00000000000E+00 0.  1.
          4    1    6    6  503    0  0.19943447288E+03 -0.20380489565E+02  0.16022770221E+03  0.25663668850E+03  0.00000000000E+00 0. -1.
         -4    1    6    6    0  503  0.34044011322E+03  0.43921261330E+02  0.39418438722E+03  0.52269482397E+03  0.00000000000E+00 0.  1.
<mgrwt>
<rscale>  0 0.59154813E+03</rscale>
<asrwt>0</asrwt>
<pdfrwt beam="1">  1        1 0.18444384E+00 0.59154813E+03</pdfrwt>
<pdfrwt beam="2">  1       -1 0.79807002E-01 0.59154813E+03</pdfrwt>
<totfact> 0.17725743E+01</totfact>
</mgrwt>
</event>
<event>
12    1  0.1418317E-007  0.5596696E+03  0.7818608E-02  0.9992803E-01
          2   -1    0    0  501    0  0.00000000000E+00  0.00000000000E+00  0.30301236465E+03  0.30301236465E+03  0.00000000000E+00 0. -1.
         -2   -1    0    0    0  501 -0.00000000000E+00 -0.00000000000E+00 -0.12509409091E+04  0.12509409091E+04  0.00000000000E+00 0.  1.
         23    2    1    2    0    0  0.45516826137E+03 -0.87977975988E+02 -0.38557808391E+03  0.60979030275E+03  0.90859694662E+02 0.  0.
    5000000    2    1    2    0    0 -0.45516826137E+03  0.87977975988E+02 -0.56235046052E+03  0.94416297098E+03  0.60023945631E+03 0.  0.
         23    2    4    4    0    0 -0.45055359372E+03 -0.76744944810E+02 -0.59281500624E+03  0.75416430719E+03  0.91901269001E+02 0.  0.
         23    2    4    4    0    0 -0.46146676535E+01  0.16472292080E+03  0.30464545728E+02  0.18999866379E+03  0.89534730149E+02 0.  0.
          3    1    3    3  502    0  0.17333592945E+03 -0.78863061828E+02 -0.15537571202E+03  0.24577701041E+03  0.00000000000E+00 0. -1.
         -3    1    3    3    0  502  0.28183233192E+03 -0.91149141600E+01 -0.23020237189E+03  0.36401329234E+03  0.00000000000E+00 0.  1.
         11    1    5    5    0    0 -0.40079920590E+03 -0.47582157430E+02 -0.55062038704E+03  0.68270555570E+03  0.00000000000E+00 0. -1.
        -11    1    5    5    0    0 -0.49754387821E+02 -0.29162787380E+02 -0.42194619202E+02  0.71458751492E+02  0.00000000000E+00 0.  1.
          1    1    6    6  503    0  0.39059755163E+02  0.10189415549E+03  0.45747593948E+01  0.10922001565E+03  0.00000000000E+00 0. -1.
         -1    1    6    6    0  503 -0.43674422817E+02  0.62828765312E+02  0.25889786333E+02  0.80778648140E+02  0.00000000000E+00 0.  1.
<mgrwt>
<rscale>  0 0.55966959E+03</rscale>
<asrwt>0</asrwt>
<pdfrwt beam="1">  1        2 0.46617287E-01 0.55966959E+03</pdfrwt>
<pdfrwt beam="2">  1       -2 0.19245245E+00 0.55966959E+03</pdfrwt>
<totfact> 0.16787460E+01</totfact>
</mgrwt>
</event>
<event>
12    1  0.1418317E-007  0.2088843E+04  0.7818608E-02  0.8566174E-01
         -2   -1    0    0    0  501 -0.00000000000E+00  0.00000000000E+00  0.21976303107E+04  0.21976303107E+04  0.00000000000E+00 0.  1.
          2   -1    0    0  501    0  0.00000000000E+00 -0.00000000000E+00 -0.20755846413E+04  0.20755846413E+04  0.00000000000E+00 0. -1.
         23    2    1    2    0    0 -0.20685717881E+04  0.53410674360E+02 -0.25112697996E+03  0.20866476726E+04  0.95873910913E+02 0.  0.
    5000000    2    1    2    0    0  0.20685717881E+04 -0.53410674360E+02  0.37317264934E+03  0.21865672794E+04  0.59998058193E+03 0.  0.
         23    2    4    4    0    0  0.30871356921E+03  0.10535097599E+03  0.23282328402E+03  0.41157802314E+03  0.93738421094E+02 0.  0.
         23    2    4    4    0    0  0.17598582189E+04 -0.15876165035E+03  0.14034936532E+03  0.17749892563E+04  0.92642881386E+02 0.  0.
          3    1    3    3  502    0 -0.13265408825E+04  0.64569868339E+02 -0.19588840390E+03  0.13424798873E+04  0.00000000000E+00 0. -1.
         -3    1    3    3    0  502 -0.74203090556E+03 -0.11159193979E+02 -0.55238576057E+02  0.74416778532E+03  0.00000000000E+00 0.  1.
         11    1    5    5    0    0  0.15395690777E+03  0.35393472048E+01  0.99508638345E+02  0.18335000828E+03  0.00000000000E+00 0.  1.
        -11    1    5    5    0    0  0.15475666144E+03  0.10181162878E+03  0.13331464568E+03  0.22822801486E+03  0.00000000000E+00 0. -1.
          3    1    6    6  503    0  0.10612209320E+04 -0.63541849437E+02  0.52175324454E+02  0.10644010981E+04  0.00000000000E+00 0. -1.
         -3    1    6    6    0  503  0.69863728685E+03 -0.95219800910E+02  0.88174040863E+02  0.71058815818E+03  0.00000000000E+00 0.  1.
<mgrwt>
<rscale>  0 0.20888427E+04</rscale>
<asrwt>0</asrwt>
<pdfrwt beam="1">  1        2 0.31932071E+00 0.20888427E+04</pdfrwt>
<pdfrwt beam="2">  1       -2 0.33809697E+00 0.20888427E+04</pdfrwt>
<totfact> 0.98719176E-02</totfact>
</mgrwt>
</event>
<event>
12    1  0.1418317E-007  0.8296066E+03  0.7818608E-02  0.9518125E-01
          2   -1    0    0  501    0  0.00000000000E+00  0.00000000000E+00  0.21053503587E+04  0.21053503587E+04  0.00000000000E+00 0. -1.
         -2   -1    0    0    0  501 -0.00000000000E+00 -0.00000000000E+00 -0.42516506847E+03  0.42516506847E+03  0.00000000000E+00 0.  1.
         23    2    1    2    0    0 -0.51079691851E+03 -0.59778876227E+03  0.11830774376E+04  0.14234860952E+04  0.91517995894E+02 0.  0.
    5000000    2    1    2    0    0  0.51079691851E+03  0.59778876227E+03  0.49710785261E+03  0.11070293320E+04  0.60011068016E+03 0.  0.
         23    2    4    4    0    0  0.19272298231E+03  0.30395656573E+02  0.38387991310E+03  0.44014383676E+03  0.91086582486E+02 0.  0.
         23    2    4    4    0    0  0.31807393621E+03  0.56739310570E+03  0.11322793951E+03  0.66688549520E+03  0.93860173336E+02 0.  0.
          3    1    3    3  502    0 -0.11218058469E+03 -0.92820045960E+02  0.26619931328E+03  0.30341740046E+03  0.00000000000E+00 0. -1.
         -3    1    3    3    0  502 -0.39861633382E+03 -0.50496871631E+03  0.91687812434E+03  0.11200686947E+04  0.00000000000E+00 0.  1.
         11    1    5    5    0    0  0.93096520643E+02  0.58559890876E+02  0.22607751050E+03  0.25141054817E+03  0.00000000000E+00 0. -1.
        -11    1    5    5    0    0  0.99626461663E+02 -0.28164234303E+02  0.15780240260E+03  0.18873328860E+03  0.00000000000E+00 0.  1.
          1    1    6    6  503    0  0.50905848391E+02  0.37190805985E+02  0.18188121642E+02  0.65615312383E+02  0.00000000000E+00 0. -1.
         -1    1    6    6    0  503  0.26716808781E+03  0.53020229971E+03  0.95039817872E+02  0.60127018282E+03  0.00000000000E+00 0.  1.
<mgrwt>
<rscale>  0 0.82960663E+03</rscale>
<asrwt>0</asrwt>
<pdfrwt beam="1">  1        2 0.32390005E+00 0.82960663E+03</pdfrwt>
<pdfrwt beam="2">  1       -2 0.65410012E-01 0.82960663E+03</pdfrwt>
<totfact> 0.12893596E+01</totfact>
</mgrwt>
</event>
<event>
12    1  0.1418317E-007  0.3485073E+03  0.7818608E-02  0.1063229E+00
          2   -1    0    0  501    0  0.00000000000E+00  0.00000000000E+00  0.25942240804E+03  0.25942240804E+03  0.00000000000E+00 0. -1.
         -2   -1    0    0    0  501 -0.00000000000E+00 -0.00000000000E+00 -0.12276736439E+04  0.12276736439E+04  0.00000000000E+00 0.  1.
         23    2    1    2    0    0  0.20092463638E+03  0.12526464481E+03 -0.77200232187E+03  0.81267704281E+03  0.91621232233E+02 0.  0.
    5000000    2    1    2    0    0 -0.20092463638E+03 -0.12526464481E+03 -0.19624891399E+03  0.67441900912E+03  0.60022114498E+03 0.  0.
         23    2    4    4    0    0 -0.29838738188E+03 -0.46357805223E+02  0.10800939351E+03  0.33376010342E+03  0.92442965016E+02 0.  0.
         23    2    4    4    0    0  0.97462745495E+02 -0.78906839586E+02 -0.30425830750E+03  0.34065890570E+03  0.88034631030E+02 0.  0.
          1    1    3    3  502    0  0.72035967296E+02  0.60826662436E+01 -0.15223672213E+03  0.16852951960E+03  0.00000000000E+00 0. -1.
         -1    1    3    3    0  502  0.12888866908E+03  0.11918197857E+03 -0.61976559974E+03  0.64414752321E+03  0.00000000000E+00 0.  1.
         13    1    5    5    0    0 -0.90810399205E+02 -0.13970852984E+01  0.77096938225E+02  0.11913193667E+03  0.00000000000E+00 0. -1.
        -13    1    5    5    0    0 -0.20757698267E+03 -0.44960719925E+02  0.30912455285E+02  0.21462816675E+03  0.00000000000E+00 0.  1.
          2    1    6    6  503    0  0.11012676065E+03 -0.71228356022E+02 -0.29587486714E+03  0.32364072537E+03  0.00000000000E+00 0. -1.
         -2    1    6    6    0  503 -0.12664015154E+02 -0.76784835639E+01 -0.83834403591E+01  0.17018180335E+02  0.00000000000E+00 0.  1.
<mgrwt>
<rscale>  0 0.34850728E+03</rscale>
<asrwt>0</asrwt>
<pdfrwt beam="1">  1        2 0.39911140E-01 0.34850728E+03</pdfrwt>
<pdfrwt beam="2">  1       -2 0.18887287E+00 0.34850728E+03</pdfrwt>
<totfact> 0.21639320E+01</totfact>
</mgrwt>
</event>
<event>
12    1  0.1418317E-007  0.4753518E+03  0.7818608E-02  0.1020420E+00
          2   -1    0    0  501    0  0.00000000000E+00  0.00000000000E+00  0.54225281895E+03  0.54225281895E+03  0.00000000000E+00 0. -1.
         -2   -1    0    0    0  501 -0.00000000000E+00 -0.00000000000E+00 -0.70788584478E+03  0.70788584478E+03  0.00000000000E+00 0.  1.
         23    2    1    2    0    0 -0.42218383455E+03 -0.11759721008E+03 -0.23194405566E+03  0.50418010334E+03  0.91275613777E+02 0.  0.
    5000000    2    1    2    0    0  0.42218383455E+03  0.11759721008E+03  0.66311029824E+02  0.74595856040E+03  0.59999060591E+03 0.  0.
         23    2    4    4    0    0  0.15981548473E+03 -0.52241829537E+02 -0.23494128768E+03  0.30266753671E+03  0.90222121500E+02 0.  0.
         23    2    4    4    0    0  0.26236834981E+03  0.16983903962E+03  0.30125231750E+03  0.44329102369E+03  0.89841652471E+02 0.  0.
          2    1    3    3  502    0 -0.29779797032E+03 -0.50950733238E+02 -0.12430168439E+03  0.32669636834E+03  0.00000000000E+00 0.  1.
         -2    1    3    3    0  502 -0.12438586423E+03 -0.66646476847E+02 -0.10764237127E+03  0.17748373500E+03  0.00000000000E+00 0. -1.
         13    1    5    5    0    0  0.62356985211E+02 -0.59369263592E+02 -0.70051218783E+02  0.11099674012E+03  0.00000000000E+00 0.  1.
        -13    1    5    5    0    0  0.97458499523E+02  0.71274340548E+01 -0.16489006890E+03  0.19167079659E+03  0.00000000000E+00 0. -1.
          2    1    6    6  503    0  0.17185921744E+03  0.15596394658E+03  0.19588270341E+03  0.30369454513E+03  0.00000000000E+00 0. -1.
         -2    1    6    6    0  503  0.90509132372E+02  0.13875093047E+02  0.10536961410E+03  0.13959647855E+03  0.00000000000E+00 0.  1.
<mgrwt>
<rscale>  0 0.47535182E+03</rscale>
<asrwt>0</asrwt>
<pdfrwt beam="1">  1        2 0.83423511E-01 0.47535182E+03</pdfrwt>
<pdfrwt beam="2">  1       -2 0.10890551E+00 0.47535182E+03</pdfrwt>
<totfact> 0.39117029E+01</totfact>
</mgrwt>
</event>
<event>
12    1  0.1418317E-007  0.9688390E+03  0.7818608E-02  0.9343398E-01
          1   -1    0    0  501    0  0.00000000000E+00  0.00000000000E+00  0.16345030131E+04  0.16345030131E+04  0.00000000000E+00 0. -1.
         -1   -1    0    0    0  501 -0.00000000000E+00 -0.00000000000E+00 -0.61944151864E+03  0.61944151864E+03  0.00000000000E+00 0.  1.
         23    2    1    2    0    0 -0.64367403299E+03  0.63754407460E+03  0.32475863977E+03  0.96670105650E+03  0.90906824485E+02 0.  0.
    5000000    2    1    2    0    0  0.64367403299E+03 -0.63754407460E+03  0.69030285471E+03  0.12872434752E+04  0.59974913551E+03 0.  0.
         23    2    4    4    0    0  0.68048759773E+03 -0.41735478961E+03  0.36419534203E+03  0.88199745294E+03  0.89626272710E+02 0.  0.
         23    2    4    4    0    0 -0.36813564735E+02 -0.22018928498E+03  0.32610751268E+03  0.40524602231E+03  0.89664201336E+02 0.  0.
          1    1    3    3  502    0 -0.36480305574E+03  0.41563923338E+03  0.22066570098E+03  0.59542471681E+03  0.00000000000E+00 0. -1.
         -1    1    3    3    0  502 -0.27887097725E+03  0.22190484122E+03  0.10409293879E+03  0.37127633969E+03  0.00000000000E+00 0.  1.
         11    1    5    5    0    0  0.31072174409E+03 -0.18356671955E+03  0.21338321732E+03  0.41925784455E+03  0.00000000000E+00 0.  1.
        -11    1    5    5    0    0  0.36976585363E+03 -0.23378807006E+03  0.15081212471E+03  0.46273960839E+03  0.00000000000E+00 0. -1.
          3    1    6    6  503    0 -0.42989970259E+02 -0.91875552931E+02  0.20487531228E+03  0.22861134782E+03  0.00000000000E+00 0. -1.
         -3    1    6    6    0  503  0.61764055237E+01 -0.12831373205E+03  0.12123220039E+03  0.17663467449E+03  0.00000000000E+00 0.  1.
<mgrwt>
<rscale>  0 0.96883902E+03</rscale>
<asrwt>0</asrwt>
<pdfrwt beam="1">  1        1 0.25146200E+00 0.96883902E+03</pdfrwt>
<pdfrwt beam="2">  1       -1 0.95298696E-01 0.96883902E+03</pdfrwt>
<totfact> 0.56789768E+00</totfact>
</mgrwt>
</event>
<event>
12    1  0.1418317E-007  0.7139596E+03  0.7818608E-02  0.9693653E-01
          2   -1    0    0  501    0  0.00000000000E+00  0.00000000000E+00  0.85078447504E+03  0.85078447504E+03  0.00000000000E+00 0.  1.
         -2   -1    0    0    0  501 -0.00000000000E+00 -0.00000000000E+00 -0.11465796149E+04  0.11465796149E+04  0.00000000000E+00 0. -1.
         23    2    1    2    0    0  0.62631696307E+02 -0.66324591866E+03 -0.73761336553E+03  0.99785734535E+03  0.88475570993E+02 0.  0.
    5000000    2    1    2    0    0 -0.62631696307E+02  0.66324591866E+03  0.44181822564E+03  0.99950674462E+03  0.59999375834E+03 0.  0.
         23    2    4    4    0    0 -0.49014258941E+02  0.68222167336E+03  0.53614120154E+03  0.87391694308E+03  0.91949041480E+02 0.  0.
         23    2    4    4    0    0 -0.13617437366E+02 -0.18975754703E+02 -0.94322975908E+02  0.12558980154E+03  0.79564191697E+02 0.  0.
          2    1    3    3  502    0  0.39244015165E+02 -0.22369622198E+03 -0.30894341888E+03  0.38343986298E+03  0.00000000000E+00 0.  1.
         -2    1    3    3    0  502  0.23387681142E+02 -0.43954969668E+03 -0.42866994665E+03  0.61441748237E+03  0.00000000000E+00 0. -1.
         13    1    5    5    0    0  0.45761280990E+01  0.42138434220E+03  0.36387071069E+03  0.55676529965E+03  0.00000000000E+00 0. -1.
        -13    1    5    5    0    0 -0.53590387040E+02  0.26083733116E+03  0.17227049085E+03  0.31715164343E+03  0.00000000000E+00 0.  1.
          3    1    6    6  503    0 -0.37764264910E+02 -0.28158179881E+02 -0.28934771805E+02  0.55283305055E+02  0.00000000000E+00 0. -1.
         -3    1    6    6    0  503  0.24146827544E+02  0.91824251773E+01 -0.65388204102E+02  0.70306496487E+02  0.00000000000E+00 0.  1.
<mgrwt>
<rscale>  0 0.71395957E+03</rscale>
<asrwt>0</asrwt>
<pdfrwt beam="1">  1        2 0.13088992E+00 0.71395957E+03</pdfrwt>
<pdfrwt beam="2">  1       -2 0.17639686E+00 0.71395957E+03</pdfrwt>
<totfact> 0.62352235E+00</totfact>
</mgrwt>
</event>
<event>
12    1  0.1418317E-007  0.7819245E+03  0.7818608E-02  0.9586556E-01
          2   -1    0    0  501    0  0.00000000000E+00  0.00000000000E+00  0.11443842555E+04  0.11443842555E+04  0.00000000000E+00 0. -1.
         -2   -1    0    0    0  501 -0.00000000000E+00 -0.00000000000E+00 -0.76817893294E+03  0.76817893294E+03  0.00000000000E+00 0.  1.
         23    2    1    2    0    0 -0.62867811783E+03  0.26117343732E+03 -0.33053292121E+03  0.76238652567E+03  0.92376741190E+02 0.  0.
    5000000    2    1    2    0    0  0.62867811783E+03 -0.26117343732E+03  0.70673824380E+03  0.11501766628E+04  0.59998305827E+03 0.  0.
         23    2    4    4    0    0  0.69343063241E+03 -0.11992519022E+03  0.47383846404E+03  0.85336034923E+03  0.92048369995E+02 0.  0.
         23    2    4    4    0    0 -0.64752514580E+02 -0.14124824710E+03  0.23289977976E+03  0.29681631357E+03  0.98557907534E+02 0.  0.
          3    1    3    3  502    0 -0.19105732547E+03  0.85325696318E+02 -0.14968563835E+03  0.25727255274E+03  0.00000000000E+00 0. -1.
         -3    1    3    3    0  502 -0.43762079236E+03  0.17584774100E+03 -0.18084728286E+03  0.50511397292E+03  0.00000000000E+00 0.  1.
         13    1    5    5    0    0  0.26068005890E+03 -0.12661265003E+02  0.21257108685E+03  0.33660194252E+03  0.00000000000E+00 0. -1.
        -13    1    5    5    0    0  0.43275057351E+03 -0.10726392522E+03  0.26126737719E+03  0.51675840672E+03  0.00000000000E+00 0.  1.
          1    1    6    6  503    0 -0.84083362706E+02 -0.10046348657E+03  0.13051403443E+03  0.18492386866E+03  0.00000000000E+00 0. -1.
         -1    1    6    6    0  503  0.19330848127E+02 -0.40784760522E+02  0.10238574534E+03  0.11189244491E+03  0.00000000000E+00 0.  1.
<mgrwt>
<rscale>  0 0.78192446E+03</rscale>
<asrwt>0</asrwt>
<pdfrwt beam="1">  1        2 0.17605912E+00 0.78192446E+03</pdfrwt>
<pdfrwt beam="2">  1       -2 0.11818137E+00 0.78192446E+03</pdfrwt>
<totfact> 0.11455056E+01</totfact>
</mgrwt>
</event>
<event>
12    1  0.1418317E-007  0.6544663E+03  0.7818608E-02  0.9798434E-01
         -2   -1    0    0    0  501 -0.00000000000E+00  0.00000000000E+00  0.56179934179E+03  0.56179934179E+03  0.00000000000E+00 0.  1.
          2   -1    0    0  501    0  0.00000000000E+00 -0.00000000000E+00 -0.85987121189E+03  0.85987121189E+03  0.00000000000E+00 0. -1.
         23    2    1    2    0    0 -0.42592741005E+03  0.36566057566E+03 -0.12619571028E+03  0.58225166746E+03  0.89273914140E+02 0.  0.
    5000000    2    1    2    0    0  0.42592741005E+03 -0.36566057566E+03 -0.17187615982E+03  0.83941888622E+03  0.59996736329E+03 0.  0.
         23    2    4    4    0    0  0.51131265004E+03 -0.37480466249E+03 -0.18223101946E+02  0.64074443140E+03  0.91116320246E+02 0.  0.
         23    2    4    4    0    0 -0.85385239990E+02  0.91440868294E+01 -0.15365305787E+03  0.19867445482E+03  0.92130468751E+02 0.  0.
          2    1    3    3  502    0 -0.77308585049E+02  0.65750964495E+02  0.11678675055E+02  0.10215771192E+03  0.00000000000E+00 0.  1.
         -2    1    3    3    0  502 -0.34861882500E+03  0.29990961116E+03 -0.13787438534E+03  0.48009395554E+03  0.00000000000E+00 0. -1.
         13    1    5    5    0    0  0.38269041535E+03 -0.22910537787E+03 -0.73100226920E+01  0.44608818030E+03  0.00000000000E+00 0. -1.
        -13    1    5    5    0    0  0.12862223469E+03 -0.14569928462E+03 -0.10913079254E+02  0.19465625110E+03  0.00000000000E+00 0.  1.
          4    1    6    6  503    0 -0.94896002505E+02  0.14930126493E+02 -0.82414686276E+02  0.12657148369E+03  0.00000000000E+00 0. -1.
         -4    1    6    6    0  503  0.95107625151E+01 -0.57860396633E+01 -0.71238371596E+02  0.72102971133E+02  0.00000000000E+00 0.  1.
<mgrwt>
<rscale>  0 0.65446633E+03</rscale>
<asrwt>0</asrwt>
<pdfrwt beam="1">  1        2 0.13228788E+00 0.65446633E+03</pdfrwt>
<pdfrwt beam="2">  1       -2 0.86430668E-01 0.65446633E+03</pdfrwt>
<totfact> 0.37088828E+01</totfact>
</mgrwt>
</event>
<event>
12    1  0.1418317E-007  0.4109509E+03  0.7818608E-02  0.1040052E+00
         -2   -1    0    0    0  501 -0.00000000000E+00  0.00000000000E+00  0.17876985659E+03  0.17876985659E+03  0.00000000000E+00 0. -1.
          2   -1    0    0  501    0  0.00000000000E+00 -0.00000000000E+00 -0.10132946333E+04  0.10132946333E+04  0.00000000000E+00 0.  1.
         23    2    1    2    0    0 -0.19852725746E+03 -0.69667523834E+01 -0.22426082677E+03  0.31308921357E+03  0.90941352750E+02 0.  0.
    5000000    2    1    2    0    0  0.19852725746E+03  0.69667523834E+01 -0.61026394993E+03  0.87897527629E+03  0.60059457220E+03 0.  0.
         23    2    4    4    0    0 -0.18346220184E+03  0.87502490256E+02 -0.29321504004E+03  0.36802583443E+03  0.90293354120E+02 0.  0.
         23    2    4    4    0    0  0.38198945930E+03 -0.80535737873E+02 -0.31704890988E+03  0.51094944186E+03  0.90262776287E+02 0.  0.
          4    1    3    3  502    0 -0.10721497711E+03  0.36988363193E+02 -0.14694135029E+03  0.18562044810E+03  0.00000000000E+00 0. -1.
         -4    1    3    3    0  502 -0.91312280354E+02 -0.43955115577E+02 -0.77319476482E+02  0.12746876548E+03  0.00000000000E+00 0.  1.
         11    1    5    5    0    0 -0.27225851175E+02 -0.90050647004E+01 -0.97772343708E+01  0.30297400456E+02  0.00000000000E+00 0. -1.
        -11    1    5    5    0    0 -0.15623635067E+03  0.96507554957E+02 -0.28343780567E+03  0.33772843398E+03  0.00000000000E+00 0.  1.
          3    1    6    6  503    0  0.30971383542E+03 -0.40912237918E+02 -0.21254204807E+03  0.37784996131E+03  0.00000000000E+00 0. -1.
         -3    1    6    6    0  503  0.72275623880E+02 -0.39623499955E+02 -0.10450686182E+03  0.13309948055E+03  0.00000000000E+00 0.  1.
<mgrwt>
<rscale>  0 0.41095088E+03</rscale>
<asrwt>0</asrwt>
<pdfrwt beam="1">  1        2 0.15589148E+00 0.41095088E+03</pdfrwt>
<pdfrwt beam="2">  1       -2 0.27503055E-01 0.41095088E+03</pdfrwt>
<totfact> 0.30656554E+02</totfact>
</mgrwt>
</event>
<event>
12    1  0.1418317E-007  0.2074793E+04  0.7818608E-02  0.8572429E-01
         -2   -1    0    0    0  501 -0.00000000000E+00  0.00000000000E+00  0.11209812380E+04  0.11209812380E+04  0.00000000000E+00 0.  1.
          2   -1    0    0  501    0  0.00000000000E+00 -0.00000000000E+00 -0.40759902428E+04  0.40759902428E+04  0.00000000000E+00 0. -1.
         23    2    1    2    0    0 -0.16793493599E+04  0.11856112389E+04 -0.96129147029E+03  0.22710385757E+04  0.87445063921E+02 0.  0.
    5000000    2    1    2    0    0  0.16793493599E+04 -0.11856112389E+04 -0.19937175345E+04  0.29259329050E+04  0.60023784874E+03 0.  0.
         23    2    4    4    0    0  0.10822170680E+04 -0.97949763808E+03 -0.11109523459E+04  0.18365372481E+04  0.89691377949E+02 0.  0.
         23    2    4    4    0    0  0.59713229184E+03 -0.20611360079E+03 -0.88276518857E+03  0.10893956569E+04  0.91971347924E+02 0.  0.
          3    1    3    3  502    0 -0.99781257285E+03  0.71785274844E+03 -0.62036861103E+03  0.13768804278E+04  0.00000000000E+00 0. -1.
         -3    1    3    3    0  502 -0.68153678703E+03  0.46775849043E+03 -0.34092285927E+03  0.89415814788E+03  0.00000000000E+00 0.  1.
         13    1    5    5    0    0  0.96523033100E+03 -0.90556294809E+03 -0.10195286823E+04  0.16706742887E+04  0.00000000000E+00 0. -1.
        -13    1    5    5    0    0  0.11698673703E+03 -0.73934689997E+02 -0.91423663634E+02  0.16586295939E+03  0.00000000000E+00 0.  1.
          3    1    6    6  503    0  0.25713206673E+03 -0.81548319112E+02 -0.45495816619E+03  0.52891772618E+03  0.00000000000E+00 0. -1.
         -3    1    6    6    0  503  0.34000022511E+03 -0.12456528168E+03 -0.42780702238E+03  0.56047793077E+03  0.00000000000E+00 0.  1.
<mgrwt>
<rscale>  0 0.20747933E+04</rscale>
<asrwt>0</asrwt>
<pdfrwt beam="1">  1        2 0.62707542E+00 0.20747933E+04</pdfrwt>
<pdfrwt beam="2">  1       -2 0.17245865E+00 0.20747933E+04</pdfrwt>
<totfact> 0.54259013E-02</totfact>
</mgrwt>
</event>
<event>
12    1  0.1418317E-007  0.5684736E+03  0.7818608E-02  0.9973062E-01
         -2   -1    0    0    0  501 -0.00000000000E+00  0.00000000000E+00  0.41780187056E+03  0.41780187056E+03  0.00000000000E+00 0.  1.
          2   -1    0    0  501    0  0.00000000000E+00 -0.00000000000E+00 -0.12291737442E+04  0.12291737442E+04  0.00000000000E+00 0. -1.
         23    2    1    2    0    0  0.41631955952E+03  0.29047286817E+02 -0.81013492847E+03  0.91603643396E+03  0.92943130500E+02 0.  0.
    5000000    2    1    2    0    0 -0.41631955952E+03 -0.29047286817E+02 -0.12369452094E+01  0.73093918085E+03  0.60008735660E+03 0.  0.
         23    2    4    4    0    0 -0.51651922557E+03 -0.15601426266E+03 -0.64135902911E+01  0.54715033997E+03  0.90552746240E+02 0.  0.
         23    2    4    4    0    0  0.10019966605E+03  0.12696697584E+03  0.51766450817E+01  0.18378884088E+03  0.87126083046E+02 0.  0.
          3    1    3    3  502    0  0.15600113460E+03 -0.66331322270E+00 -0.21364479028E+03  0.26453901488E+03  0.00000000000E+00 0. -1.
         -3    1    3    3    0  502  0.26031842491E+03  0.29710600040E+02 -0.59649013820E+03  0.65149741908E+03  0.00000000000E+00 0.  1.
         11    1    5    5    0    0 -0.20549687058E+03 -0.52380561704E+02  0.40732579289E+02  0.21594404386E+03  0.00000000000E+00 0.  1.
        -11    1    5    5    0    0 -0.31102235499E+03 -0.10363370095E+03 -0.47146169580E+02  0.33120629611E+03  0.00000000000E+00 0. -1.
          3    1    6    6  503    0  0.88780759572E+02  0.51351315146E+02 -0.17456047981E+02  0.10403698596E+03  0.00000000000E+00 0. -1.
         -3    1    6    6    0  503  0.11418906480E+02  0.75615660692E+02  0.22632693063E+02  0.79751854915E+02  0.00000000000E+00 0.  1.
<mgrwt>
<rscale>  0 0.56847362E+03</rscale>
<asrwt>0</asrwt>
<pdfrwt beam="1">  1        2 0.18910365E+00 0.56847362E+03</pdfrwt>
<pdfrwt beam="2">  1       -2 0.64277211E-01 0.56847362E+03</pdfrwt>
<totfact> 0.42309946E+01</totfact>
</mgrwt>
</event>
<event>
12    1  0.1418317E-007  0.9595833E+03  0.7818608E-02  0.9354019E-01
          1   -1    0    0  501    0  0.00000000000E+00  0.00000000000E+00  0.33937683397E+04  0.33937683397E+04  0.00000000000E+00 0.  1.
         -1   -1    0    0    0  501 -0.00000000000E+00 -0.00000000000E+00 -0.42579169977E+03  0.42579169977E+03  0.00000000000E+00 0. -1.
         23    2    1    2    0    0  0.11096192564E+02 -0.95026273014E+03  0.43761717013E+03  0.10508280647E+04  0.98022712653E+02 0.  0.
    5000000    2    1    2    0    0 -0.11096192564E+02  0.95026273014E+03  0.25303594698E+04  0.27687319748E+04  0.60002943252E+03 0.  0.
         23    2    4    4    0    0  0.52689326886E+01  0.62167405583E+03  0.22212684084E+04  0.23083493947E+04  0.89090921893E+02 0.  0.
         23    2    4    4    0    0 -0.16365125253E+02  0.32858867431E+03  0.30909106140E+03  0.46038258009E+03  0.90424010128E+02 0.  0.
          3    1    3    3  502    0 -0.42167712106E+02 -0.53532516928E+03  0.24098412670E+03  0.58857837382E+03  0.00000000000E+00 0. -1.
         -3    1    3    3    0  502  0.53263904670E+02 -0.41493756086E+03  0.19663304343E+03  0.46224969088E+03  0.00000000000E+00 0.  1.
         11    1    5    5    0    0 -0.97541849112E+01  0.51561035038E+03  0.19399607787E+04  0.20073357966E+04  0.00000000000E+00 0.  1.
        -11    1    5    5    0    0  0.15023117600E+02  0.10606370545E+03  0.28130762972E+03  0.30101359806E+03  0.00000000000E+00 0. -1.
          1    1    6    6  503    0 -0.42244295690E+02  0.29786383961E+03  0.27738150760E+03  0.40920404229E+03  0.00000000000E+00 0. -1.
         -1    1    6    6    0  503  0.25879170437E+02  0.30724834699E+02  0.31709553794E+02  0.51178537803E+02  0.00000000000E+00 0.  1.
<mgrwt>
<rscale>  0 0.95958331E+03</rscale>
<asrwt>0</asrwt>
<pdfrwt beam="1">  1        1 0.52211819E+00 0.95958331E+03</pdfrwt>
<pdfrwt beam="2">  1       -1 0.65506418E-01 0.95958331E+03</pdfrwt>
<totfact> 0.74658442E-01</totfact>
</mgrwt>
</event>
<event>
12    1  0.1418317E-007  0.6045198E+03  0.7818608E-02  0.9896073E-01
          1   -1    0    0  501    0  0.00000000000E+00  0.00000000000E+00  0.30317868713E+03  0.30317868713E+03  0.00000000000E+00 0. -1.
         -1   -1    0    0    0  501 -0.00000000000E+00 -0.00000000000E+00 -0.13003854756E+04  0.13003854756E+04  0.00000000000E+00 0.  1.
         23    2    1    2    0    0  0.44143471296E+03 -0.18551823441E+03 -0.35949416088E+03  0.60564798480E+03  0.91059369029E+02 0.  0.
    5000000    2    1    2    0    0 -0.44143471296E+03  0.18551823441E+03 -0.63771262763E+03  0.99791617798E+03  0.59989805945E+03 0.  0.
         23    2    4    4    0    0 -0.19609745990E+03 -0.18555860375E+03 -0.37748621157E+03  0.47322294299E+03  0.92508943552E+02 0.  0.
         23    2    4    4    0    0 -0.24533725306E+03  0.37107683816E+03 -0.26022641606E+03  0.52469323499E+03  0.98472410750E+02 0.  0.
          2    1    3    3  502    0  0.15868566194E+03 -0.48430155372E+02 -0.76217219251E+02  0.18258062265E+03  0.00000000000E+00 0.  1.
         -2    1    3    3    0  502  0.28274905101E+03 -0.13708807904E+03 -0.28327694163E+03  0.42306736216E+03  0.00000000000E+00 0. -1.
         11    1    5    5    0    0 -0.10531110809E+03 -0.14197292598E+03 -0.18433288037E+03  0.25539254488E+03  0.00000000000E+00 0. -1.
        -11    1    5    5    0    0 -0.90786351808E+02 -0.43585677770E+02 -0.19315333121E+03  0.21783039810E+03  0.00000000000E+00 0.  1.
          3    1    6    6  503    0 -0.53551396568E+02  0.14716271929E+03 -0.57176120920E+02  0.16671450695E+03  0.00000000000E+00 0. -1.
         -3    1    6    6    0  503 -0.19178585649E+03  0.22391411887E+03 -0.20305029514E+03  0.35797872804E+03  0.00000000000E+00 0.  1.
<mgrwt>
<rscale>  0 0.60451978E+03</rscale>
<asrwt>0</asrwt>
<pdfrwt beam="1">  1        1 0.46642875E-01 0.60451978E+03</pdfrwt>
<pdfrwt beam="2">  1       -1 0.20005930E+00 0.60451978E+03</pdfrwt>
<totfact> 0.13629243E+01</totfact>
</mgrwt>
</event>
<event>
12    1  0.1418317E-007  0.3515353E+03  0.7818608E-02  0.1061987E+00
          1   -1    0    0  501    0  0.00000000000E+00  0.00000000000E+00  0.57383401154E+03  0.57383401154E+03  0.00000000000E+00 0. -1.
         -1   -1    0    0    0  501 -0.00000000000E+00 -0.00000000000E+00 -0.67256055150E+03  0.67256055150E+03  0.00000000000E+00 0.  1.
         23    2    1    2    0    0 -0.12760820537E+03  0.29430756360E+03  0.30763978968E+03  0.45393212331E+03  0.92256903858E+02 0.  0.
    5000000    2    1    2    0    0  0.12760820537E+03 -0.29430756360E+03 -0.40636632965E+03  0.79246243973E+03  0.59996860621E+03 0.  0.
         23    2    4    4    0    0  0.18099088934E+02 -0.12394269424E+03  0.13604128077E+03  0.20660148716E+03  0.92128041043E+02 0.  0.
         23    2    4    4    0    0  0.10950911644E+03 -0.17036486936E+03 -0.54240761042E+03  0.58586095257E+03  0.89501981077E+02 0.  0.
          1    1    3    3  502    0 -0.60407262592E+02  0.21175715737E+03  0.24900608806E+03  0.33240662292E+03  0.00000000000E+00 0.  1.
         -1    1    3    3    0  502 -0.67200942780E+02  0.82550406234E+02  0.58633701620E+02  0.12152550039E+03  0.00000000000E+00 0. -1.
         11    1    5    5    0    0  0.55993727918E+02 -0.73778378293E+02  0.80831624253E+02  0.12293208755E+03  0.00000000000E+00 0. -1.
        -11    1    5    5    0    0 -0.37894638984E+02 -0.50164315952E+02  0.55209656516E+02  0.83669399612E+02  0.00000000000E+00 0.  1.
          4    1    6    6  503    0 -0.46947271941E+01 -0.66176481459E+02 -0.14551418009E+03  0.15992418131E+03  0.00000000000E+00 0. -1.
         -4    1    6    6    0  503  0.11420384363E+03 -0.10418838790E+03 -0.39689343033E+03  0.42593677126E+03  0.00000000000E+00 0.  1.
<mgrwt>
<rscale>  0 0.35153526E+03</rscale>
<asrwt>0</asrwt>
<pdfrwt beam="1">  1        1 0.88282156E-01 0.35153526E+03</pdfrwt>
<pdfrwt beam="2">  1       -1 0.10347085E+00 0.35153526E+03</pdfrwt>
<totfact> 0.34805276E+01</totfact>
</mgrwt>
</event>
<event>
12    1  0.1418317E-007  0.6175438E+03  0.7818608E-02  0.9869662E-01
          2   -1    0    0  501    0  0.00000000000E+00  0.00000000000E+00  0.88815177643E+03  0.88815177643E+03  0.00000000000E+00 0. -1.
         -2   -1    0    0    0  501 -0.00000000000E+00 -0.00000000000E+00 -0.64141088575E+03  0.64141088575E+03  0.00000000000E+00 0.  1.
         23    2    1    2    0    0 -0.27062690321E+03 -0.41847390859E+03  0.49855825579E+03  0.70971800878E+03  0.82340662188E+02 0.  0.
    5000000    2    1    2    0    0  0.27062690321E+03  0.41847390859E+03 -0.25181736511E+03  0.81984465340E+03  0.60031153364E+03 0.  0.
         23    2    4    4    0    0  0.25534760612E+03 -0.41597740147E+02  0.24594154552E+02  0.27520333046E+03  0.90549592623E+02 0.  0.
         23    2    4    4    0    0  0.15279297093E+02  0.46007164874E+03 -0.27641151967E+03  0.54464132294E+03  0.91276851135E+02 0.  0.
          2    1    3    3  502    0 -0.55467372750E+02 -0.10601488774E+03  0.75524584976E+02  0.14149116155E+03  0.00000000000E+00 0. -1.
         -2    1    3    3    0  502 -0.21515953046E+03 -0.31245902085E+03  0.42303367082E+03  0.56822684722E+03  0.00000000000E+00 0.  1.
         11    1    5    5    0    0  0.16445838571E+03  0.17203649864E+02  0.22935624825E+02  0.16693881839E+03  0.00000000000E+00 0.  1.
        -11    1    5    5    0    0  0.90889220402E+02 -0.58801390011E+02  0.16585297268E+01  0.10826451207E+03  0.00000000000E+00 0. -1.
          2    1    6    6  503    0 -0.13148560451E+02  0.26497486388E+03 -0.20378179334E+03  0.33453188552E+03  0.00000000000E+00 0. -1.
         -2    1    6    6    0  503  0.28427857544E+02  0.19509678486E+03 -0.72629726323E+02  0.21010943742E+03  0.00000000000E+00 0.  1.
<mgrwt>
<rscale>  0 0.61754380E+03</rscale>
<asrwt>0</asrwt>
<pdfrwt beam="1">  1        2 0.13663873E+00 0.61754380E+03</pdfrwt>
<pdfrwt beam="2">  1       -2 0.98678598E-01 0.61754380E+03</pdfrwt>
<totfact> 0.26208433E+01</totfact>
</mgrwt>
</event>
<event>
12    1  0.1418317E-007  0.8394884E+03  0.7818608E-02  0.9504555E-01
         -1   -1    0    0    0  501 -0.00000000000E+00  0.00000000000E+00  0.11970759895E+04  0.11970759895E+04  0.00000000000E+00 0.  1.
          1   -1    0    0  501    0  0.00000000000E+00 -0.00000000000E+00 -0.74344306950E+03  0.74344306950E+03  0.00000000000E+00 0. -1.
         23    2    1    2    0    0  0.14597285736E+03 -0.81139318456E+03  0.39628858995E+03  0.91917302423E+03  0.90373817561E+02 0.  0.
    5000000    2    1    2    0    0 -0.14597285736E+03  0.81139318456E+03  0.57344330006E+02  0.10213460347E+04  0.60016029144E+03 0.  0.
         23    2    4    4    0    0 -0.13918224710E+03  0.64056996287E+03  0.28653227435E+03  0.72114384676E+03  0.90808194701E+02 0.  0.
         23    2    4    4    0    0 -0.67906102543E+01  0.17082322169E+03 -0.22918794435E+03  0.30020218797E+03  0.91474337235E+02 0.  0.
          4    1    3    3  502    0  0.79295650972E+02 -0.24019590799E+03  0.14533271484E+03  0.29172499461E+03  0.00000000000E+00 0. -1.
         -4    1    3    3    0  502  0.66677206385E+02 -0.57119727657E+03  0.25095587511E+03  0.62744802962E+03  0.00000000000E+00 0.  1.
         13    1    5    5    0    0 -0.66370180614E+01  0.11940193700E+03  0.85629763194E+02  0.14708272813E+03  0.00000000000E+00 0. -1.
        -13    1    5    5    0    0 -0.13254522904E+03  0.52116802587E+03  0.20090251116E+03  0.57406111863E+03  0.00000000000E+00 0.  1.
          2    1    6    6  503    0  0.39583151049E+02  0.47353578009E+02 -0.80732650200E+02  0.10162159222E+03  0.00000000000E+00 0.  1.
         -2    1    6    6    0  503 -0.46373761304E+02  0.12346964368E+03 -0.14845529415E+03  0.19858059575E+03  0.00000000000E+00 0. -1.
<mgrwt>
<rscale>  0 0.83948843E+03</rscale>
<asrwt>0</asrwt>
<pdfrwt beam="1">  1        1 0.11437586E+00 0.83948843E+03</pdfrwt>
<pdfrwt beam="2">  1       -1 0.18416554E+00 0.83948843E+03</pdfrwt>
<totfact> 0.49353318E+00</totfact>
</mgrwt>
</event>
<event>
12    1  0.1418317E-007  0.5404684E+03  0.7818608E-02  0.1003725E+00
          2   -1    0    0  501    0  0.00000000000E+00  0.00000000000E+00  0.85859637890E+03  0.85859637890E+03  0.00000000000E+00 0. -1.
         -2   -1    0    0    0  501 -0.00000000000E+00 -0.00000000000E+00 -0.52409082004E+03  0.52409082004E+03  0.00000000000E+00 0.  1.
         23    2    1    2    0    0  0.42865993999E+03 -0.27575315827E+03  0.29176183374E+03  0.59434192752E+03  0.91259030934E+02 0.  0.
    5000000    2    1    2    0    0 -0.42865993999E+03  0.27575315827E+03  0.42743725112E+02  0.78834527142E+03  0.59989340093E+03 0.  0.
         23    2    4    4    0    0 -0.38967614140E+03  0.23475901582E+03 -0.21347329336E+03  0.51067544536E+03  0.90880541552E+02 0.  0.
         23    2    4    4    0    0 -0.38983798596E+02  0.40994142459E+02  0.25621701847E+03  0.27766982606E+03  0.90846659169E+02 0.  0.
          2    1    3    3  502    0  0.27848954687E+03 -0.14391558335E+03  0.21572881803E+03  0.38053520964E+03  0.00000000000E+00 0. -1.
         -2    1    3    3    0  502  0.15017039313E+03 -0.13183757493E+03  0.76033015714E+02  0.21380671789E+03  0.00000000000E+00 0.  1.
         11    1    5    5    0    0 -0.24703874540E+03  0.96346569797E+02 -0.12199471177E+03  0.29187927803E+03  0.00000000000E+00 0. -1.
        -11    1    5    5    0    0 -0.14263739599E+03  0.13841244602E+03 -0.91478581586E+02  0.21879616733E+03  0.00000000000E+00 0.  1.
          4    1    6    6  503    0 -0.67095197461E+02  0.27204788844E+02  0.14414560581E+03  0.16130660784E+03  0.00000000000E+00 0. -1.
         -4    1    6    6    0  503  0.28111398865E+02  0.13789353615E+02  0.11207141266E+03  0.11636321822E+03  0.00000000000E+00 0.  1.
<mgrwt>
<rscale>  0 0.54046835E+03</rscale>
<asrwt>0</asrwt>
<pdfrwt beam="1">  1        2 0.13209175E+00 0.54046835E+03</pdfrwt>
<pdfrwt beam="2">  1       -2 0.80629357E-01 0.54046835E+03</pdfrwt>
<totfact> 0.44024016E+01</totfact>
</mgrwt>
</event>
<event>
12    1  0.1418317E-007  0.4364208E+03  0.7818608E-02  0.1031851E+00
         -1   -1    0    0    0  501 -0.00000000000E+00  0.00000000000E+00  0.75223282385E+03  0.75223282385E+03  0.00000000000E+00 0.  1.
          1   -1    0    0  501    0  0.00000000000E+00 -0.00000000000E+00 -0.13515918609E+04  0.13515918609E+04  0.00000000000E+00 0. -1.
         23    2    1    2    0    0  0.89102391480E+02 -0.30160395877E+03  0.62435778260E+03  0.70513855497E+03  0.92160495306E+02 0.  0.
    5000000    2    1    2    0    0 -0.89102391480E+02  0.30160395877E+03 -0.12237168196E+04  0.13986861298E+04  0.59994653998E+03 0.  0.
         23    2    4    4    0    0  0.16842385738E+03  0.10533396359E+03 -0.91835584625E+03  0.94405878383E+03  0.91693442369E+02 0.  0.
         23    2    4    4    0    0 -0.25752624886E+03  0.19626999519E+03 -0.30536097340E+03  0.45462734594E+03  0.92730899632E+02 0.  0.
          2    1    3    3  502    0  0.10214377319E+03 -0.19328593924E+03  0.41658770051E+03  0.47046585097E+03  0.00000000000E+00 0. -1.
         -2    1    3    3    0  502 -0.13041381707E+02 -0.10831801953E+03  0.20777008209E+03  0.23467270400E+03  0.00000000000E+00 0.  1.
         11    1    5    5    0    0  0.91895640638E+02  0.79403371247E+01 -0.46663639130E+03  0.47566519676E+03  0.00000000000E+00 0.  1.
        -11    1    5    5    0    0  0.76528216740E+02  0.97393626463E+02 -0.45171945495E+03  0.46839358707E+03  0.00000000000E+00 0. -1.
          3    1    6    6  503    0 -0.82176710764E+02  0.98434906622E+02 -0.73094653996E+02  0.14759834375E+03  0.00000000000E+00 0. -1.
         -3    1    6    6    0  503 -0.17534953809E+03  0.97835088565E+02 -0.23226631940E+03  0.30702900220E+03  0.00000000000E+00 0.  1.
<mgrwt>
<rscale>  0 0.43642079E+03</rscale>
<asrwt>0</asrwt>
<pdfrwt beam="1">  1        1 0.20793721E+00 0.43642079E+03</pdfrwt>
<pdfrwt beam="2">  1       -1 0.11572813E+00 0.43642079E+03</pdfrwt>
<totfact> 0.62370451E+00</totfact>
</mgrwt>
</event>
<event>
12    1  0.1418317E-007  0.5009807E+03  0.7818608E-02  0.1013523E+00
         -3   -1    0    0    0  501 -0.00000000000E+00  0.00000000000E+00  0.25932574779E+03  0.25932574779E+03  0.00000000000E+00 0.  1.
          3   -1    0    0  501    0  0.00000000000E+00 -0.00000000000E+00 -0.12906306273E+04  0.12906306273E+04  0.00000000000E+00 0. -1.
         23    2    1    2    0    0 -0.45473055525E+02 -0.34074371348E+03 -0.69590769724E+03  0.78132243767E+03  0.89460334681E+02 0.  0.
    5000000    2    1    2    0    0  0.45473055525E+02  0.34074371348E+03 -0.33539718226E+03  0.76863393741E+03  0.60011064214E+03 0.  0.
         23    2    4    4    0    0 -0.64102584096E+02  0.47511282201E+03 -0.29034130945E+03  0.56774774832E+03  0.90543331190E+02 0.  0.
         23    2    4    4    0    0  0.10957563962E+03 -0.13436910852E+03 -0.45055872816E+02  0.20088618909E+03  0.90902976674E+02 0.  0.
          2    1    3    3  502    0 -0.22362205015E+02 -0.15171467254E+03 -0.41053847049E+03  0.43824564553E+03  0.00000000000E+00 0. -1.
         -2    1    3    3    0  502 -0.23110850510E+02 -0.18902904094E+03 -0.28536922675E+03  0.34307679214E+03  0.00000000000E+00 0.  1.
         13    1    5    5    0    0 -0.32420265809E+02  0.85122094145E+02 -0.90461415474E+02  0.12837488943E+03  0.00000000000E+00 0. -1.
        -13    1    5    5    0    0 -0.31682318287E+02  0.38999072786E+03 -0.19987989397E+03  0.43937285889E+03  0.00000000000E+00 0.  1.
          4    1    6    6  503    0  0.76544633531E+02 -0.71273450269E+02 -0.69515555131E+02  0.12558422688E+03  0.00000000000E+00 0. -1.
         -4    1    6    6    0  503  0.33031006090E+02 -0.63095658254E+02  0.24459682315E+02  0.75301962211E+02  0.00000000000E+00 0.  1.
<mgrwt>
<rscale>  0 0.50098067E+03</rscale>
<asrwt>0</asrwt>
<pdfrwt beam="1">  1        3 0.19855855E+00 0.50098067E+03</pdfrwt>
<pdfrwt beam="2">  1       -3 0.39896270E-01 0.50098067E+03</pdfrwt>
<totfact> 0.24897722E+00</totfact>
</mgrwt>
</event>
<event>
12    1  0.1744039E-007  0.8349603E+03  0.7818608E-02  0.9510748E-01
         -2   -1    0    0    0  501 -0.00000000000E+00  0.00000000000E+00  0.42026469226E+03  0.42026469226E+03  0.00000000000E+00 0.  1.
          2   -1    0    0  501    0  0.00000000000E+00 -0.00000000000E+00 -0.20021764784E+04  0.20021764784E+04  0.00000000000E+00 0. -1.
         23    2    1    2    0    0 -0.68368716123E+03 -0.30324627926E+03 -0.11408739900E+04  0.13673542147E+04  0.93153888474E+02 0.  0.
    5000000    2    1    2    0    0  0.68368716123E+03  0.30324627926E+03 -0.44103779614E+03  0.10550869560E+04  0.59942281140E+03 0.  0.
         23    2    4    4    0    0  0.32182363237E+02  0.25205237546E+03 -0.17365363469E+02  0.27117877622E+03  0.93114275741E+02 0.  0.
         23    2    4    4    0    0  0.65150479799E+03  0.51193903805E+02 -0.42367243267E+03  0.78390817980E+03  0.89075173659E+02 0.  0.
          4    1    3    3  502    0 -0.40273786943E+03 -0.20572536968E+03 -0.61758321404E+03  0.76546047936E+03  0.00000000000E+00 0. -1.
         -4    1    3    3    0  502 -0.28094929179E+03 -0.97520909585E+02 -0.52329077597E+03  0.60189373529E+03  0.00000000000E+00 0.  1.
         11    1    5    5    0    0  0.47782514426E+02  0.76327343877E+02  0.16479000022E+02  0.91545559968E+02  0.00000000000E+00 0. -1.
        -11    1    5    5    0    0 -0.15600151188E+02  0.17572503158E+03 -0.33844363491E+02  0.17963321625E+03  0.00000000000E+00 0.  1.
          2    1    6    6  503    0  0.44455025493E+03  0.44297208875E+02 -0.24010076214E+03  0.50718393887E+03  0.00000000000E+00 0. -1.
         -2    1    6    6    0  503  0.20695454306E+03  0.68966949306E+01 -0.18357167054E+03  0.27672424093E+03  0.00000000000E+00 0.  1.
<mgrwt>
<rscale>  0 0.83496030E+03</rscale>
<asrwt>0</asrwt>
<pdfrwt beam="1">  1        2 0.30802716E+00 0.83496030E+03</pdfrwt>
<pdfrwt beam="2">  1       -2 0.64656105E-01 0.83496030E+03</pdfrwt>
<totfact> 0.15049209E+01</totfact>
</mgrwt>
</event>
<event>
12    1  0.1418317E-007  0.7462114E+03  0.7818608E-02  0.9641313E-01
         -2   -1    0    0    0  501 -0.00000000000E+00  0.00000000000E+00  0.37219520621E+03  0.37219520621E+03  0.00000000000E+00 0.  1.
          2   -1    0    0  501    0  0.00000000000E+00 -0.00000000000E+00 -0.16421776533E+04  0.16421776533E+04  0.00000000000E+00 0. -1.
         23    2    1    2    0    0  0.53619905043E+03  0.33917483581E+03 -0.78452770339E+03  0.10152649353E+04  0.11282810193E+03 0.  0.
    5000000    2    1    2    0    0 -0.53619905043E+03 -0.33917483581E+03 -0.48545474365E+03  0.99910792415E+03  0.60000112086E+03 0.  0.
         23    2    4    4    0    0 -0.62500200259E+03 -0.15756149473E+03 -0.35189655195E+03  0.74009063336E+03  0.91922981048E+02 0.  0.
         23    2    4    4    0    0  0.88802952166E+02 -0.18161334108E+03 -0.13355819171E+03  0.25901729079E+03  0.91557612377E+02 0.  0.
          3    1    3    3  502    0  0.39415927062E+03  0.26696579661E+03 -0.50863703234E+03  0.69666627437E+03  0.00000000000E+00 0. -1.
         -3    1    3    3    0  502  0.14203977981E+03  0.72209039206E+02 -0.27589067105E+03  0.31859866095E+03  0.00000000000E+00 0.  1.
         11    1    5    5    0    0 -0.50577395963E+03 -0.13811373914E+03 -0.32326356587E+03  0.61593996152E+03  0.00000000000E+00 0. -1.
        -11    1    5    5    0    0 -0.11922804296E+03 -0.19447755590E+02 -0.28632986081E+02  0.12415067184E+03  0.00000000000E+00 0.  1.
          3    1    6    6  503    0  0.98324156352E+02 -0.17347153759E+03 -0.14121111491E+03  0.24433704805E+03  0.00000000000E+00 0. -1.
         -3    1    6    6    0  503 -0.95212041857E+01 -0.81418034982E+01  0.76529232069E+01  0.14680242742E+02  0.00000000000E+00 0.  1.
<mgrwt>
<rscale>  0 0.74621143E+03</rscale>
<asrwt>0</asrwt>
<pdfrwt beam="1">  1        2 0.25264272E+00 0.74621143E+03</pdfrwt>
<pdfrwt beam="2">  1       -2 0.57260800E-01 0.74621143E+03</pdfrwt>
<totfact> 0.30974666E+01</totfact>
</mgrwt>
</event>
<event>
12    1  0.1418317E-007  0.6351903E+03  0.7818608E-02  0.9834972E-01
         -2   -1    0    0    0  501 -0.00000000000E+00  0.00000000000E+00  0.29161142615E+03  0.29161142615E+03  0.00000000000E+00 0.  1.
          2   -1    0    0  501    0  0.00000000000E+00 -0.00000000000E+00 -0.18452587467E+04  0.18452587467E+04  0.00000000000E+00 0. -1.
         23    2    1    2    0    0 -0.56278842281E+03 -0.68966229119E+02 -0.96663806114E+03  0.11244597214E+04  0.92376263857E+02 0.  0.
    5000000    2    1    2    0    0  0.56278842281E+03  0.68966229119E+02 -0.58700925936E+03  0.10124104514E+04  0.59908922708E+03 0.  0.
         23    2    4    4    0    0 -0.54027867934E+02 -0.43555824795E+02 -0.29202038366E+03  0.31318693099E+03  0.89409333314E+02 0.  0.
         23    2    4    4    0    0  0.61681629074E+03  0.11252205391E+03 -0.29498887570E+03  0.69922352045E+03  0.93656530042E+02 0.  0.
          1    1    3    3  502    0 -0.23056066194E+03 -0.30092486582E+02 -0.30973731559E+03  0.38729960141E+03  0.00000000000E+00 0. -1.
         -1    1    3    3    0  502 -0.33222776087E+03 -0.38873742537E+02 -0.65690074555E+03  0.73716011995E+03  0.00000000000E+00 0.  1.
         13    1    5    5    0    0 -0.26576833966E+02 -0.88131481328E+01 -0.25185002928E+03  0.25340173033E+03  0.00000000000E+00 0.  1.
        -13    1    5    5    0    0 -0.27451033968E+02 -0.34742676663E+02 -0.40170354380E+02  0.59785200665E+02  0.00000000000E+00 0. -1.
          3    1    6    6  503    0  0.17509480405E+03  0.65208340029E+02 -0.57559135147E+02  0.19550798463E+03  0.00000000000E+00 0. -1.
         -3    1    6    6    0  503  0.44172148669E+03  0.47313713886E+02 -0.23742974056E+03  0.50371553582E+03  0.00000000000E+00 0.  1.
<mgrwt>
<rscale>  0 0.63519027E+03</rscale>
<asrwt>0</asrwt>
<pdfrwt beam="1">  1        2 0.28388596E+00 0.63519027E+03</pdfrwt>
<pdfrwt beam="2">  1       -2 0.44863297E-01 0.63519027E+03</pdfrwt>
<totfact> 0.40056817E+01</totfact>
</mgrwt>
</event>
<event>
12    1  0.1418317E-007  0.7568665E+03  0.7818608E-02  0.9624639E-01
          2   -1    0    0  501    0  0.00000000000E+00  0.00000000000E+00  0.12481648277E+04  0.12481648277E+04  0.00000000000E+00 0. -1.
         -2   -1    0    0    0  501 -0.00000000000E+00 -0.00000000000E+00 -0.78617895194E+03  0.78617895194E+03  0.00000000000E+00 0.  1.
         23    2    1    2    0    0  0.72611361521E+03  0.11083320187E+03 -0.31874237193E+03  0.80590763002E+03  0.91462711747E+02 0.  0.
    5000000    2    1    2    0    0 -0.72611361521E+03 -0.11083320187E+03  0.78072824770E+03  0.12284361496E+04  0.59999483007E+03 0.  0.
         23    2    4    4    0    0 -0.23934153096E+03 -0.13325756185E+03 -0.16954252653E+02  0.28921758854E+03  0.91199893648E+02 0.  0.
         23    2    4    4    0    0 -0.48677208424E+03  0.22424359986E+02  0.79768250036E+03  0.93921856109E+03  0.91565387537E+02 0.  0.
          4    1    3    3  502    0  0.44730114910E+03  0.47850999752E+02 -0.23775767007E+03  0.50881897158E+03  0.00000000000E+00 0. -1.
         -4    1    3    3    0  502  0.27881246611E+03  0.62982202115E+02 -0.80984701866E+02  0.29708865845E+03  0.00000000000E+00 0.  1.
         13    1    5    5    0    0 -0.13184783811E+03 -0.34556799790E+02 -0.38660750408E+02  0.14167808034E+03  0.00000000000E+00 0. -1.
        -13    1    5    5    0    0 -0.10749369285E+03 -0.98700762063E+02  0.21706497755E+02  0.14753950820E+03  0.00000000000E+00 0.  1.
          3    1    6    6  503    0 -0.23958030480E+03  0.56840072082E+02  0.39317621333E+03  0.46391491781E+03  0.00000000000E+00 0. -1.
         -3    1    6    6    0  503 -0.24719177944E+03 -0.34415712097E+02  0.40450628703E+03  0.47530364327E+03  0.00000000000E+00 0.  1.
<mgrwt>
<rscale>  0 0.75686645E+03</rscale>
<asrwt>0</asrwt>
<pdfrwt beam="1">  1        2 0.19202536E+00 0.75686645E+03</pdfrwt>
<pdfrwt beam="2">  1       -2 0.12095061E+00 0.75686645E+03</pdfrwt>
<totfact> 0.94143275E+00</totfact>
</mgrwt>
</event>
<event>
12    1  0.1418317E-007  0.4282016E+03  0.7818608E-02  0.1034430E+00
         -1   -1    0    0    0  501 -0.00000000000E+00  0.00000000000E+00  0.25461750394E+03  0.25461750394E+03  0.00000000000E+00 0.  1.
          1   -1    0    0  501    0  0.00000000000E+00 -0.00000000000E+00 -0.78138433688E+03  0.78138433688E+03  0.00000000000E+00 0. -1.
         23    2    1    2    0    0  0.12506479637E+03  0.18959193624E+03 -0.15853815969E+03  0.29629580342E+03  0.10521667867E+03 0.  0.
    5000000    2    1    2    0    0 -0.12506479637E+03 -0.18959193624E+03 -0.36822867325E+03  0.73970603740E+03  0.59998863354E+03 0.  0.
         23    2    4    4    0    0  0.22501233422E+03 -0.43120900123E+02 -0.10079414555E+03  0.26567520497E+03  0.89072398541E+02 0.  0.
         23    2    4    4    0    0 -0.35007713059E+03 -0.14647103611E+03 -0.26743452770E+03  0.47403083242E+03  0.95792701717E+02 0.  0.
          1    1    3    3  502    0  0.10814726248E+03  0.13547305762E+03 -0.16488511782E+03  0.23924021778E+03  0.00000000000E+00 0. -1.
         -1    1    3    3    0  502  0.16917533893E+02  0.54118878615E+02  0.63469581325E+01  0.57055585643E+02  0.00000000000E+00 0.  1.
         13    1    5    5    0    0  0.45972632066E+02  0.16258483642E+02  0.56425435470E+01  0.49088282585E+02  0.00000000000E+00 0. -1.
        -13    1    5    5    0    0  0.17903970215E+03 -0.59379383765E+02 -0.10643668910E+03  0.21658692239E+03  0.00000000000E+00 0.  1.
          3    1    6    6  503    0 -0.26030846026E+03 -0.14749071883E+03 -0.18257026978E+03  0.35049380883E+03  0.00000000000E+00 0. -1.
         -3    1    6    6    0  503 -0.89768670325E+02  0.10196827144E+01 -0.84864257922E+02  0.12353702359E+03  0.00000000000E+00 0.  1.
<mgrwt>
<rscale>  0 0.42820159E+03</rscale>
<asrwt>0</asrwt>
<pdfrwt beam="1">  1        1 0.12021297E+00 0.42820159E+03</pdfrwt>
<pdfrwt beam="2">  1       -1 0.39171924E-01 0.42820159E+03</pdfrwt>
<totfact> 0.15160758E+02</totfact>
</mgrwt>
</event>
<event>
12    1  0.1418317E-007  0.1044153E+04  0.7818608E-02  0.9261401E-01
          1   -1    0    0  501    0  0.00000000000E+00  0.00000000000E+00  0.15552806698E+04  0.15552806698E+04  0.00000000000E+00 0. -1.
         -1   -1    0    0    0  501 -0.00000000000E+00 -0.00000000000E+00 -0.75098468274E+03  0.75098468274E+03  0.00000000000E+00 0.  1.
         23    2    1    2    0    0  0.70017491151E+03 -0.66345509951E+03  0.11009991407E+03  0.97501218507E+03  0.90051064340E+02 0.  0.
    5000000    2    1    2    0    0 -0.70017491151E+03  0.66345509951E+03  0.69419607297E+03  0.13312531674E+04  0.59992435552E+03 0.  0.
         23    2    4    4    0    0 -0.70952339549E+03  0.34041296620E+03  0.55584742523E+03  0.96780317675E+03  0.91499685705E+02 0.  0.
         23    2    4    4    0    0  0.93484839747E+01  0.32304213330E+03  0.13834864774E+03  0.36344999070E+03  0.92260139646E+02 0.  0.
          2    1    3    3  502    0  0.47979167719E+03 -0.43369797228E+03  0.33847804968E+02  0.64764161275E+03  0.00000000000E+00 0. -1.
         -2    1    3    3    0  502  0.22038323432E+03 -0.22975712722E+03  0.76252109106E+02  0.32737057232E+03  0.00000000000E+00 0.  1.
         13    1    5    5    0    0 -0.22867776288E+03  0.15568344158E+03  0.21086438677E+03  0.34784284214E+03  0.00000000000E+00 0. -1.
        -13    1    5    5    0    0 -0.48084563261E+03  0.18472952463E+03  0.34498303846E+03  0.61996033461E+03  0.00000000000E+00 0.  1.
          3    1    6    6  503    0 -0.16320317388E+02  0.28543054698E+03  0.96891487418E+02  0.30186902829E+03  0.00000000000E+00 0. -1.
         -3    1    6    6    0  503  0.25668801363E+02  0.37611586326E+02  0.41457160323E+02  0.61580962410E+02  0.00000000000E+00 0.  1.
<mgrwt>
<rscale>  0 0.10441534E+04</rscale>
<asrwt>0</asrwt>
<pdfrwt beam="1">  1        1 0.23927395E+00 0.10441534E+04</pdfrwt>
<pdfrwt beam="2">  1       -1 0.11553611E+00 0.10441534E+04</pdfrwt>
<totfact> 0.40678065E+00</totfact>
</mgrwt>
</event>
<event>
12    1  0.1418317E-007  0.1167171E+04  0.7818608E-02  0.9142087E-01
          2   -1    0    0  501    0  0.00000000000E+00  0.00000000000E+00  0.10266071339E+04  0.10266071339E+04  0.00000000000E+00 0.  1.
         -2   -1    0    0    0  501 -0.00000000000E+00 -0.00000000000E+00 -0.20301679056E+04  0.20301679056E+04  0.00000000000E+00 0. -1.
         23    2    1    2    0    0  0.11359164316E+04  0.15514119427E+03 -0.12932207866E+04  0.17307109629E+04  0.92550009539E+02 0.  0.
    5000000    2    1    2    0    0 -0.11359164316E+04 -0.15514119427E+03  0.28966001492E+03  0.13260640766E+04  0.60014005124E+03 0.  0.
         23    2    4    4    0    0 -0.73402634578E+03 -0.20952917929E+03 -0.74689635796E+02  0.77310963307E+03  0.97071158324E+02 0.  0.
         23    2    4    4    0    0 -0.40189008587E+03  0.54387985019E+02  0.36434965072E+03  0.55295444351E+03  0.92381029339E+02 0.  0.
          1    1    3    3  502    0  0.66253301461E+03  0.13610909632E+03 -0.76892001542E+03  0.10240672203E+04  0.00000000000E+00 0. -1.
         -1    1    3    3    0  502  0.47338341704E+03  0.19032097956E+02 -0.52430077122E+03  0.70664374262E+03  0.00000000000E+00 0.  1.
         11    1    5    5    0    0 -0.63250128037E+03 -0.14461584316E+03 -0.57131225383E+02  0.65133369994E+03  0.00000000000E+00 0.  1.
        -11    1    5    5    0    0 -0.10152506541E+03 -0.64913336128E+02 -0.17558410413E+02  0.12177593313E+03  0.00000000000E+00 0. -1.
          1    1    6    6  503    0 -0.12119213965E+01 -0.91206167332E+01  0.14934781468E+02  0.17541439524E+02  0.00000000000E+00 0. -1.
         -1    1    6    6    0  503 -0.40067816447E+03  0.63508601752E+02  0.34941486925E+03  0.53541300399E+03  0.00000000000E+00 0.  1.
<mgrwt>
<rscale>  0 0.11671715E+04</rscale>
<asrwt>0</asrwt>
<pdfrwt beam="1">  1        2 0.15793956E+00 0.11671715E+04</pdfrwt>
<pdfrwt beam="2">  1       -2 0.31233352E+00 0.11671715E+04</pdfrwt>
<totfact> 0.63568851E-01</totfact>
</mgrwt>
</event>
<event>
12    1  0.1418317E-007  0.2457393E+03  0.7818608E-02  0.1116027E+00
         -1   -1    0    0    0  501 -0.00000000000E+00  0.00000000000E+00  0.34147301130E+03  0.34147301130E+03  0.00000000000E+00 0.  1.
          1   -1    0    0  501    0  0.00000000000E+00 -0.00000000000E+00 -0.42442436968E+03  0.42442436968E+03  0.00000000000E+00 0. -1.
         23    2    1    2    0    0  0.40553076655E+02  0.10106569583E+03  0.36340340749E+02  0.14475699137E+03  0.88176750251E+02 0.  0.
    5000000    2    1    2    0    0 -0.40553076655E+02 -0.10106569583E+03 -0.11929169913E+03  0.62114038960E+03  0.59977166256E+03 0.  0.
         23    2    4    4    0    0  0.14258194075E+02 -0.20022527033E+03 -0.31181489282E+03  0.38068507188E+03  0.86018263135E+02 0.  0.
         23    2    4    4    0    0 -0.54811270730E+02  0.99159574501E+02  0.19252319369E+03  0.24045531772E+03  0.88975744426E+02 0.  0.
          4    1    3    3  502    0  0.61096626476E+02  0.38737083439E+02  0.64047170119E+01  0.72624925474E+02  0.00000000000E+00 0. -1.
         -4    1    3    3    0  502 -0.20543549820E+02  0.62328612393E+02  0.29935623738E+02  0.72132065897E+02  0.00000000000E+00 0.  1.
         11    1    5    5    0    0 -0.26064559142E+02 -0.97860620160E+02 -0.19794643083E+03  0.22234849156E+03  0.00000000000E+00 0.  1.
        -11    1    5    5    0    0  0.40322753217E+02 -0.10236465017E+03 -0.11386846199E+03  0.15833658032E+03  0.00000000000E+00 0. -1.
          1    1    6    6  503    0 -0.48461641803E+02  0.11519332069E+03  0.15459374073E+03  0.19878947792E+03  0.00000000000E+00 0. -1.
         -1    1    6    6    0  503 -0.63496289274E+01 -0.16033746191E+02  0.37929452956E+02  0.41665839797E+02  0.00000000000E+00 0.  1.
<mgrwt>
<rscale>  0 0.24573935E+03</rscale>
<asrwt>0</asrwt>
<pdfrwt beam="1">  1        1 0.65296057E-01 0.24573935E+03</pdfrwt>
<pdfrwt beam="2">  1       -1 0.52534309E-01 0.24573935E+03</pdfrwt>
<totfact> 0.21263590E+02</totfact>
</mgrwt>
</event>
<event>
12    1  0.1418317E-007  0.6094043E+03  0.7818608E-02  0.9886085E-01
          2   -1    0    0  501    0  0.00000000000E+00  0.00000000000E+00  0.13300592474E+04  0.13300592474E+04  0.00000000000E+00 0. -1.
         -2   -1    0    0    0  501 -0.00000000000E+00 -0.00000000000E+00 -0.32647105032E+03  0.32647105032E+03  0.00000000000E+00 0.  1.
         23    2    1    2    0    0 -0.45468674210E+03  0.85119486105E+02  0.69118008662E+03  0.83661755776E+03  0.90629274829E+02 0.  0.
    5000000    2    1    2    0    0  0.45468674210E+03 -0.85119486105E+02  0.31240811047E+03  0.81991273997E+03  0.60056033279E+03 0.  0.
         23    2    4    4    0    0  0.11105970408E+03  0.23653278924E+03  0.11782066273E+03  0.30057733761E+03  0.90459985959E+02 0.  0.
         23    2    4    4    0    0  0.34362703802E+03 -0.32165227534E+03  0.19458744774E+03  0.51933540237E+03  0.10151481588E+03 0.  0.
          3    1    3    3  502    0 -0.87029904682E+02  0.53922950519E+02  0.14690298728E+03  0.17905970114E+03  0.00000000000E+00 0. -1.
         -3    1    3    3    0  502 -0.36765683742E+03  0.31196535586E+02  0.54427709935E+03  0.65755785662E+03  0.00000000000E+00 0.  1.
         13    1    5    5    0    0  0.39396816033E+02  0.16893885067E+03  0.48511983719E+02  0.18012733536E+03  0.00000000000E+00 0.  1.
        -13    1    5    5    0    0  0.71662888049E+02  0.67593938570E+02  0.69308679013E+02  0.12045000225E+03  0.00000000000E+00 0. -1.
          4    1    6    6  503    0  0.94478889869E+02 -0.13210046498E+03  0.28304505633E+02  0.16485732776E+03  0.00000000000E+00 0.  1.
         -4    1    6    6    0  503  0.24914814815E+03 -0.18955181037E+03  0.16628294210E+03  0.35447807461E+03  0.00000000000E+00 0. -1.
<mgrwt>
<rscale>  0 0.60940433E+03</rscale>
<asrwt>0</asrwt>
<pdfrwt beam="1">  1        2 0.20462450E+00 0.60940433E+03</pdfrwt>
<pdfrwt beam="2">  1       -2 0.50226316E-01 0.60940433E+03</pdfrwt>
<totfact> 0.61553100E+01</totfact>
</mgrwt>
</event>
<event>
12    1  0.1418317E-007  0.3991102E+03  0.7818608E-02  0.1044088E+00
         -2   -1    0    0    0  501 -0.00000000000E+00  0.00000000000E+00  0.58574369751E+03  0.58574369751E+03  0.00000000000E+00 0.  1.
          2   -1    0    0  501    0  0.00000000000E+00 -0.00000000000E+00 -0.60261175039E+03  0.60261175039E+03  0.00000000000E+00 0. -1.
         23    2    1    2    0    0  0.19760298289E+03  0.23621746439E+03 -0.31620890001E+03  0.45053486100E+03  0.90266068974E+02 0.  0.
    5000000    2    1    2    0    0 -0.19760298289E+03 -0.23621746439E+03  0.29934084712E+03  0.73782058690E+03  0.59994053569E+03 0.  0.
         23    2    4    4    0    0 -0.13963289057E+03 -0.33051965549E+03 -0.36353819216E+02  0.37174271133E+03  0.90169043771E+02 0.  0.
         23    2    4    4    0    0 -0.57970092313E+02  0.94302191106E+02  0.33569466634E+03  0.36607787557E+03  0.95229549642E+02 0.  0.
          1    1    3    3  502    0  0.17672729963E+03  0.19621994337E+03 -0.21789942153E+03  0.34236670766E+03  0.00000000000E+00 0. -1.
         -1    1    3    3    0  502  0.20875683254E+02  0.39997521014E+02 -0.98309478476E+02  0.10816815334E+03  0.00000000000E+00 0.  1.
         13    1    5    5    0    0  0.45684183940E+01 -0.74358724555E+02 -0.20908207662E+02  0.77377280333E+02  0.00000000000E+00 0. -1.
        -13    1    5    5    0    0 -0.14420130897E+03 -0.25616093094E+03 -0.15445611555E+02  0.29436543099E+03  0.00000000000E+00 0.  1.
          3    1    6    6  503    0 -0.58445908920E+01  0.54946238320E+02  0.55294074436E+02  0.78170857844E+02  0.00000000000E+00 0. -1.
         -3    1    6    6    0  503 -0.52125501421E+02  0.39355952786E+02  0.28040059190E+03  0.28790701773E+03  0.00000000000E+00 0.  1.
<mgrwt>
<rscale>  0 0.39911022E+03</rscale>
<asrwt>0</asrwt>
<pdfrwt beam="1">  1        2 0.92709500E-01 0.39911022E+03</pdfrwt>
<pdfrwt beam="2">  1       -2 0.90114415E-01 0.39911022E+03</pdfrwt>
<totfact> 0.54375878E+01</totfact>
</mgrwt>
</event>
<event>
12    1  0.1418317E-007  0.6219664E+03  0.7818608E-02  0.9860852E-01
          1   -1    0    0  501    0  0.00000000000E+00  0.00000000000E+00  0.16494075772E+04  0.16494075772E+04  0.00000000000E+00 0.  1.
         -1   -1    0    0    0  501 -0.00000000000E+00 -0.00000000000E+00 -0.34726547330E+03  0.34726547330E+03  0.00000000000E+00 0. -1.
         23    2    1    2    0    0  0.55143860595E+03  0.13393721713E+03  0.17672796438E+03  0.60077032997E+03  0.87569981820E+02 0.  0.
    5000000    2    1    2    0    0 -0.55143860595E+03 -0.13393721713E+03  0.11254141395E+04  0.13959027205E+04  0.59996975383E+03 0.  0.
         23    2    4    4    0    0 -0.61502412573E+02  0.89351702116E+02 -0.32874303191E+01  0.14198553862E+03  0.91557700696E+02 0.  0.
         23    2    4    4    0    0 -0.48993619337E+03 -0.22328891925E+03  0.11287015698E+04  0.12539171819E+04  0.91900219330E+02 0.  0.
          4    1    3    3  502    0  0.21220767933E+03  0.71209336583E+02  0.10995773560E+03  0.24938639177E+03  0.00000000000E+00 0. -1.
         -4    1    3    3    0  502  0.33923092662E+03  0.62727880549E+02  0.66770228785E+02  0.35138393820E+03  0.00000000000E+00 0.  1.
         13    1    5    5    0    0  0.61719756348E+01 -0.12217570338E+02 -0.13858676206E+02  0.19478840171E+02  0.00000000000E+00 0. -1.
        -13    1    5    5    0    0 -0.67674388208E+02  0.10156927245E+03  0.10571245887E+02  0.12250669845E+03  0.00000000000E+00 0.  1.
          3    1    6    6  503    0 -0.18668702448E+03 -0.68058741175E+02  0.51494217820E+03  0.55195061758E+03  0.00000000000E+00 0. -1.
         -3    1    6    6    0  503 -0.30324916889E+03 -0.15523017807E+03  0.61375939162E+03  0.70196656432E+03  0.00000000000E+00 0.  1.
<mgrwt>
<rscale>  0 0.62196638E+03</rscale>
<asrwt>0</asrwt>
<pdfrwt beam="1">  1        1 0.25375501E+00 0.62196638E+03</pdfrwt>
<pdfrwt beam="2">  1       -1 0.53425458E-01 0.62196638E+03</pdfrwt>
<totfact> 0.19279874E+01</totfact>
</mgrwt>
</event>
<event>
12    1  0.1418317E-007  0.6699792E+03  0.7818608E-02  0.9769995E-01
         -2   -1    0    0    0  501 -0.00000000000E+00  0.00000000000E+00  0.85709026904E+03  0.85709026904E+03  0.00000000000E+00 0.  1.
          2   -1    0    0  501    0  0.00000000000E+00 -0.00000000000E+00 -0.70453354714E+03  0.70453354714E+03  0.00000000000E+00 0. -1.
         23    2    1    2    0    0 -0.63772545186E+03 -0.15964835537E+03  0.83003050894E+02  0.66881914188E+03  0.90819539552E+02 0.  0.
    5000000    2    1    2    0    0  0.63772545186E+03  0.15964835537E+03  0.69553671005E+02  0.89280467430E+03  0.60006759950E+03 0.  0.
         23    2    4    4    0    0  0.48444491275E+03  0.13210858281E+03 -0.21544811510E+03  0.55403869467E+03  0.91659335334E+02 0.  0.
         23    2    4    4    0    0  0.15328053911E+03  0.27539772563E+02  0.28500178611E+03  0.33876597962E+03  0.96348368559E+02 0.  0.
          4    1    3    3  502    0 -0.51578888881E+03 -0.16158578906E+03  0.83159285688E+02  0.54686708791E+03  0.00000000000E+00 0. -1.
         -4    1    3    3    0  502 -0.12193656305E+03  0.19374336854E+01 -0.15623479366E+00  0.12195205397E+03  0.00000000000E+00 0.  1.
         11    1    5    5    0    0  0.15215651600E+03 -0.86946738354E+00 -0.73909228671E+02  0.16915949698E+03  0.00000000000E+00 0.  1.
        -11    1    5    5    0    0  0.33228839675E+03  0.13297805019E+03 -0.14153888643E+03  0.38487919770E+03  0.00000000000E+00 0. -1.
          3    1    6    6  503    0  0.32866581536E+02  0.33420770192E+02  0.27264059747E+02  0.54226276066E+02  0.00000000000E+00 0. -1.
         -3    1    6    6    0  503  0.12041395758E+03 -0.58809976292E+01  0.25773772636E+03  0.28453970356E+03  0.00000000000E+00 0.  1.
<mgrwt>
<rscale>  0 0.66997923E+03</rscale>
<asrwt>0</asrwt>
<pdfrwt beam="1">  1        2 0.10838978E+00 0.66997923E+03</pdfrwt>
<pdfrwt beam="2">  1       -2 0.13186004E+00 0.66997923E+03</pdfrwt>
<totfact> 0.17409292E+01</totfact>
</mgrwt>
</event>
<event>
12    1  0.1418317E-007  0.1880433E+04  0.7818608E-02  0.8664658E-01
         -2   -1    0    0    0  501 -0.00000000000E+00  0.00000000000E+00  0.10187065629E+04  0.10187065629E+04  0.00000000000E+00 0.  1.
          2   -1    0    0  501    0  0.00000000000E+00 -0.00000000000E+00 -0.35602556433E+04  0.35602556433E+04  0.00000000000E+00 0. -1.
         23    2    1    2    0    0 -0.15163317479E+04  0.10314147291E+04 -0.89578454769E+03  0.20430233728E+04  0.91848968855E+02 0.  0.
    5000000    2    1    2    0    0  0.15163317479E+04 -0.10314147291E+04 -0.16457645327E+04  0.25359388333E+04  0.59947189770E+03 0.  0.
         23    2    4    4    0    0  0.28517350358E+03 -0.50459505434E+03 -0.48101203344E+03  0.75877303645E+03  0.91781525975E+02 0.  0.
         23    2    4    4    0    0  0.12311582443E+04 -0.52681967473E+03 -0.11647524993E+04  0.17771657969E+04  0.91543938999E+02 0.  0.
          1    1    3    3  502    0 -0.30051845396E+03  0.24617635720E+03 -0.17338587441E+03  0.42541368274E+03  0.00000000000E+00 0. -1.
         -1    1    3    3    0  502 -0.12158132939E+04  0.78523837187E+03 -0.72239867328E+03  0.16176096901E+04  0.00000000000E+00 0.  1.
         13    1    5    5    0    0  0.28373591274E+03 -0.45721070302E+03 -0.42719516389E+03  0.68705414866E+03  0.00000000000E+00 0. -1.
        -13    1    5    5    0    0  0.14375908434E+01 -0.47384351320E+02 -0.53816869549E+02  0.71718887788E+02  0.00000000000E+00 0.  1.
          2    1    6    6  503    0  0.87163652690E+03 -0.38923039667E+03 -0.77785067782E+03  0.12313822370E+04  0.00000000000E+00 0. -1.
         -2    1    6    6    0  503  0.35952171739E+03 -0.13758927806E+03 -0.38690182147E+03  0.54578355982E+03  0.00000000000E+00 0.  1.
<mgrwt>
<rscale>  0 0.18804333E+04</rscale>
<asrwt>0</asrwt>
<pdfrwt beam="1">  1        2 0.54773163E+00 0.18804333E+04</pdfrwt>
<pdfrwt beam="2">  1       -2 0.15672409E+00 0.18804333E+04</pdfrwt>
<totfact> 0.17918768E-01</totfact>
</mgrwt>
</event>
<event>
12    1  0.1418317E-007  0.1297236E+04  0.7818608E-02  0.9031760E-01
          2   -1    0    0  501    0  0.00000000000E+00  0.00000000000E+00  0.15425465734E+04  0.15425465734E+04  0.00000000000E+00 0. -1.
         -2   -1    0    0    0  501 -0.00000000000E+00 -0.00000000000E+00 -0.23908680541E+04  0.23908680541E+04  0.00000000000E+00 0.  1.
         23    2    1    2    0    0  0.97640114899E+03 -0.76837100150E+03  0.10205027759E+04  0.16104470077E+04  0.91435492809E+02 0.  0.
    5000000    2    1    2    0    0 -0.97640114899E+03  0.76837100150E+03 -0.18688242566E+04  0.23229676198E+04  0.59993438056E+03 0.  0.
         23    2    4    4    0    0 -0.91388718378E+03  0.45567913828E+03 -0.12179860561E+04  0.15920796476E+04  0.91620466272E+02 0.  0.
         23    2    4    4    0    0 -0.62513965211E+02  0.31269186322E+03 -0.65083820056E+03  0.73088797222E+03  0.94459872252E+02 0.  0.
          1    1    3    3  502    0  0.71542762061E+02 -0.89308543773E+02  0.99185109264E+02  0.15143338038E+03  0.00000000000E+00 0. -1.
         -1    1    3    3    0  502  0.90485838693E+03 -0.67906245772E+03  0.92131766665E+03  0.14590136273E+04  0.00000000000E+00 0.  1.
         13    1    5    5    0    0 -0.78879423549E+03  0.40834575885E+03 -0.10123287280E+04  0.13467561242E+04  0.00000000000E+00 0. -1.
        -13    1    5    5    0    0 -0.12509294829E+03  0.47333379427E+02 -0.20565732809E+03  0.24532352337E+03  0.00000000000E+00 0.  1.
          4    1    6    6  503    0 -0.11138445493E+02  0.22377151909E+03 -0.37863643207E+03  0.43995829963E+03  0.00000000000E+00 0. -1.
         -4    1    6    6    0  503 -0.51375519718E+02  0.88920344126E+02 -0.27220176849E+03  0.29092967259E+03  0.00000000000E+00 0.  1.
<mgrwt>
<rscale>  0 0.12972358E+04</rscale>
<asrwt>0</asrwt>
<pdfrwt beam="1">  1        2 0.23731486E+00 0.12972358E+04</pdfrwt>
<pdfrwt beam="2">  1       -2 0.36782585E+00 0.12972358E+04</pdfrwt>
<totfact> 0.13931823E-01</totfact>
</mgrwt>
</event>
<event>
12    1  0.1788257E-007  0.1115892E+04  0.7818608E-02  0.9189840E-01
         -2   -1    0    0    0  501 -0.00000000000E+00  0.00000000000E+00  0.64378196605E+03  0.64378196605E+03  0.00000000000E+00 0. -1.
          2   -1    0    0  501    0  0.00000000000E+00 -0.00000000000E+00 -0.21693653106E+04  0.21693653106E+04  0.00000000000E+00 0.  1.
         23    2    1    2    0    0 -0.83506481325E+03 -0.65487929535E+03 -0.35418304654E+03  0.11224980988E+04  0.91412348565E+02 0.  0.
    5000000    2    1    2    0    0  0.83506481325E+03  0.65487929535E+03 -0.11714002980E+04  0.16906491779E+04  0.59992987150E+03 0.  0.
         23    2    4    4    0    0  0.58084615988E+03  0.68742172404E+03 -0.69054104825E+03  0.11380805773E+04  0.91921558461E+02 0.  0.
         23    2    4    4    0    0  0.25421865337E+03 -0.32542428692E+02 -0.48085924975E+03  0.55256860061E+03  0.91762230404E+02 0.  0.
          4    1    3    3  502    0 -0.38871772712E+03 -0.24729329645E+03 -0.15338230269E+03  0.48557345133E+03  0.00000000000E+00 0. -1.
         -4    1    3    3    0  502 -0.44634708612E+03 -0.40758599889E+03 -0.20080074385E+03  0.63692464744E+03  0.00000000000E+00 0.  1.
         11    1    5    5    0    0  0.31174387160E+03  0.29847232965E+03 -0.33735863032E+03  0.54779632940E+03  0.00000000000E+00 0.  1.
        -11    1    5    5    0    0  0.26910228828E+03  0.38894939439E+03 -0.35318241793E+03  0.59028424787E+03  0.00000000000E+00 0. -1.
          1    1    6    6  503    0  0.22138670394E+03 -0.46796073270E+02 -0.34898721029E+03  0.41592549585E+03  0.00000000000E+00 0. -1.
         -1    1    6    6    0  503  0.32831949425E+02  0.14253644578E+02 -0.13187203946E+03  0.13664310476E+03  0.00000000000E+00 0.  1.
<mgrwt>
<rscale>  0 0.11158917E+04</rscale>
<asrwt>0</asrwt>
<pdfrwt beam="1">  1        2 0.33374852E+00 0.11158917E+04</pdfrwt>
<pdfrwt beam="2">  1       -2 0.99043377E-01 0.11158917E+04</pdfrwt>
<totfact> 0.44911357E+00</totfact>
</mgrwt>
</event>
<event>
12    1  0.1418317E-007  0.9955817E+03  0.7818608E-02  0.9313404E-01
          2   -1    0    0  501    0  0.00000000000E+00  0.00000000000E+00  0.14080511043E+04  0.14080511043E+04  0.00000000000E+00 0. -1.
         -2   -1    0    0    0  501 -0.00000000000E+00 -0.00000000000E+00 -0.91765143491E+03  0.91765143491E+03  0.00000000000E+00 0.  1.
         23    2    1    2    0    0 -0.22051484149E+03 -0.88454842444E+03 -0.31504328154E+03  0.96926347787E+03  0.95742935944E+02 0.  0.
    5000000    2    1    2    0    0  0.22051484149E+03  0.88454842444E+03  0.80544295090E+03  0.13564390613E+04  0.60011321383E+03 0.  0.
         23    2    4    4    0    0 -0.47033769277E+02  0.78250358732E+03  0.55384428630E+03  0.96409453708E+03  0.90613152186E+02 0.  0.
         23    2    4    4    0    0  0.26754861077E+03  0.10204483712E+03  0.25159866461E+03  0.39234452424E+03  0.92935083583E+02 0.  0.
          2    1    3    3  502    0 -0.31727323519E+02 -0.44186283251E+02 -0.86370365806E+01  0.55078571933E+02  0.00000000000E+00 0. -1.
         -2    1    3    3    0  502 -0.18878751797E+03 -0.84036214119E+03 -0.30640624496E+03  0.91418490593E+03  0.00000000000E+00 0.  1.
         11    1    5    5    0    0 -0.66367870104E+02  0.36157550826E+03  0.26736197550E+03  0.45455909220E+03  0.00000000000E+00 0.  1.
        -11    1    5    5    0    0  0.19334100827E+02  0.42092807906E+03  0.28648231080E+03  0.50953544489E+03  0.00000000000E+00 0. -1.
          2    1    6    6  503    0  0.99382289170E+02  0.33572885391E+02  0.36990576221E+02  0.11123075458E+03  0.00000000000E+00 0. -1.
         -2    1    6    6    0  503  0.16816632160E+03  0.68471951734E+02  0.21460808839E+03  0.28111376966E+03  0.00000000000E+00 0.  1.
<mgrwt>
<rscale>  0 0.99558171E+03</rscale>
<asrwt>0</asrwt>
<pdfrwt beam="1">  1        2 0.21662324E+00 0.99558171E+03</pdfrwt>
<pdfrwt beam="2">  1       -2 0.14117715E+00 0.99558171E+03</pdfrwt>
<totfact> 0.49957162E+00</totfact>
</mgrwt>
</event>
<event>
12    1  0.1418317E-007  0.1757358E+04  0.7818608E-02  0.8729310E-01
         -2   -1    0    0    0  501 -0.00000000000E+00  0.00000000000E+00  0.11200972520E+04  0.11200972520E+04  0.00000000000E+00 0. -1.
          2   -1    0    0  501    0  0.00000000000E+00 -0.00000000000E+00 -0.42250708526E+04  0.42250708526E+04  0.00000000000E+00 0.  1.
         23    2    1    2    0    0  0.73343125213E+03 -0.15919665552E+04 -0.30239719909E+02  0.17553972242E+04  0.90697626056E+02 0.  0.
    5000000    2    1    2    0    0 -0.73343125213E+03  0.15919665552E+04 -0.30747338807E+04  0.35897708805E+04  0.60015633183E+03 0.  0.
         23    2    4    4    0    0 -0.16001403098E+03  0.30359322622E+03 -0.11396447696E+04  0.11936016336E+04  0.90118376880E+02 0.  0.
         23    2    4    4    0    0 -0.57341722115E+03  0.12883733290E+04 -0.19350891111E+04  0.23961692468E+04  0.91345756053E+02 0.  0.
          3    1    3    3  502    0  0.66506871389E+03 -0.14650466640E+04 -0.51028978355E+02  0.16097459670E+04  0.00000000000E+00 0. -1.
         -3    1    3    3    0  502  0.68362538244E+02 -0.12691989127E+03  0.20789258446E+02  0.14565125712E+03  0.00000000000E+00 0.  1.
         11    1    5    5    0    0 -0.13195793698E+03  0.18293078659E+03 -0.63147588194E+03  0.67055078800E+03  0.00000000000E+00 0. -1.
        -11    1    5    5    0    0 -0.28056094000E+02  0.12066243963E+03 -0.50816888765E+03  0.52305084564E+03  0.00000000000E+00 0.  1.
          3    1    6    6  503    0 -0.42787426558E+03  0.87679961019E+03 -0.12948629554E+04  0.16212723450E+04  0.00000000000E+00 0. -1.
         -3    1    6    6    0  503 -0.14554295557E+03  0.41157371882E+03 -0.64022615571E+03  0.77489690179E+03  0.00000000000E+00 0.  1.
<mgrwt>
<rscale>  0 0.17573582E+04</rscale>
<asrwt>0</asrwt>
<pdfrwt beam="1">  1        2 0.65001088E+00 0.17573582E+04</pdfrwt>
<pdfrwt beam="2">  1       -2 0.17232266E+00 0.17573582E+04</pdfrwt>
<totfact> 0.42141963E-02</totfact>
</mgrwt>
</event>
<event>
12    1  0.1418317E-007  0.9893741E+03  0.7818608E-02  0.9320276E-01
          4   -1    0    0  501    0  0.00000000000E+00  0.00000000000E+00  0.20802537875E+04  0.20802537875E+04  0.00000000000E+00 0. -1.
         -4   -1    0    0    0  501 -0.00000000000E+00 -0.00000000000E+00 -0.54682102920E+03  0.54682102920E+03  0.00000000000E+00 0.  1.
         23    2    1    2    0    0  0.86876225047E+03  0.26832056227E+03  0.11580661029E+04  0.14751586124E+04  0.90730705739E+02 0.  0.
    5000000    2    1    2    0    0 -0.86876225047E+03 -0.26832056227E+03  0.37536665542E+03  0.11519162044E+04  0.59938889202E+03 0.  0.
         23    2    4    4    0    0 -0.73791933301E+03  0.26220013725E+02  0.33417437692E+03  0.81506589999E+03  0.86298760024E+02 0.  0.
         23    2    4    4    0    0 -0.13084291746E+03 -0.29454057599E+03  0.41192278507E+02  0.33685030437E+03  0.88866775525E+02 0.  0.
          2    1    3    3  502    0  0.82126429071E+03  0.24179667025E+03  0.10554400011E+04  0.13590048789E+04  0.00000000000E+00 0. -1.
         -2    1    3    3    0  502  0.47497959766E+02  0.26523892020E+02  0.10262610175E+03  0.11615373343E+03  0.00000000000E+00 0.  1.
         11    1    5    5    0    0 -0.46720128603E+03  0.37373234432E+02  0.25081822480E+03  0.53158591235E+03  0.00000000000E+00 0. -1.
        -11    1    5    5    0    0 -0.27071804698E+03 -0.11153220707E+02  0.83356152121E+02  0.28347998764E+03  0.00000000000E+00 0.  1.
          2    1    6    6  503    0 -0.10447497270E+03 -0.15729620813E+03 -0.71633073527E+01  0.18896674307E+03  0.00000000000E+00 0. -1.
         -2    1    6    6    0  503 -0.26367944759E+02 -0.13724436786E+03  0.48355585859E+02  0.14788356130E+03  0.00000000000E+00 0.  1.
<mgrwt>
<rscale>  0 0.98937410E+03</rscale>
<asrwt>0</asrwt>
<pdfrwt beam="1">  1        4 0.32003904E+00 0.98937410E+03</pdfrwt>
<pdfrwt beam="2">  1       -4 0.84126313E-01 0.98937410E+03</pdfrwt>
<totfact> 0.56212284E-02</totfact>
</mgrwt>
</event>
<event>
12    1  0.1418317E-007  0.5840271E+03  0.7818608E-02  0.9939110E-01
         -3   -1    0    0    0  501 -0.00000000000E+00  0.00000000000E+00  0.59542926588E+03  0.59542926588E+03  0.00000000000E+00 0.  1.
          3   -1    0    0  501    0  0.00000000000E+00 -0.00000000000E+00 -0.69059966989E+03  0.69059966989E+03  0.00000000000E+00 0. -1.
         23    2    1    2    0    0  0.30902755619E+03  0.38471584974E+03  0.14317025815E+02  0.50152308638E+03  0.88408785908E+02 0.  0.
    5000000    2    1    2    0    0 -0.30902755619E+03 -0.38471584974E+03 -0.10948742983E+03  0.78450584939E+03  0.59996467806E+03 0.  0.
         23    2    4    4    0    0 -0.42403781814E+03 -0.26547518609E+03 -0.23221267555E+03  0.55888123004E+03  0.90223926773E+02 0.  0.
         23    2    4    4    0    0  0.11501026194E+03 -0.11924066365E+03  0.12272524573E+03  0.22562461936E+03  0.91647622458E+02 0.  0.
          1    1    3    3  502    0  0.42161354294E+02  0.22598993608E+02  0.19515954191E+02  0.51663979483E+02  0.00000000000E+00 0. -1.
         -1    1    3    3    0  502  0.26686620190E+03  0.36211685613E+03 -0.51989283760E+01  0.44985910690E+03  0.00000000000E+00 0.  1.
         11    1    5    5    0    0 -0.16653626022E+03 -0.70485681501E+02 -0.11961924884E+03  0.21682094446E+03  0.00000000000E+00 0.  1.
        -11    1    5    5    0    0 -0.25750155792E+03 -0.19498950459E+03 -0.11259342671E+03  0.34206028558E+03  0.00000000000E+00 0. -1.
          2    1    6    6  503    0  0.68093518580E+02 -0.82432491913E+02  0.12678983115E+03  0.16585386423E+03  0.00000000000E+00 0. -1.
         -2    1    6    6    0  503  0.46916743364E+02 -0.36808171733E+02 -0.40645854244E+01  0.59770755131E+02  0.00000000000E+00 0.  1.
<mgrwt>
<rscale>  0 0.58402712E+03</rscale>
<asrwt>0</asrwt>
<pdfrwt beam="1">  1        3 0.10624610E+00 0.58402712E+03</pdfrwt>
<pdfrwt beam="2">  1       -3 0.91604503E-01 0.58402712E+03</pdfrwt>
<totfact> 0.21207939E+00</totfact>
</mgrwt>
</event>
<event>
12    1  0.1418317E-007  0.4995959E+03  0.7818608E-02  0.1013884E+00
         -2   -1    0    0    0  501 -0.00000000000E+00  0.00000000000E+00  0.15990266165E+03  0.15990266165E+03  0.00000000000E+00 0.  1.
          2   -1    0    0  501    0  0.00000000000E+00 -0.00000000000E+00 -0.20113696577E+04  0.20113696577E+04  0.00000000000E+00 0. -1.
         23    2    1    2    0    0 -0.39957601098E+02  0.39968828694E+03 -0.64187296060E+03  0.76274471205E+03  0.91821901625E+02 0.  0.
    5000000    2    1    2    0    0  0.39957601098E+02 -0.39968828694E+03 -0.12095940355E+04  0.14085276073E+04  0.59957064081E+03 0.  0.
         23    2    4    4    0    0  0.13342651414E+03  0.34846147323E+02 -0.72897781663E+03  0.74764055152E+03  0.92416711046E+02 0.  0.
         23    2    4    4    0    0 -0.93468913044E+02 -0.43453443426E+03 -0.48061621885E+03  0.66088705580E+03  0.90681522023E+02 0.  0.
          4    1    3    3  502    0 -0.10452976630E+02  0.28647426900E+03 -0.38066099103E+03  0.47652865770E+03  0.00000000000E+00 0.  1.
         -4    1    3    3    0  502 -0.29504624467E+02  0.11321401794E+03 -0.26121196957E+03  0.28621605435E+03  0.00000000000E+00 0. -1.
         13    1    5    5    0    0  0.82125955022E+02 -0.15357889200E+00 -0.58642380389E+03  0.59214658138E+03  0.00000000000E+00 0. -1.
        -13    1    5    5    0    0  0.51300559119E+02  0.34999726215E+02 -0.14255401274E+03  0.15549397014E+03  0.00000000000E+00 0.  1.
          3    1    6    6  503    0 -0.40056632331E+02 -0.55068212741E+02 -0.50190412660E+02  0.84593849488E+02  0.00000000000E+00 0. -1.
         -3    1    6    6    0  503 -0.53412280712E+02 -0.37946622152E+03 -0.43042580619E+03  0.57629320631E+03  0.00000000000E+00 0.  1.
<mgrwt>
<rscale>  0 0.49959585E+03</rscale>
<asrwt>0</asrwt>
<pdfrwt beam="1">  1        2 0.30944147E+00 0.49959585E+03</pdfrwt>
<pdfrwt beam="2">  1       -2 0.24600411E-01 0.49959585E+03</pdfrwt>
<totfact> 0.10300778E+02</totfact>
</mgrwt>
</event>
<event>
12    1  0.1418317E-007  0.1993707E+04  0.7818608E-02  0.8609568E-01
         -1   -1    0    0    0  501 -0.00000000000E+00  0.00000000000E+00  0.26764779045E+04  0.26764779045E+04  0.00000000000E+00 0.  1.
          1   -1    0    0  501    0  0.00000000000E+00 -0.00000000000E+00 -0.18429231757E+04  0.18429231757E+04  0.00000000000E+00 0. -1.
         23    2    1    2    0    0  0.14488941344E+04 -0.13026463997E+04  0.14032197597E+04  0.24026884526E+04  0.87773862836E+02 0.  0.
    5000000    2    1    2    0    0 -0.14488941344E+04  0.13026463997E+04 -0.56966503089E+03  0.21167126276E+04  0.59981017431E+03 0.  0.
         23    2    4    4    0    0 -0.30913010516E+02 -0.22130440911E+02 -0.19463489307E+02  0.97606844685E+02  0.87766155659E+02 0.  0.
         23    2    4    4    0    0 -0.14179811239E+04  0.13247768406E+04 -0.55020154158E+03  0.20191057829E+04  0.91445509786E+02 0.  0.
          3    1    3    3  502    0  0.11257557376E+04 -0.97678135209E+03  0.11049963976E+04  0.18553826638E+04  0.00000000000E+00 0. -1.
         -3    1    3    3    0  502  0.32313839679E+03 -0.32586504762E+03  0.29822336206E+03  0.54730578877E+03  0.00000000000E+00 0.  1.
         13    1    5    5    0    0 -0.36863610159E+02 -0.52778049066E+02 -0.11634989675E+02  0.65420342417E+02  0.00000000000E+00 0.  1.
        -13    1    5    5    0    0  0.59505996428E+01  0.30647608155E+02 -0.78284996318E+01  0.32186502268E+02  0.00000000000E+00 0. -1.
          1    1    6    6  503    0 -0.13354049173E+03  0.16126422697E+03 -0.69253321701E+02  0.22053398014E+03  0.00000000000E+00 0. -1.
         -1    1    6    6    0  503 -0.12844406321E+04  0.11635126137E+04 -0.48094821988E+03  0.17985718028E+04  0.00000000000E+00 0.  1.
<mgrwt>
<rscale>  0 0.19937075E+04</rscale>
<asrwt>0</asrwt>
<pdfrwt beam="1">  1        1 0.28352664E+00 0.19937075E+04</pdfrwt>
<pdfrwt beam="2">  1       -1 0.41176583E+00 0.19937075E+04</pdfrwt>
<totfact> 0.20122764E-02</totfact>
</mgrwt>
</event>
<event>
12    1  0.1418317E-007  0.5551253E+03  0.7818608E-02  0.1000315E+00
          2   -1    0    0  501    0  0.00000000000E+00  0.00000000000E+00  0.63819822023E+03  0.63819822023E+03  0.00000000000E+00 0. -1.
         -2   -1    0    0    0  501 -0.00000000000E+00 -0.00000000000E+00 -0.56568611619E+03  0.56568611619E+03  0.00000000000E+00 0.  1.
         23    2    1    2    0    0  0.16520444598E+03 -0.41069015313E+03  0.78214778744E+02  0.45814362055E+03  0.88425757457E+02 0.  0.
    5000000    2    1    2    0    0 -0.16520444598E+03  0.41069015313E+03 -0.57026747056E+01  0.74574071587E+03  0.60011480897E+03 0.  0.
         23    2    4    4    0    0  0.12040031443E+03 -0.22605079219E+02 -0.12839038784E+03  0.20471041195E+03  0.10205408249E+03 0.  0.
         23    2    4    4    0    0 -0.28560476041E+03  0.43329523235E+03  0.12268771313E+03  0.54103030391E+03  0.91360151335E+02 0.  0.
          1    1    3    3  502    0  0.11175238387E+02 -0.11476387424E+03  0.41365996639E+02  0.12250215697E+03  0.00000000000E+00 0. -1.
         -1    1    3    3    0  502  0.15402920760E+03 -0.29592627889E+03  0.36848782105E+02  0.33564146358E+03  0.00000000000E+00 0.  1.
         11    1    5    5    0    0  0.32608246123E+02 -0.40273578914E+02 -0.96712407287E+02  0.10972031989E+03  0.00000000000E+00 0. -1.
        -11    1    5    5    0    0  0.87792068303E+02  0.17668499695E+02 -0.31677980549E+02  0.94990092063E+02  0.00000000000E+00 0.  1.
          2    1    6    6  503    0 -0.16349570510E+03  0.21873794498E+03  0.20536150476E+02  0.27385921135E+03  0.00000000000E+00 0. -1.
         -2    1    6    6    0  503 -0.12210905531E+03  0.21455728737E+03  0.10215156265E+03  0.26717109257E+03  0.00000000000E+00 0.  1.
<mgrwt>
<rscale>  0 0.55512529E+03</rscale>
<asrwt>0</asrwt>
<pdfrwt beam="1">  1        2 0.98184341E-01 0.55512529E+03</pdfrwt>
<pdfrwt beam="2">  1       -2 0.87028634E-01 0.55512529E+03</pdfrwt>
<totfact> 0.54021746E+01</totfact>
</mgrwt>
</event>
<event>
12    1  0.1418317E-007  0.6527630E+03  0.7818608E-02  0.9801608E-01
         -1   -1    0    0    0  501 -0.00000000000E+00  0.00000000000E+00  0.61602353317E+03  0.61602353317E+03  0.00000000000E+00 0.  1.
          1   -1    0    0  501    0  0.00000000000E+00 -0.00000000000E+00 -0.82159888291E+03  0.82159888291E+03  0.00000000000E+00 0. -1.
         23    2    1    2    0    0 -0.29295540483E+03  0.43622128667E+03  0.16478772252E+03  0.55825331276E+03  0.91541725778E+02 0.  0.
    5000000    2    1    2    0    0  0.29295540483E+03 -0.43622128667E+03 -0.37036307226E+03  0.87936910331E+03  0.60000777862E+03 0.  0.
         23    2    4    4    0    0  0.27631361845E+03 -0.55324494251E+03 -0.37757464590E+03  0.73030323078E+03  0.91383879912E+02 0.  0.
         23    2    4    4    0    0  0.16641786382E+02  0.11702365584E+03  0.72115736419E+01  0.14906587253E+03  0.90538071985E+02 0.  0.
          3    1    3    3  502    0 -0.15134181820E+03  0.14881105372E+03  0.79960337396E+02  0.22680990102E+03  0.00000000000E+00 0. -1.
         -3    1    3    3    0  502 -0.14161358663E+03  0.28741023294E+03  0.84827385122E+02  0.33144341174E+03  0.00000000000E+00 0.  1.
         13    1    5    5    0    0  0.23043241015E+03 -0.36934417819E+03 -0.25341634350E+03  0.50372022072E+03  0.00000000000E+00 0. -1.
        -13    1    5    5    0    0  0.45881208300E+02 -0.18390076432E+03 -0.12415830240E+03  0.22658301006E+03  0.00000000000E+00 0.  1.
          1    1    6    6  503    0  0.50411546084E+02  0.95410647269E+02 -0.19964333428E+01  0.10792822308E+03  0.00000000000E+00 0. -1.
         -1    1    6    6    0  503 -0.33769759702E+02  0.21613008573E+02  0.92080069846E+01  0.41137649453E+02  0.00000000000E+00 0.  1.
<mgrwt>
<rscale>  0 0.65276296E+03</rscale>
<asrwt>0</asrwt>
<pdfrwt beam="1">  1        1 0.12639983E+00 0.65276296E+03</pdfrwt>
<pdfrwt beam="2">  1       -1 0.94772851E-01 0.65276296E+03</pdfrwt>
<totfact> 0.23686497E+01</totfact>
</mgrwt>
</event>
<event>
12    1  0.1418317E-007  0.8465486E+03  0.7818608E-02  0.9494981E-01
         -2   -1    0    0    0  501 -0.00000000000E+00  0.00000000000E+00  0.27277054982E+03  0.27277054982E+03  0.00000000000E+00 0.  1.
          2   -1    0    0  501    0  0.00000000000E+00 -0.00000000000E+00 -0.29996951696E+04  0.29996951696E+04  0.00000000000E+00 0. -1.
         23    2    1    2    0    0  0.71316110642E+03  0.33983274454E+03 -0.14725243517E+04  0.16735143691E+04  0.90759677832E+02 0.  0.
    5000000    2    1    2    0    0 -0.71316110642E+03 -0.33983274454E+03 -0.12544002681E+04  0.15989513504E+04  0.59919974155E+03 0.  0.
         23    2    4    4    0    0 -0.17919463337E+03 -0.30826928903E+03 -0.83627485106E+03  0.91347846451E+03  0.89143745760E+02 0.  0.
         23    2    4    4    0    0 -0.53396647306E+03 -0.31563455510E+02 -0.41812541703E+03  0.68547288586E+03  0.94486860524E+02 0.  0.
          3    1    3    3  502    0  0.44094434084E+03  0.24087850209E+03 -0.86147544079E+03  0.99729348718E+03  0.00000000000E+00 0. -1.
         -3    1    3    3    0  502  0.27221676559E+03  0.98954242453E+02 -0.61104891094E+03  0.67622088191E+03  0.00000000000E+00 0.  1.
         11    1    5    5    0    0 -0.17251747934E+03 -0.23089939599E+03 -0.69209638471E+03  0.74971609125E+03  0.00000000000E+00 0. -1.
        -11    1    5    5    0    0 -0.66771540219E+01 -0.77369893041E+02 -0.14417846635E+03  0.16376237326E+03  0.00000000000E+00 0.  1.
          1    1    6    6  503    0 -0.30342732888E+03 -0.10356844898E+02 -0.29471305472E+03  0.42312077800E+03  0.00000000000E+00 0. -1.
         -1    1    6    6    0  503 -0.23053914417E+03 -0.21206610612E+02 -0.12341236231E+03  0.26235210786E+03  0.00000000000E+00 0.  1.
<mgrwt>
<rscale>  0 0.84654864E+03</rscale>
<asrwt>0</asrwt>
<pdfrwt beam="1">  1        2 0.46149160E+00 0.84654864E+03</pdfrwt>
<pdfrwt beam="2">  1       -2 0.41964697E-01 0.84654864E+03</pdfrwt>
<totfact> 0.98055790E+00</totfact>
</mgrwt>
</event>
<event>
12    1  0.1418317E-007  0.8373055E+03  0.7818608E-02  0.9507535E-01
          2   -1    0    0  501    0  0.00000000000E+00  0.00000000000E+00  0.15728438981E+04  0.15728438981E+04  0.00000000000E+00 0. -1.
         -2   -1    0    0    0  501 -0.00000000000E+00 -0.00000000000E+00 -0.47021275376E+03  0.47021275376E+03  0.00000000000E+00 0.  1.
         23    2    1    2    0    0  0.54891139106E+02 -0.74651593457E+03  0.57607302662E+03  0.94871884433E+03  0.88928262449E+02 0.  0.
    5000000    2    1    2    0    0 -0.54891139106E+02  0.74651593457E+03  0.52655811768E+03  0.10943378075E+04  0.60001058981E+03 0.  0.
         23    2    4    4    0    0 -0.91867597260E+01 -0.61315500342E+02 -0.22043528960E+02  0.11249031654E+03  0.91236873080E+02 0.  0.
         23    2    4    4    0    0 -0.45704379380E+02  0.80783143491E+03  0.54860164664E+03  0.98184749095E+03  0.91543493801E+02 0.  0.
          1    1    3    3  502    0 -0.38776143239E+01 -0.36809442060E+03  0.24211172151E+03  0.44059803002E+03  0.00000000000E+00 0. -1.
         -1    1    3    3    0  502  0.58768753430E+02 -0.37842151397E+03  0.33396130511E+03  0.50812081431E+03  0.00000000000E+00 0.  1.
         11    1    5    5    0    0 -0.43771538362E+02 -0.54883045351E+01 -0.35114223257E+01  0.44253803723E+02  0.00000000000E+00 0.  1.
        -11    1    5    5    0    0  0.34584778636E+02 -0.55827195807E+02 -0.18532106635E+02  0.68236512815E+02  0.00000000000E+00 0. -1.
          3    1    6    6  503    0 -0.64518793421E+02  0.37482134181E+03  0.23870718111E+03  0.44903767246E+03  0.00000000000E+00 0. -1.
         -3    1    6    6    0  503  0.18814414040E+02  0.43301009311E+03  0.30989446553E+03  0.53280981848E+03  0.00000000000E+00 0.  1.
<mgrwt>
<rscale>  0 0.83730547E+03</rscale>
<asrwt>0</asrwt>
<pdfrwt beam="1">  1        2 0.24197598E+00 0.83730547E+03</pdfrwt>
<pdfrwt beam="2">  1       -2 0.72340424E-01 0.83730547E+03</pdfrwt>
<totfact> 0.20271049E+01</totfact>
</mgrwt>
</event>
<event>
12    1  0.1418317E-007  0.4409109E+03  0.7818608E-02  0.1030468E+00
          2   -1    0    0  501    0  0.00000000000E+00  0.00000000000E+00  0.33663603430E+04  0.33663603430E+04  0.00000000000E+00 0.  1.
         -2   -1    0    0    0  501 -0.00000000000E+00 -0.00000000000E+00 -0.14853036484E+03  0.14853036484E+03  0.00000000000E+00 0. -1.
         23    2    1    2    0    0  0.24324343343E+03  0.46279147372E+02  0.26172608589E+04  0.26304421763E+04  0.88670807250E+02 0.  0.
    5000000    2    1    2    0    0 -0.24324343343E+03 -0.46279147372E+02  0.60056911925E+03  0.88444853151E+03  0.60021397060E+03 0.  0.
         23    2    4    4    0    0  0.16504972045E+03 -0.12112600757E+03  0.24008657393E+03  0.32751553718E+03  0.87817675794E+02 0.  0.
         23    2    4    4    0    0 -0.40829315388E+03  0.74846860194E+02  0.36048254531E+03  0.55693299432E+03  0.89001925270E+02 0.  0.
          2    1    3    3  502    0  0.15790399148E+03  0.27790944690E+02  0.12252942339E+04  0.12357394413E+04  0.00000000000E+00 0. -1.
         -2    1    3    3    0  502  0.85339441945E+02  0.18488202682E+02  0.13919666251E+04  0.13947027351E+04  0.00000000000E+00 0.  1.
         13    1    5    5    0    0  0.72534230394E+02 -0.26159152002E+02  0.38363230802E+02  0.86123476996E+02  0.00000000000E+00 0.  1.
        -13    1    5    5    0    0  0.92515490060E+02 -0.94966855565E+02  0.20172334313E+03  0.24139206019E+03  0.00000000000E+00 0. -1.
          2    1    6    6  503    0 -0.92792349351E+02 -0.20221908577E+02  0.77187294748E+02  0.12238146982E+03  0.00000000000E+00 0.  1.
         -2    1    6    6    0  503 -0.31550080453E+03  0.95068768771E+02  0.28329525057E+03  0.43455152450E+03  0.00000000000E+00 0. -1.
<mgrwt>
<rscale>  0 0.44091094E+03</rscale>
<asrwt>0</asrwt>
<pdfrwt beam="1">  1        2 0.51790153E+00 0.44091094E+03</pdfrwt>
<pdfrwt beam="2">  1       -2 0.22850828E-01 0.44091094E+03</pdfrwt>
<totfact> 0.19490992E+01</totfact>
</mgrwt>
</event>
<event>
12    1  0.1418317E-007  0.1142255E+04  0.7818608E-02  0.9164959E-01
          2   -1    0    0  501    0  0.00000000000E+00  0.00000000000E+00  0.12422109948E+04  0.12422109948E+04  0.00000000000E+00 0. -1.
         -2   -1    0    0    0  501 -0.00000000000E+00 -0.00000000000E+00 -0.10988992136E+04  0.10988992136E+04  0.00000000000E+00 0.  1.
         23    2    1    2    0    0 -0.10881902215E+04  0.49612584162E+02  0.70365722678E+02  0.10953560645E+04  0.90742527824E+02 0.  0.
    5000000    2    1    2    0    0  0.10881902215E+04 -0.49612584162E+02  0.72946058486E+02  0.12457541440E+04  0.59996907674E+03 0.  0.
         23    2    4    4    0    0  0.12382537290E+03  0.14891496163E+03 -0.10956629772E+03  0.24029060101E+03  0.90699562127E+02 0.  0.
         23    2    4    4    0    0  0.96436484861E+03 -0.19852754579E+03  0.18251235620E+03  0.10054635429E+04  0.90738240886E+02 0.  0.
          2    1    3    3  502    0 -0.49490147355E+03  0.86299010208E+00  0.71681135636E+02  0.50006639407E+03  0.00000000000E+00 0. -1.
         -2    1    3    3    0  502 -0.59328874796E+03  0.48749594060E+02 -0.13154129580E+01  0.59528967041E+03  0.00000000000E+00 0.  1.
         11    1    5    5    0    0  0.99983642447E+01  0.70789162845E+02 -0.60871932268E+02  0.93896032940E+02  0.00000000000E+00 0. -1.
        -11    1    5    5    0    0  0.11382700866E+03  0.78125798780E+02 -0.48694365448E+02  0.14639456807E+03  0.00000000000E+00 0.  1.
          1    1    6    6  503    0  0.52434078552E+03 -0.11752956649E+03  0.14446409059E+03  0.55643178542E+03  0.00000000000E+00 0. -1.
         -1    1    6    6    0  503  0.44002406309E+03 -0.80997979292E+02  0.38048265607E+02  0.44903175752E+03  0.00000000000E+00 0.  1.
<mgrwt>
<rscale>  0 0.11422546E+04</rscale>
<asrwt>0</asrwt>
<pdfrwt beam="1">  1        2 0.19110938E+00 0.11422546E+04</pdfrwt>
<pdfrwt beam="2">  1       -2 0.16906142E+00 0.11422546E+04</pdfrwt>
<totfact> 0.37798628E+00</totfact>
</mgrwt>
</event>
<event>
12    1  0.1418317E-007  0.7283256E+03  0.7818608E-02  0.9669981E-01
          1   -1    0    0  501    0  0.00000000000E+00  0.00000000000E+00  0.14144386750E+04  0.14144386750E+04  0.00000000000E+00 0. -1.
         -1   -1    0    0    0  501 -0.00000000000E+00 -0.00000000000E+00 -0.46630243617E+03  0.46630243617E+03  0.00000000000E+00 0.  1.
         23    2    1    2    0    0  0.16566251304E+02  0.68669123657E+03  0.26861869524E+03  0.74287385371E+03  0.88804639708E+02 0.  0.
    5000000    2    1    2    0    0 -0.16566251304E+02 -0.68669123657E+03  0.67951754362E+03  0.11378672575E+04  0.60098128798E+03 0.  0.
         23    2    4    4    0    0  0.14949219941E+03 -0.38813170602E+03  0.65766224661E+03  0.78336266653E+03  0.90240222699E+02 0.  0.
         23    2    4    4    0    0 -0.16605845071E+03 -0.29855953054E+03  0.21855297014E+02  0.35450459096E+03  0.92101295705E+02 0.  0.
          4    1    3    3  502    0  0.26045780281E+01  0.22152159281E+03  0.42933898522E+02  0.22565885657E+03  0.00000000000E+00 0. -1.
         -4    1    3    3    0  502  0.13961673276E+02  0.46516964376E+03  0.22568479672E+03  0.51721499714E+03  0.00000000000E+00 0.  1.
         13    1    5    5    0    0  0.24296625855E+02 -0.35939290050E+02  0.12753658338E+03  0.13471280079E+03  0.00000000000E+00 0. -1.
        -13    1    5    5    0    0  0.12519557355E+03 -0.35219241597E+03  0.53012566323E+03  0.64864986574E+03  0.00000000000E+00 0.  1.
          2    1    6    6  503    0 -0.70495323923E+02 -0.50432969559E+02 -0.74701233569E+01  0.86999298023E+02  0.00000000000E+00 0. -1.
         -2    1    6    6    0  503 -0.95563126790E+02 -0.24812656098E+03  0.29325420371E+02  0.26750529293E+03  0.00000000000E+00 0.  1.
<mgrwt>
<rscale>  0 0.72832560E+03</rscale>
<asrwt>0</asrwt>
<pdfrwt beam="1">  1        1 0.21760595E+00 0.72832560E+03</pdfrwt>
<pdfrwt beam="2">  1       -1 0.71738837E-01 0.72832560E+03</pdfrwt>
<totfact> 0.15283218E+01</totfact>
</mgrwt>
</event>
<event>
12    1  0.1418317E-007  0.6051182E+03  0.7818608E-02  0.9894844E-01
          2   -1    0    0  501    0  0.00000000000E+00  0.00000000000E+00  0.14563206854E+04  0.14563206854E+04  0.00000000000E+00 0. -1.
         -2   -1    0    0    0  501 -0.00000000000E+00 -0.00000000000E+00 -0.47649719515E+03  0.47649719515E+03  0.00000000000E+00 0.  1.
         23    2    1    2    0    0  0.47040422267E+03  0.11166117849E+03  0.10496988972E+04  0.11592723433E+04  0.91083696426E+02 0.  0.
    5000000    2    1    2    0    0 -0.47040422267E+03 -0.11166117849E+03 -0.69875406914E+02  0.77354553725E+03  0.59978477325E+03 0.  0.
         23    2    4    4    0    0 -0.58123033876E+03 -0.25954545212E+02  0.91496935391E+01  0.58888415818E+03  0.90545512017E+02 0.  0.
         23    2    4    4    0    0  0.11082611609E+03 -0.85706633274E+02 -0.79025100453E+02  0.18466137908E+03  0.90701727801E+02 0.  0.
          2    1    3    3  502    0  0.20528862041E+03  0.30417801348E+02  0.54909139540E+03  0.58700086952E+03  0.00000000000E+00 0. -1.
         -2    1    3    3    0  502  0.26511560225E+03  0.81243377138E+02  0.50060750176E+03  0.57227147378E+03  0.00000000000E+00 0.  1.
         11    1    5    5    0    0 -0.26118892789E+03  0.18402963317E+02  0.37647283211E+02  0.26452909679E+03  0.00000000000E+00 0.  1.
        -11    1    5    5    0    0 -0.32004141087E+03 -0.44357508530E+02 -0.28497589672E+02  0.32435506139E+03  0.00000000000E+00 0. -1.
          4    1    6    6  503    0  0.74062191593E+02 -0.50973643146E+02  0.10929459231E+01  0.89915043513E+02  0.00000000000E+00 0. -1.
         -4    1    6    6    0  503  0.36763924499E+02 -0.34732990127E+02 -0.80118046376E+02  0.94746335564E+02  0.00000000000E+00 0.  1.
<mgrwt>
<rscale>  0 0.60511824E+03</rscale>
<asrwt>0</asrwt>
<pdfrwt beam="1">  1        2 0.22404933E+00 0.60511824E+03</pdfrwt>
<pdfrwt beam="2">  1       -2 0.73307261E-01 0.60511824E+03</pdfrwt>
<totfact> 0.23534419E+01</totfact>
</mgrwt>
</event>
<event>
12    1  0.1418317E-007  0.1316987E+04  0.7818608E-02  0.9016202E-01
         -1   -1    0    0    0  501 -0.00000000000E+00  0.00000000000E+00  0.72351887141E+03  0.72351887141E+03  0.00000000000E+00 0.  1.
          1   -1    0    0  501    0  0.00000000000E+00 -0.00000000000E+00 -0.26558533758E+04  0.26558533758E+04  0.00000000000E+00 0. -1.
         23    2    1    2    0    0 -0.88074112118E+03 -0.94632025645E+03 -0.59873951966E+03  0.14275099972E+04  0.89826662627E+02 0.  0.
    5000000    2    1    2    0    0  0.88074112118E+03  0.94632025645E+03 -0.13335949848E+04  0.19518622501E+04  0.60005308893E+03 0.  0.
         23    2    4    4    0    0  0.17363311859E+03  0.41368247938E+03 -0.17327727826E+03  0.48949298876E+03  0.91086317715E+02 0.  0.
         23    2    4    4    0    0  0.70710800259E+03  0.53263777708E+03 -0.11603177065E+04  0.14623692613E+04  0.92097488986E+02 0.  0.
          3    1    3    3  502    0 -0.64989565890E+03 -0.67014847468E+03 -0.39261905972E+03  0.10127255658E+04  0.00000000000E+00 0. -1.
         -3    1    3    3    0  502 -0.23084546228E+03 -0.27617178177E+03 -0.20612045994E+03  0.41478443137E+03  0.00000000000E+00 0.  1.
         13    1    5    5    0    0  0.20729385075E+02  0.14148844250E+03 -0.30605480019E+02  0.14623741715E+03  0.00000000000E+00 0. -1.
        -13    1    5    5    0    0  0.15290373351E+03  0.27219403688E+03 -0.14267179824E+03  0.34325557162E+03  0.00000000000E+00 0.  1.
          1    1    6    6  503    0  0.52207317162E+03  0.39768028291E+03 -0.79106051157E+03  0.10278554066E+04  0.00000000000E+00 0. -1.
         -1    1    6    6    0  503  0.18503483097E+03  0.13495749416E+03 -0.36925719495E+03  0.43451385470E+03  0.00000000000E+00 0.  1.
<mgrwt>
<rscale>  0 0.13169871E+04</rscale>
<asrwt>0</asrwt>
<pdfrwt beam="1">  1        1 0.40859283E+00 0.13169871E+04</pdfrwt>
<pdfrwt beam="2">  1       -1 0.11131059E+00 0.13169871E+04</pdfrwt>
<totfact> 0.76350357E-01</totfact>
</mgrwt>
</event>
<event>
12    1  0.1418317E-007  0.3691253E+03  0.7818608E-02  0.1055028E+00
          3   -1    0    0  501    0  0.00000000000E+00  0.00000000000E+00  0.26260690836E+03  0.26260690836E+03  0.00000000000E+00 0. -1.
         -3   -1    0    0    0  501 -0.00000000000E+00 -0.00000000000E+00 -0.74255791723E+03  0.74255791723E+03  0.00000000000E+00 0.  1.
         23    2    1    2    0    0  0.11521980459E+03  0.75809261287E+01  0.86911488588E+02  0.17167575564E+03  0.92660047571E+02 0.  0.
    5000000    2    1    2    0    0 -0.11521980459E+03 -0.75809261287E+01 -0.56686249747E+03  0.83348906995E+03  0.60003155324E+03 0.  0.
         23    2    4    4    0    0 -0.27205025964E+03 -0.19575910174E+03 -0.36357353522E+03  0.50259122831E+03  0.89884690472E+02 0.  0.
         23    2    4    4    0    0  0.15683045505E+03  0.18817817561E+03 -0.20328896225E+03  0.33089784164E+03  0.90333615140E+02 0.  0.
          2    1    3    3  502    0  0.70587056290E+02 -0.40472934326E+02  0.58436601391E+02  0.10017697994E+03  0.00000000000E+00 0. -1.
         -2    1    3    3    0  502  0.44632748298E+02  0.48053860454E+02  0.28474887196E+02  0.71498775696E+02  0.00000000000E+00 0.  1.
         11    1    5    5    0    0 -0.22754424894E+03 -0.19792375247E+03 -0.32802124489E+03  0.44558740345E+03  0.00000000000E+00 0.  1.
        -11    1    5    5    0    0 -0.44506010692E+02  0.21646507311E+01 -0.35552290335E+02  0.57003824859E+02  0.00000000000E+00 0. -1.
          4    1    6    6  503    0  0.31864521147E+02  0.32252467319E+02  0.70073930311E+00  0.45343802131E+02  0.00000000000E+00 0. -1.
         -4    1    6    6    0  503  0.12496593390E+03  0.15592570829E+03 -0.20398970155E+03  0.28555403951E+03  0.00000000000E+00 0.  1.
<mgrwt>
<rscale>  0 0.36912534E+03</rscale>
<asrwt>0</asrwt>
<pdfrwt beam="1">  1        3 0.40401063E-01 0.36912534E+03</pdfrwt>
<pdfrwt beam="2">  1       -3 0.11423968E+00 0.36912534E+03</pdfrwt>
<totfact> 0.10079779E+01</totfact>
</mgrwt>
</event>
<event>
12    1  0.1418317E-007  0.1106965E+04  0.7818608E-02  0.9198430E-01
          2   -1    0    0  501    0  0.00000000000E+00  0.00000000000E+00  0.20840662995E+04  0.20840662995E+04  0.00000000000E+00 0. -1.
         -2   -1    0    0    0  501 -0.00000000000E+00 -0.00000000000E+00 -0.72809301520E+03  0.72809301520E+03  0.00000000000E+00 0.  1.
         23    2    1    2    0    0  0.80307389097E+03  0.64420156854E+03  0.36239775964E+02  0.10341826750E+04  0.91088685920E+02 0.  0.
    5000000    2    1    2    0    0 -0.80307389097E+03 -0.64420156854E+03  0.13197335083E+04  0.17779766397E+04  0.59965078411E+03 0.  0.
         23    2    4    4    0    0 -0.36930422175E+03 -0.64099351175E+03  0.89208073210E+03  0.11623662109E+04  0.89604047460E+02 0.  0.
         23    2    4    4    0    0 -0.43376966922E+03 -0.32080567906E+01  0.42765277624E+03  0.61561042877E+03  0.89010591655E+02 0.  0.
          4    1    3    3  502    0  0.54261298692E+03  0.48445918466E+03  0.41459602490E+02  0.72859347637E+03  0.00000000000E+00 0. -1.
         -4    1    3    3    0  502  0.26046090405E+03  0.15974238388E+03 -0.52198265263E+01  0.30558919866E+03  0.00000000000E+00 0.  1.
         13    1    5    5    0    0 -0.13823855335E+03 -0.32947548117E+03  0.43151520162E+03  0.56024044798E+03  0.00000000000E+00 0. -1.
        -13    1    5    5    0    0 -0.23106566840E+03 -0.31151803058E+03  0.46056553048E+03  0.60212576291E+03  0.00000000000E+00 0.  1.
          4    1    6    6  503    0 -0.18605519679E+03 -0.22179637512E+02  0.23882552593E+03  0.30355576820E+03  0.00000000000E+00 0.  1.
         -4    1    6    6    0  503 -0.24771447243E+03  0.18971580721E+02  0.18882725031E+03  0.31205466057E+03  0.00000000000E+00 0. -1.
<mgrwt>
<rscale>  0 0.11069651E+04</rscale>
<asrwt>0</asrwt>
<pdfrwt beam="1">  1        2 0.32062558E+00 0.11069651E+04</pdfrwt>
<pdfrwt beam="2">  1       -2 0.11201431E+00 0.11069651E+04</pdfrwt>
<totfact> 0.37250939E+00</totfact>
</mgrwt>
</event>
<event>
12    1  0.1418317E-007  0.4706759E+03  0.7818608E-02  0.1021730E+00
          1   -1    0    0  501    0  0.00000000000E+00  0.00000000000E+00  0.22092822360E+04  0.22092822360E+04  0.00000000000E+00 0. -1.
         -1   -1    0    0    0  501 -0.00000000000E+00 -0.00000000000E+00 -0.12290145778E+03  0.12290145778E+03  0.00000000000E+00 0.  1.
         23    2    1    2    0    0 -0.24685631312E+03 -0.23415239619E+03  0.72111636242E+03  0.80264042764E+03  0.91964471231E+02 0.  0.
    5000000    2    1    2    0    0  0.24685631312E+03  0.23415239619E+03  0.13652644158E+04  0.15295432662E+04  0.59982521954E+03 0.  0.
         23    2    4    4    0    0  0.36774228174E+03  0.71087232375E+02  0.11757094047E+04  0.12374353009E+04  0.93089952134E+02 0.  0.
         23    2    4    4    0    0 -0.12088596862E+03  0.16306516381E+03  0.18955501108E+03  0.29210796524E+03  0.90511303568E+02 0.  0.
          2    1    3    3  502    0 -0.13132805584E+03 -0.15446185002E+03  0.33227147547E+03  0.38924266824E+03  0.00000000000E+00 0.  1.
         -2    1    3    3    0  502 -0.11552825728E+03 -0.79690546172E+02  0.38884488694E+03  0.41339775941E+03  0.00000000000E+00 0. -1.
         11    1    5    5    0    0  0.15470665708E+03  0.46808616741E+02  0.64743426373E+03  0.66730526912E+03  0.00000000000E+00 0.  1.
        -11    1    5    5    0    0  0.21303562466E+03  0.24278615634E+02  0.52827514100E+03  0.57013003179E+03  0.00000000000E+00 0. -1.
          2    1    6    6  503    0 -0.90701339426E+02  0.46743250273E+02  0.89806332991E+02  0.13592954743E+03  0.00000000000E+00 0.  1.
         -2    1    6    6    0  503 -0.30184629194E+02  0.11632191354E+03  0.99748678094E+02  0.15617841781E+03  0.00000000000E+00 0. -1.
<mgrwt>
<rscale>  0 0.47067590E+03</rscale>
<asrwt>0</asrwt>
<pdfrwt beam="1">  1        1 0.33988955E+00 0.47067590E+03</pdfrwt>
<pdfrwt beam="2">  1       -1 0.18907918E-01 0.47067590E+03</pdfrwt>
<totfact> 0.52161130E+01</totfact>
</mgrwt>
</event>
<event>
12    1  0.1418317E-007  0.5372000E+03  0.7818608E-02  0.1004501E+00
         -2   -1    0    0    0  501 -0.00000000000E+00  0.00000000000E+00  0.84324621318E+03  0.84324621318E+03  0.00000000000E+00 0.  1.
          2   -1    0    0  501    0  0.00000000000E+00 -0.00000000000E+00 -0.16620356512E+04  0.16620356512E+04  0.00000000000E+00 0. -1.
         23    2    1    2    0    0  0.42572877311E+03 -0.21657888993E+02 -0.14633444933E+04  0.15269658614E+04  0.92377396533E+02 0.  0.
    5000000    2    1    2    0    0 -0.42572877311E+03  0.21657888993E+02  0.64455505531E+03  0.97831600294E+03  0.59994743926E+03 0.  0.
         23    2    4    4    0    0  0.78147353872E+02  0.62555163949E+02  0.37246477880E+03  0.39689695580E+03  0.93685775986E+02 0.  0.
         23    2    4    4    0    0 -0.50387612699E+03 -0.40897274955E+02  0.27209027651E+03  0.58141904714E+03  0.91930687818E+02 0.  0.
          3    1    3    3  502    0  0.13415051532E+03  0.23284770191E+02 -0.57554225658E+03  0.59142829691E+03  0.00000000000E+00 0.  1.
         -3    1    3    3    0  502  0.29157825779E+03 -0.44942659184E+02 -0.88780223674E+03  0.93553756450E+03  0.00000000000E+00 0. -1.
         11    1    5    5    0    0  0.15009835548E+01  0.56374827962E+02  0.11320725856E+03  0.12647631229E+03  0.00000000000E+00 0. -1.
        -11    1    5    5    0    0  0.76646370318E+02  0.61803359870E+01  0.25925752024E+03  0.27042064351E+03  0.00000000000E+00 0.  1.
          2    1    6    6  503    0 -0.22577952798E+03  0.14985543384E+02  0.15645683449E+03  0.27509944170E+03  0.00000000000E+00 0. -1.
         -2    1    6    6    0  503 -0.27809659900E+03 -0.55882818339E+02  0.11563344202E+03  0.30631960544E+03  0.00000000000E+00 0.  1.
<mgrwt>
<rscale>  0 0.53719995E+03</rscale>
<asrwt>0</asrwt>
<pdfrwt beam="1">  1        2 0.25569779E+00 0.53719995E+03</pdfrwt>
<pdfrwt beam="2">  1       -2 0.12973019E+00 0.53719995E+03</pdfrwt>
<totfact> 0.48118904E+00</totfact>
</mgrwt>
</event>
<event>
12    1  0.1418317E-007  0.7663383E+03  0.7818608E-02  0.9610061E-01
          1   -1    0    0  501    0  0.00000000000E+00  0.00000000000E+00  0.23040544544E+04  0.23040544544E+04  0.00000000000E+00 0. -1.
         -1   -1    0    0    0  501 -0.00000000000E+00 -0.00000000000E+00 -0.39245995626E+03  0.39245995626E+03  0.00000000000E+00 0.  1.
         23    2    1    2    0    0  0.68689448266E+03 -0.83680060951E+02  0.15719688906E+04  0.17197766392E+04  0.87858482913E+02 0.  0.
    5000000    2    1    2    0    0 -0.68689448266E+03  0.83680060951E+02  0.33962560757E+03  0.97673777143E+03  0.59987060098E+03 0.  0.
         23    2    4    4    0    0 -0.48660231897E+03  0.26748636377E+03  0.43419574677E+02  0.56439577000E+03  0.91249953950E+02 0.  0.
         23    2    4    4    0    0 -0.20029216369E+03 -0.18380630282E+03  0.29620603290E+03  0.41234200143E+03  0.91576221965E+02 0.  0.
          3    1    3    3  502    0  0.17934669929E+03 -0.16453915900E+02  0.50927724817E+03  0.54018449200E+03  0.00000000000E+00 0. -1.
         -3    1    3    3    0  502  0.50754778337E+03 -0.67226145051E+02  0.10626916424E+04  0.11795921472E+04  0.00000000000E+00 0.  1.
         13    1    5    5    0    0 -0.48861202638E+02  0.11215782520E+02  0.26887024703E+02  0.56886931700E+02  0.00000000000E+00 0. -1.
        -13    1    5    5    0    0 -0.43774111633E+03  0.25627058125E+03  0.16532549974E+02  0.50750883830E+03  0.00000000000E+00 0.  1.
          1    1    6    6  503    0 -0.15892505292E+03 -0.94741516129E+02  0.22353818588E+03  0.29017658050E+03  0.00000000000E+00 0. -1.
         -1    1    6    6    0  503 -0.41367110769E+02 -0.89064786692E+02  0.72667847019E+02  0.12216542093E+03  0.00000000000E+00 0.  1.
<mgrwt>
<rscale>  0 0.76633828E+03</rscale>
<asrwt>0</asrwt>
<pdfrwt beam="1">  1        1 0.35446991E+00 0.76633828E+03</pdfrwt>
<pdfrwt beam="2">  1       -1 0.60378456E-01 0.76633828E+03</pdfrwt>
<totfact> 0.54101095E+00</totfact>
</mgrwt>
</event>
<event>
12    1  0.1418317E-007  0.6150401E+03  0.7818608E-02  0.9874685E-01
          2   -1    0    0  501    0  0.00000000000E+00  0.00000000000E+00  0.20736979420E+04  0.20736979420E+04  0.00000000000E+00 0.  1.
         -2   -1    0    0    0  501 -0.00000000000E+00 -0.00000000000E+00 -0.20360119881E+03  0.20360119881E+03  0.00000000000E+00 0. -1.
         23    2    1    2    0    0  0.23403965231E+03  0.41651554395E+03  0.10305365952E+04  0.11401382121E+04  0.98232944265E+02 0.  0.
    5000000    2    1    2    0    0 -0.23403965231E+03 -0.41651554395E+03  0.83956014800E+03  0.11371609288E+04  0.60001164871E+03 0.  0.
         23    2    4    4    0    0  0.12712209848E+03 -0.34981429613E+03  0.49076369949E+03  0.62269135712E+03  0.91462821976E+02 0.  0.
         23    2    4    4    0    0 -0.36116175078E+03 -0.66701247819E+02  0.34879644851E+03  0.51446957164E+03  0.90183762155E+02 0.  0.
          2    1    3    3  502    0  0.95332424770E+02  0.15308578864E+03  0.50354489001E+03  0.53486539069E+03  0.00000000000E+00 0. -1.
         -2    1    3    3    0  502  0.13870722754E+03  0.26342975530E+03  0.52699170520E+03  0.60527282138E+03  0.00000000000E+00 0.  1.
         11    1    5    5    0    0  0.11340256987E+03 -0.34935677047E+03  0.48340347544E+03  0.60711548819E+03  0.00000000000E+00 0. -1.
        -11    1    5    5    0    0  0.13719528614E+02 -0.45752565275E+00  0.73602240500E+01  0.15575868938E+02  0.00000000000E+00 0.  1.
          1    1    6    6  503    0 -0.36206212895E+03 -0.63400474347E+02  0.35260393904E+03  0.50935070746E+03  0.00000000000E+00 0. -1.
         -1    1    6    6    0  503  0.90037816432E+00 -0.33007734723E+01 -0.38074905259E+01  0.51188641766E+01  0.00000000000E+00 0.  1.
<mgrwt>
<rscale>  0 0.61504006E+03</rscale>
<asrwt>0</asrwt>
<pdfrwt beam="1">  1        2 0.31903044E+00 0.61504006E+03</pdfrwt>
<pdfrwt beam="2">  1       -2 0.31323263E-01 0.61504006E+03</pdfrwt>
<totfact> 0.60269684E+01</totfact>
</mgrwt>
</event>
<event>
12    1  0.1418317E-007  0.7251632E+03  0.7818608E-02  0.9675142E-01
         -1   -1    0    0    0  501 -0.00000000000E+00  0.00000000000E+00  0.66008113416E+03  0.66008113416E+03  0.00000000000E+00 0.  1.
          1   -1    0    0  501    0  0.00000000000E+00 -0.00000000000E+00 -0.85014285810E+03  0.85014285810E+03  0.00000000000E+00 0. -1.
         23    2    1    2    0    0  0.53712737357E+03  0.28208850465E+03  0.71170372974E+02  0.61767361003E+03  0.91518996071E+02 0.  0.
    5000000    2    1    2    0    0 -0.53712737357E+03 -0.28208850465E+03 -0.26123209691E+03  0.89255038223E+03  0.60027013625E+03 0.  0.
         23    2    4    4    0    0 -0.40994512937E+03 -0.45050383711E+03 -0.13177335153E+03  0.62867574809E+03  0.82826708982E+02 0.  0.
         23    2    4    4    0    0 -0.12718224420E+03  0.16841533246E+03 -0.12945874538E+03  0.26387463414E+03  0.91275453091E+02 0.  0.
          2    1    3    3  502    0  0.28326547096E+03  0.19568397070E+03  0.21548873545E+02  0.34495781971E+03  0.00000000000E+00 0. -1.
         -2    1    3    3    0  502  0.25386190261E+03  0.86404533949E+02  0.49621499429E+02  0.27271579032E+03  0.00000000000E+00 0.  1.
         13    1    5    5    0    0 -0.22685328448E+02 -0.24237263888E+02  0.11636633410E+02  0.35177838545E+02  0.00000000000E+00 0. -1.
        -13    1    5    5    0    0 -0.38725980092E+03 -0.42626657322E+03 -0.14340998494E+03  0.59349790955E+03  0.00000000000E+00 0.  1.
          1    1    6    6  503    0 -0.44992187207E+02  0.13091331748E+03 -0.65228406698E+02  0.15302724804E+03  0.00000000000E+00 0. -1.
         -1    1    6    6    0  503 -0.82190056995E+02  0.37502014982E+02 -0.64230338682E+02  0.11084738609E+03  0.00000000000E+00 0.  1.
<mgrwt>
<rscale>  0 0.72516322E+03</rscale>
<asrwt>0</asrwt>
<pdfrwt beam="1">  1        1 0.13079121E+00 0.72516322E+03</pdfrwt>
<pdfrwt beam="2">  1       -1 0.10155094E+00 0.72516322E+03</pdfrwt>
<totfact> 0.18994717E+01</totfact>
</mgrwt>
</event>
<event>
12    1  0.1418317E-007  0.7870578E+03  0.7818608E-02  0.9578942E-01
         -2   -1    0    0    0  501 -0.00000000000E+00  0.00000000000E+00  0.29835555092E+03  0.29835555092E+03  0.00000000000E+00 0.  1.
          2   -1    0    0  501    0  0.00000000000E+00 -0.00000000000E+00 -0.23500764591E+04  0.23500764591E+04  0.00000000000E+00 0. -1.
         23    2    1    2    0    0 -0.59653215573E+03 -0.35049137783E+03 -0.54754984961E+03  0.88717415763E+03  0.92586874890E+02 0.  0.
    5000000    2    1    2    0    0  0.59653215573E+03  0.35049137783E+03 -0.15041710586E+04  0.17612578524E+04  0.60066948516E+03 0.  0.
         23    2    4    4    0    0 -0.99940324976E+02  0.73418480206E+02 -0.18003791280E+03  0.23696128388E+03  0.91425697820E+02 0.  0.
         23    2    4    4    0    0  0.69647248071E+03  0.27707289762E+03 -0.13241331458E+04  0.15242965685E+04  0.91148966248E+02 0.  0.
          4    1    3    3  502    0 -0.41901344170E+02 -0.36059584860E+02 -0.17288390629E+02  0.57921539638E+02  0.00000000000E+00 0. -1.
         -4    1    3    3    0  502 -0.55463081156E+03 -0.31443179297E+03 -0.53026145898E+03  0.82925261799E+03  0.00000000000E+00 0.  1.
         11    1    5    5    0    0 -0.10428241906E+03  0.67388287549E+02 -0.18848895001E+03  0.22570797173E+03  0.00000000000E+00 0.  1.
        -11    1    5    5    0    0  0.43420940854E+01  0.60301926569E+01  0.84510372123E+01  0.11253312156E+02  0.00000000000E+00 0. -1.
          3    1    6    6  503    0  0.59806126795E+02  0.19782941997E+02 -0.67821180793E+02  0.92562682332E+02  0.00000000000E+00 0. -1.
         -3    1    6    6    0  503  0.63666635391E+03  0.25728995562E+03 -0.12563119650E+04  0.14317338862E+04  0.00000000000E+00 0.  1.
<mgrwt>
<rscale>  0 0.78705782E+03</rscale>
<asrwt>0</asrwt>
<pdfrwt beam="1">  1        2 0.36155022E+00 0.78705782E+03</pdfrwt>
<pdfrwt beam="2">  1       -2 0.45900854E-01 0.78705782E+03</pdfrwt>
<totfact> 0.19806238E+01</totfact>
</mgrwt>
</event>
<event>
12    1  0.1418317E-007  0.3850455E+03  0.7818608E-02  0.1049085E+00
         -1   -1    0    0    0  501 -0.00000000000E+00  0.00000000000E+00  0.66547061921E+03  0.66547061921E+03  0.00000000000E+00 0.  1.
          1   -1    0    0  501    0  0.00000000000E+00 -0.00000000000E+00 -0.53761083440E+03  0.53761083440E+03  0.00000000000E+00 0. -1.
         23    2    1    2    0    0  0.56277766338E+02  0.26062273518E+03 -0.30707538849E+03  0.41542106441E+03  0.84781893497E+02 0.  0.
    5000000    2    1    2    0    0 -0.56277766338E+02 -0.26062273518E+03  0.43493517329E+03  0.78766038920E+03  0.60012405940E+03 0.  0.
         23    2    4    4    0    0 -0.21897121086E+03 -0.19450530789E+03 -0.28293548167E+01  0.30708769403E+03  0.92272100819E+02 0.  0.
         23    2    4    4    0    0  0.16269344452E+03 -0.66117427295E+02  0.43776452811E+03  0.48057269517E+03  0.92041632931E+02 0.  0.
          4    1    3    3  502    0  0.39659536060E+02  0.98290615511E+02 -0.17881541133E+03  0.20786744629E+03  0.00000000000E+00 0. -1.
         -4    1    3    3    0  502  0.16618230278E+02  0.16233211967E+03 -0.12825997715E+03  0.20755361812E+03  0.00000000000E+00 0.  1.
         11    1    5    5    0    0 -0.54690746578E+02 -0.98278864835E+02  0.23463308287E+02  0.11489273202E+03  0.00000000000E+00 0.  1.
        -11    1    5    5    0    0 -0.16428046428E+03 -0.96226443054E+02 -0.26292663104E+02  0.19219496201E+03  0.00000000000E+00 0. -1.
          1    1    6    6  503    0  0.82703557383E+02  0.15095453990E+02  0.17488941955E+03  0.19404654134E+03  0.00000000000E+00 0. -1.
         -1    1    6    6    0  503  0.79989887142E+02 -0.81212881286E+02  0.26287510856E+03  0.28652615384E+03  0.00000000000E+00 0.  1.
<mgrwt>
<rscale>  0 0.38504545E+03</rscale>
<asrwt>0</asrwt>
<pdfrwt beam="1">  1        1 0.82709359E-01 0.38504545E+03</pdfrwt>
<pdfrwt beam="2">  1       -1 0.10238010E+00 0.38504545E+03</pdfrwt>
<totfact> 0.38758384E+01</totfact>
</mgrwt>
</event>
<event>
12    1  0.1418317E-007  0.5754703E+03  0.7818608E-02  0.9957646E-01
         -2   -1    0    0    0  501 -0.00000000000E+00  0.00000000000E+00  0.44778533480E+03  0.44778533480E+03  0.00000000000E+00 0.  1.
          2   -1    0    0  501    0  0.00000000000E+00 -0.00000000000E+00 -0.11542593129E+04  0.11542593129E+04  0.00000000000E+00 0. -1.
         23    2    1    2    0    0 -0.41532120529E+02 -0.50643250366E+03  0.39224944576E+02  0.51844274116E+03  0.95107737786E+02 0.  0.
    5000000    2    1    2    0    0  0.41532120529E+02  0.50643250366E+03 -0.74569892271E+03  0.10836019066E+04  0.59993950597E+03 0.  0.
         23    2    4    4    0    0  0.18876788844E+03  0.14835235777E+03 -0.20481181640E+02  0.25725761404E+03  0.90112504248E+02 0.  0.
         23    2    4    4    0    0 -0.14723576791E+03  0.35808014589E+03 -0.72521774107E+03  0.82634429254E+03  0.83692028391E+02 0.  0.
          3    1    3    3  502    0 -0.48666710050E+02 -0.18568181834E+03  0.46595591745E+02  0.19752806256E+03  0.00000000000E+00 0. -1.
         -3    1    3    3    0  502  0.71345895217E+01 -0.32075068532E+03 -0.73706471690E+01  0.32091467860E+03  0.00000000000E+00 0.  1.
         13    1    5    5    0    0  0.16980064247E+03  0.96796096123E+02  0.75220918912E+01  0.19559735243E+03  0.00000000000E+00 0.  1.
        -13    1    5    5    0    0  0.18967245961E+02  0.51556261648E+02 -0.28003273532E+02  0.61660261619E+02  0.00000000000E+00 0. -1.
          1    1    6    6  503    0 -0.11145019718E+03  0.29332312773E+03 -0.64463431865E+03  0.71694700536E+03  0.00000000000E+00 0. -1.
         -1    1    6    6    0  503 -0.35785570731E+02  0.64757018156E+02 -0.80583422422E+02  0.10939728718E+03  0.00000000000E+00 0.  1.
<mgrwt>
<rscale>  0 0.57547029E+03</rscale>
<asrwt>0</asrwt>
<pdfrwt beam="1">  1        2 0.17757835E+00 0.57547029E+03</pdfrwt>
<pdfrwt beam="2">  1       -2 0.68890053E-01 0.57547029E+03</pdfrwt>
<totfact> 0.40305148E+01</totfact>
</mgrwt>
</event>
<event>
12    1  0.1418317E-007  0.6762733E+03  0.7818608E-02  0.9758691E-01
         -2   -1    0    0    0  501 -0.00000000000E+00  0.00000000000E+00  0.29277918853E+03  0.29277918853E+03  0.00000000000E+00 0.  1.
          2   -1    0    0  501    0  0.00000000000E+00 -0.00000000000E+00 -0.24604230214E+04  0.24604230214E+04  0.00000000000E+00 0. -1.
         23    2    1    2    0    0 -0.52372112230E+03  0.37961310054E+03 -0.36987089246E+03  0.75050505261E+03  0.89796641693E+02 0.  0.
    5000000    2    1    2    0    0  0.52372112230E+03 -0.37961310054E+03 -0.17977729404E+04  0.20026971573E+04  0.60034859757E+03 0.  0.
         23    2    4    4    0    0  0.30702175236E+03 -0.37641798702E+03 -0.57872739056E+03  0.76075449206E+03  0.88708214036E+02 0.  0.
         23    2    4    4    0    0  0.21669936993E+03 -0.31951135235E+01 -0.12190455498E+04  0.12419426652E+04  0.96854042169E+02 0.  0.
          3    1    3    3  502    0 -0.22645969353E+03  0.19454632085E+03 -0.21337644246E+03  0.36696289996E+03  0.00000000000E+00 0. -1.
         -3    1    3    3    0  502 -0.29726142877E+03  0.18506677969E+03 -0.15649445001E+03  0.38354215265E+03  0.00000000000E+00 0.  1.
         13    1    5    5    0    0  0.22467533062E+03 -0.26360167351E+03 -0.46955259582E+03  0.58347620921E+03  0.00000000000E+00 0. -1.
        -13    1    5    5    0    0  0.82346421740E+02 -0.11281631350E+03 -0.10917479474E+03  0.17727828285E+03  0.00000000000E+00 0.  1.
          3    1    6    6  503    0  0.11167831975E+03  0.91731110401E+01 -0.37751531499E+03  0.39379437035E+03  0.00000000000E+00 0. -1.
         -3    1    6    6    0  503  0.10502105019E+03 -0.12368224564E+02 -0.84153023485E+03  0.84814829490E+03  0.00000000000E+00 0.  1.
<mgrwt>
<rscale>  0 0.67627327E+03</rscale>
<asrwt>0</asrwt>
<pdfrwt beam="1">  1        2 0.37852662E+00 0.67627327E+03</pdfrwt>
<pdfrwt beam="2">  1       -2 0.45042952E-01 0.67627327E+03</pdfrwt>
<totfact> 0.18145881E+01</totfact>
</mgrwt>
</event>
<event>
12    1  0.1418317E-007  0.5186353E+03  0.7818608E-02  0.1009026E+00
         -2   -1    0    0    0  501 -0.00000000000E+00  0.00000000000E+00  0.92071445148E+02  0.92071445148E+02  0.00000000000E+00 0.  1.
          2   -1    0    0  501    0  0.00000000000E+00 -0.00000000000E+00 -0.44734108886E+04  0.44734108886E+04  0.00000000000E+00 0. -1.
         23    2    1    2    0    0  0.30200863309E+03  0.33057676594E+03 -0.24890408843E+04  0.25304407173E+04  0.85530621704E+02 0.  0.
    5000000    2    1    2    0    0 -0.30200863309E+03 -0.33057676594E+03 -0.18922985591E+04  0.20350416165E+04  0.60009193562E+03 0.  0.
         23    2    4    4    0    0 -0.38537522535E+03 -0.27306360490E+03 -0.79366655265E+03  0.92805642419E+03  0.91128113426E+02 0.  0.
         23    2    4    4    0    0  0.83366592261E+02 -0.57513161044E+02 -0.10986320065E+04  0.11069851923E+04  0.90366906772E+02 0.  0.
          4    1    3    3  502    0  0.42383263488E+02  0.76691901356E+02 -0.65120819275E+03  0.65707693542E+03  0.00000000000E+00 0. -1.
         -4    1    3    3    0  502  0.25962536960E+03  0.25388486458E+03 -0.18378326916E+04  0.18733637819E+04  0.00000000000E+00 0.  1.
         11    1    5    5    0    0 -0.51490069865E+02 -0.19060669780E+02 -0.50203050596E+02  0.74396792379E+02  0.00000000000E+00 0.  1.
        -11    1    5    5    0    0 -0.33388515548E+03 -0.25400293512E+03 -0.74346350205E+03  0.85365963181E+03  0.00000000000E+00 0. -1.
          3    1    6    6  503    0  0.72725205569E+02 -0.23459965613E+02 -0.98320916615E+03  0.98617421884E+03  0.00000000000E+00 0. -1.
         -3    1    6    6    0  503  0.10641386692E+02 -0.34053195430E+02 -0.11542284033E+03  0.12081097343E+03  0.00000000000E+00 0.  1.
<mgrwt>
<rscale>  0 0.51863526E+03</rscale>
<asrwt>0</asrwt>
<pdfrwt beam="1">  1        2 0.68821686E+00 0.51863526E+03</pdfrwt>
<pdfrwt beam="2">  1       -2 0.14164842E-01 0.51863526E+03</pdfrwt>
<totfact> 0.60662051E+00</totfact>
</mgrwt>
</event>
<event>
12    1  0.1418317E-007  0.5902914E+03  0.7818608E-02  0.9925756E-01
          2   -1    0    0  501    0  0.00000000000E+00  0.00000000000E+00  0.93612774907E+03  0.93612774907E+03  0.00000000000E+00 0. -1.
         -2   -1    0    0    0  501 -0.00000000000E+00 -0.00000000000E+00 -0.83911595878E+03  0.83911595878E+03  0.00000000000E+00 0.  1.
         23    2    1    2    0    0  0.23059362152E+03 -0.42226186345E+03 -0.57402814178E+03  0.75445352323E+03  0.90627322332E+02 0.  0.
    5000000    2    1    2    0    0 -0.23059362152E+03  0.42226186345E+03  0.67103993208E+03  0.10207901846E+04  0.60019955927E+03 0.  0.
         23    2    4    4    0    0 -0.22645642706E+03 -0.37229842621E+02  0.65655599234E+02  0.25527818449E+03  0.90486016729E+02 0.  0.
         23    2    4    4    0    0 -0.41371944597E+01  0.45949170607E+03  0.60538433284E+03  0.76551200013E+03  0.91480531069E+02 0.  0.
          3    1    3    3  502    0  0.58692651071E+02 -0.89198247653E+02 -0.18927849095E+03  0.21731889428E+03  0.00000000000E+00 0. -1.
         -3    1    3    3    0  502  0.17190097045E+03 -0.33306361579E+03 -0.38474965084E+03  0.53713462896E+03  0.00000000000E+00 0.  1.
         11    1    5    5    0    0  0.77205108226E+00  0.78019616094E+01 -0.89638427508E+01  0.11908700378E+02  0.00000000000E+00 0.  1.
        -11    1    5    5    0    0 -0.22722847815E+03 -0.45031804230E+02  0.74619441985E+02  0.24336948411E+03  0.00000000000E+00 0. -1.
          2    1    6    6  503    0 -0.15735627763E+01  0.19692345654E+03  0.33509013442E+03  0.38867302713E+03  0.00000000000E+00 0. -1.
         -2    1    6    6    0  503 -0.25636316833E+01  0.26256824952E+03  0.27029419843E+03  0.37683897300E+03  0.00000000000E+00 0.  1.
<mgrwt>
<rscale>  0 0.59029141E+03</rscale>
<asrwt>0</asrwt>
<pdfrwt beam="1">  1        2 0.14401965E+00 0.59029141E+03</pdfrwt>
<pdfrwt beam="2">  1       -2 0.12909476E+00 0.59029141E+03</pdfrwt>
<totfact> 0.12714984E+01</totfact>
</mgrwt>
</event>
<event>
12    1  0.1418317E-007  0.6463752E+03  0.7818608E-02  0.9813605E-01
         -2   -1    0    0    0  501 -0.00000000000E+00  0.00000000000E+00  0.14462089723E+03  0.14462089723E+03  0.00000000000E+00 0.  1.
          2   -1    0    0  501    0  0.00000000000E+00 -0.00000000000E+00 -0.37573977715E+04  0.37573977715E+04  0.00000000000E+00 0. -1.
         23    2    1    2    0    0 -0.48027017924E+03  0.19244365350E+03 -0.65417629315E+03  0.83917840775E+03  0.92627062307E+02 0.  0.
    5000000    2    1    2    0    0  0.48027017924E+03 -0.19244365350E+03 -0.29586005811E+04  0.30628402609E+04  0.59998255042E+03 0.  0.
         23    2    4    4    0    0  0.33761614676E+03  0.16499584574E+03 -0.17023353276E+04  0.17458504796E+04  0.94021474891E+02 0.  0.
         23    2    4    4    0    0  0.14265403249E+03 -0.35743949925E+03 -0.12562652535E+04  0.13169897814E+04  0.90258121684E+02 0.  0.
          2    1    3    3  502    0 -0.39006673665E+02  0.26625280720E+02 -0.26343974023E+02  0.54078009682E+02  0.00000000000E+00 0. -1.
         -2    1    3    3    0  502 -0.44126350558E+03  0.16581837278E+03 -0.62783231913E+03  0.78510039807E+03  0.00000000000E+00 0.  1.
         11    1    5    5    0    0  0.18965192987E+03  0.49662602374E+02 -0.74903707888E+03  0.77426789558E+03  0.00000000000E+00 0. -1.
        -11    1    5    5    0    0  0.14796421689E+03  0.11533324337E+03 -0.95329824874E+03  0.97158258401E+03  0.00000000000E+00 0.  1.
          2    1    6    6  503    0  0.81315370951E+02 -0.28069905683E+03 -0.84336653821E+03  0.89256443344E+03  0.00000000000E+00 0. -1.
         -2    1    6    6    0  503  0.61338661537E+02 -0.76740442419E+02 -0.41289871526E+03  0.42442534793E+03  0.00000000000E+00 0.  1.
<mgrwt>
<rscale>  0 0.64637521E+03</rscale>
<asrwt>0</asrwt>
<pdfrwt beam="1">  1        2 0.57806118E+00 0.64637521E+03</pdfrwt>
<pdfrwt beam="2">  1       -2 0.22249369E-01 0.64637521E+03</pdfrwt>
<totfact> 0.10418373E+01</totfact>
</mgrwt>
</event>
<event>
12    1  0.1418317E-007  0.1408504E+04  0.7818608E-02  0.8947686E-01
          1   -1    0    0  501    0  0.00000000000E+00  0.00000000000E+00  0.17737211371E+04  0.17737211371E+04  0.00000000000E+00 0. -1.
         -1   -1    0    0    0  501 -0.00000000000E+00 -0.00000000000E+00 -0.15529893458E+04  0.15529893458E+04  0.00000000000E+00 0.  1.
         23    2    1    2    0    0  0.12757201465E+04 -0.57243090603E+03 -0.68108095782E+03  0.15579757536E+04  0.90984302426E+02 0.  0.
    5000000    2    1    2    0    0 -0.12757201465E+04  0.57243090603E+03  0.90181274914E+03  0.17687347293E+04  0.60001439476E+03 0.  0.
         23    2    4    4    0    0 -0.74903998371E+03  0.23012334108E+03  0.18351477733E+03  0.81021178213E+03  0.93529723152E+02 0.  0.
         23    2    4    4    0    0 -0.52668016278E+03  0.34230756496E+03  0.71829797182E+03  0.95852294720E+03  0.90817405330E+02 0.  0.
          2    1    3    3  502    0  0.71261421266E+03 -0.36659809866E+03 -0.37385114928E+03  0.88429512260E+03  0.00000000000E+00 0.  1.
         -2    1    3    3    0  502  0.56310593382E+03 -0.20583280737E+03 -0.30722980854E+03  0.67368063098E+03  0.00000000000E+00 0. -1.
         11    1    5    5    0    0 -0.55469881061E+03  0.15935603610E+03  0.93551720825E+02  0.58466831726E+03  0.00000000000E+00 0.  1.
        -11    1    5    5    0    0 -0.19434117309E+03  0.70767304976E+02  0.89963056502E+02  0.22554346488E+03  0.00000000000E+00 0. -1.
          4    1    6    6  503    0 -0.33158994183E+03  0.25541034493E+03  0.51534221617E+03  0.66390054495E+03  0.00000000000E+00 0.  1.
         -4    1    6    6    0  503 -0.19509022096E+03  0.86897220022E+02  0.20295575564E+03  0.29462240225E+03  0.00000000000E+00 0. -1.
<mgrwt>
<rscale>  0 0.14085044E+04</rscale>
<asrwt>0</asrwt>
<pdfrwt beam="1">  1        1 0.27288017E+00 0.14085044E+04</pdfrwt>
<pdfrwt beam="2">  1       -1 0.23892144E+00 0.14085044E+04</pdfrwt>
<totfact> 0.33398489E-01</totfact>
</mgrwt>
</event>
<event>
12    1  0.1418317E-007  0.3684072E+03  0.7818608E-02  0.1055304E+00
          2   -1    0    0  501    0  0.00000000000E+00  0.00000000000E+00  0.11246068737E+04  0.11246068737E+04  0.00000000000E+00 0. -1.
         -2   -1    0    0    0  501 -0.00000000000E+00 -0.00000000000E+00 -0.20643132914E+03  0.20643132914E+03  0.00000000000E+00 0.  1.
         23    2    1    2    0    0  0.22982946589E+03  0.84236283866E+02  0.48670614257E+03  0.55248276522E+03  0.91853153101E+02 0.  0.
    5000000    2    1    2    0    0 -0.22982946589E+03 -0.84236283866E+02  0.43146940198E+03  0.77855543761E+03  0.60005448892E+03 0.  0.
         23    2    4    4    0    0 -0.32847205577E+03 -0.12665737439E+03  0.50280333063E+03  0.62026266567E+03  0.89323027338E+02 0.  0.
         23    2    4    4    0    0  0.98642589880E+02  0.42421090525E+02 -0.71333928656E+02  0.15829277194E+03  0.91859473168E+02 0.  0.
          3    1    3    3  502    0  0.54084989210E+02  0.24370037894E+02  0.48696773762E+02  0.76749336021E+02  0.00000000000E+00 0. -1.
         -3    1    3    3    0  502  0.17574447668E+03  0.59866245972E+02  0.43800936881E+03  0.47573342920E+03  0.00000000000E+00 0.  1.
         11    1    5    5    0    0 -0.13100332990E+03 -0.87939480108E+02  0.17504312832E+03  0.23565933332E+03  0.00000000000E+00 0. -1.
        -11    1    5    5    0    0 -0.19746872587E+03 -0.38717894283E+02  0.32776020231E+03  0.38460333235E+03  0.00000000000E+00 0.  1.
          1    1    6    6  503    0  0.67150463114E+02 -0.13637994896E+02 -0.96634544511E+01  0.69199436076E+02  0.00000000000E+00 0. -1.
         -1    1    6    6    0  503  0.31492126766E+02  0.56059085421E+02 -0.61670474205E+02  0.89093335862E+02  0.00000000000E+00 0.  1.
<mgrwt>
<rscale>  0 0.36840722E+03</rscale>
<asrwt>0</asrwt>
<pdfrwt beam="1">  1        2 0.17301644E+00 0.36840722E+03</pdfrwt>
<pdfrwt beam="2">  1       -2 0.31758667E-01 0.36840722E+03</pdfrwt>
<totfact> 0.20260632E+02</totfact>
</mgrwt>
</event>
<event>
12    1  0.1418317E-007  0.6203021E+03  0.7818608E-02  0.9864158E-01
         -1   -1    0    0    0  501 -0.00000000000E+00  0.00000000000E+00  0.56904865854E+03  0.56904865854E+03  0.00000000000E+00 0.  1.
          1   -1    0    0  501    0  0.00000000000E+00 -0.00000000000E+00 -0.94525805342E+03  0.94525805342E+03  0.00000000000E+00 0. -1.
         23    2    1    2    0    0 -0.16003779482E+03  0.57550393022E+03 -0.47326695270E+02  0.60611017286E+03  0.91174865500E+02 0.  0.
    5000000    2    1    2    0    0  0.16003779482E+03 -0.57550393022E+03 -0.32888269961E+03  0.90819653910E+03  0.59986686362E+03 0.  0.
         23    2    4    4    0    0  0.43357038227E+02 -0.10352329439E+03  0.15746124930E+03  0.21396455646E+03  0.91596294382E+02 0.  0.
         23    2    4    4    0    0  0.11668075660E+03 -0.47198063582E+03 -0.48634394892E+03  0.69423198264E+03  0.95118292225E+02 0.  0.
          1    1    3    3  502    0 -0.14612288653E+03  0.36376699635E+03 -0.34340482867E+02  0.39351949680E+03  0.00000000000E+00 0. -1.
         -1    1    3    3    0  502 -0.13914908297E+02  0.21173693387E+03 -0.12986212403E+02  0.21259067606E+03  0.00000000000E+00 0.  1.
         11    1    5    5    0    0 -0.25122289862E+01  0.14444682386E+02  0.43148282047E+01  0.15283255090E+02  0.00000000000E+00 0. -1.
        -11    1    5    5    0    0  0.45869267213E+02 -0.11796797678E+03  0.15314642110E+03  0.19868130137E+03  0.00000000000E+00 0.  1.
          1    1    6    6  503    0  0.10062746822E+03 -0.21185820437E+03 -0.21942251131E+03  0.32117911605E+03  0.00000000000E+00 0. -1.
         -1    1    6    6    0  503  0.16053288380E+02 -0.26012243146E+03 -0.26692143760E+03  0.37305286659E+03  0.00000000000E+00 0.  1.
<mgrwt>
<rscale>  0 0.62030214E+03</rscale>
<asrwt>0</asrwt>
<pdfrwt beam="1">  1        1 0.14542432E+00 0.62030214E+03</pdfrwt>
<pdfrwt beam="2">  1       -1 0.87545948E-01 0.62030214E+03</pdfrwt>
<totfact> 0.22440802E+01</totfact>
</mgrwt>
</event>
<event>
12    1  0.1418317E-007  0.4335318E+03  0.7818608E-02  0.1032750E+00
         -2   -1    0    0    0  501 -0.00000000000E+00  0.00000000000E+00  0.28628571106E+03  0.28628571106E+03  0.00000000000E+00 0.  1.
          2   -1    0    0  501    0  0.00000000000E+00 -0.00000000000E+00 -0.11174534260E+04  0.11174534260E+04  0.00000000000E+00 0. -1.
         23    2    1    2    0    0 -0.48802767282E+02 -0.34336727562E+03 -0.54753129020E+03  0.65477412489E+03  0.93036792791E+02 0.  0.
    5000000    2    1    2    0    0  0.48802767282E+02  0.34336727562E+03 -0.28363642471E+03  0.74896501214E+03  0.60018011624E+03 0.  0.
         23    2    4    4    0    0  0.11681916411E+03  0.39863796287E+03  0.13794052823E+02  0.42581725986E+03  0.92580345422E+02 0.  0.
         23    2    4    4    0    0 -0.68016396828E+02 -0.55270687253E+02 -0.29743047753E+03  0.32314775228E+03  0.90986272203E+02 0.  0.
          4    1    3    3  502    0 -0.74485031031E+02 -0.20855481665E+03 -0.32314437339E+03  0.39174662404E+03  0.00000000000E+00 0. -1.
         -4    1    3    3    0  502  0.25682263750E+02 -0.13481245897E+03 -0.22438691681E+03  0.26302750084E+03  0.00000000000E+00 0.  1.
         13    1    5    5    0    0  0.19776205302E+02  0.13364072459E+03  0.43801075656E+02  0.14201927965E+03  0.00000000000E+00 0. -1.
        -13    1    5    5    0    0  0.97042958807E+02  0.26499723828E+03 -0.30007022833E+02  0.28379798021E+03  0.00000000000E+00 0.  1.
          1    1    6    6  503    0 -0.28157692185E+02 -0.80770191890E+01 -0.22937299015E+03  0.23123594547E+03  0.00000000000E+00 0. -1.
         -1    1    6    6    0  503 -0.39858704643E+02 -0.47193668064E+02 -0.68057487382E+02  0.91911806804E+02  0.00000000000E+00 0.  1.
<mgrwt>
<rscale>  0 0.43353183E+03</rscale>
<asrwt>0</asrwt>
<pdfrwt beam="1">  1        2 0.17191591E+00 0.43353183E+03</pdfrwt>
<pdfrwt beam="2">  1       -2 0.44043956E-01 0.43353183E+03</pdfrwt>
<totfact> 0.10871993E+02</totfact>
</mgrwt>
</event>
<event>
12    1  0.1418317E-007  0.4699548E+03  0.7818608E-02  0.1021933E+00
          2   -1    0    0  501    0  0.00000000000E+00  0.00000000000E+00  0.66048716231E+03  0.66048716231E+03  0.00000000000E+00 0. -1.
         -2   -1    0    0    0  501 -0.00000000000E+00 -0.00000000000E+00 -0.41590524294E+03  0.41590524294E+03  0.00000000000E+00 0.  1.
         23    2    1    2    0    0 -0.96214345111E+02 -0.32370884244E+03  0.15600386169E+03  0.38226636230E+03  0.88009954015E+02 0.  0.
    5000000    2    1    2    0    0  0.96214345111E+02  0.32370884244E+03  0.88578057684E+02  0.69412604296E+03  0.59993355993E+03 0.  0.
         23    2    4    4    0    0  0.14596987569E+03  0.43545560211E+03 -0.69302734283E+02  0.47483627149E+03  0.98680442497E+02 0.  0.
         23    2    4    4    0    0 -0.49755530580E+02 -0.11174675967E+03  0.15788079197E+03  0.21928977147E+03  0.90546718755E+02 0.  0.
          1    1    3    3  502    0 -0.88546320811E+02 -0.27446412012E+03  0.16404187467E+03  0.33178417805E+03  0.00000000000E+00 0. -1.
         -1    1    3    3    0  502 -0.76680242998E+01 -0.49244722321E+02 -0.80380129884E+01  0.50482184243E+02  0.00000000000E+00 0.  1.
         11    1    5    5    0    0  0.25069013384E+01  0.11080045192E+03  0.95602836210E+01  0.11124038710E+03  0.00000000000E+00 0. -1.
        -11    1    5    5    0    0  0.14346297435E+03  0.32465515019E+03 -0.78863017904E+02  0.36359588439E+03  0.00000000000E+00 0.  1.
          2    1    6    6  503    0  0.71390390471E+01 -0.55315643323E+02  0.18951129864E+02  0.58906125300E+02  0.00000000000E+00 0.  1.
         -2    1    6    6    0  503 -0.56894569627E+02 -0.56431116347E+02  0.13892966210E+03  0.16038364617E+03  0.00000000000E+00 0. -1.
<mgrwt>
<rscale>  0 0.46995476E+03</rscale>
<asrwt>0</asrwt>
<pdfrwt beam="1">  1        2 0.10161341E+00 0.46995476E+03</pdfrwt>
<pdfrwt beam="2">  1       -2 0.63985422E-01 0.46995476E+03</pdfrwt>
<totfact> 0.10280977E+02</totfact>
</mgrwt>
</event>
<event>
12    1  0.1418317E-007  0.2979369E+03  0.7818608E-02  0.1086276E+00
          3   -1    0    0  501    0  0.00000000000E+00  0.00000000000E+00  0.37530070999E+03  0.37530070999E+03  0.00000000000E+00 0. -1.
         -3   -1    0    0    0  501 -0.00000000000E+00 -0.00000000000E+00 -0.31891071997E+03  0.31891071997E+03  0.00000000000E+00 0.  1.
         23    2    1    2    0    0 -0.17085122074E+02 -0.15012168734E+02  0.15002892249E+02  0.92322186907E+02  0.88210162754E+02 0.  0.
    5000000    2    1    2    0    0  0.17085122074E+02  0.15012168734E+02  0.41387097775E+02  0.60188924305E+03  0.60003375108E+03 0.  0.
         23    2    4    4    0    0 -0.78417101842E+02  0.24344174322E+03 -0.11500486237E+03  0.29467530674E+03  0.90522338853E+02 0.  0.
         23    2    4    4    0    0  0.95502223915E+02 -0.22842957449E+03  0.15639196015E+03  0.30721393631E+03  0.92850482989E+02 0.  0.
          4    1    3    3  502    0  0.33155439145E+01 -0.39226580539E+02  0.36794991035E+02  0.53884959102E+02  0.00000000000E+00 0. -1.
         -4    1    3    3    0  502 -0.20400665988E+02  0.24214411805E+02 -0.21792098785E+02  0.38437227805E+02  0.00000000000E+00 0.  1.
         13    1    5    5    0    0 -0.72167038430E+02  0.25111427378E+03 -0.10902512290E+03  0.28311294099E+03  0.00000000000E+00 0.  1.
        -13    1    5    5    0    0 -0.62500634113E+01 -0.76725305555E+01 -0.59797394693E+01  0.11562365757E+02  0.00000000000E+00 0. -1.
          2    1    6    6  503    0  0.41307579411E+02 -0.39620499941E+02  0.18354301293E+01  0.57266647677E+02  0.00000000000E+00 0. -1.
         -2    1    6    6    0  503  0.54194644504E+02 -0.18880907455E+03  0.15455653002E+03  0.24994728863E+03  0.00000000000E+00 0.  1.
<mgrwt>
<rscale>  0 0.29793694E+03</rscale>
<asrwt>0</asrwt>
<pdfrwt beam="1">  1        3 0.57738571E-01 0.29793694E+03</pdfrwt>
<pdfrwt beam="2">  1       -3 0.49063188E-01 0.29793694E+03</pdfrwt>
<totfact> 0.30939098E+01</totfact>
</mgrwt>
</event>
<event>
12    1  0.1418317E-007  0.6801034E+03  0.7818608E-02  0.9751876E-01
          1   -1    0    0  501    0  0.00000000000E+00  0.00000000000E+00  0.15082763742E+04  0.15082763742E+04  0.00000000000E+00 0. -1.
         -1   -1    0    0    0  501 -0.00000000000E+00 -0.00000000000E+00 -0.38111110050E+03  0.38111110050E+03  0.00000000000E+00 0.  1.
         23    2    1    2    0    0 -0.55492264001E+03 -0.10967411856E+03  0.11576984397E+03  0.58448882100E+03  0.90867906453E+02 0.  0.
    5000000    2    1    2    0    0  0.55492264001E+03  0.10967411856E+03  0.10113954298E+04  0.13048986537E+04  0.59989351761E+03 0.  0.
         23    2    4    4    0    0  0.83472794150E+02  0.27997219350E+03  0.47354738694E+03  0.56404012074E+03  0.92422906383E+02 0.  0.
         23    2    4    4    0    0  0.47144984586E+03 -0.17029807494E+03  0.53784804284E+03  0.74085853300E+03  0.91238463622E+02 0.  0.
          1    1    3    3  502    0 -0.19615005564E+03 -0.53256563101E+02  0.83984098726E+02  0.21991915488E+03  0.00000000000E+00 0. -1.
         -1    1    3    3    0  502 -0.35877258437E+03 -0.56417555457E+02  0.31785745242E+02  0.36456966613E+03  0.00000000000E+00 0.  1.
         11    1    5    5    0    0  0.39843345838E+02  0.15268011199E+03  0.16967653846E+03  0.23170851627E+03  0.00000000000E+00 0. -1.
        -11    1    5    5    0    0  0.43629448312E+02  0.12729208151E+03  0.30387084848E+03  0.33233160447E+03  0.00000000000E+00 0.  1.
          2    1    6    6  503    0  0.35423671471E+03 -0.13364797182E+03  0.45863068528E+03  0.59471634911E+03  0.00000000000E+00 0.  1.
         -2    1    6    6    0  503  0.11721313116E+03 -0.36650103124E+02  0.79217357558E+02  0.14614218389E+03  0.00000000000E+00 0. -1.
<mgrwt>
<rscale>  0 0.68010337E+03</rscale>
<asrwt>0</asrwt>
<pdfrwt beam="1">  1        1 0.23204252E+00 0.68010337E+03</pdfrwt>
<pdfrwt beam="2">  1       -1 0.58632478E-01 0.68010337E+03</pdfrwt>
<totfact> 0.19885782E+01</totfact>
</mgrwt>
</event>
<event>
12    1  0.1418317E-007  0.8233474E+03  0.7818608E-02  0.9526824E-01
          4   -1    0    0  501    0  0.00000000000E+00  0.00000000000E+00  0.14038726658E+04  0.14038726658E+04  0.00000000000E+00 0.  1.
         -4   -1    0    0    0  501 -0.00000000000E+00 -0.00000000000E+00 -0.79205160449E+03  0.79205160449E+03  0.00000000000E+00 0. -1.
         23    2    1    2    0    0 -0.62676946457E+02 -0.76866124395E+03 -0.32561888004E+03  0.84179679165E+03  0.88462849958E+02 0.  0.
    5000000    2    1    2    0    0  0.62676946457E+02  0.76866124395E+03  0.93743994132E+03  0.13541274786E+04  0.60008255862E+03 0.  0.
         23    2    4    4    0    0 -0.66966902685E+02  0.69709880318E+03  0.94729986956E+03  0.11812428869E+04  0.86754870013E+02 0.  0.
         23    2    4    4    0    0  0.12964384914E+03  0.71562440777E+02 -0.98599282415E+01  0.17288459173E+03  0.88674423159E+02 0.  0.
          3    1    3    3  502    0 -0.26211519589E+02 -0.49046478834E+02 -0.19552421809E+02  0.58948265825E+02  0.00000000000E+00 0. -1.
         -3    1    3    3    0  502 -0.36465426869E+02 -0.71961476512E+03 -0.30606645823E+03  0.78284852583E+03  0.00000000000E+00 0.  1.
         13    1    5    5    0    0 -0.87807376173E+02  0.54096079780E+03  0.72754991550E+03  0.91086640053E+03  0.00000000000E+00 0.  1.
        -13    1    5    5    0    0  0.20840473488E+02  0.15613800538E+03  0.21974995406E+03  0.27037648634E+03  0.00000000000E+00 0. -1.
          3    1    6    6  503    0  0.96397652020E+02  0.12499182441E+02 -0.30764155268E+02  0.10195670712E+03  0.00000000000E+00 0. -1.
         -3    1    6    6    0  503  0.33246197123E+02  0.59063258336E+02  0.20904227026E+02  0.70927884615E+02  0.00000000000E+00 0.  1.
<mgrwt>
<rscale>  0 0.82334739E+03</rscale>
<asrwt>0</asrwt>
<pdfrwt beam="1">  1        4 0.21598041E+00 0.82334739E+03</pdfrwt>
<pdfrwt beam="2">  1       -4 0.12185409E+00 0.82334739E+03</pdfrwt>
<totfact> 0.10282018E-01</totfact>
</mgrwt>
</event>
<event>
12    1  0.1418317E-007  0.6336000E+03  0.7818608E-02  0.9838049E-01
          2   -1    0    0  501    0  0.00000000000E+00  0.00000000000E+00  0.15226394545E+04  0.15226394545E+04  0.00000000000E+00 0.  1.
         -2   -1    0    0    0  501 -0.00000000000E+00 -0.00000000000E+00 -0.28382205421E+03  0.28382205421E+03  0.00000000000E+00 0. -1.
         23    2    1    2    0    0 -0.50483231444E+03 -0.79709237392E+01  0.34919152103E+03  0.62063161219E+03  0.91267071607E+02 0.  0.
    5000000    2    1    2    0    0  0.50483231444E+03  0.79709237392E+01  0.88962587922E+03  0.11858298965E+04  0.59986593260E+03 0.  0.
         23    2    4    4    0    0 -0.38288766763E+02  0.17704302101E+03  0.28583571025E+03  0.35133607052E+03  0.94470737537E+02 0.  0.
         23    2    4    4    0    0  0.54312108121E+03 -0.16907209727E+03  0.60379016897E+03  0.83449382597E+03  0.90837737204E+02 0.  0.
          4    1    3    3  502    0 -0.36747454967E+03 -0.33620757756E+02  0.28797368319E+03  0.46807770959E+03  0.00000000000E+00 0. -1.
         -4    1    3    3    0  502 -0.13735776477E+03  0.25649834017E+02  0.61217837848E+02  0.15255390260E+03  0.00000000000E+00 0.  1.
         11    1    5    5    0    0 -0.95546108508E+01  0.10438251483E+02  0.96384075543E+02  0.97417337783E+02  0.00000000000E+00 0. -1.
        -11    1    5    5    0    0 -0.28734155912E+02  0.16660476953E+03  0.18945163470E+03  0.25391873274E+03  0.00000000000E+00 0.  1.
          1    1    6    6  503    0  0.15187335013E+03 -0.88525412463E+02  0.20500224888E+03  0.27005218973E+03  0.00000000000E+00 0. -1.
         -1    1    6    6    0  503  0.39124773107E+03 -0.80546684806E+02  0.39878792009E+03  0.56444163624E+03  0.00000000000E+00 0.  1.
<mgrwt>
<rscale>  0 0.63360004E+03</rscale>
<asrwt>0</asrwt>
<pdfrwt beam="1">  1        2 0.23425222E+00 0.63360004E+03</pdfrwt>
<pdfrwt beam="2">  1       -2 0.43664932E-01 0.63360004E+03</pdfrwt>
<totfact> 0.63396832E+01</totfact>
</mgrwt>
</event>
<event>
12    1  0.1418317E-007  0.6339426E+03  0.7818608E-02  0.9837385E-01
         -2   -1    0    0    0  501 -0.00000000000E+00  0.00000000000E+00  0.35862261719E+03  0.35862261719E+03  0.00000000000E+00 0. -1.
          2   -1    0    0  501    0  0.00000000000E+00 -0.00000000000E+00 -0.14504575485E+04  0.14504575485E+04  0.00000000000E+00 0.  1.
         23    2    1    2    0    0 -0.51955104051E+03 -0.16794005479E+03 -0.73924146416E+03  0.92379527947E+03  0.93715688902E+02 0.  0.
    5000000    2    1    2    0    0  0.51955104051E+03  0.16794005479E+03 -0.35259346718E+03  0.88528488626E+03  0.60105742741E+03 0.  0.
         23    2    4    4    0    0  0.20171001529E+03  0.30533841768E+03  0.74362141227E+01  0.37769697098E+03  0.93173091751E+02 0.  0.
         23    2    4    4    0    0  0.31784102522E+03 -0.13739836289E+03 -0.36002968130E+03  0.50758791528E+03  0.90127092929E+02 0.  0.
          4    1    3    3  502    0 -0.20512256372E+03 -0.46671430043E+02 -0.35552603701E+03  0.41310077647E+03  0.00000000000E+00 0. -1.
         -4    1    3    3    0  502 -0.31442847679E+03 -0.12126862474E+03 -0.38371542715E+03  0.51069450300E+03  0.00000000000E+00 0.  1.
         11    1    5    5    0    0  0.12161606329E+03  0.17527704867E+03  0.50030142135E+02  0.21912445268E+03  0.00000000000E+00 0.  1.
        -11    1    5    5    0    0  0.80093951991E+02  0.13006136901E+03 -0.42593928012E+02  0.15857251829E+03  0.00000000000E+00 0. -1.
          1    1    6    6  503    0  0.17928539626E+03 -0.36316945050E+02 -0.22043603408E+03  0.28645107598E+03  0.00000000000E+00 0. -1.
         -1    1    6    6    0  503  0.13855562897E+03 -0.10108141784E+03 -0.13959364722E+03  0.22113683930E+03  0.00000000000E+00 0.  1.
<mgrwt>
<rscale>  0 0.63394258E+03</rscale>
<asrwt>0</asrwt>
<pdfrwt beam="1">  1        2 0.22314731E+00 0.63394258E+03</pdfrwt>
<pdfrwt beam="2">  1       -2 0.55172711E-01 0.63394258E+03</pdfrwt>
<totfact> 0.43304571E+01</totfact>
</mgrwt>
</event>
<event>
12    1  0.1418317E-007  0.1183492E+04  0.7818608E-02  0.9127430E-01
         -2   -1    0    0    0  501 -0.00000000000E+00  0.00000000000E+00  0.11303443680E+04  0.11303443680E+04  0.00000000000E+00 0.  1.
          2   -1    0    0  501    0  0.00000000000E+00 -0.00000000000E+00 -0.12965955306E+04  0.12965955306E+04  0.00000000000E+00 0. -1.
         23    2    1    2    0    0 -0.15874594507E+03  0.10997082140E+04  0.14847326524E+03  0.11258300157E+04  0.10435747572E+03 0.  0.
    5000000    2    1    2    0    0  0.15874594507E+03 -0.10997082140E+04 -0.31472442785E+03  0.13011098829E+04  0.59939722294E+03 0.  0.
         23    2    4    4    0    0 -0.20603358871E+03 -0.48400196295E+03 -0.66238077661E+02  0.53806068901E+03  0.91728306982E+02 0.  0.
         23    2    4    4    0    0  0.36477953379E+03 -0.61570625102E+03 -0.24848635019E+03  0.76304919387E+03  0.91325298878E+02 0.  0.
          2    1    3    3  502    0 -0.88814869987E+02  0.87623857550E+03  0.96721249166E+02  0.88602320645E+03  0.00000000000E+00 0. -1.
         -2    1    3    3    0  502 -0.69931075086E+02  0.22346963847E+03  0.51752016074E+02  0.23980680922E+03  0.00000000000E+00 0.  1.
         13    1    5    5    0    0 -0.18678228368E+02 -0.11805805204E+03  0.99652577638E+01  0.11994117821E+03  0.00000000000E+00 0.  1.
        -13    1    5    5    0    0 -0.18735536035E+03 -0.36594391091E+03 -0.76203335424E+02  0.41811951080E+03  0.00000000000E+00 0. -1.
          3    1    6    6  503    0  0.18608553633E+03 -0.22613381744E+03 -0.10107007491E+03  0.30980556849E+03  0.00000000000E+00 0. -1.
         -3    1    6    6    0  503  0.17869399745E+03 -0.38957243358E+03 -0.14741627528E+03  0.45324362538E+03  0.00000000000E+00 0.  1.
<mgrwt>
<rscale>  0 0.11834916E+04</rscale>
<asrwt>0</asrwt>
<pdfrwt beam="1">  1        2 0.19947624E+00 0.11834916E+04</pdfrwt>
<pdfrwt beam="2">  1       -2 0.17389913E+00 0.11834916E+04</pdfrwt>
<totfact> 0.32309611E+00</totfact>
</mgrwt>
</event>
<event>
12    1  0.1418317E-007  0.6422995E+03  0.7818608E-02  0.9821337E-01
          3   -1    0    0  501    0  0.00000000000E+00  0.00000000000E+00  0.87715302329E+03  0.87715302329E+03  0.00000000000E+00 0. -1.
         -3   -1    0    0    0  501 -0.00000000000E+00 -0.00000000000E+00 -0.67889206327E+03  0.67889206327E+03  0.00000000000E+00 0.  1.
         23    2    1    2    0    0 -0.58456864115E+03 -0.18408483945E+03 -0.13852215243E+03  0.63467617413E+03  0.89541805683E+02 0.  0.
    5000000    2    1    2    0    0  0.58456864115E+03  0.18408483945E+03  0.33678311246E+03  0.92136891242E+03  0.59990839602E+03 0.  0.
         23    2    4    4    0    0  0.49079014805E+03  0.23884897458E+03 -0.21972436450E+01  0.55361004535E+03  0.92495688283E+02 0.  0.
         23    2    4    4    0    0  0.93778493097E+02 -0.54764135134E+02  0.33898035610E+03  0.36775886707E+03  0.92441258214E+02 0.  0.
          3    1    3    3  502    0 -0.25758773294E+03 -0.11180615262E+03 -0.97729266025E+02  0.29732652987E+03  0.00000000000E+00 0. -1.
         -3    1    3    3    0  502 -0.32698090821E+03 -0.72278686823E+02 -0.40792886408E+02  0.33734964427E+03  0.00000000000E+00 0.  1.
         13    1    5    5    0    0  0.34631546041E+03  0.12037663482E+03  0.41544905714E+01  0.36666359530E+03  0.00000000000E+00 0. -1.
        -13    1    5    5    0    0  0.14447468765E+03  0.11847233976E+03 -0.63517342164E+01  0.18694645005E+03  0.00000000000E+00 0.  1.
          2    1    6    6  503    0  0.31514359724E+02 -0.40931717376E+02  0.50247424710E+02  0.72064998760E+02  0.00000000000E+00 0. -1.
         -2    1    6    6    0  503  0.62264133374E+02 -0.13832417758E+02  0.28873293139E+03  0.29569386831E+03  0.00000000000E+00 0.  1.
<mgrwt>
<rscale>  0 0.64229953E+03</rscale>
<asrwt>0</asrwt>
<pdfrwt beam="1">  1        3 0.13494662E+00 0.64229953E+03</pdfrwt>
<pdfrwt beam="2">  1       -3 0.10444493E+00 0.64229953E+03</pdfrwt>
<totfact> 0.87110398E-01</totfact>
</mgrwt>
</event>
<event>
12    1  0.1418317E-007  0.6801757E+03  0.7818608E-02  0.9751748E-01
          2   -1    0    0  501    0  0.00000000000E+00  0.00000000000E+00  0.14767268431E+04  0.14767268431E+04  0.00000000000E+00 0. -1.
         -2   -1    0    0    0  501 -0.00000000000E+00 -0.00000000000E+00 -0.31816338389E+03  0.31816338389E+03  0.00000000000E+00 0.  1.
         23    2    1    2    0    0  0.24191107593E+03 -0.49445687935E+03  0.47692626819E+03  0.73302656955E+03  0.82829416212E+02 0.  0.
    5000000    2    1    2    0    0 -0.24191107593E+03  0.49445687935E+03  0.68163719108E+03  0.10618636575E+04  0.59993048983E+03 0.  0.
         23    2    4    4    0    0 -0.40849728475E+03  0.20903388920E+03  0.36402703244E+03  0.59292390972E+03  0.92075425005E+02 0.  0.
         23    2    4    4    0    0  0.16658620882E+03  0.28542299015E+03  0.31761015864E+03  0.46893974776E+03  0.99050622820E+02 0.  0.
          1    1    3    3  502    0  0.20798555254E+03 -0.36175008430E+03  0.38743218801E+03  0.56940742343E+03  0.00000000000E+00 0. -1.
         -1    1    3    3    0  502  0.33925523386E+02 -0.13270679505E+03  0.89494080179E+02  0.16361914612E+03  0.00000000000E+00 0.  1.
         13    1    5    5    0    0 -0.22363215376E+03  0.16248156713E+03  0.19667624786E+03  0.33925380812E+03  0.00000000000E+00 0. -1.
        -13    1    5    5    0    0 -0.18486513099E+03  0.46552322069E+02  0.16735078457E+03  0.25367010160E+03  0.00000000000E+00 0.  1.
          4    1    6    6  503    0  0.16126426072E+03  0.21676876854E+03  0.21460049327E+03  0.34503366866E+03  0.00000000000E+00 0. -1.
         -4    1    6    6    0  503  0.53219480986E+01  0.68654221613E+02  0.10300966537E+03  0.12390607910E+03  0.00000000000E+00 0.  1.
<mgrwt>
<rscale>  0 0.68017574E+03</rscale>
<asrwt>0</asrwt>
<pdfrwt beam="1">  1        2 0.22718874E+00 0.68017574E+03</pdfrwt>
<pdfrwt beam="2">  1       -2 0.48948214E-01 0.68017574E+03</pdfrwt>
<totfact> 0.53203464E+01</totfact>
</mgrwt>
</event>
<event>
12    1  0.1418317E-007  0.4141572E+03  0.7818608E-02  0.1038985E+00
         -2   -1    0    0    0  501 -0.00000000000E+00  0.00000000000E+00  0.36194985920E+03  0.36194985920E+03  0.00000000000E+00 0.  1.
          2   -1    0    0  501    0  0.00000000000E+00 -0.00000000000E+00 -0.80030936590E+03  0.80030936590E+03  0.00000000000E+00 0. -1.
         23    2    1    2    0    0  0.25551663217E+03 -0.21374432846E+03 -0.31388145001E+03  0.46469732798E+03  0.80291062413E+02 0.  0.
    5000000    2    1    2    0    0 -0.25551663217E+03  0.21374432846E+03 -0.12447805668E+03  0.69756189712E+03  0.60010201337E+03 0.  0.
         23    2    4    4    0    0 -0.11274788700E+03  0.28350499221E+03  0.16242707374E+03  0.35710199309E+03  0.89733564250E+02 0.  0.
         23    2    4    4    0    0 -0.14276874517E+03 -0.69760663755E+02 -0.28690513042E+03  0.34045990403E+03  0.91372466227E+02 0.  0.
          2    1    3    3  502    0  0.23329730657E+03 -0.20622703503E+03 -0.25901075594E+03  0.40502320295E+03  0.00000000000E+00 0.  1.
         -2    1    3    3    0  502  0.22219325598E+02 -0.75172934302E+01 -0.54870694071E+02  0.59674125032E+02  0.00000000000E+00 0. -1.
         11    1    5    5    0    0  0.86764962692E+01  0.75352055257E+02  0.25993563287E+02  0.80180291539E+02  0.00000000000E+00 0. -1.
        -11    1    5    5    0    0 -0.12142438327E+03  0.20815293696E+03  0.13643351045E+03  0.27692170155E+03  0.00000000000E+00 0.  1.
          3    1    6    6  503    0 -0.54548414795E+02 -0.69598046211E+02 -0.98169668822E+02  0.13212381114E+03  0.00000000000E+00 0. -1.
         -3    1    6    6    0  503 -0.88220330374E+02 -0.16261754411E+00 -0.18873546160E+03  0.20833609289E+03  0.00000000000E+00 0.  1.
<mgrwt>
<rscale>  0 0.41415715E+03</rscale>
<asrwt>0</asrwt>
<pdfrwt beam="1">  1        2 0.12312452E+00 0.41415715E+03</pdfrwt>
<pdfrwt beam="2">  1       -2 0.55684594E-01 0.41415715E+03</pdfrwt>
<totfact> 0.10862730E+02</totfact>
</mgrwt>
</event>
<event>
12    1  0.1418317E-007  0.1244052E+04  0.7818608E-02  0.9075149E-01
          1   -1    0    0  501    0  0.00000000000E+00  0.00000000000E+00  0.28769713382E+04  0.28769713382E+04  0.00000000000E+00 0. -1.
         -1   -1    0    0    0  501 -0.00000000000E+00 -0.00000000000E+00 -0.66172456584E+03  0.66172456584E+03  0.00000000000E+00 0.  1.
         23    2    1    2    0    0  0.11572610124E+04  0.40246740998E+03  0.45201081128E+03  0.13092891642E+04  0.93227008593E+02 0.  0.
    5000000    2    1    2    0    0 -0.11572610124E+04 -0.40246740998E+03  0.17632359611E+04  0.22294067398E+04  0.60001690815E+03 0.  0.
         23    2    4    4    0    0 -0.51305005967E+03 -0.32217089263E+03  0.44643809940E+03  0.75825779673E+03  0.92916424391E+02 0.  0.
         23    2    4    4    0    0 -0.64421095275E+03 -0.80296517358E+02  0.13167978617E+04  0.14711489431E+04  0.94166458143E+02 0.  0.
          3    1    3    3  502    0  0.38715428927E+03  0.14971676170E+03  0.10895456457E+03  0.42915574046E+03  0.00000000000E+00 0. -1.
         -3    1    3    3    0  502  0.77010672315E+03  0.25275064829E+03  0.34305624671E+03  0.88013342378E+03  0.00000000000E+00 0.  1.
         13    1    5    5    0    0 -0.43989872810E+03 -0.24469344941E+03  0.33861895560E+03  0.60667006870E+03  0.00000000000E+00 0. -1.
        -13    1    5    5    0    0 -0.73151331564E+02 -0.77477443217E+02  0.10781914381E+03  0.15158772803E+03  0.00000000000E+00 0.  1.
          1    1    6    6  503    0 -0.59153584360E+03 -0.54896809770E+02  0.12365443183E+04  0.13718491772E+04  0.00000000000E+00 0. -1.
         -1    1    6    6    0  503 -0.52675109148E+02 -0.25399707588E+02  0.80253543422E+02  0.99299765867E+02  0.00000000000E+00 0.  1.
<mgrwt>
<rscale>  0 0.12440516E+04</rscale>
<asrwt>0</asrwt>
<pdfrwt beam="1">  1        1 0.44261097E+00 0.12440516E+04</pdfrwt>
<pdfrwt beam="2">  1       -1 0.10180378E+00 0.12440516E+04</pdfrwt>
<totfact> 0.66352350E-01</totfact>
</mgrwt>
</event>
<event>
12    1  0.1418317E-007  0.1230841E+04  0.7818608E-02  0.9086282E-01
          2   -1    0    0  501    0  0.00000000000E+00  0.00000000000E+00  0.18471247787E+04  0.18471247787E+04  0.00000000000E+00 0.  1.
         -2   -1    0    0    0  501 -0.00000000000E+00 -0.00000000000E+00 -0.10760854040E+04  0.10760854040E+04  0.00000000000E+00 0. -1.
         23    2    1    2    0    0 -0.10867020603E+04  0.40698688214E+03  0.10720517754E+04  0.15825579795E+04  0.92925019634E+02 0.  0.
    5000000    2    1    2    0    0  0.10867020603E+04 -0.40698688214E+03 -0.30101240074E+03  0.13406522033E+04  0.60015012677E+03 0.  0.
         23    2    4    4    0    0  0.89941288387E+03 -0.66374176884E+02 -0.23385334234E+03  0.93618766398E+03  0.91710901366E+02 0.  0.
         23    2    4    4    0    0  0.18728917639E+03 -0.34061270526E+03 -0.67159058396E+02  0.40446453927E+03  0.89369870921E+02 0.  0.
          4    1    3    3  502    0 -0.95281200857E+03  0.38363656613E+03  0.92417825967E+03  0.13817138612E+04  0.00000000000E+00 0. -1.
         -4    1    3    3    0  502 -0.13389005170E+03  0.23350316007E+02  0.14787351573E+03  0.20084411830E+03  0.00000000000E+00 0.  1.
         11    1    5    5    0    0  0.18395572238E+03 -0.50566399438E+02 -0.54872665772E+02  0.19851367207E+03  0.00000000000E+00 0.  1.
        -11    1    5    5    0    0  0.71545716149E+03 -0.15807777445E+02 -0.17898067657E+03  0.73767399191E+03  0.00000000000E+00 0. -1.
          4    1    6    6  503    0  0.91484419942E+02 -0.21942199362E+03 -0.76395708673E+02  0.24970325324E+03  0.00000000000E+00 0. -1.
         -4    1    6    6    0  503  0.95804756450E+02 -0.12119071164E+03  0.92366502763E+01  0.15476128603E+03  0.00000000000E+00 0.  1.
<mgrwt>
<rscale>  0 0.12308412E+04</rscale>
<asrwt>0</asrwt>
<pdfrwt beam="1">  1        2 0.28417304E+00 0.12308412E+04</pdfrwt>
<pdfrwt beam="2">  1       -2 0.16555160E+00 0.12308412E+04</pdfrwt>
<totfact> 0.18045593E+00</totfact>
</mgrwt>
</event>
<event>
12    1  0.1418317E-007  0.3978127E+03  0.7818608E-02  0.1044540E+00
         -2   -1    0    0    0  501 -0.00000000000E+00  0.00000000000E+00  0.13926233129E+03  0.13926233129E+03  0.00000000000E+00 0.  1.
          2   -1    0    0  501    0  0.00000000000E+00 -0.00000000000E+00 -0.16255985152E+04  0.16255985152E+04  0.00000000000E+00 0. -1.
         23    2    1    2    0    0  0.22234970125E+03  0.16441916746E+03 -0.45325696252E+03  0.53857442164E+03  0.90263399584E+02 0.  0.
    5000000    2    1    2    0    0 -0.22234970125E+03 -0.16441916746E+03 -0.10330792214E+04  0.12262864248E+04  0.60004388657E+03 0.  0.
         23    2    4    4    0    0 -0.18034403471E+03 -0.30035389769E+03 -0.98629843246E+03  0.10506237848E+04  0.91045618798E+02 0.  0.
         23    2    4    4    0    0 -0.42005666540E+02  0.13593473023E+03 -0.46780788898E+02  0.17566263997E+03  0.91794302471E+02 0.  0.
          3    1    3    3  502    0  0.15808586614E+03  0.97568771325E+02 -0.36971080169E+03  0.41375945077E+03  0.00000000000E+00 0. -1.
         -3    1    3    3    0  502  0.64263835109E+02  0.66850396132E+02 -0.83546160823E+02  0.12481497087E+03  0.00000000000E+00 0.  1.
         11    1    5    5    0    0 -0.84364092397E+02 -0.20040809878E+03 -0.69152235747E+03  0.72490266727E+03  0.00000000000E+00 0. -1.
        -11    1    5    5    0    0 -0.95979942310E+02 -0.99945798913E+02 -0.29477607499E+03  0.32572111757E+03  0.00000000000E+00 0.  1.
          2    1    6    6  503    0  0.21871567440E+02  0.44407335629E+02  0.99001748031E+01  0.50481584574E+02  0.00000000000E+00 0. -1.
         -2    1    6    6    0  503 -0.63877233980E+02  0.91527394602E+02 -0.56680963701E+02  0.12518105539E+03  0.00000000000E+00 0.  1.
<mgrwt>
<rscale>  0 0.39781273E+03</rscale>
<asrwt>0</asrwt>
<pdfrwt beam="1">  1        2 0.25009209E+00 0.39781273E+03</pdfrwt>
<pdfrwt beam="2">  1       -2 0.21424973E-01 0.39781273E+03</pdfrwt>
<totfact> 0.21508241E+02</totfact>
</mgrwt>
</event>
<event>
12    1  0.1418317E-007  0.4578384E+03  0.7818608E-02  0.1025410E+00
          2   -1    0    0  501    0  0.00000000000E+00  0.00000000000E+00  0.20613091081E+04  0.20613091081E+04  0.00000000000E+00 0. -1.
         -2   -1    0    0    0  501 -0.00000000000E+00 -0.00000000000E+00 -0.11064065338E+03  0.11064065338E+03  0.00000000000E+00 0.  1.
         23    2    1    2    0    0 -0.20586106673E+03 -0.17422441147E+03  0.44385828128E+03  0.52730257603E+03  0.91131270613E+02 0.  0.
    5000000    2    1    2    0    0  0.20586106673E+03  0.17422441147E+03  0.15068101734E+04  0.16446471854E+04  0.60137720398E+03 0.  0.
         23    2    4    4    0    0  0.22711521471E+03  0.35833541867E+03  0.11858438219E+04  0.12626182498E+04  0.89407392098E+02 0.  0.
         23    2    4    4    0    0 -0.21254147978E+02 -0.18411100719E+03  0.32096635150E+03  0.38202893561E+03  0.92618070992E+02 0.  0.
          4    1    3    3  502    0 -0.15946850047E+03 -0.79101249814E+02  0.25858228123E+03  0.31392993889E+03  0.00000000000E+00 0. -1.
         -4    1    3    3    0  502 -0.46392566260E+02 -0.95123161659E+02  0.18527600004E+03  0.21337263714E+03  0.00000000000E+00 0.  1.
         13    1    5    5    0    0 -0.25134806869E+00  0.82918976451E+01  0.39592561876E+01  0.91920863773E+01  0.00000000000E+00 0.  1.
        -13    1    5    5    0    0  0.22736656278E+03  0.35004352102E+03  0.11818845657E+04  0.12534261634E+04  0.00000000000E+00 0. -1.
          2    1    6    6  503    0  0.34687746050E+02 -0.92545858976E+02  0.13474138818E+03  0.16710241599E+03  0.00000000000E+00 0. -1.
         -2    1    6    6    0  503 -0.55941894028E+02 -0.91565148217E+02  0.18622496331E+03  0.21492651962E+03  0.00000000000E+00 0.  1.
<mgrwt>
<rscale>  0 0.45783839E+03</rscale>
<asrwt>0</asrwt>
<pdfrwt beam="1">  1        2 0.31712445E+00 0.45783839E+03</pdfrwt>
<pdfrwt beam="2">  1       -2 0.17021640E-01 0.45783839E+03</pdfrwt>
<totfact> 0.18513524E+02</totfact>
</mgrwt>
</event>
<event>
12    1  0.1418317E-007  0.6175074E+03  0.7818608E-02  0.9869735E-01
         -1   -1    0    0    0  501 -0.00000000000E+00  0.00000000000E+00  0.55938260299E+03  0.55938260299E+03  0.00000000000E+00 0.  1.
          1   -1    0    0  501    0  0.00000000000E+00 -0.00000000000E+00 -0.73863189170E+03  0.73863189170E+03  0.00000000000E+00 0. -1.
         23    2    1    2    0    0 -0.48950841043E+03 -0.69577296256E+02 -0.12802266244E+03  0.51891719337E+03  0.91791979173E+02 0.  0.
    5000000    2    1    2    0    0  0.48950841043E+03  0.69577296256E+02 -0.51226626274E+02  0.77909730131E+03  0.59992412323E+03 0.  0.
         23    2    4    4    0    0  0.29170418056E+03 -0.22040412305E+03 -0.14608452327E+03  0.40426606781E+03  0.91766329524E+02 0.  0.
         23    2    4    4    0    0  0.19780422987E+03  0.28998141931E+03  0.94857896993E+02  0.37483123350E+03  0.91020305901E+02 0.  0.
          2    1    3    3  502    0 -0.20784892513E+03 -0.75484498440E+02 -0.53773627728E+02  0.22757567582E+03  0.00000000000E+00 0.  1.
         -2    1    3    3    0  502 -0.28165948530E+03  0.59072021838E+01 -0.74249034710E+02  0.29134151755E+03  0.00000000000E+00 0. -1.
         11    1    5    5    0    0  0.10581828830E+03 -0.28099769383E+02 -0.43246017070E+02  0.11771714051E+03  0.00000000000E+00 0.  1.
        -11    1    5    5    0    0  0.18588589226E+03 -0.19230435367E+03 -0.10283850620E+03  0.28654892730E+03  0.00000000000E+00 0. -1.
          3    1    6    6  503    0  0.17196014812E+03  0.21147167871E+03  0.39642224030E+02  0.27543069793E+03  0.00000000000E+00 0. -1.
         -3    1    6    6    0  503  0.25844081754E+02  0.78509740596E+02  0.55215672963E+02  0.99400535567E+02  0.00000000000E+00 0.  1.
<mgrwt>
<rscale>  0 0.61750744E+03</rscale>
<asrwt>0</asrwt>
<pdfrwt beam="1">  1        1 0.11363567E+00 0.61750744E+03</pdfrwt>
<pdfrwt beam="2">  1       -1 0.86058863E-01 0.61750744E+03</pdfrwt>
<totfact> 0.34752037E+01</totfact>
</mgrwt>
</event>
<event>
12    1  0.1418317E-007  0.8836921E+03  0.7818608E-02  0.9446200E-01
         -2   -1    0    0    0  501 -0.00000000000E+00  0.00000000000E+00  0.40127082762E+03  0.40127082762E+03  0.00000000000E+00 0.  1.
          2   -1    0    0  501    0  0.00000000000E+00 -0.00000000000E+00 -0.21140958569E+04  0.21140958569E+04  0.00000000000E+00 0. -1.
         23    2    1    2    0    0 -0.49370995687E+03 -0.64180778236E+03 -0.94608164268E+03  0.12490496469E+04  0.96890633164E+02 0.  0.
    5000000    2    1    2    0    0  0.49370995687E+03  0.64180778236E+03 -0.76674338656E+03  0.12663170376E+04  0.59999722318E+03 0.  0.
         23    2    4    4    0    0  0.40607150629E+03  0.71796325846E+03 -0.52263507095E+03  0.98076470067E+03  0.91578774734E+02 0.  0.
         23    2    4    4    0    0  0.87638450588E+02 -0.76155476100E+02 -0.24410831561E+03  0.28555233691E+03  0.92038648424E+02 0.  0.
          2    1    3    3  502    0 -0.23651792514E+03 -0.23102959016E+03 -0.36918844157E+03  0.49559611160E+03  0.00000000000E+00 0. -1.
         -2    1    3    3    0  502 -0.25719203173E+03 -0.41077819220E+03 -0.57689320112E+03  0.75345353531E+03  0.00000000000E+00 0.  1.
         13    1    5    5    0    0  0.21356035401E+03  0.38748996779E+03 -0.33375468020E+03  0.55420996607E+03  0.00000000000E+00 0. -1.
        -13    1    5    5    0    0  0.19251115228E+03  0.33047329067E+03 -0.18888039075E+03  0.42655473460E+03  0.00000000000E+00 0.  1.
          3    1    6    6  503    0  0.46088854526E+02 -0.71945130005E+02 -0.22289729940E+03  0.23871214951E+03  0.00000000000E+00 0. -1.
         -3    1    6    6    0  503  0.41549596061E+02 -0.42103460948E+01 -0.21211016207E+02  0.46840187400E+02  0.00000000000E+00 0.  1.
<mgrwt>
<rscale>  0 0.88369212E+03</rscale>
<asrwt>0</asrwt>
<pdfrwt beam="1">  1        2 0.32524551E+00 0.88369212E+03</pdfrwt>
<pdfrwt beam="2">  1       -2 0.61733975E-01 0.88369212E+03</pdfrwt>
<totfact> 0.14332001E+01</totfact>
</mgrwt>
</event>
<event>
12    1  0.1418317E-007  0.6530028E+03  0.7818608E-02  0.9801161E-01
         -2   -1    0    0    0  501 -0.00000000000E+00  0.00000000000E+00  0.41074661832E+03  0.41074661832E+03  0.00000000000E+00 0.  1.
          2   -1    0    0  501    0  0.00000000000E+00 -0.00000000000E+00 -0.12649788174E+04  0.12649788174E+04  0.00000000000E+00 0. -1.
         23    2    1    2    0    0 -0.55376744896E+03  0.19564193367E+03 -0.26808390792E+03  0.65190336019E+03  0.90414908062E+02 0.  0.
    5000000    2    1    2    0    0  0.55376744896E+03 -0.19564193367E+03 -0.58614829120E+03  0.10238220756E+04  0.59975634172E+03 0.  0.
         23    2    4    4    0    0  0.27743441435E+03  0.10103407844E+03 -0.51783590755E+03  0.60289481734E+03  0.90279534515E+02 0.  0.
         23    2    4    4    0    0  0.27633303460E+03 -0.29667601211E+03 -0.68312383646E+02  0.42092725824E+03  0.90202953361E+02 0.  0.
          3    1    3    3  502    0 -0.21201329318E+03  0.40034109776E+02 -0.66903040042E+02  0.22589462853E+03  0.00000000000E+00 0.  1.
         -3    1    3    3    0  502 -0.34175415577E+03  0.15560782389E+03 -0.20118086788E+03  0.42600873166E+03  0.00000000000E+00 0. -1.
         11    1    5    5    0    0  0.84680892616E+02 -0.11636566486E+02 -0.14144339290E+03  0.16526492867E+03  0.00000000000E+00 0.  1.
        -11    1    5    5    0    0  0.19275352174E+03  0.11267064493E+03 -0.37639251465E+03  0.43762988867E+03  0.00000000000E+00 0. -1.
          3    1    6    6  503    0  0.12694446977E+03 -0.15184677735E+03  0.11071805655E+02  0.19822948085E+03  0.00000000000E+00 0. -1.
         -3    1    6    6    0  503  0.14938856484E+03 -0.14482923476E+03 -0.79384189301E+02  0.22269777739E+03  0.00000000000E+00 0.  1.
<mgrwt>
<rscale>  0 0.65300282E+03</rscale>
<asrwt>0</asrwt>
<pdfrwt beam="1">  1        2 0.19461212E+00 0.65300282E+03</pdfrwt>
<pdfrwt beam="2">  1       -2 0.63191788E-01 0.65300282E+03</pdfrwt>
<totfact> 0.41394117E+01</totfact>
</mgrwt>
</event>
<event>
12    1  0.1418317E-007  0.1647212E+04  0.7818608E-02  0.8792057E-01
         -1   -1    0    0    0  501 -0.00000000000E+00  0.00000000000E+00  0.15001023487E+04  0.15001023487E+04  0.00000000000E+00 0.  1.
          1   -1    0    0  501    0  0.00000000000E+00 -0.00000000000E+00 -0.34261676375E+04  0.34261676375E+04  0.00000000000E+00 0. -1.
         23    2    1    2    0    0 -0.10910231054E+04 -0.11613741130E+04  0.74184932215E+03  0.17613776988E+04  0.11397251454E+03 0.  0.
    5000000    2    1    2    0    0  0.10910231054E+04  0.11613741130E+04 -0.26679146109E+04  0.31648922875E+04  0.59971124163E+03 0.  0.
         23    2    4    4    0    0  0.99480609058E+03  0.69974851711E+03 -0.18290938238E+04  0.21984391830E+04  0.90903686426E+02 0.  0.
         23    2    4    4    0    0  0.96217014848E+02  0.46162559587E+03 -0.83882078712E+03  0.96645310444E+03  0.89751799300E+02 0.  0.
          2    1    3    3  502    0 -0.50224896220E+03 -0.59491922082E+03  0.40530252374E+03  0.87775454148E+03  0.00000000000E+00 0. -1.
         -2    1    3    3    0  502 -0.58877414323E+03 -0.56645489216E+03  0.33654679842E+03  0.88362315729E+03  0.00000000000E+00 0.  1.
         13    1    5    5    0    0  0.35448563784E+03  0.30006860351E+03 -0.72403212291E+03  0.86018820572E+03  0.00000000000E+00 0. -1.
        -13    1    5    5    0    0  0.64032045274E+03  0.39967991361E+03 -0.11050617009E+04  0.13382509773E+04  0.00000000000E+00 0.  1.
          3    1    6    6  503    0  0.10045823709E+03  0.27304151076E+03 -0.52902638329E+03  0.60374865484E+03  0.00000000000E+00 0. -1.
         -3    1    6    6    0  503 -0.42412222428E+01  0.18858408510E+03 -0.30979440383E+03  0.36270444961E+03  0.00000000000E+00 0.  1.
<mgrwt>
<rscale>  0 0.16472124E+04</rscale>
<asrwt>0</asrwt>
<pdfrwt beam="1">  1        1 0.52710270E+00 0.16472124E+04</pdfrwt>
<pdfrwt beam="2">  1       -1 0.23078498E+00 0.16472124E+04</pdfrwt>
<totfact> 0.24761059E-02</totfact>
</mgrwt>
</event>
<event>
12    1  0.1418317E-007  0.7984730E+03  0.7818608E-02  0.9562230E-01
          2   -1    0    0  501    0  0.00000000000E+00  0.00000000000E+00  0.13402663997E+04  0.13402663997E+04  0.00000000000E+00 0. -1.
         -2   -1    0    0    0  501 -0.00000000000E+00 -0.00000000000E+00 -0.52275205980E+03  0.52275205980E+03  0.00000000000E+00 0.  1.
         23    2    1    2    0    0  0.71862271273E+03  0.53056116459E+02  0.46315782897E+03  0.86141181372E+03  0.91003206191E+02 0.  0.
    5000000    2    1    2    0    0 -0.71862271273E+03 -0.53056116459E+02  0.35435651093E+03  0.10016066458E+04  0.59867669179E+03 0.  0.
         23    2    4    4    0    0  0.41127076163E+02  0.18741102060E+02  0.18951643268E+03  0.21545694762E+03  0.91992134006E+02 0.  0.
         23    2    4    4    0    0 -0.75974978889E+03 -0.71797218518E+02  0.16484007824E+03  0.78614969816E+03  0.92111422845E+02 0.  0.
          2    1    3    3  502    0  0.47890515358E+03  0.76705284769E+02  0.32303486803E+03  0.58273954114E+03  0.00000000000E+00 0. -1.
         -2    1    3    3    0  502  0.23971755915E+03 -0.23649168311E+02  0.14012296094E+03  0.27867227258E+03  0.00000000000E+00 0.  1.
         13    1    5    5    0    0  0.34282706777E+01  0.52035740244E+02  0.93106838542E+02  0.10671623441E+03  0.00000000000E+00 0. -1.
        -13    1    5    5    0    0  0.37698805485E+02 -0.33294638185E+02  0.96409594141E+02  0.10874071321E+03  0.00000000000E+00 0.  1.
          1    1    6    6  503    0 -0.16711600115E+03  0.22146338426E+02  0.40328340618E+02  0.17333376244E+03  0.00000000000E+00 0. -1.
         -1    1    6    6    0  503 -0.59263378774E+03 -0.93943556945E+02  0.12451173762E+03  0.61281593572E+03  0.00000000000E+00 0.  1.
<mgrwt>
<rscale>  0 0.79847297E+03</rscale>
<asrwt>0</asrwt>
<pdfrwt beam="1">  1        2 0.20619483E+00 0.79847297E+03</pdfrwt>
<pdfrwt beam="2">  1       -2 0.80423394E-01 0.79847297E+03</pdfrwt>
<totfact> 0.21731042E+01</totfact>
</mgrwt>
</event>
<event>
12    1  0.1418317E-007  0.1278258E+04  0.7818608E-02  0.9046986E-01
         -2   -1    0    0    0  501 -0.00000000000E+00  0.00000000000E+00  0.19757168806E+04  0.19757168806E+04  0.00000000000E+00 0.  1.
          2   -1    0    0  501    0  0.00000000000E+00 -0.00000000000E+00 -0.15060723161E+04  0.15060723161E+04  0.00000000000E+00 0. -1.
         23    2    1    2    0    0 -0.46487082766E+03 -0.11541500135E+04 -0.89862233070E+03  0.15374729302E+04  0.90187458973E+02 0.  0.
    5000000    2    1    2    0    0  0.46487082766E+03  0.11541500135E+04  0.13682668951E+04  0.19443162665E+04  0.60003692192E+03 0.  0.
         23    2    4    4    0    0  0.28502093609E+01  0.51459879424E+03  0.26863300675E+03  0.58773996816E+03  0.91948546098E+02 0.  0.
         23    2    4    4    0    0  0.46202061830E+03  0.63955121929E+03  0.10996338884E+04  0.13565762983E+04  0.92821069103E+02 0.  0.
          2    1    3    3  502    0 -0.16913297857E+03 -0.46864114776E+03 -0.31043285301E+03  0.58702559232E+03  0.00000000000E+00 0. -1.
         -2    1    3    3    0  502 -0.29573784908E+03 -0.68550886578E+03 -0.58818947769E+03  0.95044733789E+03  0.00000000000E+00 0.  1.
         11    1    5    5    0    0 -0.16588130278E+02  0.13988719769E+02  0.92612205669E+01  0.23592807236E+02  0.00000000000E+00 0. -1.
        -11    1    5    5    0    0  0.19438339639E+02  0.50061007447E+03  0.25937178618E+03  0.56414716092E+03  0.00000000000E+00 0.  1.
          3    1    6    6  503    0  0.58391323166E+02  0.85541439179E+02  0.20358161044E+03  0.22841268911E+03  0.00000000000E+00 0. -1.
         -3    1    6    6    0  503  0.40362929513E+03  0.55400978011E+03  0.89605227795E+03  0.11281636092E+04  0.00000000000E+00 0.  1.
<mgrwt>
<rscale>  0 0.12782584E+04</rscale>
<asrwt>0</asrwt>
<pdfrwt beam="1">  1        2 0.23170343E+00 0.12782584E+04</pdfrwt>
<pdfrwt beam="2">  1       -2 0.30395644E+00 0.12782584E+04</pdfrwt>
<totfact> 0.36560828E-01</totfact>
</mgrwt>
</event>
<event>
12    1  0.1418317E-007  0.5348305E+03  0.7818608E-02  0.1005067E+00
         -2   -1    0    0    0  501 -0.00000000000E+00  0.00000000000E+00  0.30969798905E+03  0.30969798905E+03  0.00000000000E+00 0. -1.
          2   -1    0    0  501    0  0.00000000000E+00 -0.00000000000E+00 -0.12856248063E+04  0.12856248063E+04  0.00000000000E+00 0.  1.
         23    2    1    2    0    0 -0.45135010354E+03  0.13407103276E+03 -0.52087373430E+03  0.70720240158E+03  0.84462014723E+02 0.  0.
    5000000    2    1    2    0    0  0.45135010354E+03 -0.13407103276E+03 -0.45505308294E+03  0.88812039377E+03  0.59999380642E+03 0.  0.
         23    2    4    4    0    0  0.87764587229E+02  0.10256924968E+03 -0.41245707521E+03  0.44301561113E+03  0.88988308562E+02 0.  0.
         23    2    4    4    0    0  0.36358551631E+03 -0.23664028244E+03 -0.42596007732E+02  0.44510478264E+03  0.90059961765E+02 0.  0.
          3    1    3    3  502    0 -0.10844716118E+03  0.60267924350E+02 -0.17570756374E+03  0.21509569365E+03  0.00000000000E+00 0. -1.
         -3    1    3    3    0  502 -0.34290294235E+03  0.73803108409E+02 -0.34516617056E+03  0.49210670793E+03  0.00000000000E+00 0.  1.
         11    1    5    5    0    0 -0.10119179592E+02  0.33243796673E+02 -0.47507312459E+02  0.58859940112E+02  0.00000000000E+00 0.  1.
        -11    1    5    5    0    0  0.97883766821E+02  0.69325453007E+02 -0.36494976275E+03  0.38415567102E+03  0.00000000000E+00 0. -1.
          2    1    6    6  503    0  0.16057065618E+03 -0.61251739556E+02 -0.41596946446E+02  0.17681916519E+03  0.00000000000E+00 0. -1.
         -2    1    6    6    0  503  0.20301486012E+03 -0.17538854288E+03 -0.99906128649E+00  0.26828561745E+03  0.00000000000E+00 0.  1.
<mgrwt>
<rscale>  0 0.53483050E+03</rscale>
<asrwt>0</asrwt>
<pdfrwt beam="1">  1        2 0.19778843E+00 0.53483050E+03</pdfrwt>
<pdfrwt beam="2">  1       -2 0.47645845E-01 0.53483050E+03</pdfrwt>
<totfact> 0.73242729E+01</totfact>
</mgrwt>
</event>
<event>
12    1  0.1418317E-007  0.5651561E+03  0.7818608E-02  0.9980455E-01
          2   -1    0    0  501    0  0.00000000000E+00  0.00000000000E+00  0.54549754250E+03  0.54549754250E+03  0.00000000000E+00 0. -1.
         -2   -1    0    0    0  501 -0.00000000000E+00 -0.00000000000E+00 -0.69250822948E+03  0.69250822948E+03  0.00000000000E+00 0.  1.
         23    2    1    2    0    0  0.13956004480E+01 -0.44131595721E+03  0.83259761287E+02  0.45847664958E+03  0.92233012361E+02 0.  0.
    5000000    2    1    2    0    0 -0.13956004480E+01  0.44131595721E+03 -0.23027044827E+03  0.77952912240E+03  0.59989953453E+03 0.  0.
         23    2    4    4    0    0  0.11524293543E+03  0.52111416189E+03 -0.27245990194E+03  0.60628545887E+03  0.92232074554E+02 0.  0.
         23    2    4    4    0    0 -0.11663853588E+03 -0.79798204681E+02  0.42189453666E+02  0.17324366353E+03  0.90890678464E+02 0.  0.
          3    1    3    3  502    0 -0.17283283548E+02 -0.23455338504E+03  0.10617531234E+01  0.23519168702E+03  0.00000000000E+00 0. -1.
         -3    1    3    3    0  502  0.18678883996E+02 -0.20676257217E+03  0.82198008164E+02  0.22328496255E+03  0.00000000000E+00 0.  1.
         13    1    5    5    0    0  0.10432913793E+03  0.51898028360E+03 -0.26061482076E+03  0.59003829417E+03  0.00000000000E+00 0.  1.
        -13    1    5    5    0    0  0.10913797501E+02  0.21338782877E+01 -0.11845081175E+02  0.16247164691E+02  0.00000000000E+00 0. -1.
          3    1    6    6  503    0 -0.41136956693E+02 -0.52617870751E+02  0.61407899454E+02  0.90729375858E+02  0.00000000000E+00 0. -1.
         -3    1    6    6    0  503 -0.75501579185E+02 -0.27180333930E+02 -0.19218445788E+02  0.82514287675E+02  0.00000000000E+00 0.  1.
<mgrwt>
<rscale>  0 0.56515606E+03</rscale>
<asrwt>0</asrwt>
<pdfrwt beam="1">  1        2 0.83922699E-01 0.56515606E+03</pdfrwt>
<pdfrwt beam="2">  1       -2 0.10653973E+00 0.56515606E+03</pdfrwt>
<totfact> 0.40561449E+01</totfact>
</mgrwt>
</event>
<event>
12    1  0.1418317E-007  0.1261188E+04  0.7818608E-02  0.9060923E-01
         -2   -1    0    0    0  501 -0.00000000000E+00  0.00000000000E+00  0.69414426329E+03  0.69414426329E+03  0.00000000000E+00 0.  1.
          2   -1    0    0  501    0  0.00000000000E+00 -0.00000000000E+00 -0.27843945483E+04  0.27843945483E+04  0.00000000000E+00 0. -1.
         23    2    1    2    0    0 -0.31848042832E+03  0.12187075332E+04 -0.15089780673E+04  0.19670322810E+04  0.74319258849E+02 0.  0.
    5000000    2    1    2    0    0  0.31848042832E+03 -0.12187075332E+04 -0.58127221770E+03  0.15115065306E+04  0.60008063315E+03 0.  0.
         23    2    4    4    0    0  0.30545181061E+03 -0.10891602926E+04 -0.27647094712E+03  0.11679623231E+04  0.90160146939E+02 0.  0.
         23    2    4    4    0    0  0.13028617707E+02 -0.12954724062E+03 -0.30480127058E+03  0.34354420748E+03  0.90369107073E+02 0.  0.
          4    1    3    3  502    0 -0.17867426222E+03  0.60975708329E+03 -0.71076572845E+03  0.95337092118E+03  0.00000000000E+00 0. -1.
         -4    1    3    3    0  502 -0.13980616610E+03  0.60895044989E+03 -0.79821233888E+03  0.10136613598E+04  0.00000000000E+00 0.  1.
         11    1    5    5    0    0  0.18504588499E+03 -0.64817956830E+03 -0.11915350324E+03  0.68452632502E+03  0.00000000000E+00 0.  1.
        -11    1    5    5    0    0  0.12040592563E+03 -0.44098072426E+03 -0.15731744388E+03  0.48343599808E+03  0.00000000000E+00 0. -1.
          3    1    6    6  503    0 -0.14501431542E+01 -0.56475215224E+02 -0.42017781521E+02  0.70406298112E+02  0.00000000000E+00 0. -1.
         -3    1    6    6    0  503  0.14478760861E+02 -0.73072025398E+02 -0.26278348906E+03  0.27313790937E+03  0.00000000000E+00 0.  1.
<mgrwt>
<rscale>  0 0.12611875E+04</rscale>
<asrwt>0</asrwt>
<pdfrwt beam="1">  1        2 0.42836839E+00 0.12611875E+04</pdfrwt>
<pdfrwt beam="2">  1       -2 0.10679142E+00 0.12611875E+04</pdfrwt>
<totfact> 0.16324095E+00</totfact>
</mgrwt>
</event>
<event>
12    1  0.1767262E-007  0.1940888E+04  0.7818608E-02  0.8634767E-01
         -2   -1    0    0    0  501 -0.00000000000E+00  0.00000000000E+00  0.13929047957E+04  0.13929047957E+04  0.00000000000E+00 0.  1.
          2   -1    0    0  501    0  0.00000000000E+00 -0.00000000000E+00 -0.27747676970E+04  0.27747676970E+04  0.00000000000E+00 0. -1.
         23    2    1    2    0    0 -0.17984853340E+04  0.66172174585E+03 -0.78578440034E+03  0.20732037665E+04  0.91058047467E+02 0.  0.
    5000000    2    1    2    0    0  0.17984853340E+04 -0.66172174585E+03 -0.59607850095E+03  0.20944687262E+04  0.59921990973E+03 0.  0.
         23    2    4    4    0    0  0.94411496311E+03 -0.13040957700E+03 -0.49897173513E+03  0.10796979193E+04  0.91733761670E+02 0.  0.
         23    2    4    4    0    0  0.85437037092E+03 -0.53131216885E+03 -0.97106765824E+02  0.10147708070E+04  0.89937285146E+02 0.  0.
          1    1    3    3  502    0 -0.58697372531E+03  0.21492687366E+03 -0.30274420367E+03  0.69453996867E+03  0.00000000000E+00 0. -1.
         -1    1    3    3    0  502 -0.12115116087E+04  0.44679487219E+03 -0.48304019667E+03  0.13786637978E+04  0.00000000000E+00 0.  1.
         11    1    5    5    0    0  0.36336757139E+03 -0.55027383016E+01 -0.18424208291E+03  0.40744498669E+03  0.00000000000E+00 0. -1.
        -11    1    5    5    0    0  0.58074739173E+03 -0.12490683869E+03 -0.31472965222E+03  0.67225293256E+03  0.00000000000E+00 0.  1.
          4    1    6    6  503    0  0.38671187381E+03 -0.27663762729E+03 -0.12905672669E+02  0.47564798598E+03  0.00000000000E+00 0. -1.
         -4    1    6    6    0  503  0.46765849711E+03 -0.25467454156E+03 -0.84201093156E+02  0.53912282100E+03  0.00000000000E+00 0.  1.
<mgrwt>
<rscale>  0 0.19408877E+04</rscale>
<asrwt>0</asrwt>
<pdfrwt beam="1">  1        2 0.42688733E+00 0.19408877E+04</pdfrwt>
<pdfrwt beam="2">  1       -2 0.21429305E+00 0.19408877E+04</pdfrwt>
<totfact> 0.23096859E-01</totfact>
</mgrwt>
</event>
<event>
12    1  0.1418317E-007  0.8196881E+03  0.7818608E-02  0.9531949E-01
          2   -1    0    0  501    0  0.00000000000E+00  0.00000000000E+00  0.11089215984E+04  0.11089215984E+04  0.00000000000E+00 0. -1.
         -2   -1    0    0    0  501 -0.00000000000E+00 -0.00000000000E+00 -0.76499608661E+03  0.76499608661E+03  0.00000000000E+00 0.  1.
         23    2    1    2    0    0 -0.53541311042E+03 -0.51910029885E+03 -0.19460102735E+03  0.77564075199E+03  0.87273691560E+02 0.  0.
    5000000    2    1    2    0    0  0.53541311042E+03  0.51910029885E+03  0.53852653914E+03  0.10982769330E+04  0.60005755489E+03 0.  0.
         23    2    4    4    0    0  0.61431404165E+03  0.51731025922E+03  0.54958057968E+03  0.97766696761E+03  0.93820253334E+02 0.  0.
         23    2    4    4    0    0 -0.78900931233E+02  0.17900396304E+01 -0.11054040531E+02  0.12060996541E+03  0.90531821773E+02 0.  0.
          1    1    3    3  502    0 -0.70828261422E+02 -0.55961844649E+02 -0.52503369779E+02  0.10442688596E+03  0.00000000000E+00 0. -1.
         -1    1    3    3    0  502 -0.46458484900E+03 -0.46313845420E+03 -0.14209765757E+03  0.67121386604E+03  0.00000000000E+00 0.  1.
         13    1    5    5    0    0  0.18884569575E+03  0.21682216970E+03  0.18610710450E+03  0.34250606479E+03  0.00000000000E+00 0. -1.
        -13    1    5    5    0    0  0.42546834591E+03  0.30048808952E+03  0.36347347518E+03  0.63516090282E+03  0.00000000000E+00 0.  1.
          3    1    6    6  503    0 -0.79940819488E+02 -0.27992031091E+01  0.25344156838E+02  0.83908857961E+02  0.00000000000E+00 0. -1.
         -3    1    6    6    0  503  0.10398882545E+01  0.45892427395E+01 -0.36398197369E+02  0.36701107453E+02  0.00000000000E+00 0.  1.
<mgrwt>
<rscale>  0 0.81968810E+03</rscale>
<asrwt>0</asrwt>
<pdfrwt beam="1">  1        2 0.17060332E+00 0.81968810E+03</pdfrwt>
<pdfrwt beam="2">  1       -2 0.11769171E+00 0.81968810E+03</pdfrwt>
<totfact> 0.12109487E+01</totfact>
</mgrwt>
</event>
<event>
12    1  0.1998158E-007  0.1604213E+04  0.7818608E-02  0.8817964E-01
          1   -1    0    0  501    0  0.00000000000E+00  0.00000000000E+00  0.14220391877E+04  0.14220391877E+04  0.00000000000E+00 0. -1.
         -1   -1    0    0    0  501 -0.00000000000E+00 -0.00000000000E+00 -0.20256369259E+04  0.20256369259E+04  0.00000000000E+00 0.  1.
         23    2    1    2    0    0 -0.15514259877E+04 -0.38538950042E+03 -0.67720637354E+03  0.17386144786E+04  0.93403268204E+02 0.  0.
    5000000    2    1    2    0    0  0.15514259877E+04  0.38538950042E+03  0.73608635409E+02  0.17090616350E+04  0.60002148164E+03 0.  0.
         23    2    4    4    0    0  0.10557968021E+04  0.30872680950E+03  0.31131061400E+03  0.11468850786E+04  0.91716710274E+02 0.  0.
         23    2    4    4    0    0  0.49562918565E+03  0.76662690923E+02 -0.23770197859E+03  0.56217655636E+03  0.89525370926E+02 0.  0.
          1    1    3    3  502    0 -0.69686547469E+03 -0.16345973810E+03 -0.25392700787E+03  0.75948634032E+03  0.00000000000E+00 0. -1.
         -1    1    3    3    0  502 -0.85456051304E+03 -0.22192976232E+03 -0.42327936567E+03  0.97912813832E+03  0.00000000000E+00 0.  1.
         11    1    5    5    0    0  0.28180437878E+03  0.54687992682E+02  0.11281144730E+03  0.30843298638E+03  0.00000000000E+00 0. -1.
        -11    1    5    5    0    0  0.77399242330E+03  0.25403881682E+03  0.19849916670E+03  0.83845209222E+03  0.00000000000E+00 0.  1.
          3    1    6    6  503    0  0.15434107461E+03 -0.13887878273E+02 -0.53638014446E+02  0.16398499038E+03  0.00000000000E+00 0. -1.
         -3    1    6    6    0  503  0.34128811104E+03  0.90550569196E+02 -0.18406396414E+03  0.39819156598E+03  0.00000000000E+00 0.  1.
<mgrwt>
<rscale>  0 0.16042134E+04</rscale>
<asrwt>0</asrwt>
<pdfrwt beam="1">  1        1 0.21877526E+00 0.16042134E+04</pdfrwt>
<pdfrwt beam="2">  1       -1 0.31163645E+00 0.16042134E+04</pdfrwt>
<totfact> 0.19243105E-01</totfact>
</mgrwt>
</event>
<event>
12    1  0.1418317E-007  0.4793271E+03  0.7818608E-02  0.1019320E+00
         -2   -1    0    0    0  501 -0.00000000000E+00  0.00000000000E+00  0.88684685085E+02  0.88684685085E+02  0.00000000000E+00 0.  1.
          2   -1    0    0  501    0  0.00000000000E+00 -0.00000000000E+00 -0.34534731017E+04  0.34534731017E+04  0.00000000000E+00 0. -1.
         23    2    1    2    0    0 -0.35215412100E+03  0.14427746185E+03 -0.13408643206E+04  0.13971447862E+04  0.96270017188E+02 0.  0.
    5000000    2    1    2    0    0  0.35215412100E+03 -0.14427746185E+03 -0.20239240960E+04  0.21450130006E+04  0.59998626287E+03 0.  0.
         23    2    4    4    0    0  0.35036150768E+03  0.62946225921E+02 -0.17579337525E+04  0.17958706269E+04  0.90026755736E+02 0.  0.
         23    2    4    4    0    0  0.17926133213E+01 -0.20722368777E+03 -0.26599034345E+03  0.34914237375E+03  0.90579600941E+02 0.  0.
          3    1    3    3  502    0 -0.12940400463E+03  0.35571587678E+02 -0.63502993038E+03  0.64905604283E+03  0.00000000000E+00 0. -1.
         -3    1    3    3    0  502 -0.22275011637E+03  0.10870587417E+03 -0.70583439026E+03  0.74808874333E+03  0.00000000000E+00 0.  1.
         11    1    5    5    0    0  0.22321157287E+03  0.47572325107E+02 -0.13203263778E+04  0.13399060699E+04  0.00000000000E+00 0. -1.
        -11    1    5    5    0    0  0.12714993481E+03  0.15373900814E+02 -0.43760737478E+03  0.45596455697E+03  0.00000000000E+00 0.  1.
          3    1    6    6  503    0 -0.12234076913E+02 -0.20583048606E+03 -0.26388583988E+03  0.33489042704E+03  0.00000000000E+00 0. -1.
         -3    1    6    6    0  503  0.14026690234E+02 -0.13932017100E+01 -0.21045035636E+01  0.14251946716E+02  0.00000000000E+00 0.  1.
<mgrwt>
<rscale>  0 0.47932714E+03</rscale>
<asrwt>0</asrwt>
<pdfrwt beam="1">  1        2 0.53130355E+00 0.47932714E+03</pdfrwt>
<pdfrwt beam="2">  1       -2 0.13643798E-01 0.47932714E+03</pdfrwt>
<totfact> 0.40807542E+01</totfact>
</mgrwt>
</event>
<event>
12    1  0.1418317E-007  0.7565375E+03  0.7818608E-02  0.9625149E-01
         -2   -1    0    0    0  501 -0.00000000000E+00  0.00000000000E+00  0.40054274767E+03  0.40054274767E+03  0.00000000000E+00 0.  1.
          2   -1    0    0  501    0  0.00000000000E+00 -0.00000000000E+00 -0.32655020057E+04  0.32655020057E+04  0.00000000000E+00 0. -1.
         23    2    1    2    0    0 -0.68612626098E+03 -0.17046518057E+03 -0.26083695612E+04  0.27039375383E+04  0.88649983562E+02 0.  0.
    5000000    2    1    2    0    0  0.68612626098E+03  0.17046518057E+03 -0.25658969679E+03  0.96210721499E+03  0.59998699724E+03 0.  0.
         23    2    4    4    0    0  0.56268448824E+03  0.26358348373E+03  0.23831660469E+02  0.62934088490E+03  0.97015025448E+02 0.  0.
         23    2    4    4    0    0  0.12344177274E+03 -0.93118303167E+02 -0.28042135726E+03  0.33276633010E+03  0.90489796102E+02 0.  0.
          2    1    3    3  502    0 -0.35117957372E+03 -0.42904440768E+02 -0.12554749049E+04  0.13043715425E+04  0.00000000000E+00 0. -1.
         -2    1    3    3    0  502 -0.33494668725E+03 -0.12756073980E+03 -0.13528946563E+04  0.13995659958E+04  0.00000000000E+00 0.  1.
         11    1    5    5    0    0  0.12290600097E+03  0.25116195297E+02  0.30194457228E+02  0.12902873164E+03  0.00000000000E+00 0. -1.
        -11    1    5    5    0    0  0.43977848727E+03  0.23846728844E+03 -0.63627967591E+01  0.50031215326E+03  0.00000000000E+00 0.  1.
          1    1    6    6  503    0 -0.24960924277E+01 -0.37325438973E+02 -0.92426753024E+02  0.99710197806E+02  0.00000000000E+00 0. -1.
         -1    1    6    6    0  503  0.12593786517E+03 -0.55792864195E+02 -0.18799460423E+03  0.23305613229E+03  0.00000000000E+00 0.  1.
<mgrwt>
<rscale>  0 0.75653754E+03</rscale>
<asrwt>0</asrwt>
<pdfrwt beam="1">  1        2 0.50238493E+00 0.75653754E+03</pdfrwt>
<pdfrwt beam="2">  1       -2 0.61621960E-01 0.75653754E+03</pdfrwt>
<totfact> 0.30907076E+00</totfact>
</mgrwt>
</event>
<event>
12    1  0.1418317E-007  0.1481332E+04  0.7818608E-02  0.8896963E-01
          1   -1    0    0  501    0  0.00000000000E+00  0.00000000000E+00  0.17322872812E+04  0.17322872812E+04  0.00000000000E+00 0.  1.
         -1   -1    0    0    0  501 -0.00000000000E+00 -0.00000000000E+00 -0.13009955723E+04  0.13009955723E+04  0.00000000000E+00 0. -1.
         23    2    1    2    0    0  0.49315508363E+03 -0.13515952085E+04  0.26453666724E+03  0.14654982099E+04  0.87714369600E+02 0.  0.
    5000000    2    1    2    0    0 -0.49315508363E+03  0.13515952085E+04  0.16675504161E+03  0.15677846437E+04  0.60010824093E+03 0.  0.
         23    2    4    4    0    0  0.80814156127E+02  0.30916316350E+03  0.17195534933E+03  0.37404433447E+03  0.90706849183E+02 0.  0.
         23    2    4    4    0    0 -0.57396923975E+03  0.10424320450E+04 -0.52003077180E+01  0.11937403092E+04  0.94252989078E+02 0.  0.
          3    1    3    3  502    0  0.41407330637E+03 -0.10918789729E+04  0.18284862702E+03  0.11819856238E+04  0.00000000000E+00 0. -1.
         -3    1    3    3    0  502  0.79081777258E+02 -0.25971623561E+03  0.81688040215E+02  0.28351258605E+03  0.00000000000E+00 0.  1.
         13    1    5    5    0    0  0.62080173992E+02  0.76303936934E+02  0.45126291527E+02  0.10822486305E+03  0.00000000000E+00 0. -1.
        -13    1    5    5    0    0  0.18733982135E+02  0.23285922657E+03  0.12682905780E+03  0.26581947142E+03  0.00000000000E+00 0.  1.
          1    1    6    6  503    0 -0.48457487768E+03  0.92038418398E+03  0.20136703160E+02  0.10403486651E+04  0.00000000000E+00 0. -1.
         -1    1    6    6    0  503 -0.89394362076E+02  0.12204786104E+03 -0.25337010878E+02  0.15339164408E+03  0.00000000000E+00 0.  1.
<mgrwt>
<rscale>  0 0.14813321E+04</rscale>
<asrwt>0</asrwt>
<pdfrwt beam="1">  1        1 0.26650574E+00 0.14813321E+04</pdfrwt>
<pdfrwt beam="2">  1       -1 0.20015317E+00 0.14813321E+04</pdfrwt>
<totfact> 0.64494949E-01</totfact>
</mgrwt>
</event>
<event>
12    1  0.1418317E-007  0.7046910E+03  0.7818608E-02  0.9709243E-01
          2   -1    0    0  501    0  0.00000000000E+00  0.00000000000E+00  0.24468190823E+04  0.24468190823E+04  0.00000000000E+00 0.  1.
         -2   -1    0    0    0  501 -0.00000000000E+00 -0.00000000000E+00 -0.21947484680E+03  0.21947484680E+03  0.00000000000E+00 0. -1.
         23    2    1    2    0    0  0.34618357888E+03  0.49605816250E+03  0.85988325784E+03  0.10551741597E+04  0.89869457036E+02 0.  0.
    5000000    2    1    2    0    0 -0.34618357888E+03 -0.49605816250E+03  0.13674609777E+04  0.16111197694E+04  0.59986716454E+03 0.  0.
         23    2    4    4    0    0 -0.67163841059E+02  0.90185509599E+02  0.51983437142E+03  0.53945205743E+03  0.90201667752E+02 0.  0.
         23    2    4    4    0    0 -0.27901973782E+03 -0.58624367210E+03  0.84762660627E+03  0.10716677120E+04  0.92017194793E+02 0.  0.
          1    1    3    3  502    0  0.30686115453E+03  0.38253948113E+03  0.66576168214E+03  0.82688502236E+03  0.00000000000E+00 0. -1.
         -1    1    3    3    0  502  0.39322424340E+02  0.11351868137E+03  0.19412157570E+03  0.22828913734E+03  0.00000000000E+00 0.  1.
         11    1    5    5    0    0 -0.54644203051E+02  0.16480470053E+01  0.18925366254E+03  0.19699150685E+03  0.00000000000E+00 0.  1.
        -11    1    5    5    0    0 -0.12519638008E+02  0.88537462594E+02  0.33058070888E+03  0.34246055058E+03  0.00000000000E+00 0. -1.
          2    1    6    6  503    0 -0.73785276470E+02 -0.25149290962E+03  0.31064946761E+03  0.40644316004E+03  0.00000000000E+00 0. -1.
         -2    1    6    6    0  503 -0.20523446135E+03 -0.33475076248E+03  0.53697713866E+03  0.66522455197E+03  0.00000000000E+00 0.  1.
<mgrwt>
<rscale>  0 0.70469097E+03</rscale>
<asrwt>0</asrwt>
<pdfrwt beam="1">  1        2 0.37643369E+00 0.70469097E+03</pdfrwt>
<pdfrwt beam="2">  1       -2 0.33765363E-01 0.70469097E+03</pdfrwt>
<totfact> 0.32149014E+01</totfact>
</mgrwt>
</event>
<event>
12    1  0.1418317E-007  0.7084803E+03  0.7818608E-02  0.9702839E-01
         -2   -1    0    0    0  501 -0.00000000000E+00  0.00000000000E+00  0.64106038421E+03  0.64106038421E+03  0.00000000000E+00 0.  1.
          2   -1    0    0  501    0  0.00000000000E+00 -0.00000000000E+00 -0.10179021755E+04  0.10179021755E+04  0.00000000000E+00 0. -1.
         23    2    1    2    0    0 -0.55098337366E+03 -0.20229868419E+03  0.21520252974E+03  0.63177051192E+03  0.91183415463E+02 0.  0.
    5000000    2    1    2    0    0  0.55098337366E+03  0.20229868419E+03 -0.59204432106E+03  0.10271920478E+04  0.60008298535E+03 0.  0.
         23    2    4    4    0    0  0.19829393177E+03  0.37341290327E+03 -0.25612430134E+03  0.50278820696E+03  0.91862090186E+02 0.  0.
         23    2    4    4    0    0  0.35268944189E+03 -0.17111421908E+03 -0.33592001972E+03  0.52440384085E+03  0.92126056330E+02 0.  0.
          2    1    3    3  502    0 -0.34331979796E+03 -0.10177976980E+03  0.17115916307E+03  0.39689175390E+03  0.00000000000E+00 0. -1.
         -2    1    3    3    0  502 -0.20766357570E+03 -0.10051891439E+03  0.44043366669E+02  0.23487875802E+03  0.00000000000E+00 0.  1.
         13    1    5    5    0    0  0.60893691150E+02  0.20378251972E+03 -0.10428071932E+03  0.23687512615E+03  0.00000000000E+00 0.  1.
        -13    1    5    5    0    0  0.13740024062E+03  0.16963038355E+03 -0.15184358202E+03  0.26591308081E+03  0.00000000000E+00 0. -1.
          3    1    6    6  503    0  0.83256807720E+02 -0.11587827669E+02 -0.38174043617E+02  0.92321348494E+02  0.00000000000E+00 0. -1.
         -3    1    6    6    0  503  0.26943263418E+03 -0.15952639142E+03 -0.29774597610E+03  0.43208249236E+03  0.00000000000E+00 0.  1.
<mgrwt>
<rscale>  0 0.70848027E+03</rscale>
<asrwt>0</asrwt>
<pdfrwt beam="1">  1        2 0.15660033E+00 0.70848027E+03</pdfrwt>
<pdfrwt beam="2">  1       -2 0.98624675E-01 0.70848027E+03</pdfrwt>
<totfact> 0.21381610E+01</totfact>
</mgrwt>
</event>
<event>
12    1  0.1418317E-007  0.1824198E+04  0.7818608E-02  0.8693536E-01
         -2   -1    0    0    0  501 -0.00000000000E+00  0.00000000000E+00  0.20474731465E+04  0.20474731465E+04  0.00000000000E+00 0. -1.
          2   -1    0    0  501    0  0.00000000000E+00 -0.00000000000E+00 -0.16427964696E+04  0.16427964696E+04  0.00000000000E+00 0.  1.
         23    2    1    2    0    0 -0.17570998960E+04  0.30316574354E+03  0.15141478805E+03  0.17919906046E+04  0.94838684919E+02 0.  0.
    5000000    2    1    2    0    0  0.17570998960E+04 -0.30316574354E+03  0.25326188888E+03  0.18982790115E+04  0.60001009035E+03 0.  0.
         23    2    4    4    0    0  0.20456463949E+03  0.12242229909E+03  0.11245461006E+03  0.27962413164E+03  0.93325798275E+02 0.  0.
         23    2    4    4    0    0  0.15525352565E+04 -0.42558804263E+03  0.14080727882E+03  0.16186548799E+04  0.93413198065E+02 0.  0.
          1    1    3    3  502    0 -0.12713342237E+04  0.18887105966E+03  0.13929002383E+03  0.12928127073E+04  0.00000000000E+00 0. -1.
         -1    1    3    3    0  502 -0.48576567233E+03  0.11429468388E+03  0.12124764221E+02  0.49917789724E+03  0.00000000000E+00 0.  1.
         11    1    5    5    0    0  0.21266906008E+03  0.11556471399E+03  0.11603987728E+03  0.26841867549E+03  0.00000000000E+00 0.  1.
        -11    1    5    5    0    0 -0.81044205849E+01  0.68575851048E+01 -0.35852672135E+01  0.11205456148E+02  0.00000000000E+00 0. -1.
          2    1    6    6  503    0  0.84910620118E+03 -0.26989814858E+03  0.48162720063E+02  0.89227013796E+03  0.00000000000E+00 0. -1.
         -2    1    6    6    0  503  0.70342905534E+03 -0.15568989405E+03  0.92644558755E+02  0.72638474190E+03  0.00000000000E+00 0.  1.
<mgrwt>
<rscale>  0 0.18241980E+04</rscale>
<asrwt>0</asrwt>
<pdfrwt beam="1">  1        2 0.25273792E+00 0.18241980E+04</pdfrwt>
<pdfrwt beam="2">  1       -2 0.31499587E+00 0.18241980E+04</pdfrwt>
<totfact> 0.24671764E-01</totfact>
</mgrwt>
</event>
<event>
12    1  0.1418317E-007  0.4953275E+03  0.7818608E-02  0.1015006E+00
          1   -1    0    0  501    0  0.00000000000E+00  0.00000000000E+00  0.12433741378E+04  0.12433741378E+04  0.00000000000E+00 0. -1.
         -1   -1    0    0    0  501 -0.00000000000E+00 -0.00000000000E+00 -0.23897253120E+03  0.23897253120E+03  0.00000000000E+00 0.  1.
         23    2    1    2    0    0  0.10758398850E+03  0.31207622628E+03  0.11849550229E+03  0.36259410517E+03  0.92018560377E+02 0.  0.
    5000000    2    1    2    0    0 -0.10758398850E+03 -0.31207622628E+03  0.88590610427E+03  0.11197525638E+04  0.60004190930E+03 0.  0.
         23    2    4    4    0    0 -0.60117676864E+02 -0.46819432762E+03  0.51568804012E+03  0.70500604700E+03  0.90990703321E+02 0.  0.
         23    2    4    4    0    0 -0.47466311639E+02  0.15611810135E+03  0.37021806415E+03  0.41474651678E+03  0.91254292227E+02 0.  0.
          1    1    3    3  502    0  0.39123795329E+02  0.19567469692E+03  0.10861344782E+03  0.22719185598E+03  0.00000000000E+00 0. -1.
         -1    1    3    3    0  502  0.68460193174E+02  0.11640152936E+03  0.98820544672E+01  0.13540224920E+03  0.00000000000E+00 0.  1.
         11    1    5    5    0    0 -0.70001910242E+02 -0.19296032837E+03  0.21514675244E+03  0.29735850559E+03  0.00000000000E+00 0. -1.
        -11    1    5    5    0    0  0.98842333779E+01 -0.27523399925E+03  0.30054128768E+03  0.40764754141E+03  0.00000000000E+00 0.  1.
          1    1    6    6  503    0 -0.15508959873E+02  0.13756530962E+03  0.33968586585E+03  0.36681225402E+03  0.00000000000E+00 0. -1.
         -1    1    6    6    0  503 -0.31957351766E+02  0.18552791726E+02  0.30532198307E+02  0.47934262758E+02  0.00000000000E+00 0.  1.
<mgrwt>
<rscale>  0 0.49532748E+03</rscale>
<asrwt>0</asrwt>
<pdfrwt beam="1">  1        1 0.19128833E+00 0.49532748E+03</pdfrwt>
<pdfrwt beam="2">  1       -1 0.36765005E-01 0.49532748E+03</pdfrwt>
<totfact> 0.74340818E+01</totfact>
</mgrwt>
</event>
<event>
12    1  0.1418317E-007  0.1064164E+04  0.7818608E-02  0.9240841E-01
         -2   -1    0    0    0  501 -0.00000000000E+00  0.00000000000E+00  0.56391861619E+03  0.56391861619E+03  0.00000000000E+00 0.  1.
          2   -1    0    0  501    0  0.00000000000E+00 -0.00000000000E+00 -0.22543687785E+04  0.22543687785E+04  0.00000000000E+00 0. -1.
         23    2    1    2    0    0  0.76567870031E+03  0.64593820981E+03 -0.41268708344E+03  0.10873693489E+04  0.92527991374E+02 0.  0.
    5000000    2    1    2    0    0 -0.76567870031E+03 -0.64593820981E+03 -0.12777630789E+04  0.17309180458E+04  0.59991562109E+03 0.  0.
         23    2    4    4    0    0 -0.49546436763E+02  0.63110792647E+02 -0.25087732029E+02  0.12058987876E+03  0.86456364813E+02 0.  0.
         23    2    4    4    0    0 -0.71613226354E+03 -0.70904900245E+03 -0.12526753469E+04  0.16103281670E+04  0.91462418945E+02 0.  0.
          4    1    3    3  502    0  0.52887757713E+03  0.44727312980E+03 -0.23846105278E+03  0.73254925973E+03  0.00000000000E+00 0. -1.
         -4    1    3    3    0  502  0.23680112318E+03  0.19866508000E+03 -0.17422603066E+03  0.35482008921E+03  0.00000000000E+00 0.  1.
         13    1    5    5    0    0  0.21623011141E+02  0.35589878043E+02 -0.92300308265E+01  0.42654278788E+02  0.00000000000E+00 0. -1.
        -13    1    5    5    0    0 -0.71169447904E+02  0.27520914604E+02 -0.15857701203E+02  0.77935599973E+02  0.00000000000E+00 0.  1.
          3    1    6    6  503    0 -0.10646888135E+03 -0.12714404487E+03 -0.16053410146E+03  0.23080820733E+03  0.00000000000E+00 0. -1.
         -3    1    6    6    0  503 -0.60966338219E+03 -0.58190495759E+03 -0.10921412454E+04  0.13795199597E+04  0.00000000000E+00 0.  1.
<mgrwt>
<rscale>  0 0.10641643E+04</rscale>
<asrwt>0</asrwt>
<pdfrwt beam="1">  1        2 0.34682596E+00 0.10641643E+04</pdfrwt>
<pdfrwt beam="2">  1       -2 0.86756711E-01 0.10641643E+04</pdfrwt>
<totfact> 0.55191421E+00</totfact>
</mgrwt>
</event>
<event>
12    1  0.1418317E-007  0.1133127E+04  0.7818608E-02  0.9173492E-01
         -2   -1    0    0    0  501 -0.00000000000E+00  0.00000000000E+00  0.51762557893E+03  0.51762557893E+03  0.00000000000E+00 0.  1.
          2   -1    0    0  501    0  0.00000000000E+00 -0.00000000000E+00 -0.39835678249E+04  0.39835678249E+04  0.00000000000E+00 0. -1.
         23    2    1    2    0    0 -0.52358816985E+02  0.10623668109E+04 -0.30163954619E+04  0.31997531947E+04  0.91729153580E+02 0.  0.
    5000000    2    1    2    0    0  0.52358816985E+02 -0.10623668109E+04 -0.44954678408E+03  0.13014402092E+04  0.60024130186E+03 0.  0.
         23    2    4    4    0    0 -0.21501836638E+03 -0.18565639597E+03 -0.79620607071E+02  0.30886052974E+03  0.91401261037E+02 0.  0.
         23    2    4    4    0    0  0.26737718336E+03 -0.87671041489E+03 -0.36992617701E+03  0.99257967943E+03  0.90869873068E+02 0.  0.
          4    1    3    3  502    0  0.54347478633E+00  0.50304301871E+03 -0.13109821553E+04  0.14041818919E+04  0.00000000000E+00 0. -1.
         -4    1    3    3    0  502 -0.52902291771E+02  0.55932379214E+03 -0.17054133066E+04  0.17955713028E+04  0.00000000000E+00 0.  1.
         11    1    5    5    0    0 -0.81439797942E+02 -0.83390710611E+02  0.12209517149E+02  0.11719865022E+03  0.00000000000E+00 0. -1.
        -11    1    5    5    0    0 -0.13357856844E+03 -0.10226568536E+03 -0.91830124220E+02  0.19166187952E+03  0.00000000000E+00 0.  1.
          3    1    6    6  503    0  0.31226340716E+02 -0.95414000539E+02 -0.11182831943E+02  0.10101470974E+03  0.00000000000E+00 0. -1.
         -3    1    6    6    0  503  0.23615084265E+03 -0.78129641435E+03 -0.35874334506E+03  0.89156496969E+03  0.00000000000E+00 0.  1.
<mgrwt>
<rscale>  0 0.11331270E+04</rscale>
<asrwt>0</asrwt>
<pdfrwt beam="1">  1        2 0.61285660E+00 0.11331270E+04</pdfrwt>
<pdfrwt beam="2">  1       -2 0.79634703E-01 0.11331270E+04</pdfrwt>
<totfact> 0.50613197E-01</totfact>
</mgrwt>
</event>
<event>
12    1  0.1418317E-007  0.5890784E+03  0.7818608E-02  0.9928328E-01
         -2   -1    0    0    0  501 -0.00000000000E+00  0.00000000000E+00  0.42957971201E+03  0.42957971201E+03  0.00000000000E+00 0.  1.
          2   -1    0    0  501    0  0.00000000000E+00 -0.00000000000E+00 -0.90840765207E+03  0.90840765207E+03  0.00000000000E+00 0. -1.
         23    2    1    2    0    0  0.45942537565E+03 -0.10203922673E+03 -0.25673151514E+03  0.54377801470E+03  0.91103121913E+02 0.  0.
    5000000    2    1    2    0    0 -0.45942537565E+03  0.10203922673E+03 -0.22209642491E+03  0.79420934939E+03  0.59996498991E+03 0.  0.
         23    2    4    4    0    0 -0.22307011765E+02 -0.17570902274E+03  0.44088454458E+02  0.20486268080E+03  0.93025065011E+02 0.  0.
         23    2    4    4    0    0 -0.43711836388E+03  0.27774824948E+03 -0.26618487937E+03  0.58934666859E+03  0.90876573642E+02 0.  0.
          2    1    3    3  502    0  0.25481557752E+03 -0.74628900604E+02 -0.96714667334E+02  0.28258481599E+03  0.00000000000E+00 0. -1.
         -2    1    3    3    0  502  0.20460979813E+03 -0.27410326130E+02 -0.16001684781E+03  0.26119319871E+03  0.00000000000E+00 0.  1.
         11    1    5    5    0    0 -0.31445400094E+02 -0.14395295051E+03 -0.29503517633E+01  0.14737696470E+03  0.00000000000E+00 0. -1.
        -11    1    5    5    0    0  0.91383883287E+01 -0.31756072230E+02  0.47038806221E+02  0.57485716099E+02  0.00000000000E+00 0.  1.
          3    1    6    6  503    0 -0.26603204329E+03  0.22007438918E+03 -0.17417605381E+03  0.38670800683E+03  0.00000000000E+00 0. -1.
         -3    1    6    6    0  503 -0.17108632059E+03  0.57673860301E+02 -0.92008825563E+02  0.20263866175E+03  0.00000000000E+00 0.  1.
<mgrwt>
<rscale>  0 0.58907841E+03</rscale>
<asrwt>0</asrwt>
<pdfrwt beam="1">  1        2 0.13975502E+00 0.58907841E+03</pdfrwt>
<pdfrwt beam="2">  1       -2 0.66089187E-01 0.58907841E+03</pdfrwt>
<totfact> 0.62717050E+01</totfact>
</mgrwt>
</event>
<event>
12    1  0.1418317E-007  0.5961917E+03  0.7818608E-02  0.9913339E-01
         -2   -1    0    0    0  501 -0.00000000000E+00  0.00000000000E+00  0.48950433946E+03  0.48950433946E+03  0.00000000000E+00 0. -1.
          2   -1    0    0  501    0  0.00000000000E+00 -0.00000000000E+00 -0.13117331219E+04  0.13117331219E+04  0.00000000000E+00 0.  1.
         23    2    1    2    0    0 -0.31358281424E+02  0.56920227559E+03 -0.78203216317E+03  0.97254517065E+03  0.96411785448E+02 0.  0.
    5000000    2    1    2    0    0  0.31358281424E+02 -0.56920227559E+03 -0.40196619258E+02  0.82869229069E+03  0.60011713198E+03 0.  0.
         23    2    4    4    0    0 -0.52495072368E+02 -0.45205442245E+03  0.22334755342E+03  0.51507270361E+03  0.91141795600E+02 0.  0.
         23    2    4    4    0    0  0.83853353791E+02 -0.11714785315E+03 -0.26354417268E+03  0.31361958708E+03  0.90259127007E+02 0.  0.
          1    1    3    3  502    0 -0.11732851981E+02  0.47422969513E+03 -0.69960931764E+03  0.84527194493E+03  0.00000000000E+00 0. -1.
         -1    1    3    3    0  502 -0.19625429442E+02  0.94972580463E+02 -0.82422845536E+02  0.12727322573E+03  0.00000000000E+00 0.  1.
         13    1    5    5    0    0 -0.72886552078E+02 -0.32898691190E+03  0.18582519685E+03  0.38480623885E+03  0.00000000000E+00 0. -1.
        -13    1    5    5    0    0  0.20391479711E+02 -0.12306751055E+03  0.37522356573E+02  0.13026646476E+03  0.00000000000E+00 0.  1.
          1    1    6    6  503    0 -0.12030724876E+02 -0.11398269657E+02 -0.76791010072E+02  0.78559010433E+02  0.00000000000E+00 0. -1.
         -1    1    6    6    0  503  0.95884078667E+02 -0.10574958349E+03 -0.18675316261E+03  0.23506057665E+03  0.00000000000E+00 0.  1.
<mgrwt>
<rscale>  0 0.59619172E+03</rscale>
<asrwt>0</asrwt>
<pdfrwt beam="1">  1        2 0.20180509E+00 0.59619172E+03</pdfrwt>
<pdfrwt beam="2">  1       -2 0.75308360E-01 0.59619172E+03</pdfrwt>
<totfact> 0.26782181E+01</totfact>
</mgrwt>
</event>
<event>
12    1  0.1418317E-007  0.5632964E+03  0.7818608E-02  0.9984623E-01
         -1   -1    0    0    0  501 -0.00000000000E+00  0.00000000000E+00  0.25378885778E+03  0.25378885778E+03  0.00000000000E+00 0.  1.
          1   -1    0    0  501    0  0.00000000000E+00 -0.00000000000E+00 -0.13722120408E+04  0.13722120408E+04  0.00000000000E+00 0. -1.
         23    2    1    2    0    0  0.40409566808E+03 -0.40758320595E+02 -0.61837657207E+03  0.74557459514E+03  0.92397740140E+02 0.  0.
    5000000    2    1    2    0    0 -0.40409566808E+03  0.40758320595E+02 -0.50004661094E+03  0.88042630342E+03  0.60012441458E+03 0.  0.
         23    2    4    4    0    0 -0.21401320924E+02  0.25737023780E+03 -0.19039662345E+03  0.33458414050E+03  0.94858932163E+02 0.  0.
         23    2    4    4    0    0 -0.38269434716E+03 -0.21661191720E+03 -0.30964998749E+03  0.54584216292E+03  0.93192628707E+02 0.  0.
          3    1    3    3  502    0  0.22787600678E+03  0.12483141502E-01 -0.41465139761E+03  0.47314189854E+03  0.00000000000E+00 0. -1.
         -3    1    3    3    0  502  0.17621966131E+03 -0.40770803736E+02 -0.20372517446E+03  0.27243269660E+03  0.00000000000E+00 0.  1.
         11    1    5    5    0    0  0.36173553914E+02  0.13680561809E+03 -0.99661898518E+02  0.17308031997E+03  0.00000000000E+00 0.  1.
        -11    1    5    5    0    0 -0.57574874838E+02  0.12056461971E+03 -0.90734724933E+02  0.16150382053E+03  0.00000000000E+00 0. -1.
          2    1    6    6  503    0 -0.20747796620E+03 -0.14658912419E+03 -0.22372459831E+03  0.33850874979E+03  0.00000000000E+00 0.  1.
         -2    1    6    6    0  503 -0.17521638096E+03 -0.70022793017E+02 -0.85925389176E+02  0.20733341313E+03  0.00000000000E+00 0. -1.
<mgrwt>
<rscale>  0 0.56329643E+03</rscale>
<asrwt>0</asrwt>
<pdfrwt beam="1">  1        1 0.21110954E+00 0.56329643E+03</pdfrwt>
<pdfrwt beam="2">  1       -1 0.39044440E-01 0.56329643E+03</pdfrwt>
<totfact> 0.53726825E+01</totfact>
</mgrwt>
</event>
<event>
12    1  0.1418317E-007  0.6355182E+03  0.7818608E-02  0.9834339E-01
         -1   -1    0    0    0  501 -0.00000000000E+00  0.00000000000E+00  0.25644533982E+03  0.25644533982E+03  0.00000000000E+00 0.  1.
          1   -1    0    0  501    0  0.00000000000E+00 -0.00000000000E+00 -0.19137980264E+04  0.19137980264E+04  0.00000000000E+00 0. -1.
         23    2    1    2    0    0  0.27065426261E+03  0.48505097453E+03 -0.49887715148E+03  0.75228314370E+03  0.92321927314E+02 0.  0.
    5000000    2    1    2    0    0 -0.27065426261E+03 -0.48505097453E+03 -0.11584755351E+04  0.14179602225E+04  0.60001454106E+03 0.  0.
         23    2    4    4    0    0 -0.26666542664E+03 -0.54463313465E+02 -0.16312036629E+03  0.33004652824E+03  0.90806137619E+02 0.  0.
         23    2    4    4    0    0 -0.39888359792E+01 -0.43058766106E+03 -0.99535516882E+03  0.10879136943E+04  0.86038650952E+02 0.  0.
          2    1    3    3  502    0  0.25691022246E+02  0.96132555115E+02 -0.12512812122E+03  0.15987039594E+03  0.00000000000E+00 0. -1.
         -2    1    3    3    0  502  0.24496324037E+03  0.38891841941E+03 -0.37374903026E+03  0.59241274776E+03  0.00000000000E+00 0.  1.
         13    1    5    5    0    0 -0.19519189036E+03 -0.48937599197E+02 -0.71156709185E+02  0.21344329444E+03  0.00000000000E+00 0. -1.
        -13    1    5    5    0    0 -0.71473536272E+02 -0.55257142672E+01 -0.91963657100E+02  0.11660323380E+03  0.00000000000E+00 0.  1.
          4    1    6    6  503    0  0.36265263697E+02 -0.30364284825E+03 -0.70600561966E+03  0.76938812288E+03  0.00000000000E+00 0. -1.
         -4    1    6    6    0  503 -0.40254099677E+02 -0.12694481281E+03 -0.28934954917E+03  0.31852557141E+03  0.00000000000E+00 0.  1.
<mgrwt>
<rscale>  0 0.63551823E+03</rscale>
<asrwt>0</asrwt>
<pdfrwt beam="1">  1        1 0.29443047E+00 0.63551823E+03</pdfrwt>
<pdfrwt beam="2">  1       -1 0.39453129E-01 0.63551823E+03</pdfrwt>
<totfact> 0.22508419E+01</totfact>
</mgrwt>
</event>
<event>
12    1  0.1418317E-007  0.1045793E+04  0.7818608E-02  0.9259698E-01
          1   -1    0    0  501    0  0.00000000000E+00  0.00000000000E+00  0.10561373858E+04  0.10561373858E+04  0.00000000000E+00 0. -1.
         -1   -1    0    0    0  501 -0.00000000000E+00 -0.00000000000E+00 -0.21682232709E+04  0.21682232709E+04  0.00000000000E+00 0.  1.
         23    2    1    2    0    0 -0.37614963874E+03 -0.91868225003E+03 -0.16640272492E+04  0.19397876081E+04  0.91234046078E+02 0.  0.
    5000000    2    1    2    0    0  0.37614963874E+03  0.91868225003E+03  0.55194136405E+03  0.12845730487E+04  0.60001918379E+03 0.  0.
         23    2    4    4    0    0  0.48363106573E+03  0.72631422860E+03  0.56912825867E+03  0.10456668140E+04  0.89892962296E+02 0.  0.
         23    2    4    4    0    0 -0.10748142699E+03  0.19236802143E+03 -0.17186894621E+02  0.23890623473E+03  0.90681237456E+02 0.  0.
          3    1    3    3  502    0 -0.20941853870E+03 -0.59989355409E+03 -0.10066803110E+04  0.11904342272E+04  0.00000000000E+00 0. -1.
         -3    1    3    3    0  502 -0.16673110004E+03 -0.31878869594E+03 -0.65734693813E+03  0.74935338089E+03  0.00000000000E+00 0.  1.
         13    1    5    5    0    0  0.29462741695E+03  0.37247510591E+03  0.33513640616E+03  0.58125676777E+03  0.00000000000E+00 0.  1.
        -13    1    5    5    0    0  0.18900364878E+03  0.35383912268E+03  0.23399185251E+03  0.46441004622E+03  0.00000000000E+00 0. -1.
          2    1    6    6  503    0 -0.58642618743E+02  0.10323336388E+03  0.36170113111E+02  0.12411430713E+03  0.00000000000E+00 0. -1.
         -2    1    6    6    0  503 -0.48838808249E+02  0.89134657552E+02 -0.53357007731E+02  0.11479192760E+03  0.00000000000E+00 0.  1.
<mgrwt>
<rscale>  0 0.10457930E+04</rscale>
<asrwt>0</asrwt>
<pdfrwt beam="1">  1        1 0.16248268E+00 0.10457930E+04</pdfrwt>
<pdfrwt beam="2">  1       -1 0.33357281E+00 0.10457930E+04</pdfrwt>
<totfact> 0.27600376E-01</totfact>
</mgrwt>
</event>
<event>
12    1  0.1418317E-007  0.2392671E+03  0.7818608E-02  0.1120282E+00
         -1   -1    0    0    0  501 -0.00000000000E+00  0.00000000000E+00  0.10118026548E+03  0.10118026548E+03  0.00000000000E+00 0.  1.
          1   -1    0    0  501    0  0.00000000000E+00 -0.00000000000E+00 -0.31871869318E+04  0.31871869318E+04  0.00000000000E+00 0. -1.
         23    2    1    2    0    0  0.77499901127E+02  0.63936999329E+02  0.28174216960E+01  0.14018792992E+03  0.97726881019E+02 0.  0.
    5000000    2    1    2    0    0 -0.77499901127E+02 -0.63936999329E+02 -0.30888240880E+04  0.31481792673E+04  0.60008689211E+03 0.  0.
         23    2    4    4    0    0 -0.88697118323E+02  0.10622495956E+03 -0.27802315753E+04  0.27850250471E+04  0.86752407683E+02 0.  0.
         23    2    4    4    0    0  0.11197217196E+02 -0.17016195889E+03 -0.30859251271E+03  0.36315422017E+03  0.87012520953E+02 0.  0.
          2    1    3    3  502    0  0.61329558362E+02 -0.12019364455E+02  0.18350919452E+01  0.62523175009E+02  0.00000000000E+00 0.  1.
         -2    1    3    3    0  502  0.16170342765E+02  0.75956363784E+02  0.98232975076E+00  0.77664754916E+02  0.00000000000E+00 0. -1.
         11    1    5    5    0    0 -0.76767034319E+02  0.11052278766E+03 -0.19242675041E+04  0.19289670530E+04  0.00000000000E+00 0. -1.
        -11    1    5    5    0    0 -0.11930084003E+02 -0.42978280997E+01 -0.85596407117E+03  0.85605799416E+03  0.00000000000E+00 0.  1.
          3    1    6    6  503    0  0.48466049571E+02 -0.79510205400E+02 -0.13994625726E+03  0.16809457351E+03  0.00000000000E+00 0. -1.
         -3    1    6    6    0  503 -0.37268832375E+02 -0.90651753486E+02 -0.16864625545E+03  0.19505964666E+03  0.00000000000E+00 0.  1.
<mgrwt>
<rscale>  0 0.23926710E+03</rscale>
<asrwt>0</asrwt>
<pdfrwt beam="1">  1        1 0.49033644E+00 0.23926710E+03</pdfrwt>
<pdfrwt beam="2">  1       -1 0.15566195E-01 0.23926710E+03</pdfrwt>
<totfact> 0.16493466E+01</totfact>
</mgrwt>
</event>
<event>
12    1  0.1418317E-007  0.4613533E+03  0.7818608E-02  0.1024389E+00
         -1   -1    0    0    0  501 -0.00000000000E+00  0.00000000000E+00  0.53448934969E+03  0.53448934969E+03  0.00000000000E+00 0.  1.
          1   -1    0    0  501    0  0.00000000000E+00 -0.00000000000E+00 -0.44345320994E+03  0.44345320994E+03  0.00000000000E+00 0. -1.
         23    2    1    2    0    0 -0.54943595252E+02 -0.28020835959E+03  0.91027896776E+02  0.31351808797E+03  0.92043413936E+02 0.  0.
    5000000    2    1    2    0    0  0.54943595252E+02  0.28020835959E+03  0.82429728028E-02  0.66442447166E+03  0.59993695921E+03 0.  0.
         23    2    4    4    0    0 -0.22049933064E+03  0.25119130951E+03 -0.92113540835E+02  0.35843435350E+03  0.90957421792E+02 0.  0.
         23    2    4    4    0    0  0.27544292590E+03  0.29017050079E+02  0.92121783808E+02  0.30599011816E+03  0.91829922883E+02 0.  0.
          2    1    3    3  502    0 -0.64205073466E+01 -0.80995135895E+02  0.70290383340E+02  0.10743450537E+03  0.00000000000E+00 0. -1.
         -2    1    3    3    0  502 -0.48523087906E+02 -0.19921322369E+03  0.20737513435E+02  0.20608358260E+03  0.00000000000E+00 0.  1.
         11    1    5    5    0    0 -0.17295655172E+03  0.13434335822E+03 -0.43739337358E+02  0.22332764342E+03  0.00000000000E+00 0.  1.
        -11    1    5    5    0    0 -0.47542778918E+02  0.11684795129E+03 -0.48374203477E+02  0.13510671009E+03  0.00000000000E+00 0. -1.
          4    1    6    6  503    0  0.10109773477E+03  0.54850424253E+02  0.27433825550E+02  0.11824523585E+03  0.00000000000E+00 0. -1.
         -4    1    6    6    0  503  0.17434519113E+03 -0.25833374174E+02  0.64687958258E+02  0.18774488231E+03  0.00000000000E+00 0.  1.
<mgrwt>
<rscale>  0 0.46135327E+03</rscale>
<asrwt>0</asrwt>
<pdfrwt beam="1">  1        1 0.68223571E-01 0.46135327E+03</pdfrwt>
<pdfrwt beam="2">  1       -1 0.82229131E-01 0.46135327E+03</pdfrwt>
<totfact> 0.80311009E+01</totfact>
</mgrwt>
</event>
<event>
12    1  0.1418317E-007  0.8212364E+03  0.7818608E-02  0.9529777E-01
          1   -1    0    0  501    0  0.00000000000E+00  0.00000000000E+00  0.24111882587E+04  0.24111882587E+04  0.00000000000E+00 0.  1.
         -1   -1    0    0    0  501 -0.00000000000E+00 -0.00000000000E+00 -0.28697663393E+03  0.28697663393E+03  0.00000000000E+00 0. -1.
         23    2    1    2    0    0  0.30009489357E+03  0.64863966763E+03  0.78089508132E+03  0.10625461426E+04  0.91743193170E+02 0.  0.
    5000000    2    1    2    0    0 -0.30009489357E+03 -0.64863966763E+03  0.13433165434E+04  0.16356187501E+04  0.59996582911E+03 0.  0.
         23    2    4    4    0    0  0.12421001552E+03 -0.41069734393E+03  0.64366814208E+03  0.77941581314E+03  0.95288490227E+02 0.  0.
         23    2    4    4    0    0 -0.42430490909E+03 -0.23794232369E+03  0.69964840136E+03  0.85620293692E+03  0.83212849874E+02 0.  0.
          3    1    3    3  502    0  0.18915249338E+03  0.29970249537E+03  0.38132730670E+03  0.52058694406E+03  0.00000000000E+00 0. -1.
         -3    1    3    3    0  502  0.11094240019E+03  0.34893717225E+03  0.39956777462E+03  0.54195919851E+03  0.00000000000E+00 0.  1.
         11    1    5    5    0    0  0.60104704589E+02 -0.29006633478E+03  0.50003902058E+03  0.58119710614E+03  0.00000000000E+00 0.  1.
        -11    1    5    5    0    0  0.64105310935E+02 -0.12063100916E+03  0.14362912150E+03  0.19821870699E+03  0.00000000000E+00 0. -1.
          1    1    6    6  503    0 -0.12985396876E+03 -0.10016342843E+03  0.18247195163E+03  0.24533809066E+03  0.00000000000E+00 0. -1.
         -1    1    6    6    0  503 -0.29445094034E+03 -0.13777889526E+03  0.51717644973E+03  0.61086484626E+03  0.00000000000E+00 0.  1.
<mgrwt>
<rscale>  0 0.82123637E+03</rscale>
<asrwt>0</asrwt>
<pdfrwt beam="1">  1        1 0.37095203E+00 0.82123637E+03</pdfrwt>
<pdfrwt beam="2">  1       -1 0.44150253E-01 0.82123637E+03</pdfrwt>
<totfact> 0.82507467E+00</totfact>
</mgrwt>
</event>
<event>
12    1  0.1418317E-007  0.5691034E+03  0.7818608E-02  0.9971665E-01
          2   -1    0    0  501    0  0.00000000000E+00  0.00000000000E+00  0.18916321620E+04  0.18916321620E+04  0.00000000000E+00 0.  1.
         -2   -1    0    0    0  501 -0.00000000000E+00 -0.00000000000E+00 -0.19799995110E+03  0.19799995110E+03  0.00000000000E+00 0. -1.
         23    2    1    2    0    0 -0.38522715172E+02  0.42380385783E+03  0.35204813379E+03  0.55962373803E+03  0.90261454501E+02 0.  0.
    5000000    2    1    2    0    0  0.38522715172E+02 -0.42380385783E+03  0.13415840771E+04  0.15300083750E+04  0.59998673513E+03 0.  0.
         23    2    4    4    0    0 -0.88113638839E+02 -0.53012558958E+03  0.10414847614E+04  0.11753974967E+04  0.89842154721E+02 0.  0.
         23    2    4    4    0    0  0.12663635401E+03  0.10632173175E+03  0.30009931562E+03  0.35461087837E+03  0.91368479368E+02 0.  0.
          2    1    3    3  502    0  0.26518348061E+02  0.16738488962E+03  0.11908275183E+03  0.20712707655E+03  0.00000000000E+00 0.  1.
         -2    1    3    3    0  502 -0.65041063234E+02  0.25641896821E+03  0.23296538196E+03  0.35249666148E+03  0.00000000000E+00 0. -1.
         11    1    5    5    0    0  0.20385693315E+01 -0.25803930568E+02  0.20259538664E+02  0.32870161310E+02  0.00000000000E+00 0. -1.
        -11    1    5    5    0    0 -0.90152208171E+02 -0.50432165901E+03  0.10212252228E+04  0.11425273354E+04  0.00000000000E+00 0.  1.
          2    1    6    6  503    0  0.86563940672E+02  0.63570560432E+02  0.26588706584E+03  0.28675854610E+03  0.00000000000E+00 0.  1.
         -2    1    6    6    0  503  0.40072413340E+02  0.42751171317E+02  0.34212249782E+02  0.67852332274E+02  0.00000000000E+00 0. -1.
<mgrwt>
<rscale>  0 0.56910342E+03</rscale>
<asrwt>0</asrwt>
<pdfrwt beam="1">  1        2 0.29102032E+00 0.56910342E+03</pdfrwt>
<pdfrwt beam="2">  1       -2 0.30461532E-01 0.56910342E+03</pdfrwt>
<totfact> 0.80178481E+01</totfact>
</mgrwt>
</event>
<event>
12    1  0.1418317E-007  0.4238971E+03  0.7818608E-02  0.1035805E+00
          1   -1    0    0  501    0  0.00000000000E+00  0.00000000000E+00  0.46576658700E+03  0.46576658700E+03  0.00000000000E+00 0. -1.
         -1   -1    0    0    0  501 -0.00000000000E+00 -0.00000000000E+00 -0.11769262164E+04  0.11769262164E+04  0.00000000000E+00 0.  1.
         23    2    1    2    0    0 -0.18291709166E+03  0.15986802273E+03 -0.92537384921E+03  0.96101119188E+03  0.90605204046E+02 0.  0.
    5000000    2    1    2    0    0  0.18291709166E+03 -0.15986802273E+03  0.21421421976E+03  0.68168161156E+03  0.59982134047E+03 0.  0.
         23    2    4    4    0    0  0.10534142135E+03  0.19684037824E+03 -0.10866751268E+02  0.24160413311E+03  0.91714346184E+02 0.  0.
         23    2    4    4    0    0  0.77575670314E+02 -0.35670840097E+03  0.22508097103E+03  0.44007747845E+03  0.98731330227E+02 0.  0.
          3    1    3    3  502    0 -0.86337216050E+02  0.78185070343E+02 -0.61355807156E+03  0.62451623460E+03  0.00000000000E+00 0. -1.
         -3    1    3    3    0  502 -0.96579875615E+02  0.81682952385E+02 -0.31181577765E+03  0.33649495729E+03  0.00000000000E+00 0.  1.
         11    1    5    5    0    0  0.28211195613E+02  0.11934599713E+03 -0.39034890170E+02  0.12869755724E+03  0.00000000000E+00 0. -1.
        -11    1    5    5    0    0  0.77130225738E+02  0.77494381109E+02  0.28168138902E+02  0.11290657587E+03  0.00000000000E+00 0.  1.
          2    1    6    6  503    0  0.78939202175E+02 -0.36038742379E+03  0.22924637947E+03  0.43435514889E+03  0.00000000000E+00 0.  1.
         -2    1    6    6    0  503 -0.13635318613E+01  0.36790228232E+01 -0.41654084394E+01  0.57223295551E+01  0.00000000000E+00 0. -1.
<mgrwt>
<rscale>  0 0.42389715E+03</rscale>
<asrwt>0</asrwt>
<pdfrwt beam="1">  1        1 0.71656398E-01 0.42389715E+03</pdfrwt>
<pdfrwt beam="2">  1       -1 0.18106557E+00 0.42389715E+03</pdfrwt>
<totfact> 0.10858852E+01</totfact>
</mgrwt>
</event>
<event>
12    1  0.1418317E-007  0.7948760E+03  0.7818608E-02  0.9567464E-01
         -1   -1    0    0    0  501 -0.00000000000E+00  0.00000000000E+00  0.12112376901E+04  0.12112376901E+04  0.00000000000E+00 0.  1.
          1   -1    0    0  501    0  0.00000000000E+00 -0.00000000000E+00 -0.96754272373E+03  0.96754272373E+03  0.00000000000E+00 0. -1.
         23    2    1    2    0    0 -0.47431137273E+03 -0.50695180168E+03  0.83303443530E+03  0.10882207411E+04  0.91140569674E+02 0.  0.
    5000000    2    1    2    0    0  0.47431137273E+03  0.50695180168E+03 -0.58933946891E+03  0.10905596728E+04  0.60002331846E+03 0.  0.
         23    2    4    4    0    0  0.53747657606E+03  0.20835140455E+03 -0.47320741796E+03  0.75094726500E+03  0.87779022589E+02 0.  0.
         23    2    4    4    0    0 -0.63165203337E+02  0.29860039713E+03 -0.11613205095E+03  0.33961240775E+03  0.93262501370E+02 0.  0.
          3    1    3    3  502    0 -0.25751717191E+03 -0.28279778310E+03  0.38818000829E+03  0.54495265738E+03  0.00000000000E+00 0. -1.
         -3    1    3    3    0  502 -0.21679420082E+03 -0.22415401859E+03  0.44485442701E+03  0.54326808372E+03  0.00000000000E+00 0.  1.
         11    1    5    5    0    0  0.45619472830E+02 -0.50079967827E+01 -0.25789396456E+02  0.52643226560E+02  0.00000000000E+00 0.  1.
        -11    1    5    5    0    0  0.49185710323E+03  0.21335940133E+03 -0.44741802150E+03  0.69830403844E+03  0.00000000000E+00 0. -1.
          3    1    6    6  503    0 -0.97255009675E+01  0.20789688922E+03 -0.10679157957E+03  0.23392337075E+03  0.00000000000E+00 0. -1.
         -3    1    6    6    0  503 -0.53439702369E+02  0.90703507915E+02 -0.93404713819E+01  0.10568903700E+03  0.00000000000E+00 0.  1.
<mgrwt>
<rscale>  0 0.79487604E+03</rscale>
<asrwt>0</asrwt>
<pdfrwt beam="1">  1        1 0.14885273E+00 0.79487604E+03</pdfrwt>
<pdfrwt beam="2">  1       -1 0.18634426E+00 0.79487604E+03</pdfrwt>
<totfact> 0.31072452E+00</totfact>
</mgrwt>
</event>
<event>
12    1  0.1418317E-007  0.1521861E+04  0.7818608E-02  0.8870044E-01
          2   -1    0    0  501    0  0.00000000000E+00  0.00000000000E+00  0.16311673240E+04  0.16311673240E+04  0.00000000000E+00 0. -1.
         -2   -1    0    0    0  501 -0.00000000000E+00 -0.00000000000E+00 -0.15150748976E+04  0.15150748976E+04  0.00000000000E+00 0.  1.
         23    2    1    2    0    0 -0.11614252112E+04  0.89694815142E+03 -0.31422244969E+03  0.15034853583E+04  0.91148051838E+02 0.  0.
    5000000    2    1    2    0    0  0.11614252112E+04 -0.89694815142E+03  0.43031487604E+03  0.16427568632E+04  0.60004559130E+03 0.  0.
         23    2    4    4    0    0  0.55156842428E+02  0.44382336190E+02  0.87335417458E+02  0.14761632967E+03  0.95661050641E+02 0.  0.
         23    2    4    4    0    0  0.11062683688E+04 -0.94133048761E+03  0.34297945858E+03  0.14951405336E+04  0.88755368726E+02 0.  0.
          1    1    3    3  502    0 -0.12384345227E+03  0.62567478790E+02 -0.34224798190E+02  0.14290985579E+03  0.00000000000E+00 0. -1.
         -1    1    3    3    0  502 -0.10375817589E+04  0.83438067263E+03 -0.27999765150E+03  0.13605755026E+04  0.00000000000E+00 0.  1.
         13    1    5    5    0    0  0.77955937036E+02  0.53079146367E+02  0.65041289996E+02  0.11456392671E+03  0.00000000000E+00 0.  1.
        -13    1    5    5    0    0 -0.22799094608E+02 -0.86968101770E+01  0.22294127463E+02  0.33052402961E+02  0.00000000000E+00 0. -1.
          3    1    6    6  503    0  0.61256466661E+03 -0.46828271744E+03  0.16294465724E+03  0.78808320344E+03  0.00000000000E+00 0. -1.
         -3    1    6    6    0  503  0.49370370215E+03 -0.47304777017E+03  0.18003480135E+03  0.70705733012E+03  0.00000000000E+00 0.  1.
<mgrwt>
<rscale>  0 0.15218615E+04</rscale>
<asrwt>0</asrwt>
<pdfrwt beam="1">  1        2 0.25094882E+00 0.15218615E+04</pdfrwt>
<pdfrwt beam="2">  1       -2 0.23308845E+00 0.15218615E+04</pdfrwt>
<totfact> 0.82151053E-01</totfact>
</mgrwt>
</event>
<event>
12    1  0.1418317E-007  0.1276712E+04  0.7818608E-02  0.9048240E-01
         -1   -1    0    0    0  501 -0.00000000000E+00  0.00000000000E+00  0.81019289884E+03  0.81019289884E+03  0.00000000000E+00 0.  1.
          1   -1    0    0  501    0  0.00000000000E+00 -0.00000000000E+00 -0.20524179129E+04  0.20524179129E+04  0.00000000000E+00 0. -1.
         23    2    1    2    0    0 -0.11359049503E+04 -0.42669853866E+03 -0.47346392316E+03  0.13058818367E+04  0.93848739184E+02 0.  0.
    5000000    2    1    2    0    0  0.11359049503E+04  0.42669853866E+03 -0.76876109090E+03  0.15567289750E+04  0.60004982117E+03 0.  0.
         23    2    4    4    0    0  0.96555031642E+03  0.54527321710E+03 -0.71995753564E+03  0.13252527477E+04  0.91354788263E+02 0.  0.
         23    2    4    4    0    0  0.17035463387E+03 -0.11857467844E+03 -0.48803555250E+02  0.23147622734E+03  0.90104390409E+02 0.  0.
          3    1    3    3  502    0 -0.72676852673E+03 -0.31296406557E+03 -0.33431579661E+03  0.85901458058E+03  0.00000000000E+00 0. -1.
         -3    1    3    3    0  502 -0.40913642356E+03 -0.11373447309E+03 -0.13914812655E+03  0.44686725610E+03  0.00000000000E+00 0.  1.
         13    1    5    5    0    0  0.90529152334E+03  0.48719397088E+03 -0.67921789389E+03  0.12321719259E+04  0.00000000000E+00 0.  1.
        -13    1    5    5    0    0  0.60258793080E+02  0.58079246225E+02 -0.40739641759E+02  0.93080821850E+02  0.00000000000E+00 0. -1.
          1    1    6    6  503    0  0.69145874267E+02  0.89717442427E+00 -0.76046650041E+01  0.69568583282E+02  0.00000000000E+00 0. -1.
         -1    1    6    6    0  503  0.10120875960E+03 -0.11947185286E+03 -0.41198890246E+02  0.16190764406E+03  0.00000000000E+00 0.  1.
<mgrwt>
<rscale>  0 0.12767117E+04</rscale>
<asrwt>0</asrwt>
<pdfrwt beam="1">  1        1 0.31575660E+00 0.12767117E+04</pdfrwt>
<pdfrwt beam="2">  1       -1 0.12464506E+00 0.12767117E+04</pdfrwt>
<totfact> 0.15096865E+00</totfact>
</mgrwt>
</event>
<event>
12    1  0.1418317E-007  0.3252520E+03  0.7818608E-02  0.1073257E+00
         -1   -1    0    0    0  501 -0.00000000000E+00  0.00000000000E+00  0.13038367380E+03  0.13038367380E+03  0.00000000000E+00 0.  1.
          1   -1    0    0  501    0  0.00000000000E+00 -0.00000000000E+00 -0.12083439739E+04  0.12083439739E+04  0.00000000000E+00 0. -1.
         23    2    1    2    0    0  0.79798003198E+02  0.49010300520E+02 -0.44122117150E+03  0.45884504970E+03  0.84219514233E+02 0.  0.
    5000000    2    1    2    0    0 -0.79798003198E+02 -0.49010300520E+02 -0.63673912858E+03  0.87988259798E+03  0.59998911447E+03 0.  0.
         23    2    4    4    0    0  0.16642299346E+03 -0.18935810947E+03 -0.14483563862E+03  0.30519751575E+03  0.92817320741E+02 0.  0.
         23    2    4    4    0    0 -0.24622099666E+03  0.14034780895E+03 -0.49190348996E+03  0.57468508223E+03  0.89283893433E+02 0.  0.
          1    1    3    3  502    0  0.37292135568E+02  0.92383566772E+01 -0.48696103027E+02  0.62027099395E+02  0.00000000000E+00 0. -1.
         -1    1    3    3    0  502  0.42505867630E+02  0.39771943842E+02 -0.39252506848E+03  0.39681795030E+03  0.00000000000E+00 0.  1.
         11    1    5    5    0    0  0.11246648112E+03 -0.71921242807E+02 -0.41723530160E+02  0.13986503319E+03  0.00000000000E+00 0.  1.
        -11    1    5    5    0    0  0.53956512345E+02 -0.11743686667E+03 -0.10311210846E+03  0.16533248256E+03  0.00000000000E+00 0. -1.
          1    1    6    6  503    0 -0.12673304454E+03  0.34091309270E+02 -0.27991648815E+03  0.30915485162E+03  0.00000000000E+00 0. -1.
         -1    1    6    6    0  503 -0.11948795212E+03  0.10625649968E+03 -0.21198700181E+03  0.26553023060E+03  0.00000000000E+00 0.  1.
<mgrwt>
<rscale>  0 0.32525205E+03</rscale>
<asrwt>0</asrwt>
<pdfrwt beam="1">  1        1 0.18589907E+00 0.32525205E+03</pdfrwt>
<pdfrwt beam="2">  1       -1 0.20059027E-01 0.32525205E+03</pdfrwt>
<totfact> 0.22650978E+02</totfact>
</mgrwt>
</event>
<event>
12    1  0.1418317E-007  0.3994888E+03  0.7818608E-02  0.1043957E+00
          2   -1    0    0  501    0  0.00000000000E+00  0.00000000000E+00  0.14606616698E+04  0.14606616698E+04  0.00000000000E+00 0. -1.
         -2   -1    0    0    0  501 -0.00000000000E+00 -0.00000000000E+00 -0.20153271990E+03  0.20153271990E+03  0.00000000000E+00 0.  1.
         23    2    1    2    0    0  0.34479108562E+03 -0.60877020041E+02  0.26057070177E+03  0.44576927402E+03  0.90698681105E+02 0.  0.
    5000000    2    1    2    0    0 -0.34479108562E+03  0.60877020041E+02  0.99855824816E+03  0.12164251157E+04  0.59998715226E+03 0.  0.
         23    2    4    4    0    0 -0.11143080356E+03  0.13958358435E+03  0.16440047580E+02  0.20024090678E+03  0.89026650959E+02 0.  0.
         23    2    4    4    0    0 -0.23336028205E+03 -0.78706564310E+02  0.98211820058E+03  0.10161842089E+04  0.86153595768E+02 0.  0.
          4    1    3    3  502    0  0.28761079532E+03 -0.22898877312E+02  0.23638093319E+03  0.37298830242E+03  0.00000000000E+00 0. -1.
         -4    1    3    3    0  502  0.57180290296E+02 -0.37978142729E+02  0.24189768575E+02  0.72780971601E+02  0.00000000000E+00 0.  1.
         11    1    5    5    0    0 -0.74134290600E+02  0.12702627250E+03 -0.17705668139E+02  0.14813864328E+03  0.00000000000E+00 0. -1.
        -11    1    5    5    0    0 -0.37296512963E+02  0.12557311850E+02  0.34145715718E+02  0.52102263502E+02  0.00000000000E+00 0.  1.
          2    1    6    6  503    0 -0.37273803841E+02 -0.41528806058E+02  0.31300025311E+03  0.31793574293E+03  0.00000000000E+00 0. -1.
         -2    1    6    6    0  503 -0.19608647821E+03 -0.37177758252E+02  0.66911794748E+03  0.69824846601E+03  0.00000000000E+00 0.  1.
<mgrwt>
<rscale>  0 0.39948884E+03</rscale>
<asrwt>0</asrwt>
<pdfrwt beam="1">  1        2 0.22471717E+00 0.39948884E+03</pdfrwt>
<pdfrwt beam="2">  1       -2 0.31005035E-01 0.39948884E+03</pdfrwt>
<totfact> 0.13612623E+02</totfact>
</mgrwt>
</event>
<event>
12    1  0.1418317E-007  0.7325679E+03  0.7818608E-02  0.9663103E-01
         -2   -1    0    0    0  501 -0.00000000000E+00  0.00000000000E+00  0.33214295486E+03  0.33214295486E+03  0.00000000000E+00 0.  1.
          2   -1    0    0  501    0  0.00000000000E+00 -0.00000000000E+00 -0.20956261939E+04  0.20956261939E+04  0.00000000000E+00 0. -1.
         23    2    1    2    0    0  0.62825138757E+03  0.35639579811E+03 -0.83330874470E+03  0.11060621601E+04  0.85160243758E+02 0.  0.
    5000000    2    1    2    0    0 -0.62825138757E+03 -0.35639579811E+03 -0.93017449429E+03  0.13217069886E+04  0.59997250190E+03 0.  0.
         23    2    4    4    0    0 -0.54163812218E+03 -0.29146709718E+03 -0.32875488763E+03  0.70346057504E+03  0.91935196497E+02 0.  0.
         23    2    4    4    0    0 -0.86613265391E+02 -0.64928700929E+02 -0.60141960665E+03  0.61824641358E+03  0.93837576092E+02 0.  0.
          3    1    3    3  502    0  0.17246453744E+03  0.75162897616E+02 -0.17030013323E+03  0.25376290752E+03  0.00000000000E+00 0. -1.
         -3    1    3    3    0  502  0.45578685013E+03  0.28123290049E+03 -0.66300861147E+03  0.85229925259E+03  0.00000000000E+00 0.  1.
         13    1    5    5    0    0 -0.36515040796E+03 -0.19584263576E+03 -0.26904724194E+03  0.49404005587E+03  0.00000000000E+00 0.  1.
        -13    1    5    5    0    0 -0.17648771423E+03 -0.95624461420E+02 -0.59707645697E+02  0.20942051917E+03  0.00000000000E+00 0. -1.
          2    1    6    6  503    0 -0.21028745846E+02 -0.56429375829E+02 -0.43531744724E+03  0.43946303881E+03  0.00000000000E+00 0. -1.
         -2    1    6    6    0  503 -0.65584519545E+02 -0.84993250995E+01 -0.16610215941E+03  0.17878337476E+03  0.00000000000E+00 0.  1.
<mgrwt>
<rscale>  0 0.73256786E+03</rscale>
<asrwt>0</asrwt>
<pdfrwt beam="1">  1        2 0.32240403E+00 0.73256786E+03</pdfrwt>
<pdfrwt beam="2">  1       -2 0.51098916E-01 0.73256786E+03</pdfrwt>
<totfact> 0.22207212E+01</totfact>
</mgrwt>
</event>
<event>
12    1  0.1418317E-007  0.5770823E+03  0.7818608E-02  0.9954128E-01
          2   -1    0    0  501    0  0.00000000000E+00  0.00000000000E+00  0.24633644245E+04  0.24633644245E+04  0.00000000000E+00 0. -1.
         -2   -1    0    0    0  501 -0.00000000000E+00 -0.00000000000E+00 -0.17363908388E+03  0.17363908388E+03  0.00000000000E+00 0.  1.
         23    2    1    2    0    0 -0.42227272523E+03  0.73752572336E+02  0.14716144328E+04  0.15355597393E+04  0.92417410647E+02 0.  0.
    5000000    2    1    2    0    0  0.42227272523E+03 -0.73752572336E+02  0.81811090781E+03  0.11014437690E+04  0.60009934385E+03 0.  0.
         23    2    4    4    0    0 -0.20108002518E+01  0.19194789523E+03  0.35387557051E+03  0.41274143489E+03  0.90991949452E+02 0.  0.
         23    2    4    4    0    0  0.42428352548E+03 -0.26570046757E+03  0.46423533730E+03  0.68870233416E+03  0.90461086764E+02 0.  0.
          1    1    3    3  502    0 -0.40174336458E+03  0.46560663046E+02  0.13600699728E+04  0.14189277492E+04  0.00000000000E+00 0. -1.
         -1    1    3    3    0  502 -0.20529360649E+02  0.27191909289E+02  0.11154445998E+03  0.11663199017E+03  0.00000000000E+00 0.  1.
         13    1    5    5    0    0  0.37639698326E+02  0.59577674994E+02  0.84810054212E+02  0.11026781735E+03  0.00000000000E+00 0. -1.
        -13    1    5    5    0    0 -0.39650498578E+02  0.13237022024E+03  0.26906551630E+03  0.30247361754E+03  0.00000000000E+00 0.  1.
          4    1    6    6  503    0  0.18514732097E+03 -0.69772803300E+02  0.15396244726E+03  0.25070342979E+03  0.00000000000E+00 0. -1.
         -4    1    6    6    0  503  0.23913620450E+03 -0.19592766427E+03  0.31027289004E+03  0.43799890436E+03  0.00000000000E+00 0.  1.
<mgrwt>
<rscale>  0 0.57708231E+03</rscale>
<asrwt>0</asrwt>
<pdfrwt beam="1">  1        2 0.37897912E+00 0.57708231E+03</pdfrwt>
<pdfrwt beam="2">  1       -2 0.26713707E-01 0.57708231E+03</pdfrwt>
<totfact> 0.49577381E+01</totfact>
</mgrwt>
</event>
<event>
12    1  0.1418317E-007  0.1081935E+04  0.7818608E-02  0.9222980E-01
         -2   -1    0    0    0  501 -0.00000000000E+00  0.00000000000E+00  0.39455070788E+03  0.39455070788E+03  0.00000000000E+00 0.  1.
          2   -1    0    0  501    0  0.00000000000E+00 -0.00000000000E+00 -0.30926435456E+04  0.30926435456E+04  0.00000000000E+00 0. -1.
         23    2    1    2    0    0  0.74621482534E+03 -0.69710745234E+03 -0.12484115019E+04  0.16151719546E+04  0.86335388028E+02 0.  0.
    5000000    2    1    2    0    0 -0.74621482534E+03  0.69710745234E+03 -0.14496813359E+04  0.18720222989E+04  0.60008011663E+03 0.  0.
         23    2    4    4    0    0 -0.58062150547E+02 -0.59780009309E+02 -0.41742219000E+02  0.12923608921E+03  0.89524806994E+02 0.  0.
         23    2    4    4    0    0 -0.68815267479E+03  0.75688746164E+03 -0.14079391169E+04  0.17427862097E+04  0.92620097650E+02 0.  0.
          1    1    3    3  502    0  0.53155506671E+03 -0.44638753337E+03 -0.81935578043E+03  0.10738512531E+04  0.00000000000E+00 0. -1.
         -1    1    3    3    0  502  0.21465975862E+03 -0.25071991897E+03 -0.42905572145E+03  0.54132070148E+03  0.00000000000E+00 0.  1.
         11    1    5    5    0    0 -0.72464261695E+02 -0.21189923551E+02 -0.45042296794E+02  0.87914109127E+02  0.00000000000E+00 0.  1.
        -11    1    5    5    0    0  0.14402111148E+02 -0.38590085757E+02  0.33000777932E+01  0.41321980080E+02  0.00000000000E+00 0. -1.
          3    1    6    6  503    0 -0.11461468374E+03  0.12098554275E+03 -0.17525013113E+03  0.24184010368E+03  0.00000000000E+00 0. -1.
         -3    1    6    6    0  503 -0.57353799105E+03  0.63590191889E+03 -0.12326889857E+04  0.15009461060E+04  0.00000000000E+00 0.  1.
<mgrwt>
<rscale>  0 0.10819352E+04</rscale>
<asrwt>0</asrwt>
<pdfrwt beam="1">  1        2 0.47579132E+00 0.10819352E+04</pdfrwt>
<pdfrwt beam="2">  1       -2 0.60700108E-01 0.10819352E+04</pdfrwt>
<totfact> 0.38951449E+00</totfact>
</mgrwt>
</event>
<event>
12    1  0.1418317E-007  0.6737354E+03  0.7818608E-02  0.9763233E-01
          2   -1    0    0  501    0  0.00000000000E+00  0.00000000000E+00  0.12383848594E+04  0.12383848594E+04  0.00000000000E+00 0. -1.
         -2   -1    0    0    0  501 -0.00000000000E+00 -0.00000000000E+00 -0.40548942512E+03  0.40548942512E+03  0.00000000000E+00 0.  1.
         23    2    1    2    0    0  0.33970870537E+03 -0.46218691605E+03  0.37378865529E+03  0.69576651316E+03  0.12391259873E+03 0.  0.
    5000000    2    1    2    0    0 -0.33970870537E+03  0.46218691605E+03  0.45910677902E+03  0.94810777140E+03  0.59925834310E+03 0.  0.
         23    2    4    4    0    0 -0.12538899500E+03  0.50702824465E+03  0.13644386438E+03  0.54740538307E+03  0.90750671372E+02 0.  0.
         23    2    4    4    0    0 -0.21431971038E+03 -0.44841328594E+02  0.32266291464E+03  0.40070238833E+03  0.92235375653E+02 0.  0.
          4    1    3    3  502    0  0.76271509165E+02 -0.33091170699E+02  0.59109305632E+02  0.10201116949E+03  0.00000000000E+00 0. -1.
         -4    1    3    3    0  502  0.26343719621E+03 -0.42909574535E+03  0.31467934966E+03  0.59375534367E+03  0.00000000000E+00 0.  1.
         11    1    5    5    0    0 -0.16911327630E+02  0.12558129476E+03  0.71668547690E+02  0.14557827902E+03  0.00000000000E+00 0.  1.
        -11    1    5    5    0    0 -0.10847766737E+03  0.38144694989E+03  0.64775316687E+02  0.40182710405E+03  0.00000000000E+00 0. -1.
          3    1    6    6  503    0 -0.18814513850E+03 -0.70461971799E+02  0.26957807618E+03  0.33620800373E+03  0.00000000000E+00 0. -1.
         -3    1    6    6    0  503 -0.26174571876E+02  0.25620643205E+02  0.53084838463E+02  0.64494384606E+02  0.00000000000E+00 0.  1.
<mgrwt>
<rscale>  0 0.67373539E+03</rscale>
<asrwt>0</asrwt>
<pdfrwt beam="1">  1        2 0.19052075E+00 0.67373539E+03</pdfrwt>
<pdfrwt beam="2">  1       -2 0.62382989E-01 0.67373539E+03</pdfrwt>
<totfact> 0.43982981E+01</totfact>
</mgrwt>
</event>
<event>
12    1  0.1418317E-007  0.5830231E+03  0.7818608E-02  0.9941267E-01
         -2   -1    0    0    0  501 -0.00000000000E+00  0.00000000000E+00  0.36915147471E+03  0.36915147471E+03  0.00000000000E+00 0. -1.
          2   -1    0    0  501    0  0.00000000000E+00 -0.00000000000E+00 -0.13577477233E+04  0.13577477233E+04  0.00000000000E+00 0.  1.
         23    2    1    2    0    0  0.16822511928E+03  0.54565846695E+03 -0.50678279332E+03  0.76874985100E+03  0.90025999007E+02 0.  0.
    5000000    2    1    2    0    0 -0.16822511928E+03 -0.54565846695E+03 -0.48181345525E+03  0.95814934699E+03  0.59988591595E+03 0.  0.
         23    2    4    4    0    0 -0.26028569223E+02 -0.33768744299E+03 -0.57579071813E+03  0.67416196665E+03  0.90824614613E+02 0.  0.
         23    2    4    4    0    0 -0.14219655006E+03 -0.20797102396E+03  0.93977262882E+02  0.28398738034E+03  0.91352616802E+02 0.  0.
          2    1    3    3  502    0  0.13710419130E+03  0.50435421737E+03 -0.48363028140E+03  0.71208776491E+03  0.00000000000E+00 0. -1.
         -2    1    3    3    0  502  0.31120927983E+02  0.41304249584E+02 -0.23152511925E+02  0.56662086095E+02  0.00000000000E+00 0.  1.
         11    1    5    5    0    0 -0.27530506951E+02 -0.31677058826E+03 -0.47763816431E+03  0.57379417077E+03  0.00000000000E+00 0. -1.
        -11    1    5    5    0    0  0.15019377288E+01 -0.20916854731E+02 -0.98152553818E+02  0.10036779588E+03  0.00000000000E+00 0.  1.
          2    1    6    6  503    0 -0.11154413678E+03 -0.14736020598E+03  0.23831091609E+02  0.18634657411E+03  0.00000000000E+00 0. -1.
         -2    1    6    6    0  503 -0.30652413279E+02 -0.60610817986E+02  0.70146171273E+02  0.97640806229E+02  0.00000000000E+00 0.  1.
<mgrwt>
<rscale>  0 0.58302308E+03</rscale>
<asrwt>0</asrwt>
<pdfrwt beam="1">  1        2 0.20888427E+00 0.58302308E+03</pdfrwt>
<pdfrwt beam="2">  1       -2 0.56792534E-01 0.58302308E+03</pdfrwt>
<totfact> 0.46267799E+01</totfact>
</mgrwt>
</event>
<event>
12    1  0.1418317E-007  0.6382092E+03  0.7818608E-02  0.9829159E-01
          2   -1    0    0  501    0  0.00000000000E+00  0.00000000000E+00  0.12627532874E+04  0.12627532874E+04  0.00000000000E+00 0. -1.
         -2   -1    0    0    0  501 -0.00000000000E+00 -0.00000000000E+00 -0.44971008012E+03  0.44971008012E+03  0.00000000000E+00 0.  1.
         23    2    1    2    0    0 -0.40590182368E+02  0.62885324651E+03  0.37107935264E+03  0.73683519343E+03  0.90123513968E+02 0.  0.
    5000000    2    1    2    0    0  0.40590182368E+02 -0.62885324651E+03  0.44196385467E+03  0.97562817412E+03  0.59951173195E+03 0.  0.
         23    2    4    4    0    0  0.15337525304E+02 -0.43236487651E+03  0.57128243344E+03  0.72207480426E+03  0.88621544028E+02 0.  0.
         23    2    4    4    0    0  0.25252657064E+02 -0.19648836999E+03 -0.12931857877E+03  0.25355336986E+03  0.91217543913E+02 0.  0.
          2    1    3    3  502    0  0.76057973368E+01  0.29613810268E+03  0.21588923098E+03  0.36655665874E+03  0.00000000000E+00 0. -1.
         -2    1    3    3    0  502 -0.48195979704E+02  0.33271514382E+03  0.15519012167E+03  0.37027853469E+03  0.00000000000E+00 0.  1.
         13    1    5    5    0    0  0.51464616352E+02 -0.26425400215E+03  0.33255401642E+03  0.42786792147E+03  0.00000000000E+00 0. -1.
        -13    1    5    5    0    0 -0.36127091048E+02 -0.16811087437E+03  0.23872841702E+03  0.29420688279E+03  0.00000000000E+00 0.  1.
          2    1    6    6  503    0  0.33724026032E+02 -0.18737069061E+03 -0.86771350608E+02  0.20922321314E+03  0.00000000000E+00 0. -1.
         -2    1    6    6    0  503 -0.84713689686E+01 -0.91176793827E+01 -0.42547228165E+02  0.44330156711E+02  0.00000000000E+00 0.  1.
<mgrwt>
<rscale>  0 0.63820922E+03</rscale>
<asrwt>0</asrwt>
<pdfrwt beam="1">  1        2 0.19426974E+00 0.63820922E+03</pdfrwt>
<pdfrwt beam="2">  1       -2 0.69186166E-01 0.63820922E+03</pdfrwt>
<totfact> 0.34222569E+01</totfact>
</mgrwt>
</event>
<event>
12    1  0.1418317E-007  0.1366634E+04  0.7818608E-02  0.8978331E-01
          1   -1    0    0  501    0  0.00000000000E+00  0.00000000000E+00  0.24769257395E+04  0.24769257395E+04  0.00000000000E+00 0. -1.
         -1   -1    0    0    0  501 -0.00000000000E+00 -0.00000000000E+00 -0.87400850575E+03  0.87400850575E+03  0.00000000000E+00 0.  1.
         23    2    1    2    0    0  0.46332858338E+03 -0.12461927409E+04  0.23888874793E+03  0.13538845894E+04  0.90917125754E+02 0.  0.
    5000000    2    1    2    0    0 -0.46332858338E+03  0.12461927409E+04  0.13640284858E+04  0.19970496559E+04  0.59996991102E+03 0.  0.
         23    2    4    4    0    0 -0.37078552308E+03  0.40263750227E+03  0.80130095550E+03  0.97458565633E+03  0.90194888266E+02 0.  0.
         23    2    4    4    0    0 -0.92543060302E+02  0.84355523866E+03  0.56272753030E+03  0.10224639995E+04  0.92847715545E+02 0.  0.
          3    1    3    3  502    0  0.32501487458E+03 -0.98213255029E+03  0.18123912568E+03  0.10502697919E+04  0.00000000000E+00 0. -1.
         -3    1    3    3    0  502  0.13831370880E+03 -0.26406019065E+03  0.57649622251E+02  0.30361479752E+03  0.00000000000E+00 0.  1.
         13    1    5    5    0    0 -0.12790137711E+03  0.18985276664E+03  0.38226859503E+03  0.44556942671E+03  0.00000000000E+00 0.  1.
        -13    1    5    5    0    0 -0.24288414597E+03  0.21278473563E+03  0.41903236047E+03  0.52901622962E+03  0.00000000000E+00 0. -1.
          1    1    6    6  503    0 -0.90049827449E+02  0.77121827825E+03  0.54285352375E+03  0.94740516801E+03  0.00000000000E+00 0. -1.
         -1    1    6    6    0  503 -0.24932328536E+01  0.72336960416E+02  0.19874006557E+02  0.75058831518E+02  0.00000000000E+00 0.  1.
<mgrwt>
<rscale>  0 0.13666342E+04</rscale>
<asrwt>0</asrwt>
<pdfrwt beam="1">  1        1 0.38106550E+00 0.13666342E+04</pdfrwt>
<pdfrwt beam="2">  1       -1 0.13446285E+00 0.13666342E+04</pdfrwt>
<totfact> 0.63220784E-01</totfact>
</mgrwt>
</event>
<event>
12    1  0.1418317E-007  0.9144521E+03  0.7818608E-02  0.9407694E-01
          2   -1    0    0  501    0  0.00000000000E+00  0.00000000000E+00  0.14541967172E+04  0.14541967172E+04  0.00000000000E+00 0. -1.
         -2   -1    0    0    0  501 -0.00000000000E+00 -0.00000000000E+00 -0.58613092878E+03  0.58613092878E+03  0.00000000000E+00 0.  1.
         23    2    1    2    0    0 -0.55058450816E+03  0.60269346992E+03  0.50538971286E+03  0.96436112001E+03  0.90503528123E+02 0.  0.
    5000000    2    1    2    0    0  0.55058450816E+03 -0.60269346992E+03  0.36267607552E+03  0.10759665259E+04  0.59982273205E+03 0.  0.
         23    2    4    4    0    0 -0.11172915432E+03 -0.12756088539E+03  0.80298450687E+02  0.20846565178E+03  0.90856498853E+02 0.  0.
         23    2    4    4    0    0  0.66231366248E+03 -0.47513258453E+03  0.28237762483E+03  0.86750087416E+03  0.91707596573E+02 0.  0.
          2    1    3    3  502    0 -0.31191553560E+03  0.40555430027E+03  0.30638064999E+03  0.59635115033E+03  0.00000000000E+00 0. -1.
         -2    1    3    3    0  502 -0.23866897256E+03  0.19713916965E+03  0.19900906288E+03  0.36800996968E+03  0.00000000000E+00 0.  1.
         11    1    5    5    0    0 -0.29817621872E+02  0.92555939221E+01  0.33257028880E+01  0.31397721138E+02  0.00000000000E+00 0. -1.
        -11    1    5    5    0    0 -0.81911532451E+02 -0.13681647931E+03  0.76972747799E+02  0.17706793064E+03  0.00000000000E+00 0.  1.
          4    1    6    6  503    0  0.63054500779E+03 -0.46574752894E+03  0.25443365030E+03  0.82416275696E+03  0.00000000000E+00 0. -1.
         -4    1    6    6    0  503  0.31768654696E+02 -0.93850555901E+01  0.27943974531E+02  0.43338117198E+02  0.00000000000E+00 0.  1.
<mgrwt>
<rscale>  0 0.91445205E+03</rscale>
<asrwt>0</asrwt>
<pdfrwt beam="1">  1        2 0.22372257E+00 0.91445205E+03</pdfrwt>
<pdfrwt beam="2">  1       -2 0.90173989E-01 0.91445205E+03</pdfrwt>
<totfact> 0.14240837E+01</totfact>
</mgrwt>
</event>
<event>
12    1  0.1418317E-007  0.1047231E+04  0.7818608E-02  0.9258208E-01
          2   -1    0    0  501    0  0.00000000000E+00  0.00000000000E+00  0.93557092057E+03  0.93557092057E+03  0.00000000000E+00 0. -1.
         -2   -1    0    0    0  501 -0.00000000000E+00 -0.00000000000E+00 -0.14849736245E+04  0.14849736245E+04  0.00000000000E+00 0.  1.
         23    2    1    2    0    0 -0.90512327475E+03  0.51205903887E+03  0.11121587142E+03  0.10501467435E+04  0.94797737212E+02 0.  0.
    5000000    2    1    2    0    0  0.90512327475E+03 -0.51205903887E+03 -0.66061857534E+03  0.13703978016E+04  0.60010051721E+03 0.  0.
         23    2    4    4    0    0  0.13130165220E+03 -0.12273372115E+03  0.89580339813E+02  0.22082628277E+03  0.91847262909E+02 0.  0.
         23    2    4    4    0    0  0.77382162255E+03 -0.38932531772E+03 -0.75019891515E+03  0.11495715188E+04  0.91335415118E+02 0.  0.
          3    1    3    3  502    0 -0.62288459359E+03  0.33243340800E+03  0.34343897004E+02  0.70687813019E+03  0.00000000000E+00 0. -1.
         -3    1    3    3    0  502 -0.28223868116E+03  0.17962563087E+03  0.76871974421E+02  0.34326861328E+03  0.00000000000E+00 0.  1.
         13    1    5    5    0    0  0.14514283967E+02 -0.54725898828E+00  0.43169016895E+02  0.45546986192E+02  0.00000000000E+00 0. -1.
        -13    1    5    5    0    0  0.11678736823E+03 -0.12218646216E+03  0.46411322918E+02  0.17527929658E+03  0.00000000000E+00 0.  1.
          3    1    6    6  503    0  0.27058729830E+03 -0.18172082859E+03 -0.25844410068E+03  0.41597271391E+03  0.00000000000E+00 0. -1.
         -3    1    6    6    0  503  0.50323432425E+03 -0.20760448913E+03 -0.49175481447E+03  0.73359880491E+03  0.00000000000E+00 0.  1.
<mgrwt>
<rscale>  0 0.10472308E+04</rscale>
<asrwt>0</asrwt>
<pdfrwt beam="1">  1        2 0.14393399E+00 0.10472308E+04</pdfrwt>
<pdfrwt beam="2">  1       -2 0.22845748E+00 0.10472308E+04</pdfrwt>
<totfact> 0.24001696E+00</totfact>
</mgrwt>
</event>
<event>
12    1  0.1418317E-007  0.1284813E+04  0.7818608E-02  0.9041696E-01
         -1   -1    0    0    0  501 -0.00000000000E+00  0.00000000000E+00  0.24204063806E+04  0.24204063806E+04  0.00000000000E+00 0.  1.
          1   -1    0    0  501    0  0.00000000000E+00 -0.00000000000E+00 -0.74394040596E+03  0.74394040596E+03  0.00000000000E+00 0. -1.
         23    2    1    2    0    0  0.10545713598E+04 -0.65520312570E+03  0.46549346759E+03  0.13293145527E+04  0.94768785827E+02 0.  0.
    5000000    2    1    2    0    0 -0.10545713598E+04  0.65520312570E+03  0.12109725070E+04  0.18350322339E+04  0.59956400629E+03 0.  0.
         23    2    4    4    0    0 -0.26187253782E+03 -0.23827645844E+02  0.73974858588E+02  0.28848716364E+03  0.92777050569E+02 0.  0.
         23    2    4    4    0    0 -0.79269882200E+03  0.67903077155E+03  0.11369976484E+04  0.15465450702E+04  0.97896836229E+02 0.  0.
          1    1    3    3  502    0  0.21617174166E+03 -0.16931867446E+03  0.75671973077E+02  0.28482500403E+03  0.00000000000E+00 0. -1.
         -1    1    3    3    0  502  0.83839961815E+03 -0.48588445125E+03  0.38982149451E+03  0.10444895487E+04  0.00000000000E+00 0.  1.
         13    1    5    5    0    0 -0.49850325061E+02 -0.43103524194E+02  0.19660136273E+02  0.68771285177E+02  0.00000000000E+00 0. -1.
        -13    1    5    5    0    0 -0.21202221276E+03  0.19275878350E+02  0.54314722315E+02  0.21971587846E+03  0.00000000000E+00 0.  1.
          1    1    6    6  503    0 -0.18199466061E+03  0.20501750584E+03  0.26665597867E+03  0.38243907378E+03  0.00000000000E+00 0. -1.
         -1    1    6    6    0  503 -0.61070416138E+03  0.47401326570E+03  0.87034166978E+03  0.11641059964E+04  0.00000000000E+00 0.  1.
<mgrwt>
<rscale>  0 0.12848127E+04</rscale>
<asrwt>0</asrwt>
<pdfrwt beam="1">  1        1 0.11445237E+00 0.12848127E+04</pdfrwt>
<pdfrwt beam="2">  1       -1 0.37237021E+00 0.12848127E+04</pdfrwt>
<totfact> 0.26826899E-01</totfact>
</mgrwt>
</event>
<event>
12    1  0.1418317E-007  0.3319779E+03  0.7818608E-02  0.1070265E+00
          2   -1    0    0  501    0  0.00000000000E+00  0.00000000000E+00  0.25972926033E+03  0.25972926033E+03  0.00000000000E+00 0. -1.
         -2   -1    0    0    0  501 -0.00000000000E+00 -0.00000000000E+00 -0.15765686851E+04  0.15765686851E+04  0.00000000000E+00 0.  1.
         23    2    1    2    0    0  0.30363859393E+03 -0.85190002702E+02 -0.10632406165E+04  0.11123019922E+04  0.85331007455E+02 0.  0.
    5000000    2    1    2    0    0 -0.30363859393E+03  0.85190002702E+02 -0.25359880821E+03  0.72399595324E+03  0.60033661600E+03 0.  0.
         23    2    4    4    0    0 -0.15253652242E+03  0.81547994705E+02 -0.43087849641E+03  0.47326745158E+03  0.91696978919E+02 0.  0.
         23    2    4    4    0    0 -0.15110207151E+03  0.36420079965E+01  0.17727968820E+03  0.25072850167E+03  0.92690848862E+02 0.  0.
          1    1    3    3  502    0  0.12145504891E+03  0.84269148037E+01 -0.38146984132E+03  0.40042674940E+03  0.00000000000E+00 0. -1.
         -1    1    3    3    0  502  0.18218354502E+03 -0.93616917506E+02 -0.68177077522E+03  0.71187524277E+03  0.00000000000E+00 0.  1.
         13    1    5    5    0    0 -0.12816376047E+03  0.93079566302E+02 -0.29596434414E+03  0.33568534100E+03  0.00000000000E+00 0. -1.
        -13    1    5    5    0    0 -0.24372761951E+02 -0.11531571596E+02 -0.13491415226E+03  0.13758211057E+03  0.00000000000E+00 0.  1.
          2    1    6    6  503    0 -0.60792382351E+02  0.94513909594E+01  0.13987375864E+03  0.15280612193E+03  0.00000000000E+00 0. -1.
         -2    1    6    6    0  503 -0.90309689163E+02 -0.58093829628E+01  0.37405929555E+02  0.97922379735E+02  0.00000000000E+00 0.  1.
<mgrwt>
<rscale>  0 0.33197789E+03</rscale>
<asrwt>0</asrwt>
<pdfrwt beam="1">  1        2 0.39958348E-01 0.33197789E+03</pdfrwt>
<pdfrwt beam="2">  1       -2 0.24254903E+00 0.33197789E+03</pdfrwt>
<totfact> 0.10067367E+01</totfact>
</mgrwt>
</event>
<event>
12    1  0.1418317E-007  0.1394303E+04  0.7818608E-02  0.8957953E-01
         -2   -1    0    0    0  501 -0.00000000000E+00  0.00000000000E+00  0.78859814699E+03  0.78859814699E+03  0.00000000000E+00 0.  1.
          2   -1    0    0  501    0  0.00000000000E+00 -0.00000000000E+00 -0.34504584062E+04  0.34504584062E+04  0.00000000000E+00 0. -1.
         23    2    1    2    0    0 -0.50945893390E+03 -0.12363882838E+04 -0.17546435704E+03  0.13527522757E+04  0.10462592941E+03 0.  0.
    5000000    2    1    2    0    0  0.50945893390E+03  0.12363882838E+04 -0.24863959021E+04  0.28863042775E+04  0.60031942019E+03 0.  0.
         23    2    4    4    0    0 -0.10983393970E+03  0.27781114974E+03 -0.66352808762E+03  0.73341519563E+03  0.91573996801E+02 0.  0.
         23    2    4    4    0    0  0.61929287361E+03  0.95857713407E+03 -0.18228678145E+04  0.21528890818E+04  0.98440561789E+02 0.  0.
          3    1    3    3  502    0 -0.40228567813E+03 -0.85162475763E+03 -0.12877996249E+03  0.95062230847E+03  0.00000000000E+00 0. -1.
         -3    1    3    3    0  502 -0.10717325577E+03 -0.38476352618E+03 -0.46684394550E+02  0.40212996721E+03  0.00000000000E+00 0.  1.
         13    1    5    5    0    0 -0.72823444073E+02  0.96959910678E+02 -0.19254866207E+03  0.22755101746E+03  0.00000000000E+00 0. -1.
        -13    1    5    5    0    0 -0.37010495631E+02  0.18085123906E+03 -0.47097942555E+03  0.50586417816E+03  0.00000000000E+00 0.  1.
          3    1    6    6  503    0  0.97868313939E+02  0.13594452105E+03 -0.20823803473E+03  0.26724931953E+03  0.00000000000E+00 0. -1.
         -3    1    6    6    0  503  0.52142455967E+03  0.82263261302E+03 -0.16146297798E+04  0.18856397623E+04  0.00000000000E+00 0.  1.
<mgrwt>
<rscale>  0 0.13943025E+04</rscale>
<asrwt>0</asrwt>
<pdfrwt beam="1">  1        2 0.53083976E+00 0.13943025E+04</pdfrwt>
<pdfrwt beam="2">  1       -2 0.12132279E+00 0.13943025E+04</pdfrwt>
<totfact> 0.44108488E-01</totfact>
</mgrwt>
</event>
<event>
12    1  0.1418317E-007  0.1381395E+04  0.7818608E-02  0.8967397E-01
         -2   -1    0    0    0  501 -0.00000000000E+00  0.00000000000E+00  0.67094616624E+03  0.67094616624E+03  0.00000000000E+00 0.  1.
          2   -1    0    0  501    0  0.00000000000E+00 -0.00000000000E+00 -0.30026803136E+04  0.30026803136E+04  0.00000000000E+00 0. -1.
         23    2    1    2    0    0  0.11963857028E+04  0.55147897547E+03 -0.15240734114E+04  0.20167087749E+04  0.94056947824E+02 0.  0.
    5000000    2    1    2    0    0 -0.11963857028E+04 -0.55147897547E+03 -0.80766073604E+03  0.16569177049E+04  0.59799047326E+03 0.  0.
         23    2    4    4    0    0 -0.80253505551E+03 -0.64323809213E+03 -0.58266020200E+03  0.11853901867E+04  0.88539399855E+02 0.  0.
         23    2    4    4    0    0 -0.39385064731E+03  0.91759116660E+02 -0.22500053404E+03  0.47152751821E+03  0.90415110636E+02 0.  0.
          4    1    3    3  502    0  0.44369761979E+03  0.24758543034E+03 -0.62326963771E+03  0.80413379759E+03  0.00000000000E+00 0. -1.
         -4    1    3    3    0  502  0.75268808302E+03  0.30389354512E+03 -0.90080377366E+03  0.12125749774E+04  0.00000000000E+00 0.  1.
         13    1    5    5    0    0 -0.54870672840E+03 -0.47340459940E+03 -0.37406015538E+03  0.81554398310E+03  0.00000000000E+00 0. -1.
        -13    1    5    5    0    0 -0.25382832711E+03 -0.16983349273E+03 -0.20860004662E+03  0.36984620363E+03  0.00000000000E+00 0.  1.
          1    1    6    6  503    0 -0.26656724585E+03  0.21390973207E+02 -0.16476894091E+03  0.31410901640E+03  0.00000000000E+00 0. -1.
         -1    1    6    6    0  503 -0.12728340146E+03  0.70368143453E+02 -0.60231593128E+02  0.15741850181E+03  0.00000000000E+00 0.  1.
<mgrwt>
<rscale>  0 0.13813955E+04</rscale>
<asrwt>0</asrwt>
<pdfrwt beam="1">  1        2 0.46195081E+00 0.13813955E+04</pdfrwt>
<pdfrwt beam="2">  1       -2 0.10322249E+00 0.13813955E+04</pdfrwt>
<totfact> 0.12862979E+00</totfact>
</mgrwt>
</event>
<event>
12    1  0.1418317E-007  0.1441996E+04  0.7818608E-02  0.8923968E-01
          1   -1    0    0  501    0  0.00000000000E+00  0.00000000000E+00  0.16142594882E+04  0.16142594882E+04  0.00000000000E+00 0. -1.
         -1   -1    0    0    0  501 -0.00000000000E+00 -0.00000000000E+00 -0.13377040566E+04  0.13377040566E+04  0.00000000000E+00 0.  1.
         23    2    1    2    0    0  0.13891690546E+04 -0.18504715481E+02  0.35324014416E+03  0.14367617704E+04  0.96812698712E+02 0.  0.
    5000000    2    1    2    0    0 -0.13891690546E+04  0.18504715481E+02 -0.76684712541E+02  0.15152017745E+04  0.59985230324E+03 0.  0.
         23    2    4    4    0    0 -0.51815196527E+03  0.25996443337E+03 -0.14529758442E+03  0.60428271977E+03  0.89349043889E+02 0.  0.
         23    2    4    4    0    0 -0.87101708930E+03 -0.24145971789E+03  0.68612871881E+02  0.91091905475E+03  0.89956839121E+02 0.  0.
          4    1    3    3  502    0  0.97628770766E+03 -0.46893527714E+02  0.27738441981E+03  0.10160112241E+04  0.00000000000E+00 0. -1.
         -4    1    3    3    0  502  0.41288134691E+03  0.28388812233E+02  0.75855724348E+02  0.42075054629E+03  0.00000000000E+00 0.  1.
         13    1    5    5    0    0 -0.30747644408E+03  0.10682982463E+03 -0.67144214500E+02  0.33235932458E+03  0.00000000000E+00 0. -1.
        -13    1    5    5    0    0 -0.21067552120E+03  0.15313460874E+03 -0.78153369923E+02  0.27192339520E+03  0.00000000000E+00 0.  1.
          1    1    6    6  503    0 -0.34963651122E+03 -0.60227087615E+02  0.52954893120E+02  0.35871606148E+03  0.00000000000E+00 0. -1.
         -1    1    6    6    0  503 -0.52138057808E+03 -0.18123263027E+03  0.15657978762E+02  0.55220299327E+03  0.00000000000E+00 0.  1.
<mgrwt>
<rscale>  0 0.14419965E+04</rscale>
<asrwt>0</asrwt>
<pdfrwt beam="1">  1        1 0.24834761E+00 0.14419965E+04</pdfrwt>
<pdfrwt beam="2">  1       -1 0.20580062E+00 0.14419965E+04</pdfrwt>
<totfact> 0.71352074E-01</totfact>
</mgrwt>
</event>
<event>
12    1  0.1418317E-007  0.4552936E+03  0.7818608E-02  0.1026155E+00
         -2   -1    0    0    0  501 -0.00000000000E+00  0.00000000000E+00  0.15050228374E+04  0.15050228374E+04  0.00000000000E+00 0.  1.
          2   -1    0    0  501    0  0.00000000000E+00 -0.00000000000E+00 -0.21316885212E+03  0.21316885212E+03  0.00000000000E+00 0. -1.
         23    2    1    2    0    0  0.27048659264E+02  0.32223220220E+03  0.10847742268E+03  0.35260210043E+03  0.89418498588E+02 0.  0.
    5000000    2    1    2    0    0 -0.27048659264E+02 -0.32223220220E+03  0.11833765626E+04  0.13655895891E+04  0.59990800530E+03 0.  0.
         23    2    4    4    0    0  0.18575096155E+03 -0.28010214144E+02  0.80884722869E+03  0.83569941081E+03  0.94189564484E+02 0.  0.
         23    2    4    4    0    0 -0.21279962082E+03 -0.29422198806E+03  0.37452933396E+03  0.52989017832E+03  0.93065150342E+02 0.  0.
          1    1    3    3  502    0 -0.26014764847E+02  0.14822292754E+03  0.72980247526E+02  0.16725107105E+03  0.00000000000E+00 0. -1.
         -1    1    3    3    0  502  0.53063424110E+02  0.17400927466E+03  0.35497175152E+02  0.18535102937E+03  0.00000000000E+00 0.  1.
         13    1    5    5    0    0  0.83391113334E+02  0.26642460524E+02  0.45394802051E+03  0.46231234443E+03  0.00000000000E+00 0.  1.
        -13    1    5    5    0    0  0.10235984822E+03 -0.54652674668E+02  0.35489920818E+03  0.37338706638E+03  0.00000000000E+00 0. -1.
          1    1    6    6  503    0 -0.79661906207E+02 -0.18832705926E+03  0.19478500258E+03  0.28240803420E+03  0.00000000000E+00 0. -1.
         -1    1    6    6    0  503 -0.13313771461E+03 -0.10589492880E+03  0.17974433137E+03  0.24748214412E+03  0.00000000000E+00 0.  1.
<mgrwt>
<rscale>  0 0.45529359E+03</rscale>
<asrwt>0</asrwt>
<pdfrwt beam="1">  1        2 0.32795209E-01 0.45529359E+03</pdfrwt>
<pdfrwt beam="2">  1       -2 0.23154197E+00 0.45529359E+03</pdfrwt>
<totfact> 0.14242929E+01</totfact>
</mgrwt>
</event>
<event>
12    1  0.1418317E-007  0.6418153E+03  0.7818608E-02  0.9822259E-01
         -1   -1    0    0    0  501 -0.00000000000E+00  0.00000000000E+00  0.45635912362E+03  0.45635912362E+03  0.00000000000E+00 0.  1.
          1   -1    0    0  501    0  0.00000000000E+00 -0.00000000000E+00 -0.11254557397E+04  0.11254557397E+04  0.00000000000E+00 0. -1.
         23    2    1    2    0    0 -0.31156108149E+03 -0.49631769851E+03 -0.23944286286E+03  0.63941651719E+03  0.90105674180E+02 0.  0.
    5000000    2    1    2    0    0  0.31156108149E+03  0.49631769851E+03 -0.42965375326E+03  0.94239834617E+03  0.60009226775E+03 0.  0.
         23    2    4    4    0    0 -0.58261611531E+02  0.19952488124E+02  0.91282282436E+02  0.14010388218E+03  0.86626356006E+02 0.  0.
         23    2    4    4    0    0  0.36982269302E+03  0.47636521039E+03 -0.52093603570E+03  0.80229446399E+03  0.92786937203E+02 0.  0.
          2    1    3    3  502    0 -0.19544138902E+03 -0.37902959095E+03 -0.15271579905E+03  0.45297117197E+03  0.00000000000E+00 0. -1.
         -2    1    3    3    0  502 -0.11611969248E+03 -0.11728810757E+03 -0.86727063803E+02  0.18644534522E+03  0.00000000000E+00 0.  1.
         13    1    5    5    0    0 -0.59397002936E+02  0.37227516197E+02  0.98872387919E+02  0.12120082926E+03  0.00000000000E+00 0.  1.
        -13    1    5    5    0    0  0.11353914057E+01 -0.17275028073E+02 -0.75901054828E+01  0.18903052923E+02  0.00000000000E+00 0. -1.
          2    1    6    6  503    0  0.30117706547E+03  0.35746264551E+03 -0.44510214989E+03  0.64544797740E+03  0.00000000000E+00 0. -1.
         -2    1    6    6    0  503  0.68645627554E+02  0.11890256488E+03 -0.75833885810E+02  0.15684648659E+03  0.00000000000E+00 0.  1.
<mgrwt>
<rscale>  0 0.64181535E+03</rscale>
<asrwt>0</asrwt>
<pdfrwt beam="1">  1        1 0.17314704E+00 0.64181535E+03</pdfrwt>
<pdfrwt beam="2">  1       -1 0.70209097E-01 0.64181535E+03</pdfrwt>
<totfact> 0.25957626E+01</totfact>
</mgrwt>
</event>
<event>
12    1  0.1418317E-007  0.6530970E+03  0.7818608E-02  0.9800985E-01
          1   -1    0    0  501    0  0.00000000000E+00  0.00000000000E+00  0.12004839725E+04  0.12004839725E+04  0.00000000000E+00 0. -1.
         -1   -1    0    0    0  501 -0.00000000000E+00 -0.00000000000E+00 -0.41559599788E+03  0.41559599788E+03  0.00000000000E+00 0.  1.
         23    2    1    2    0    0 -0.19889100527E+03  0.53002897773E+03  0.43463622472E+03  0.71975362904E+03  0.92996179871E+02 0.  0.
    5000000    2    1    2    0    0  0.19889100527E+03 -0.53002897773E+03  0.35025174990E+03  0.89632634135E+03  0.60019686159E+03 0.  0.
         23    2    4    4    0    0  0.18986228773E+03  0.10881274814E+02  0.26999843130E+03  0.34218356153E+03  0.89578716408E+02 0.  0.
         23    2    4    4    0    0  0.90287175338E+01 -0.54091025255E+03  0.80253318605E+02  0.55414277982E+03  0.89264809545E+02 0.  0.
          3    1    3    3  502    0 -0.10302228332E+03  0.38777676539E+03  0.28537019326E+03  0.49236222218E+03  0.00000000000E+00 0. -1.
         -3    1    3    3    0  502 -0.95868721949E+02  0.14225221235E+03  0.14926603146E+03  0.22739140686E+03  0.00000000000E+00 0.  1.
         13    1    5    5    0    0  0.52883724909E+02 -0.98526533440E+01  0.14840010205E+03  0.15784914769E+03  0.00000000000E+00 0.  1.
        -13    1    5    5    0    0  0.13697856282E+03  0.20733928158E+02  0.12159832925E+03  0.18433441384E+03  0.00000000000E+00 0. -1.
          4    1    6    6  503    0  0.10135644936E+02 -0.53372050065E+03  0.90644900213E+02  0.54145803351E+03  0.00000000000E+00 0. -1.
         -4    1    6    6    0  503 -0.11069274026E+01 -0.71897518948E+01 -0.10391581608E+02  0.12684746308E+02  0.00000000000E+00 0.  1.
<mgrwt>
<rscale>  0 0.65309698E+03</rscale>
<asrwt>0</asrwt>
<pdfrwt beam="1">  1        1 0.18468984E+00 0.65309698E+03</pdfrwt>
<pdfrwt beam="2">  1       -1 0.63937846E-01 0.65309698E+03</pdfrwt>
<totfact> 0.27602494E+01</totfact>
</mgrwt>
</event>
<event>
12    1  0.1418317E-007  0.1224569E+04  0.7818608E-02  0.9091619E-01
         -1   -1    0    0    0  501 -0.00000000000E+00  0.00000000000E+00  0.61381333309E+03  0.61381333309E+03  0.00000000000E+00 0.  1.
          1   -1    0    0  501    0  0.00000000000E+00 -0.00000000000E+00 -0.28888044830E+04  0.28888044830E+04  0.00000000000E+00 0. -1.
         23    2    1    2    0    0 -0.10960567984E+04  0.40962330659E+03 -0.45830313242E+03  0.12599754426E+04  0.91458166045E+02 0.  0.
    5000000    2    1    2    0    0  0.10960567984E+04 -0.40962330659E+03 -0.18166880175E+04  0.22426423735E+04  0.59996475214E+03 0.  0.
         23    2    4    4    0    0  0.79895627849E+03 -0.52440043147E+03 -0.11483689887E+04  0.14967602962E+04  0.90626169302E+02 0.  0.
         23    2    4    4    0    0  0.29710051992E+03  0.11477712487E+03 -0.66831902877E+03  0.74588207728E+03  0.90814325223E+02 0.  0.
          2    1    3    3  502    0 -0.72769856506E+03  0.23653364330E+03 -0.32925514868E+03  0.83300799452E+03  0.00000000000E+00 0. -1.
         -2    1    3    3    0  502 -0.36835823334E+03  0.17308966330E+03 -0.12904798374E+03  0.42696744808E+03  0.00000000000E+00 0.  1.
         11    1    5    5    0    0  0.28175783396E+03 -0.15624118451E+03 -0.44307212551E+03  0.54782450943E+03  0.00000000000E+00 0.  1.
        -11    1    5    5    0    0  0.51719844453E+03 -0.36815924696E+03 -0.70529686319E+03  0.94893578674E+03  0.00000000000E+00 0. -1.
          4    1    6    6  503    0  0.22616348447E+03  0.10091420298E+03 -0.42330304634E+03  0.49042743308E+03  0.00000000000E+00 0. -1.
         -4    1    6    6    0  503  0.70937035445E+02  0.13862921893E+02 -0.24501598243E+03  0.25545464421E+03  0.00000000000E+00 0.  1.
<mgrwt>
<rscale>  0 0.12245690E+04</rscale>
<asrwt>0</asrwt>
<pdfrwt beam="1">  1        1 0.44443146E+00 0.12245690E+04</pdfrwt>
<pdfrwt beam="2">  1       -1 0.94432820E-01 0.12245690E+04</pdfrwt>
<totfact> 0.77468462E-01</totfact>
</mgrwt>
</event>
<event>
12    1  0.1418317E-007  0.1089182E+04  0.7818608E-02  0.9215801E-01
          1   -1    0    0  501    0  0.00000000000E+00  0.00000000000E+00  0.11984238986E+04  0.11984238986E+04  0.00000000000E+00 0. -1.
         -1   -1    0    0    0  501 -0.00000000000E+00 -0.00000000000E+00 -0.13784836835E+04  0.13784836835E+04  0.00000000000E+00 0.  1.
         23    2    1    2    0    0  0.60380622347E+03  0.89355707213E+03  0.47233078469E+03  0.11807519972E+04  0.89736904640E+02 0.  0.
    5000000    2    1    2    0    0 -0.60380622347E+03 -0.89355707213E+03 -0.65239056962E+03  0.13961555850E+04  0.60050875550E+03 0.  0.
         23    2    4    4    0    0 -0.12356263200E+03 -0.18576173904E+03 -0.45404429084E+03  0.51384294598E+03  0.90017816995E+02 0.  0.
         23    2    4    4    0    0 -0.48024359147E+03 -0.70779533310E+03 -0.19834627878E+03  0.88231263898E+03  0.86753708227E+02 0.  0.
          1    1    3    3  502    0  0.24203172136E+03  0.28317353994E+03  0.15466681234E+03  0.40334653922E+03  0.00000000000E+00 0. -1.
         -1    1    3    3    0  502  0.36177450211E+03  0.61038353220E+03  0.31766397235E+03  0.77740545797E+03  0.00000000000E+00 0.  1.
         13    1    5    5    0    0  0.51697819621E+00 -0.70790895771E+02 -0.11749280507E+03  0.13717207235E+03  0.00000000000E+00 0. -1.
        -13    1    5    5    0    0 -0.12407961020E+03 -0.11497084326E+03 -0.33655148577E+03  0.37667087363E+03  0.00000000000E+00 0.  1.
          1    1    6    6  503    0 -0.36205441913E+03 -0.56424133068E+03 -0.12260071545E+03  0.68152961571E+03  0.00000000000E+00 0. -1.
         -1    1    6    6    0  503 -0.11818917234E+03 -0.14355400242E+03 -0.75745563333E+02  0.20078302327E+03  0.00000000000E+00 0.  1.
<mgrwt>
<rscale>  0 0.10891819E+04</rscale>
<asrwt>0</asrwt>
<pdfrwt beam="1">  1        1 0.18437291E+00 0.10891819E+04</pdfrwt>
<pdfrwt beam="2">  1       -1 0.21207441E+00 0.10891819E+04</pdfrwt>
<totfact> 0.13250688E+00</totfact>
</mgrwt>
</event>
<event>
12    1  0.1418317E-007  0.1668036E+04  0.7818608E-02  0.8779807E-01
         -2   -1    0    0    0  501 -0.00000000000E+00  0.00000000000E+00  0.64571936186E+03  0.64571936186E+03  0.00000000000E+00 0.  1.
          2   -1    0    0  501    0  0.00000000000E+00 -0.00000000000E+00 -0.55030342623E+04  0.55030342623E+04  0.00000000000E+00 0. -1.
         23    2    1    2    0    0  0.16653794038E+04  0.40044118475E+02 -0.11091992574E+04  0.20034688508E+04  0.92045387421E+02 0.  0.
    5000000    2    1    2    0    0 -0.16653794038E+04 -0.40044118475E+02 -0.37481156430E+04  0.41452847734E+04  0.59993573758E+03 0.  0.
         23    2    4    4    0    0 -0.14735914700E+04 -0.84432232188E+01 -0.35803041725E+04  0.38727731399E+04  0.90833459350E+02 0.  0.
         23    2    4    4    0    0 -0.19178793381E+03 -0.31600895257E+02 -0.16781147048E+03  0.27251163344E+03  0.91217720863E+02 0.  0.
          3    1    3    3  502    0  0.56711691929E+03 -0.25064183612E+02 -0.40180390227E+03  0.69548270239E+03  0.00000000000E+00 0. -1.
         -3    1    3    3    0  502  0.10982624845E+04  0.65108302087E+02 -0.70739535515E+03  0.13079861484E+04  0.00000000000E+00 0.  1.
         11    1    5    5    0    0 -0.85034690377E+03 -0.83354623817E+01 -0.21824079560E+04  0.23422347925E+04  0.00000000000E+00 0.  1.
        -11    1    5    5    0    0 -0.62324456618E+03 -0.10776083707E+00 -0.13978962165E+04  0.15305383475E+04  0.00000000000E+00 0. -1.
          1    1    6    6  503    0 -0.11760506597E+03 -0.14960299578E+02 -0.42499194245E+02  0.12594023828E+03  0.00000000000E+00 0. -1.
         -1    1    6    6    0  503 -0.74182867841E+02 -0.16640595678E+02 -0.12531227623E+03  0.14657139516E+03  0.00000000000E+00 0.  1.
<mgrwt>
<rscale>  0 0.16680363E+04</rscale>
<asrwt>0</asrwt>
<pdfrwt beam="1">  1        2 0.84662064E+00 0.16680363E+04</pdfrwt>
<pdfrwt beam="2">  1       -2 0.99341443E-01 0.16680363E+04</pdfrwt>
<totfact> 0.48978411E-03</totfact>
</mgrwt>
</event>
<event>
12    1  0.1418317E-007  0.8640318E+03  0.7818608E-02  0.9471695E-01
         -1   -1    0    0    0  501 -0.00000000000E+00  0.00000000000E+00  0.19302897662E+04  0.19302897662E+04  0.00000000000E+00 0.  1.
          1   -1    0    0  501    0  0.00000000000E+00 -0.00000000000E+00 -0.11480288491E+04  0.11480288491E+04  0.00000000000E+00 0. -1.
         23    2    1    2    0    0  0.80773023181E+03 -0.13259719030E+03  0.15837391920E+04  0.17850770716E+04  0.90885538492E+02 0.  0.
    5000000    2    1    2    0    0 -0.80773023181E+03  0.13259719030E+03 -0.80147827486E+03  0.12932415437E+04  0.60008009710E+03 0.  0.
         23    2    4    4    0    0 -0.48905693383E+02  0.92707833680E+02 -0.41016700383E+03  0.43367965358E+03  0.94098680286E+02 0.  0.
         23    2    4    4    0    0 -0.75882453842E+03  0.39889356620E+02 -0.39131127103E+03  0.85956189008E+03  0.91193701289E+02 0.  0.
          1    1    3    3  502    0  0.46946688856E+03 -0.37074219844E+02  0.95322124780E+03  0.10632047801E+04  0.00000000000E+00 0. -1.
         -1    1    3    3    0  502  0.33826334325E+03 -0.95522970455E+02  0.63051794422E+03  0.72187229151E+03  0.00000000000E+00 0.  1.
         13    1    5    5    0    0  0.28381785102E+02  0.23347772081E+02 -0.11916241814E+03  0.12470094660E+03  0.00000000000E+00 0.  1.
        -13    1    5    5    0    0 -0.77287478484E+02  0.69360061598E+02 -0.29100458569E+03  0.30897870698E+03  0.00000000000E+00 0. -1.
          1    1    6    6  503    0 -0.38768787470E+03  0.64830880035E+02 -0.21266549933E+03  0.44691335380E+03  0.00000000000E+00 0. -1.
         -1    1    6    6    0  503 -0.37113666372E+03 -0.24941523415E+02 -0.17864577169E+03  0.41264853628E+03  0.00000000000E+00 0.  1.
<mgrwt>
<rscale>  0 0.86403179E+03</rscale>
<asrwt>0</asrwt>
<pdfrwt beam="1">  1        1 0.17661982E+00 0.86403179E+03</pdfrwt>
<pdfrwt beam="2">  1       -1 0.29696766E+00 0.86403179E+03</pdfrwt>
<totfact> 0.41910146E-01</totfact>
</mgrwt>
</event>
<event>
12    1  0.1418317E-007  0.3056253E+03  0.7818608E-02  0.1082462E+00
          2   -1    0    0  501    0  0.00000000000E+00  0.00000000000E+00  0.15439577686E+04  0.15439577686E+04  0.00000000000E+00 0. -1.
         -2   -1    0    0    0  501 -0.00000000000E+00 -0.00000000000E+00 -0.17038643408E+03  0.17038643408E+03  0.00000000000E+00 0.  1.
         23    2    1    2    0    0 -0.77580138906E+02  0.19522062335E+03  0.35311833358E+02  0.23274819084E+03  0.93781794769E+02 0.  0.
    5000000    2    1    2    0    0  0.77580138906E+02 -0.19522062335E+03  0.13382595012E+04  0.14815960118E+04  0.60004873144E+03 0.  0.
         23    2    4    4    0    0  0.16667843721E+03 -0.22700747549E+03  0.25903367336E+03  0.39484844014E+03  0.97430751786E+02 0.  0.
         23    2    4    4    0    0 -0.89098298303E+02  0.31786852140E+02  0.10792258278E+04  0.10867475717E+04  0.85691227377E+02 0.  0.
          4    1    3    3  502    0 -0.84876353169E+02  0.11372391064E+03 -0.40217062428E+01  0.14196230943E+03  0.00000000000E+00 0.  1.
         -4    1    3    3    0  502  0.72962142638E+01  0.81496712705E+02  0.39333539601E+02  0.90785881402E+02  0.00000000000E+00 0. -1.
         13    1    5    5    0    0  0.14327282560E+02 -0.33577699304E+02 -0.12866431905E+01  0.36529280951E+02  0.00000000000E+00 0.  1.
        -13    1    5    5    0    0  0.15235115465E+03 -0.19342977618E+03  0.26032031655E+03  0.35831915919E+03  0.00000000000E+00 0. -1.
          1    1    6    6  503    0 -0.46354734405E+02  0.40047335704E+02  0.29390940742E+03  0.30022539910E+03  0.00000000000E+00 0. -1.
         -1    1    6    6    0  503 -0.42743563898E+02 -0.82604835635E+01  0.78531642038E+03  0.78652217258E+03  0.00000000000E+00 0.  1.
<mgrwt>
<rscale>  0 0.30562525E+03</rscale>
<asrwt>0</asrwt>
<pdfrwt beam="1">  1        2 0.23753195E+00 0.30562525E+03</pdfrwt>
<pdfrwt beam="2">  1       -2 0.26213299E-01 0.30562525E+03</pdfrwt>
<totfact> 0.16919617E+02</totfact>
</mgrwt>
</event>
<event>
12    1  0.1418317E-007  0.1915158E+03  0.7818608E-02  0.1157101E+00
         -1   -1    0    0    0  501 -0.00000000000E+00  0.00000000000E+00  0.12205599906E+04  0.12205599906E+04  0.00000000000E+00 0.  1.
          1   -1    0    0  501    0  0.00000000000E+00 -0.00000000000E+00 -0.18757176715E+03  0.18757176715E+03  0.00000000000E+00 0. -1.
         23    2    1    2    0    0  0.14561364494E+03  0.77760110506E+00  0.66965531777E+03  0.69166979880E+03  0.93621192574E+02 0.  0.
    5000000    2    1    2    0    0 -0.14561364494E+03 -0.77760110506E+00  0.36333290570E+03  0.71646195897E+03  0.60008582722E+03 0.  0.
         23    2    4    4    0    0 -0.10445885810E+03  0.11081065205E+02  0.51551283240E+03  0.53397825237E+03  0.91350153762E+02 0.  0.
         23    2    4    4    0    0 -0.41154786836E+02 -0.11858666310E+02 -0.15217992671E+03  0.18248370659E+03  0.91143999434E+02 0.  0.
          2    1    3    3  502    0  0.78137715141E+02  0.14676995884E+02  0.53017742042E+03  0.53610541301E+03  0.00000000000E+00 0. -1.
         -2    1    3    3    0  502  0.67475929795E+02 -0.13899394779E+02  0.13947789735E+03  0.15556438579E+03  0.00000000000E+00 0.  1.
         11    1    5    5    0    0 -0.61836171026E+02  0.50157632114E+02  0.33944947552E+03  0.34866236754E+03  0.00000000000E+00 0. -1.
        -11    1    5    5    0    0 -0.42622687074E+02 -0.39076566909E+02  0.17606335688E+03  0.18531588483E+03  0.00000000000E+00 0.  1.
          4    1    6    6  503    0  0.20779311819E+02  0.18854144717E+02 -0.67961534648E+02  0.73525701387E+02  0.00000000000E+00 0. -1.
         -4    1    6    6    0  503 -0.61934098655E+02 -0.30712811027E+02 -0.84218392059E+02  0.10895800521E+03  0.00000000000E+00 0.  1.
<mgrwt>
<rscale>  0 0.19151576E+03</rscale>
<asrwt>0</asrwt>
<pdfrwt beam="1">  1        1 0.28857196E-01 0.19151576E+03</pdfrwt>
<pdfrwt beam="2">  1       -1 0.18777846E+00 0.19151576E+03</pdfrwt>
<totfact> 0.33163015E+01</totfact>
</mgrwt>
</event>
<event>
12    1  0.1650255E-007  0.1118623E+04  0.7818608E-02  0.9187228E-01
          2   -1    0    0  501    0  0.00000000000E+00  0.00000000000E+00  0.24335749174E+04  0.24335749174E+04  0.00000000000E+00 0.  1.
         -2   -1    0    0    0  501 -0.00000000000E+00 -0.00000000000E+00 -0.83876071068E+03  0.83876071068E+03  0.00000000000E+00 0. -1.
         23    2    1    2    0    0  0.58493580563E+03  0.93598725771E+03  0.16804299356E+04  0.20127523848E+04  0.95421961639E+02 0.  0.
    5000000    2    1    2    0    0 -0.58493580563E+03 -0.93598725771E+03 -0.85615728811E+02  0.12595832433E+04  0.60083096672E+03 0.  0.
         23    2    4    4    0    0 -0.27926990030E+03 -0.26724422083E+03 -0.28880830691E+03  0.49157316847E+03  0.93929713282E+02 0.  0.
         23    2    4    4    0    0 -0.30566590534E+03 -0.66874303688E+03  0.20319257810E+03  0.76801007487E+03  0.88900822521E+02 0.  0.
          1    1    3    3  502    0  0.26514024388E+03  0.49985662306E+03  0.90620043921E+03  0.10683422806E+04  0.00000000000E+00 0. -1.
         -1    1    3    3    0  502  0.31979556175E+03  0.43613063465E+03  0.77422949635E+03  0.94441010414E+03  0.00000000000E+00 0.  1.
         11    1    5    5    0    0 -0.10226781826E+03 -0.51152160781E+02 -0.53068702537E+02  0.12606164125E+03  0.00000000000E+00 0. -1.
        -11    1    5    5    0    0 -0.17700208203E+03 -0.21609206005E+03 -0.23573960438E+03  0.36551152722E+03  0.00000000000E+00 0.  1.
          4    1    6    6  503    0 -0.19554006155E+03 -0.48172443610E+03  0.10789721256E+03  0.53097660635E+03  0.00000000000E+00 0. -1.
         -4    1    6    6    0  503 -0.11012584378E+03 -0.18701860077E+03  0.95295365540E+02  0.23703346852E+03  0.00000000000E+00 0.  1.
<mgrwt>
<rscale>  0 0.11186232E+04</rscale>
<asrwt>0</asrwt>
<pdfrwt beam="1">  1        2 0.37439614E+00 0.11186232E+04</pdfrwt>
<pdfrwt beam="2">  1       -2 0.12904011E+00 0.11186232E+04</pdfrwt>
<totfact> 0.16643832E+00</totfact>
</mgrwt>
</event>
<event>
12    1  0.1418317E-007  0.1666859E+04  0.7818608E-02  0.8780495E-01
          2   -1    0    0  501    0  0.00000000000E+00  0.00000000000E+00  0.30332754363E+04  0.30332754363E+04  0.00000000000E+00 0. -1.
         -2   -1    0    0    0  501 -0.00000000000E+00 -0.00000000000E+00 -0.16308139041E+04  0.16308139041E+04  0.00000000000E+00 0.  1.
         23    2    1    2    0    0  0.15982582045E+04 -0.44561272039E+03 -0.79824479684E+03  0.18435040197E+04  0.91171981108E+02 0.  0.
    5000000    2    1    2    0    0 -0.15982582045E+04  0.44561272039E+03  0.22007063291E+04  0.28205853207E+04  0.59966092068E+03 0.  0.
         23    2    4    4    0    0 -0.56582098527E+03  0.22123688919E+03  0.12636840370E+04  0.14052927773E+04  0.94081326980E+02 0.  0.
         23    2    4    4    0    0 -0.10324372193E+04  0.22437583121E+03  0.93702229207E+03  0.14152925434E+04  0.93654056388E+02 0.  0.
          3    1    3    3  502    0  0.62749065364E+03 -0.13153949369E+03 -0.29157476719E+03  0.70431740265E+03  0.00000000000E+00 0. -1.
         -3    1    3    3    0  502  0.97076755089E+03 -0.31407322670E+03 -0.50667002965E+03  0.11391866171E+04  0.00000000000E+00 0.  1.
         11    1    5    5    0    0 -0.32715948562E+03  0.17466615456E+03  0.79682397342E+03  0.87890274729E+03  0.00000000000E+00 0. -1.
        -11    1    5    5    0    0 -0.23866149965E+03  0.46570734632E+02  0.46686006359E+03  0.52639003003E+03  0.00000000000E+00 0.  1.
          3    1    6    6  503    0 -0.39423392219E+03  0.11569760170E+03  0.41093275944E+03  0.58109556290E+03  0.00000000000E+00 0. -1.
         -3    1    6    6    0  503 -0.63820329707E+03  0.10867822951E+03  0.52608953263E+03  0.83419698051E+03  0.00000000000E+00 0.  1.
<mgrwt>
<rscale>  0 0.16668594E+04</rscale>
<asrwt>0</asrwt>
<pdfrwt beam="1">  1        2 0.46665776E+00 0.16668594E+04</pdfrwt>
<pdfrwt beam="2">  1       -2 0.25089445E+00 0.16668594E+04</pdfrwt>
<totfact> 0.96975453E-02</totfact>
</mgrwt>
</event>
<event>
12    1  0.1418317E-007  0.1307209E+04  0.7818608E-02  0.9023868E-01
         -1   -1    0    0    0  501 -0.00000000000E+00  0.00000000000E+00  0.12985923513E+04  0.12985923513E+04  0.00000000000E+00 0.  1.
          1   -1    0    0  501    0  0.00000000000E+00 -0.00000000000E+00 -0.13868630026E+04  0.13868630026E+04  0.00000000000E+00 0. -1.
         23    2    1    2    0    0  0.66228525531E+03 -0.10827340516E+04  0.55858385879E+02  0.12740299384E+04  0.95379971306E+02 0.  0.
    5000000    2    1    2    0    0 -0.66228525531E+03  0.10827340516E+04 -0.14412903719E+03  0.14114254154E+04  0.60034468281E+03 0.  0.
         23    2    4    4    0    0 -0.45606253770E+03  0.10326771218E+04  0.13294370515E+02  0.11325666986E+04  0.90086127512E+02 0.  0.
         23    2    4    4    0    0 -0.20622271761E+03  0.50056929766E+02 -0.15742340771E+03  0.27885871681E+03  0.89143419128E+02 0.  0.
          3    1    3    3  502    0  0.38875970288E+03 -0.54457721398E+03  0.33151462279E+02  0.66992347923E+03  0.00000000000E+00 0. -1.
         -3    1    3    3    0  502  0.27352555243E+03 -0.53815683759E+03  0.22706923600E+02  0.60410645921E+03  0.00000000000E+00 0.  1.
         13    1    5    5    0    0 -0.24565029082E+03  0.53041058285E+03  0.50673576032E+02  0.58672588411E+03  0.00000000000E+00 0.  1.
        -13    1    5    5    0    0 -0.21041224689E+03  0.50226653895E+03 -0.37379205517E+02  0.54584081452E+03  0.00000000000E+00 0. -1.
          1    1    6    6  503    0 -0.89960833551E+02  0.15796224706E+02 -0.16213488553E+02  0.92765023038E+02  0.00000000000E+00 0. -1.
         -1    1    6    6    0  503 -0.11626188406E+03  0.34260705060E+02 -0.14120991916E+03  0.18609369378E+03  0.00000000000E+00 0.  1.
<mgrwt>
<rscale>  0 0.13072086E+04</rscale>
<asrwt>0</asrwt>
<pdfrwt beam="1">  1        1 0.21336354E+00 0.13072086E+04</pdfrwt>
<pdfrwt beam="2">  1       -1 0.19978344E+00 0.13072086E+04</pdfrwt>
<totfact> 0.11470397E+00</totfact>
</mgrwt>
</event>
<event>
12    1  0.1418317E-007  0.8553672E+03  0.7818608E-02  0.9483161E-01
         -2   -1    0    0    0  501 -0.00000000000E+00  0.00000000000E+00  0.89097273430E+03  0.89097273430E+03  0.00000000000E+00 0. -1.
          2   -1    0    0  501    0  0.00000000000E+00 -0.00000000000E+00 -0.98808288765E+03  0.98808288765E+03  0.00000000000E+00 0.  1.
         23    2    1    2    0    0  0.73125408583E+03  0.31166657703E+03 -0.31195304618E+03  0.85944622582E+03  0.97285758298E+02 0.  0.
    5000000    2    1    2    0    0 -0.73125408583E+03 -0.31166657703E+03  0.21484289283E+03  0.10196093961E+04  0.60131294581E+03 0.  0.
         23    2    4    4    0    0 -0.64481237156E+03 -0.77433823112E+02  0.32635063084E+03  0.73247659482E+03  0.90764730070E+02 0.  0.
         23    2    4    4    0    0 -0.86441714268E+02 -0.23423275392E+03 -0.11150773801E+03  0.28713280132E+03  0.87602037551E+02 0.  0.
          2    1    3    3  502    0  0.48650119026E+03  0.20168914695E+03 -0.15682729862E+03  0.54950588870E+03  0.00000000000E+00 0. -1.
         -2    1    3    3    0  502  0.24475289557E+03  0.10997743008E+03 -0.15512574756E+03  0.30994033712E+03  0.00000000000E+00 0.  1.
         11    1    5    5    0    0 -0.35895559398E+03 -0.88117297994E+02  0.17802597587E+03  0.41025239151E+03  0.00000000000E+00 0.  1.
        -11    1    5    5    0    0 -0.28585677758E+03  0.10683474882E+02  0.14832465497E+03  0.32222420330E+03  0.00000000000E+00 0. -1.
          3    1    6    6  503    0 -0.95434821783E+02 -0.16773489193E+03 -0.10504039634E+03  0.21971864746E+03  0.00000000000E+00 0. -1.
         -3    1    6    6    0  503  0.89931075152E+01 -0.66497861989E+02 -0.64673416704E+01  0.67414153856E+02  0.00000000000E+00 0.  1.
<mgrwt>
<rscale>  0 0.85536722E+03</rscale>
<asrwt>0</asrwt>
<pdfrwt beam="1">  1        2 0.15201275E+00 0.85536722E+03</pdfrwt>
<pdfrwt beam="2">  1       -2 0.13707273E+00 0.85536722E+03</pdfrwt>
<totfact> 0.97813245E+00</totfact>
</mgrwt>
</event>
<event>
12    1  0.1418317E-007  0.2913482E+03  0.7818608E-02  0.1089647E+00
          1   -1    0    0  501    0  0.00000000000E+00  0.00000000000E+00  0.11024756407E+04  0.11024756407E+04  0.00000000000E+00 0. -1.
         -1   -1    0    0    0  501 -0.00000000000E+00 -0.00000000000E+00 -0.14434528127E+03  0.14434528127E+03  0.00000000000E+00 0.  1.
         23    2    1    2    0    0 -0.25495394439E+02  0.83131265634E+02  0.41148855949E+03  0.43068444802E+03  0.92765493131E+02 0.  0.
    5000000    2    1    2    0    0  0.25495394439E+02 -0.83131265634E+02  0.54664179998E+03  0.81613647398E+03  0.59975050164E+03 0.  0.
         23    2    4    4    0    0 -0.17765338017E+03  0.85213224424E+02  0.48189702134E+03  0.52855638719E+03  0.91241975865E+02 0.  0.
         23    2    4    4    0    0  0.20314877461E+03 -0.16834449006E+03  0.64744778642E+02  0.28758008680E+03  0.94345789538E+02 0.  0.
          4    1    3    3  502    0 -0.11579779691E+02  0.79661882379E+02  0.40807919533E+03  0.41594318899E+03  0.00000000000E+00 0. -1.
         -4    1    3    3    0  502 -0.13915614748E+02  0.34693832551E+01  0.34093641550E+01  0.14741259035E+02  0.00000000000E+00 0.  1.
         11    1    5    5    0    0 -0.17636136828E+03  0.52129833241E+02  0.40184845174E+03  0.44193102391E+03  0.00000000000E+00 0. -1.
        -11    1    5    5    0    0 -0.12920118903E+01  0.33083391183E+02  0.80048569600E+02  0.86625363272E+02  0.00000000000E+00 0.  1.
          4    1    6    6  503    0  0.18515861977E+02 -0.45375366076E+02  0.42071968221E+02  0.64589561861E+02  0.00000000000E+00 0. -1.
         -4    1    6    6    0  503  0.18463291263E+03 -0.12296912398E+03  0.22672810420E+02  0.22299052494E+03  0.00000000000E+00 0.  1.
<mgrwt>
<rscale>  0 0.29134821E+03</rscale>
<asrwt>0</asrwt>
<pdfrwt beam="1">  1        1 0.16961163E+00 0.29134821E+03</pdfrwt>
<pdfrwt beam="2">  1       -1 0.22206967E-01 0.29134821E+03</pdfrwt>
<totfact> 0.22914784E+02</totfact>
</mgrwt>
</event>
<event>
12    1  0.1418317E-007  0.4868336E+03  0.7818608E-02  0.1017274E+00
          2   -1    0    0  501    0  0.00000000000E+00  0.00000000000E+00  0.32740852012E+04  0.32740852012E+04  0.00000000000E+00 0.  1.
         -2   -1    0    0    0  501 -0.00000000000E+00 -0.00000000000E+00 -0.20414803503E+03  0.20414803503E+03  0.00000000000E+00 0. -1.
         23    2    1    2    0    0  0.37516964315E+03  0.27021651555E+03  0.20351648202E+03  0.51343366620E+03  0.91792944793E+02 0.  0.
    5000000    2    1    2    0    0 -0.37516964315E+03 -0.27021651555E+03  0.28664206841E+04  0.29647995700E+04  0.59991643217E+03 0.  0.
         23    2    4    4    0    0 -0.74357176353E+02 -0.93768377798E+02  0.22163910471E+04  0.22214550223E+04  0.90286456867E+02 0.  0.
         23    2    4    4    0    0 -0.30081246679E+03 -0.17644813775E+03  0.65002963703E+03  0.74334454768E+03  0.91654252767E+02 0.  0.
          4    1    3    3  502    0  0.16735139859E+03  0.14669187245E+03  0.53394742863E+02  0.22885802284E+03  0.00000000000E+00 0. -1.
         -4    1    3    3    0  502  0.20781824455E+03  0.12352464311E+03  0.15012173916E+03  0.28457564336E+03  0.00000000000E+00 0.  1.
         13    1    5    5    0    0 -0.61447583591E+02 -0.11130379334E+03  0.17909633239E+04  0.17954704029E+04  0.00000000000E+00 0. -1.
        -13    1    5    5    0    0 -0.12909592763E+02  0.17535415546E+02  0.42542772316E+03  0.42598461946E+03  0.00000000000E+00 0.  1.
          1    1    6    6  503    0 -0.17492048357E+03 -0.15300860035E+03  0.42869234022E+03  0.48763298690E+03  0.00000000000E+00 0. -1.
         -1    1    6    6    0  503 -0.12589198323E+03 -0.23439537398E+02  0.22133729681E+03  0.25571156077E+03  0.00000000000E+00 0.  1.
<mgrwt>
<rscale>  0 0.48683360E+03</rscale>
<asrwt>0</asrwt>
<pdfrwt beam="1">  1        2 0.50370538E+00 0.48683360E+03</pdfrwt>
<pdfrwt beam="2">  1       -2 0.31407392E-01 0.48683360E+03</pdfrwt>
<totfact> 0.12400438E+01</totfact>
</mgrwt>
</event>
<event>
12    1  0.1418317E-007  0.4458344E+03  0.7818608E-02  0.1028972E+00
         -2   -1    0    0    0  501 -0.00000000000E+00  0.00000000000E+00  0.14935154845E+03  0.14935154845E+03  0.00000000000E+00 0.  1.
          2   -1    0    0  501    0  0.00000000000E+00 -0.00000000000E+00 -0.17510183513E+04  0.17510183513E+04  0.00000000000E+00 0. -1.
         23    2    1    2    0    0 -0.25144558684E+03 -0.13699580347E+03 -0.23409932276E+03  0.37978435613E+03  0.86260830840E+02 0.  0.
    5000000    2    1    2    0    0  0.25144558684E+03  0.13699580347E+03 -0.13675674801E+04  0.15205855437E+04  0.59995570634E+03 0.  0.
         23    2    4    4    0    0  0.25141699799E+03 -0.14731119648E+03 -0.10076674442E+04  0.10528960207E+04  0.91023386167E+02 0.  0.
         23    2    4    4    0    0  0.28588850611E-01  0.28430699995E+03 -0.35990003593E+03  0.46768952295E+03  0.91514933113E+02 0.  0.
          3    1    3    3  502    0 -0.23826582881E+03 -0.98248747273E+02 -0.20855382059E+03  0.33153901370E+03  0.00000000000E+00 0. -1.
         -3    1    3    3    0  502 -0.13179758026E+02 -0.38747056197E+02 -0.25545502162E+02  0.48245342431E+02  0.00000000000E+00 0.  1.
         13    1    5    5    0    0  0.19809251491E+03 -0.14931253432E+03 -0.75685879099E+03  0.79647354436E+03  0.00000000000E+00 0. -1.
        -13    1    5    5    0    0  0.53324483078E+02  0.20013378426E+01 -0.25080865323E+03  0.25642247637E+03  0.00000000000E+00 0.  1.
          1    1    6    6  503    0 -0.32124570779E+02  0.15990159144E+03 -0.15002056715E+03  0.22160026526E+03  0.00000000000E+00 0. -1.
         -1    1    6    6    0  503  0.32153159630E+02  0.12440540850E+03 -0.20987946877E+03  0.24608925769E+03  0.00000000000E+00 0.  1.
<mgrwt>
<rscale>  0 0.44583444E+03</rscale>
<asrwt>0</asrwt>
<pdfrwt beam="1">  1        2 0.26938743E+00 0.44583444E+03</pdfrwt>
<pdfrwt beam="2">  1       -2 0.22977162E-01 0.44583444E+03</pdfrwt>
<totfact> 0.16176414E+02</totfact>
</mgrwt>
</event>
<event>
12    1  0.1418317E-007  0.1420648E+04  0.7818608E-02  0.8939007E-01
         -1   -1    0    0    0  501 -0.00000000000E+00  0.00000000000E+00  0.91556403393E+03  0.91556403393E+03  0.00000000000E+00 0.  1.
          1   -1    0    0  501    0  0.00000000000E+00 -0.00000000000E+00 -0.23252817296E+04  0.23252817296E+04  0.00000000000E+00 0. -1.
         23    2    1    2    0    0 -0.59324390466E+03  0.12596014453E+04 -0.78610107544E+03  0.16014351973E+04  0.90031433395E+02 0.  0.
    5000000    2    1    2    0    0  0.59324390466E+03 -0.12596014453E+04 -0.62361662017E+03  0.16394105662E+04  0.60019595474E+03 0.  0.
         23    2    4    4    0    0  0.28483997094E+03 -0.98404333095E+03 -0.64711377561E+03  0.12150572791E+04  0.90182407866E+02 0.  0.
         23    2    4    4    0    0  0.30840393372E+03 -0.27555811434E+03  0.23497155432E+02  0.42435328706E+03  0.92077875799E+02 0.  0.
          4    1    3    3  502    0 -0.37182344025E+03  0.88492122089E+03 -0.53027043186E+03  0.10965969947E+04  0.00000000000E+00 0. -1.
         -4    1    3    3    0  502 -0.22142046441E+03  0.37468022441E+03 -0.25583064358E+03  0.50483820261E+03  0.00000000000E+00 0.  1.
         13    1    5    5    0    0  0.88284433191E+02 -0.27269002087E+03 -0.22873752733E+03  0.36670811968E+03  0.00000000000E+00 0. -1.
        -13    1    5    5    0    0  0.19655553775E+03 -0.71135331008E+03 -0.41837624828E+03  0.84834915943E+03  0.00000000000E+00 0.  1.
          2    1    6    6  503    0  0.13487280868E+03 -0.68017394097E+02  0.28788946480E+02  0.15377205163E+03  0.00000000000E+00 0. -1.
         -2    1    6    6    0  503  0.17353112503E+03 -0.20754072025E+03 -0.52917910476E+01  0.27058123543E+03  0.00000000000E+00 0.  1.
<mgrwt>
<rscale>  0 0.14206479E+04</rscale>
<asrwt>0</asrwt>
<pdfrwt beam="1">  1        1 0.35773565E+00 0.14206479E+04</pdfrwt>
<pdfrwt beam="2">  1       -1 0.14085601E+00 0.14206479E+04</pdfrwt>
<totfact> 0.70755762E-01</totfact>
</mgrwt>
</event>
<event>
12    1  0.1418317E-007  0.8397405E+03  0.7818608E-02  0.9504211E-01
          2   -1    0    0  501    0  0.00000000000E+00  0.00000000000E+00  0.12210702220E+04  0.12210702220E+04  0.00000000000E+00 0.  1.
         -2   -1    0    0    0  501 -0.00000000000E+00 -0.00000000000E+00 -0.66518159379E+03  0.66518159379E+03  0.00000000000E+00 0. -1.
         23    2    1    2    0    0  0.73676867443E+03  0.41996547773E+02 -0.71261584877E+02  0.74698203899E+03  0.91171066933E+02 0.  0.
    5000000    2    1    2    0    0 -0.73676867443E+03 -0.41996547773E+02  0.62715021304E+03  0.11392697767E+04  0.60002203696E+03 0.  0.
         23    2    4    4    0    0 -0.28335390189E+03 -0.29892166597E+03  0.27432997791E+03  0.50312066342E+03  0.90718625857E+02 0.  0.
         23    2    4    4    0    0 -0.45341477255E+03  0.25692511819E+03  0.35282023513E+03  0.63614911333E+03  0.92779867162E+02 0.  0.
          1    1    3    3  502    0  0.20126184224E+03  0.42791949107E+02 -0.46228041136E+02  0.21088980970E+03  0.00000000000E+00 0. -1.
         -1    1    3    3    0  502  0.53550683220E+03 -0.79540133363E+00 -0.25033543741E+02  0.53609222929E+03  0.00000000000E+00 0.  1.
         13    1    5    5    0    0 -0.23304152354E+03 -0.26890564199E+03  0.19903255586E+03  0.40771626688E+03  0.00000000000E+00 0. -1.
        -13    1    5    5    0    0 -0.50312378347E+02 -0.30016023973E+02  0.75297422053E+02  0.95404396533E+02  0.00000000000E+00 0.  1.
          3    1    6    6  503    0 -0.20021297927E+03  0.14360192377E+03  0.12031911061E+03  0.27419598458E+03  0.00000000000E+00 0. -1.
         -3    1    6    6    0  503 -0.25320179328E+03  0.11332319442E+03  0.23250112452E+03  0.36195312875E+03  0.00000000000E+00 0.  1.
<mgrwt>
<rscale>  0 0.83974050E+03</rscale>
<asrwt>0</asrwt>
<pdfrwt beam="1">  1        2 0.18785696E+00 0.83974050E+03</pdfrwt>
<pdfrwt beam="2">  1       -2 0.10233563E+00 0.83974050E+03</pdfrwt>
<totfact> 0.14521734E+01</totfact>
</mgrwt>
</event>
<event>
12    1  0.1418317E-007  0.1059818E+04  0.7818608E-02  0.9245266E-01
          4   -1    0    0  501    0  0.00000000000E+00  0.00000000000E+00  0.28733219485E+04  0.28733219485E+04  0.00000000000E+00 0. -1.
         -4   -1    0    0    0  501 -0.00000000000E+00 -0.00000000000E+00 -0.44311717120E+03  0.44311717120E+03  0.00000000000E+00 0.  1.
         23    2    1    2    0    0  0.76569530582E+03  0.70051257673E+03  0.13297174487E+04  0.16891901070E+04  0.90595544517E+02 0.  0.
    5000000    2    1    2    0    0 -0.76569530582E+03 -0.70051257673E+03  0.11004873285E+04  0.16272490127E+04  0.59988316978E+03 0.  0.
         23    2    4    4    0    0 -0.51685639150E+02 -0.40055265053E+02 -0.44752057462E+02  0.12202471692E+03  0.92797927459E+02 0.  0.
         23    2    4    4    0    0 -0.71400966667E+03 -0.66045731168E+03  0.11452393860E+04  0.15052242957E+04  0.90073661791E+02 0.  0.
          3    1    3    3  502    0  0.84265711951E+01  0.13016639118E+02  0.66244638617E+01  0.16861895430E+02  0.00000000000E+00 0. -1.
         -3    1    3    3    0  502  0.75726873462E+03  0.68749593761E+03  0.13230929849E+04  0.16723282116E+04  0.00000000000E+00 0.  1.
         13    1    5    5    0    0  0.80506469935E+00  0.22893147134E+02  0.83300895838E+01  0.24374878612E+02  0.00000000000E+00 0.  1.
        -13    1    5    5    0    0 -0.52490703849E+02 -0.62948412187E+02 -0.53082147046E+02  0.97649838312E+02  0.00000000000E+00 0. -1.
          3    1    6    6  503    0 -0.43538872609E+03 -0.45895665059E+03  0.76047537034E+03  0.98920540780E+03  0.00000000000E+00 0. -1.
         -3    1    6    6    0  503 -0.27862094058E+03 -0.20150066108E+03  0.38476401566E+03  0.51601888792E+03  0.00000000000E+00 0.  1.
<mgrwt>
<rscale>  0 0.10598176E+04</rscale>
<asrwt>0</asrwt>
<pdfrwt beam="1">  1        4 0.44204952E+00 0.10598176E+04</pdfrwt>
<pdfrwt beam="2">  1       -4 0.68171874E-01 0.10598176E+04</pdfrwt>
<totfact> 0.13451027E-02</totfact>
</mgrwt>
</event>
<event>
12    1  0.1418317E-007  0.1683862E+03  0.7818608E-02  0.1179541E+00
          1   -1    0    0  501    0  0.00000000000E+00  0.00000000000E+00  0.13465404537E+03  0.13465404537E+03  0.00000000000E+00 0. -1.
         -1   -1    0    0    0  501 -0.00000000000E+00 -0.00000000000E+00 -0.98013863313E+03  0.98013863313E+03  0.00000000000E+00 0.  1.
         23    2    1    2    0    0 -0.71425158337E+02 -0.32832261449E+02 -0.12067363794E+03  0.17058708206E+03  0.91423820936E+02 0.  0.
    5000000    2    1    2    0    0  0.71425158337E+02  0.32832261449E+02 -0.72481094982E+03  0.94420559645E+03  0.59999482061E+03 0.  0.
         23    2    4    4    0    0  0.80899503452E+02  0.60767963165E+00 -0.80724326442E+03  0.81730573237E+03  0.99004410390E+02 0.  0.
         23    2    4    4    0    0 -0.94743451150E+01  0.32224581817E+02  0.82432314604E+02  0.12689986408E+03  0.90445022660E+02 0.  0.
          1    1    3    3  502    0 -0.83468801373E+02 -0.57740627017E+01 -0.11185405462E+03  0.13968432317E+03  0.00000000000E+00 0. -1.
         -1    1    3    3    0  502  0.12043643036E+02 -0.27058198747E+02 -0.88195833190E+01  0.30902758889E+02  0.00000000000E+00 0.  1.
         13    1    5    5    0    0  0.51085114219E+02  0.49144237402E+02 -0.45179877826E+03  0.45732590239E+03  0.00000000000E+00 0.  1.
        -13    1    5    5    0    0  0.29814389232E+02 -0.48536557770E+02 -0.35544448616E+03  0.35997982998E+03  0.00000000000E+00 0. -1.
          1    1    6    6  503    0  0.14589573540E+02 -0.27564890634E+02  0.19277516654E+02  0.36664717374E+02  0.00000000000E+00 0. -1.
         -1    1    6    6    0  503 -0.24063918655E+02  0.59789472451E+02  0.63154797950E+02  0.90235146706E+02  0.00000000000E+00 0.  1.
<mgrwt>
<rscale>  0 0.16838616E+03</rscale>
<asrwt>0</asrwt>
<pdfrwt beam="1">  1        1 0.20716007E-01 0.16838616E+03</pdfrwt>
<pdfrwt beam="2">  1       -1 0.15079056E+00 0.16838616E+03</pdfrwt>
<totfact> 0.93189403E+01</totfact>
</mgrwt>
</event>
<event>
12    1  0.1502549E-007  0.1764121E+04  0.7818608E-02  0.8725616E-01
         -1   -1    0    0    0  501 -0.00000000000E+00  0.00000000000E+00  0.20138927065E+04  0.20138927065E+04  0.00000000000E+00 0.  1.
          1   -1    0    0  501    0  0.00000000000E+00 -0.00000000000E+00 -0.20693286418E+04  0.20693286418E+04  0.00000000000E+00 0. -1.
         23    2    1    2    0    0  0.13170716050E+04  0.11028543266E+04 -0.10441649553E+04  0.20123158255E+04  0.90383898180E+02 0.  0.
    5000000    2    1    2    0    0 -0.13170716050E+04 -0.11028543266E+04  0.98872901995E+03  0.20709055229E+04  0.60008277039E+03 0.  0.
         23    2    4    4    0    0 -0.11363072902E+04 -0.63782056580E+03  0.63379063642E+03  0.14520132382E+04  0.92965267816E+02 0.  0.
         23    2    4    4    0    0 -0.18076431480E+03 -0.46503376084E+03  0.35493838353E+03  0.61889228473E+03  0.90079230511E+02 0.  0.
          4    1    3    3  502    0  0.59456848920E+03  0.53571930605E+03 -0.52660001375E+03  0.95802632412E+03  0.00000000000E+00 0. -1.
         -4    1    3    3    0  502  0.72250311583E+03  0.56713502059E+03 -0.51756494152E+03  0.10542895013E+04  0.00000000000E+00 0.  1.
         13    1    5    5    0    0 -0.49420438838E+03 -0.31483011424E+03  0.32113157178E+03  0.66819268532E+03  0.00000000000E+00 0. -1.
        -13    1    5    5    0    0 -0.64210290184E+03 -0.32299045156E+03  0.31265906464E+03  0.78382055284E+03  0.00000000000E+00 0.  1.
          3    1    6    6  503    0 -0.11432275769E+03 -0.18996244381E+03  0.18537967976E+03  0.28900008417E+03  0.00000000000E+00 0. -1.
         -3    1    6    6    0  503 -0.66441557107E+02 -0.27507131703E+03  0.16955870377E+03  0.32989220056E+03  0.00000000000E+00 0.  1.
<mgrwt>
<rscale>  0 0.17641213E+04</rscale>
<asrwt>0</asrwt>
<pdfrwt beam="1">  1        1 0.31835825E+00 0.17641213E+04</pdfrwt>
<pdfrwt beam="2">  1       -1 0.30982965E+00 0.17641213E+04</pdfrwt>
<totfact> 0.69620806E-02</totfact>
</mgrwt>
</event>
<event>
12    1  0.1418317E-007  0.1149932E+04  0.7818608E-02  0.9157847E-01
          2   -1    0    0  501    0  0.00000000000E+00  0.00000000000E+00  0.93988250388E+03  0.93988250388E+03  0.00000000000E+00 0.  1.
         -2   -1    0    0    0  501 -0.00000000000E+00 -0.00000000000E+00 -0.15892290649E+04  0.15892290649E+04  0.00000000000E+00 0. -1.
         23    2    1    2    0    0 -0.40779554530E+03 -0.10693281178E+04 -0.22949086630E+03  0.11705191722E+04  0.87688338149E+02 0.  0.
    5000000    2    1    2    0    0  0.40779554530E+03  0.10693281178E+04 -0.41985569474E+03  0.13585923966E+04  0.59977884705E+03 0.  0.
         23    2    4    4    0    0  0.73947734524E+02  0.24888448281E+03  0.13568437069E+03  0.30794417056E+03  0.94908432224E+02 0.  0.
         23    2    4    4    0    0  0.33384781077E+03  0.82044363495E+03 -0.55554006543E+03  0.10506482260E+04  0.10322214685E+03 0.  0.
          3    1    3    3  502    0 -0.27425190774E+03 -0.66727102912E+03 -0.10559663382E+03  0.72911959532E+03  0.00000000000E+00 0. -1.
         -3    1    3    3    0  502 -0.13354363756E+03 -0.40205708864E+03 -0.12389423247E+03  0.44139957691E+03  0.00000000000E+00 0.  1.
         13    1    5    5    0    0  0.62992139601E+02  0.13496669967E+03  0.12229996337E+03  0.19272078433E+03  0.00000000000E+00 0.  1.
        -13    1    5    5    0    0  0.10955594923E+02  0.11391778314E+03  0.13384407319E+02  0.11522338623E+03  0.00000000000E+00 0. -1.
          3    1    6    6  503    0  0.70632599493E+02  0.29960100188E+03 -0.17749073234E+03  0.35532053769E+03  0.00000000000E+00 0. -1.
         -3    1    6    6    0  503  0.26321521128E+03  0.52084263308E+03 -0.37804933309E+03  0.69532768831E+03  0.00000000000E+00 0.  1.
<mgrwt>
<rscale>  0 0.11499316E+04</rscale>
<asrwt>0</asrwt>
<pdfrwt beam="1">  1        2 0.14459731E+00 0.11499316E+04</pdfrwt>
<pdfrwt beam="2">  1       -2 0.24449678E+00 0.11499316E+04</pdfrwt>
<totfact> 0.18765828E+00</totfact>
</mgrwt>
</event>
<event>
12    1  0.1418317E-007  0.5647114E+03  0.7818608E-02  0.9981450E-01
         -4   -1    0    0    0  501 -0.00000000000E+00  0.00000000000E+00  0.24665842181E+04  0.24665842181E+04  0.00000000000E+00 0.  1.
          4   -1    0    0  501    0  0.00000000000E+00 -0.00000000000E+00 -0.36652231301E+03  0.36652231301E+03  0.00000000000E+00 0. -1.
         23    2    1    2    0    0  0.41724116644E+03  0.20297353943E+03 -0.12106009287E+03  0.48604665033E+03  0.79355853795E+02 0.  0.
    5000000    2    1    2    0    0 -0.41724116644E+03 -0.20297353943E+03  0.22211219979E+04  0.23470598807E+04  0.60001558769E+03 0.  0.
         23    2    4    4    0    0 -0.18129223305E+03  0.13323737802E+03  0.14355746364E+04  0.14559161738E+04  0.90544440777E+02 0.  0.
         23    2    4    4    0    0 -0.23594893339E+03 -0.33621091744E+03  0.78554736149E+03  0.89114370692E+03  0.91338759983E+02 0.  0.
          1    1    3    3  502    0  0.27978682538E+03  0.17271348910E+03 -0.68876462987E+02  0.33593836358E+03  0.00000000000E+00 0. -1.
         -1    1    3    3    0  502  0.13745434106E+03  0.30260050325E+02 -0.52183629881E+02  0.15010828675E+03  0.00000000000E+00 0.  1.
         11    1    5    5    0    0 -0.12618564364E+03  0.38969651838E+02  0.71124502883E+03  0.72340233720E+03  0.00000000000E+00 0.  1.
        -11    1    5    5    0    0 -0.55106589412E+02  0.94267726177E+02  0.72432960760E+03  0.73251383662E+03  0.00000000000E+00 0. -1.
          3    1    6    6  503    0 -0.11220559823E+03 -0.22849157036E+03  0.52084658997E+03  0.57972378275E+03  0.00000000000E+00 0. -1.
         -3    1    6    6    0  503 -0.12374333516E+03 -0.10771934708E+03  0.26470077151E+03  0.31141992417E+03  0.00000000000E+00 0.  1.
<mgrwt>
<rscale>  0 0.56471141E+03</rscale>
<asrwt>0</asrwt>
<pdfrwt beam="1">  1        4 0.56388050E-01 0.56471141E+03</pdfrwt>
<pdfrwt beam="2">  1       -4 0.37947448E+00 0.56471141E+03</pdfrwt>
<totfact> 0.59533728E-02</totfact>
</mgrwt>
</event>
<event>
12    1  0.1418317E-007  0.1453955E+04  0.7818608E-02  0.8915663E-01
          2   -1    0    0  501    0  0.00000000000E+00  0.00000000000E+00  0.16349920120E+04  0.16349920120E+04  0.00000000000E+00 0. -1.
         -2   -1    0    0    0  501 -0.00000000000E+00 -0.00000000000E+00 -0.13381790405E+04  0.13381790405E+04  0.00000000000E+00 0.  1.
         23    2    1    2    0    0  0.13574114313E+04 -0.36495552916E+03 -0.35573822897E+02  0.14090890664E+04  0.92239731813E+02 0.  0.
    5000000    2    1    2    0    0 -0.13574114313E+04  0.36495552916E+03  0.33238679433E+03  0.15640819861E+04  0.60009428123E+03 0.  0.
         23    2    4    4    0    0 -0.10560558399E+04  0.49536792067E+03  0.15676690390E+03  0.11808429038E+04  0.95764228730E+02 0.  0.
         23    2    4    4    0    0 -0.30135559138E+03 -0.13041239151E+03  0.17561989044E+03  0.38323908236E+03  0.90593951307E+02 0.  0.
          2    1    3    3  502    0  0.14363041917E+03 -0.49238772641E+02  0.22920099865E+02  0.15355612987E+03  0.00000000000E+00 0.  1.
         -2    1    3    3    0  502  0.12137810121E+04 -0.31571675652E+03 -0.58493922762E+02  0.12555329365E+04  0.00000000000E+00 0. -1.
         11    1    5    5    0    0 -0.17580984024E+03  0.12087544914E+03  0.41124582913E+02  0.21728139692E+03  0.00000000000E+00 0. -1.
        -11    1    5    5    0    0 -0.88024599962E+03  0.37449247154E+03  0.11564232098E+03  0.96356150686E+03  0.00000000000E+00 0.  1.
          1    1    6    6  503    0 -0.18063706311E+03 -0.10380040184E+03  0.15071903851E+03  0.25713906852E+03  0.00000000000E+00 0. -1.
         -1    1    6    6    0  503 -0.12071852828E+03 -0.26611989665E+02  0.24900851928E+02  0.12610001384E+03  0.00000000000E+00 0.  1.
<mgrwt>
<rscale>  0 0.14539552E+04</rscale>
<asrwt>0</asrwt>
<pdfrwt beam="1">  1        2 0.25153723E+00 0.14539552E+04</pdfrwt>
<pdfrwt beam="2">  1       -2 0.20587370E+00 0.14539552E+04</pdfrwt>
<totfact> 0.12264200E+00</totfact>
</mgrwt>
</event>
<event>
12    1  0.1418317E-007  0.9398655E+03  0.7818608E-02  0.9377075E-01
          2   -1    0    0  501    0  0.00000000000E+00  0.00000000000E+00  0.14835779956E+04  0.14835779956E+04  0.00000000000E+00 0. -1.
         -2   -1    0    0    0  501 -0.00000000000E+00 -0.00000000000E+00 -0.90991756268E+03  0.90991756268E+03  0.00000000000E+00 0.  1.
         23    2    1    2    0    0 -0.65184295269E+03 -0.67159074590E+03  0.82733765273E+03  0.12531986013E+04  0.10042797303E+03 0.  0.
    5000000    2    1    2    0    0  0.65184295269E+03  0.67159074590E+03 -0.25367721981E+03  0.11402969570E+04  0.59999304436E+03 0.  0.
         23    2    4    4    0    0  0.24000257512E+03  0.23894513233E+03  0.18189412825E+03  0.39486502126E+03  0.90204760369E+02 0.  0.
         23    2    4    4    0    0  0.41184037757E+03  0.43264561357E+03 -0.43557134806E+03  0.74543193572E+03  0.95664246204E+02 0.  0.
          3    1    3    3  502    0 -0.50000175190E+03 -0.48142823930E+03  0.56132198673E+03  0.89266862512E+03  0.00000000000E+00 0. -1.
         -3    1    3    3    0  502 -0.15184120079E+03 -0.19016250659E+03  0.26601566601E+03  0.36052997619E+03  0.00000000000E+00 0.  1.
         13    1    5    5    0    0  0.11690636741E+03  0.16002399768E+03  0.14038719361E+03  0.24286486511E+03  0.00000000000E+00 0.  1.
        -13    1    5    5    0    0  0.12309620770E+03  0.78921134653E+02  0.41506934639E+02  0.15200015615E+03  0.00000000000E+00 0. -1.
          2    1    6    6  503    0  0.90474232879E+02  0.11104851893E+03 -0.58331856869E+02  0.15466080919E+03  0.00000000000E+00 0. -1.
         -2    1    6    6    0  503  0.32136614469E+03  0.32159709463E+03 -0.37723949119E+03  0.59077112653E+03  0.00000000000E+00 0.  1.
<mgrwt>
<rscale>  0 0.93986548E+03</rscale>
<asrwt>0</asrwt>
<pdfrwt beam="1">  1        2 0.22824277E+00 0.93986548E+03</pdfrwt>
<pdfrwt beam="2">  1       -2 0.13998732E+00 0.93986548E+03</pdfrwt>
<totfact> 0.46580642E+00</totfact>
</mgrwt>
</event>
<event>
12    1  0.1418317E-007  0.8832082E+03  0.7818608E-02  0.9446819E-01
         -2   -1    0    0    0  501 -0.00000000000E+00  0.00000000000E+00  0.44751024885E+03  0.44751024885E+03  0.00000000000E+00 0. -1.
          2   -1    0    0  501    0  0.00000000000E+00 -0.00000000000E+00 -0.20713040579E+04  0.20713040579E+04  0.00000000000E+00 0.  1.
         23    2    1    2    0    0  0.56976582674E+03  0.65002985880E+03 -0.80546624818E+03  0.11851435103E+04  0.92829673790E+02 0.  0.
    5000000    2    1    2    0    0 -0.56976582674E+03 -0.65002985880E+03 -0.81832756085E+03  0.13336707965E+04  0.60153626808E+03 0.  0.
         23    2    4    4    0    0 -0.46648911077E+03 -0.55997336809E+03 -0.30745887361E+03  0.79669897748E+03  0.94952821543E+02 0.  0.
         23    2    4    4    0    0 -0.10327671597E+03 -0.90056490703E+02 -0.51086868725E+03  0.53697181898E+03  0.92604898279E+02 0.  0.
          3    1    3    3  502    0  0.27750325940E+03  0.37821522827E+03 -0.46529997922E+03  0.66072603137E+03  0.00000000000E+00 0. -1.
         -3    1    3    3    0  502  0.29226256734E+03  0.27181463053E+03 -0.34016626897E+03  0.52441747890E+03  0.00000000000E+00 0.  1.
         13    1    5    5    0    0 -0.16035842077E+03 -0.12646580043E+03 -0.89744573159E+02  0.22307512232E+03  0.00000000000E+00 0.  1.
        -13    1    5    5    0    0 -0.30613069000E+03 -0.43350756767E+03 -0.21771430045E+03  0.57362385516E+03  0.00000000000E+00 0. -1.
          2    1    6    6  503    0 -0.48464155010E+01 -0.60213382009E+02 -0.14928985545E+03  0.16104844009E+03  0.00000000000E+00 0. -1.
         -2    1    6    6    0  503 -0.98430300469E+02 -0.29843108695E+02 -0.36157883180E+03  0.37592337888E+03  0.00000000000E+00 0.  1.
<mgrwt>
<rscale>  0 0.88320821E+03</rscale>
<asrwt>0</asrwt>
<pdfrwt beam="1">  1        2 0.31866216E+00 0.88320821E+03</pdfrwt>
<pdfrwt beam="2">  1       -2 0.68847731E-01 0.88320821E+03</pdfrwt>
<totfact> 0.11963017E+01</totfact>
</mgrwt>
</event>
<event>
12    1  0.1418317E-007  0.7477701E+03  0.7818608E-02  0.9638855E-01
         -2   -1    0    0    0  501 -0.00000000000E+00  0.00000000000E+00  0.31455041039E+03  0.31455041039E+03  0.00000000000E+00 0.  1.
          2   -1    0    0  501    0  0.00000000000E+00 -0.00000000000E+00 -0.19509169261E+04  0.19509169261E+04  0.00000000000E+00 0. -1.
         23    2    1    2    0    0  0.20590979776E+03  0.63120223025E+03 -0.64976940467E+03  0.93346136487E+03  0.91294798132E+02 0.  0.
    5000000    2    1    2    0    0 -0.20590979776E+03 -0.63120223025E+03 -0.98659711101E+03  0.13320059716E+04  0.60004245570E+03 0.  0.
         23    2    4    4    0    0 -0.31156991274E+03 -0.17886600702E+03 -0.65667017082E+03  0.75535771276E+03  0.10139379662E+03 0.  0.
         23    2    4    4    0    0  0.10566011498E+03 -0.45233622323E+03 -0.32992694019E+03  0.57664825884E+03  0.88878061478E+02 0.  0.
          1    1    3    3  502    0  0.49482581415E+02  0.69607414244E+02 -0.10729136007E+03  0.13713188516E+03  0.00000000000E+00 0. -1.
         -1    1    3    3    0  502  0.15642721634E+03  0.56159481601E+03 -0.54247804460E+03  0.79632947970E+03  0.00000000000E+00 0.  1.
         13    1    5    5    0    0 -0.13336999174E+03 -0.55067717370E+02 -0.35971544105E+03  0.38757606573E+03  0.00000000000E+00 0.  1.
        -13    1    5    5    0    0 -0.17819992100E+03 -0.12379828965E+03 -0.29695472977E+03  0.36778164703E+03  0.00000000000E+00 0. -1.
          4    1    6    6  503    0  0.50726675451E+02 -0.29278089463E+03 -0.25681353483E+03  0.39274296879E+03  0.00000000000E+00 0. -1.
         -4    1    6    6    0  503  0.54933439532E+02 -0.15955532860E+03 -0.73113405361E+02  0.18390529005E+03  0.00000000000E+00 0.  1.
<mgrwt>
<rscale>  0 0.74777013E+03</rscale>
<asrwt>0</asrwt>
<pdfrwt beam="1">  1        2 0.30014107E+00 0.74777013E+03</pdfrwt>
<pdfrwt beam="2">  1       -2 0.48392370E-01 0.74777013E+03</pdfrwt>
<totfact> 0.29694636E+01</totfact>
</mgrwt>
</event>
<event>
12    1  0.1418317E-007  0.1331128E+04  0.7818608E-02  0.9005239E-01
          2   -1    0    0  501    0  0.00000000000E+00  0.00000000000E+00  0.30046354414E+04  0.30046354414E+04  0.00000000000E+00 0. -1.
         -2   -1    0    0    0  501 -0.00000000000E+00 -0.00000000000E+00 -0.10156518406E+04  0.10156518406E+04  0.00000000000E+00 0.  1.
         23    2    1    2    0    0  0.13051006020E+04 -0.14680693132E+03  0.21972137073E+04  0.25614426813E+04  0.91655209712E+02 0.  0.
    5000000    2    1    2    0    0 -0.13051006020E+04  0.14680693132E+03 -0.20823010654E+03  0.14588446007E+04  0.60002327898E+03 0.  0.
         23    2    4    4    0    0 -0.83209427770E+03  0.21567807100E+03  0.11919879111E+03  0.87264535024E+03  0.91671359760E+02 0.  0.
         23    2    4    4    0    0 -0.47300632427E+03 -0.68871139684E+02 -0.32742889765E+03  0.58619925045E+03  0.89116000379E+02 0.  0.
          3    1    3    3  502    0  0.46466421808E+03 -0.33056396447E+02  0.85705425546E+03  0.97547299179E+03  0.00000000000E+00 0. -1.
         -3    1    3    3    0  502  0.84043638389E+03 -0.11375053487E+03  0.13401594519E+04  0.15859696895E+04  0.00000000000E+00 0.  1.
         13    1    5    5    0    0 -0.12219338722E+03  0.61597302260E+02  0.35782041803E+02  0.14144188220E+03  0.00000000000E+00 0.  1.
        -13    1    5    5    0    0 -0.70990089049E+03  0.15408076874E+03  0.83416749304E+02  0.73120346804E+03  0.00000000000E+00 0. -1.
          3    1    6    6  503    0 -0.17431241469E+03  0.14560054631E+02 -0.13793405823E+03  0.22276134657E+03  0.00000000000E+00 0. -1.
         -3    1    6    6    0  503 -0.29869390959E+03 -0.83431194314E+02 -0.18949483942E+03  0.36343790388E+03  0.00000000000E+00 0.  1.
<mgrwt>
<rscale>  0 0.13311276E+04</rscale>
<asrwt>0</asrwt>
<pdfrwt beam="1">  1        2 0.46225160E+00 0.13311276E+04</pdfrwt>
<pdfrwt beam="2">  1       -2 0.15625413E+00 0.13311276E+04</pdfrwt>
<totfact> 0.44917741E-01</totfact>
</mgrwt>
</event>
<event>
12    1  0.1418317E-007  0.4712423E+03  0.7818608E-02  0.1021570E+00
          2   -1    0    0  501    0  0.00000000000E+00  0.00000000000E+00  0.29109120913E+04  0.29109120913E+04  0.00000000000E+00 0. -1.
         -2   -1    0    0    0  501 -0.00000000000E+00 -0.00000000000E+00 -0.10845242683E+03  0.10845242683E+03  0.00000000000E+00 0.  1.
         23    2    1    2    0    0  0.26967808875E+03  0.24866554129E+03  0.61465478049E+03  0.72132128963E+03  0.89123962602E+02 0.  0.
    5000000    2    1    2    0    0 -0.26967808875E+03 -0.24866554129E+03  0.21878048840E+04  0.22980432285E+04  0.59995970424E+03 0.  0.
         23    2    4    4    0    0 -0.13475265531E+03 -0.36136735189E+03  0.76481523736E+03  0.86136498982E+03  0.90899159925E+02 0.  0.
         23    2    4    4    0    0 -0.13492543344E+03  0.11270181060E+03  0.14229896466E+04  0.14366782387E+04  0.90764841196E+02 0.  0.
          3    1    3    3  502    0  0.11127382699E+03  0.15388253172E+03  0.35699668331E+03  0.40436163275E+03  0.00000000000E+00 0. -1.
         -3    1    3    3    0  502  0.15840426176E+03  0.94783009564E+02  0.25765809718E+03  0.31695965688E+03  0.00000000000E+00 0.  1.
         11    1    5    5    0    0 -0.47182044406E+01 -0.79804048774E+02  0.10213868571E+03  0.12970450560E+03  0.00000000000E+00 0.  1.
        -11    1    5    5    0    0 -0.13003445087E+03 -0.28156330311E+03  0.66267655164E+03  0.73166048422E+03  0.00000000000E+00 0. -1.
          3    1    6    6  503    0 -0.10643994507E+03  0.10215655504E+03  0.83705154918E+03  0.84995336321E+03  0.00000000000E+00 0. -1.
         -3    1    6    6    0  503 -0.28485488377E+02  0.10545255561E+02  0.58593809744E+03  0.58672487547E+03  0.00000000000E+00 0.  1.
<mgrwt>
<rscale>  0 0.47124230E+03</rscale>
<asrwt>0</asrwt>
<pdfrwt beam="1">  1        2 0.44783257E+00 0.47124230E+03</pdfrwt>
<pdfrwt beam="2">  1       -2 0.16684991E-01 0.47124230E+03</pdfrwt>
<totfact> 0.63846338E+01</totfact>
</mgrwt>
</event>
<event>
12    1  0.1418317E-007  0.7310639E+03  0.7818608E-02  0.9665536E-01
         -2   -1    0    0    0  501 -0.00000000000E+00  0.00000000000E+00  0.47598183950E+03  0.47598183950E+03  0.00000000000E+00 0.  1.
          2   -1    0    0  501    0  0.00000000000E+00 -0.00000000000E+00 -0.13377825704E+04  0.13377825704E+04  0.00000000000E+00 0. -1.
         23    2    1    2    0    0  0.31633025456E+02 -0.62521541844E+03 -0.64878207486E+02  0.63606079901E+03  0.92028204734E+02 0.  0.
    5000000    2    1    2    0    0 -0.31633025456E+02  0.62521541844E+03 -0.79692252337E+03  0.11777036109E+04  0.60000443249E+03 0.  0.
         23    2    4    4    0    0 -0.13104980237E+02  0.71015919377E+03 -0.55830466157E+03  0.90825043190E+03  0.93364505602E+02 0.  0.
         23    2    4    4    0    0 -0.18528045219E+02 -0.84943775327E+02 -0.23861786180E+03  0.26945317896E+03  0.90043313213E+02 0.  0.
          3    1    3    3  502    0  0.21850473510E+02 -0.27573330033E+03 -0.73990542697E+02  0.28632306319E+03  0.00000000000E+00 0. -1.
         -3    1    3    3    0  502  0.97825519462E+01 -0.34948211811E+03  0.91123352109E+01  0.34973773582E+03  0.00000000000E+00 0.  1.
         13    1    5    5    0    0  0.23094082168E+02  0.59364417179E+03 -0.45334570726E+03  0.74730788141E+03  0.00000000000E+00 0.  1.
        -13    1    5    5    0    0 -0.36199062406E+02  0.11651502198E+03 -0.10495895432E+03  0.16094255049E+03  0.00000000000E+00 0. -1.
          1    1    6    6  503    0 -0.51233755295E+02 -0.45055511230E+02 -0.95849065482E+02  0.11765177486E+03  0.00000000000E+00 0. -1.
         -1    1    6    6    0  503  0.32705710077E+02 -0.39888264098E+02 -0.14276879632E+03  0.15180140410E+03  0.00000000000E+00 0.  1.
<mgrwt>
<rscale>  0 0.73106388E+03</rscale>
<asrwt>0</asrwt>
<pdfrwt beam="1">  1        2 0.20581270E+00 0.73106388E+03</pdfrwt>
<pdfrwt beam="2">  1       -2 0.73227977E-01 0.73106388E+03</pdfrwt>
<totfact> 0.27067788E+01</totfact>
</mgrwt>
</event>
<event>
12    1  0.1418317E-007  0.8528681E+03  0.7818608E-02  0.9486496E-01
          1   -1    0    0  501    0  0.00000000000E+00  0.00000000000E+00  0.35402907369E+03  0.35402907369E+03  0.00000000000E+00 0. -1.
         -1   -1    0    0    0  501 -0.00000000000E+00 -0.00000000000E+00 -0.21450661489E+04  0.21450661489E+04  0.00000000000E+00 0.  1.
         23    2    1    2    0    0 -0.67863151267E+03  0.33089143867E+03 -0.96941038582E+03  0.12321770819E+04  0.92054281767E+02 0.  0.
    5000000    2    1    2    0    0  0.67863151267E+03 -0.33089143867E+03 -0.82162668943E+03  0.12669181407E+04  0.59998440345E+03 0.  0.
         23    2    4    4    0    0  0.49230334080E+02  0.13934911556E+03 -0.16426999276E+03  0.23849428656E+03  0.89739023820E+02 0.  0.
         23    2    4    4    0    0  0.62940117859E+03 -0.47024055423E+03 -0.65735669666E+03  0.10284238542E+04  0.90916306281E+02 0.  0.
          3    1    3    3  502    0 -0.32731413126E+03  0.18530154031E+03 -0.41758076112E+03  0.56200079486E+03  0.00000000000E+00 0. -1.
         -3    1    3    3    0  502 -0.35131738142E+03  0.14558989836E+03 -0.55182962470E+03  0.67017628702E+03  0.00000000000E+00 0.  1.
         13    1    5    5    0    0 -0.15135401553E+02  0.20961947741E+02 -0.68382810754E+02  0.73107403455E+02  0.00000000000E+00 0.  1.
        -13    1    5    5    0    0  0.64365735633E+02  0.11838716782E+03 -0.95887182008E+02  0.16538688310E+03  0.00000000000E+00 0. -1.
          1    1    6    6  503    0  0.43307507328E+03 -0.28251025498E+03 -0.39397286844E+03  0.65006206191E+03  0.00000000000E+00 0. -1.
         -1    1    6    6    0  503  0.19632610532E+03 -0.18773029925E+03 -0.26338382823E+03  0.37836179228E+03  0.00000000000E+00 0.  1.
<mgrwt>
<rscale>  0 0.85286810E+03</rscale>
<asrwt>0</asrwt>
<pdfrwt beam="1">  1        1 0.54466010E-01 0.85286810E+03</pdfrwt>
<pdfrwt beam="2">  1       -1 0.33001018E+00 0.85286810E+03</pdfrwt>
<totfact> 0.15434372E+00</totfact>
</mgrwt>
</event>
<event>
12    1  0.1418317E-007  0.5945407E+03  0.7818608E-02  0.9916797E-01
          1   -1    0    0  501    0  0.00000000000E+00  0.00000000000E+00  0.12175859210E+04  0.12175859210E+04  0.00000000000E+00 0. -1.
         -1   -1    0    0    0  501 -0.00000000000E+00 -0.00000000000E+00 -0.30312542010E+03  0.30312542010E+03  0.00000000000E+00 0.  1.
         23    2    1    2    0    0  0.38397924188E+03  0.24082720778E+03  0.37413289853E+03  0.59480885551E+03  0.91566077951E+02 0.  0.
    5000000    2    1    2    0    0 -0.38397924188E+03 -0.24082720778E+03  0.54032760237E+03  0.92590248559E+03  0.59991973859E+03 0.  0.
         23    2    4    4    0    0 -0.36791591530E+03  0.92217498691E+02  0.38151069669E+03  0.54556237220E+03  0.90673604044E+02 0.  0.
         23    2    4    4    0    0 -0.16063326581E+02 -0.33304470647E+03  0.15881690568E+03  0.38034011340E+03  0.90878959950E+02 0.  0.
          3    1    3    3  502    0  0.14212909365E+03  0.13550444492E+03  0.18890383970E+03  0.27248264993E+03  0.00000000000E+00 0. -1.
         -3    1    3    3    0  502  0.24185014823E+03  0.10532276286E+03  0.18522905882E+03  0.32232620558E+03  0.00000000000E+00 0.  1.
         11    1    5    5    0    0 -0.94459399834E+02 -0.11967253615E+02  0.70116446666E+02  0.11824597020E+03  0.00000000000E+00 0. -1.
        -11    1    5    5    0    0 -0.27345651547E+03  0.10418475231E+03  0.31139425002E+03  0.42731640199E+03  0.00000000000E+00 0.  1.
          1    1    6    6  503    0 -0.40661776420E+02 -0.27562457407E+03  0.15234258757E+03  0.31753826522E+03  0.00000000000E+00 0. -1.
         -1    1    6    6    0  503  0.24598449839E+02 -0.57420132404E+02  0.64743181102E+01  0.62801848180E+02  0.00000000000E+00 0.  1.
<mgrwt>
<rscale>  0 0.59454073E+03</rscale>
<asrwt>0</asrwt>
<pdfrwt beam="1">  1        1 0.18732091E+00 0.59454073E+03</pdfrwt>
<pdfrwt beam="2">  1       -1 0.46634681E-01 0.59454073E+03</pdfrwt>
<totfact> 0.49633891E+01</totfact>
</mgrwt>
</event>
<event>
12    1  0.1418317E-007  0.5676399E+03  0.7818608E-02  0.9974915E-01
          2   -1    0    0  501    0  0.00000000000E+00  0.00000000000E+00  0.27466446940E+04  0.27466446940E+04  0.00000000000E+00 0. -1.
         -2   -1    0    0    0  501 -0.00000000000E+00 -0.00000000000E+00 -0.12529590068E+03  0.12529590068E+03  0.00000000000E+00 0.  1.
         23    2    1    2    0    0  0.27469518140E+03 -0.31028776084E+03  0.72128656971E+03  0.83675274830E+03  0.90359885666E+02 0.  0.
    5000000    2    1    2    0    0 -0.27469518140E+03  0.31028776084E+03  0.19000622236E+04  0.20351878464E+04  0.60001431584E+03 0.  0.
         23    2    4    4    0    0  0.16410662821E+03  0.16347306584E+03  0.53307733518E+03  0.58861423874E+03  0.92956162212E+02 0.  0.
         23    2    4    4    0    0 -0.43880180961E+03  0.14681469500E+03  0.13669848884E+04  0.14465736076E+04  0.99125850840E+02 0.  0.
          1    1    3    3  502    0  0.70596761097E+02 -0.13644835485E+03  0.22089629261E+03  0.26906733043E+03  0.00000000000E+00 0. -1.
         -1    1    3    3    0  502  0.20409842031E+03 -0.17383940600E+03  0.50039027709E+03  0.56768541787E+03  0.00000000000E+00 0.  1.
         13    1    5    5    0    0  0.14107793787E+03  0.88142848882E+02  0.30646920326E+03  0.34870549022E+03  0.00000000000E+00 0.  1.
        -13    1    5    5    0    0  0.23028690333E+02  0.75330216954E+02  0.22660813192E+03  0.23990874853E+03  0.00000000000E+00 0. -1.
          1    1    6    6  503    0 -0.17121609826E+03  0.95234751314E+02  0.47280828834E+03  0.51179320793E+03  0.00000000000E+00 0. -1.
         -1    1    6    6    0  503 -0.26758571135E+03  0.51579943690E+02  0.89417660010E+03  0.93478039971E+03  0.00000000000E+00 0.  1.
<mgrwt>
<rscale>  0 0.56763989E+03</rscale>
<asrwt>0</asrwt>
<pdfrwt beam="1">  1        2 0.42256068E+00 0.56763989E+03</pdfrwt>
<pdfrwt beam="2">  1       -2 0.19276295E-01 0.56763989E+03</pdfrwt>
<totfact> 0.61052803E+01</totfact>
</mgrwt>
</event>
<event>
12    1  0.1418317E-007  0.5646840E+03  0.7818608E-02  0.9981512E-01
          2   -1    0    0  501    0  0.00000000000E+00  0.00000000000E+00  0.50618647118E+04  0.50618647118E+04  0.00000000000E+00 0. -1.
         -2   -1    0    0    0  501 -0.00000000000E+00 -0.00000000000E+00 -0.13807686788E+03  0.13807686788E+03  0.00000000000E+00 0.  1.
         23    2    1    2    0    0 -0.49687531194E+03  0.11939662156E+03  0.54707873521E+03  0.75287294661E+03  0.79886809674E+02 0.  0.
    5000000    2    1    2    0    0  0.49687531194E+03 -0.11939662156E+03  0.43767091087E+04  0.44470686331E+04  0.59974675998E+03 0.  0.
         23    2    4    4    0    0  0.41684588214E+03 -0.22570774783E+03  0.17450757629E+04  0.18104299263E+04  0.87536408438E+02 0.  0.
         23    2    4    4    0    0  0.80029429795E+02  0.10631112626E+03  0.26316333458E+04  0.26366387068E+04  0.93074369091E+02 0.  0.
          1    1    3    3  502    0 -0.46812437230E+02 -0.93931391961E+01  0.67649087062E+02  0.82801173444E+02  0.00000000000E+00 0. -1.
         -1    1    3    3    0  502 -0.45006287471E+03  0.12878976076E+03  0.47942964815E+03  0.67007177316E+03  0.00000000000E+00 0.  1.
         13    1    5    5    0    0  0.12977025894E+03 -0.81668514166E+02  0.42405473197E+03  0.45092403131E+03  0.00000000000E+00 0.  1.
        -13    1    5    5    0    0  0.28707562320E+03 -0.14403923366E+03  0.13210210309E+04  0.13595058949E+04  0.00000000000E+00 0. -1.
          3    1    6    6  503    0  0.61372226842E+02  0.48469318738E+02  0.75876007165E+03  0.76277956935E+03  0.00000000000E+00 0. -1.
         -3    1    6    6    0  503  0.18657202953E+02  0.57841807524E+02  0.18728732742E+04  0.18738591375E+04  0.00000000000E+00 0.  1.
<mgrwt>
<rscale>  0 0.56468398E+03</rscale>
<asrwt>0</asrwt>
<pdfrwt beam="1">  1        2 0.77874827E+00 0.56468398E+03</pdfrwt>
<pdfrwt beam="2">  1       -2 0.21242599E-01 0.56468398E+03</pdfrwt>
<totfact> 0.68784893E-01</totfact>
</mgrwt>
</event>
<event>
12    1  0.1418317E-007  0.8934141E+03  0.7818608E-02  0.9433852E-01
          1   -1    0    0  501    0  0.00000000000E+00  0.00000000000E+00  0.10308306663E+04  0.10308306663E+04  0.00000000000E+00 0. -1.
         -1   -1    0    0    0  501 -0.00000000000E+00 -0.00000000000E+00 -0.91455160357E+03  0.91455160357E+03  0.00000000000E+00 0.  1.
         23    2    1    2    0    0 -0.82508559149E+03  0.10812066191E+03  0.32577217315E+03  0.89832247927E+03  0.91648552307E+02 0.  0.
    5000000    2    1    2    0    0  0.82508559149E+03 -0.10812066191E+03 -0.20949311042E+03  0.10470597906E+04  0.59999210907E+03 0.  0.
         23    2    4    4    0    0  0.47602678266E+03  0.16281044527E+03  0.70308645906E+02  0.51593850284E+03  0.90224686926E+02 0.  0.
         23    2    4    4    0    0  0.34905880884E+03 -0.27093110718E+03 -0.27980175633E+03  0.53112128775E+03  0.92493689489E+02 0.  0.
          4    1    3    3  502    0 -0.11137494192E+03 -0.37074148665E+01  0.71784185405E+02  0.13255599529E+03  0.00000000000E+00 0. -1.
         -4    1    3    3    0  502 -0.71371064957E+03  0.11182807678E+03  0.25398798774E+03  0.76576648398E+03  0.00000000000E+00 0.  1.
         11    1    5    5    0    0  0.24057304627E+03  0.12976214443E+03  0.35015048290E+02  0.27557151218E+03  0.00000000000E+00 0.  1.
        -11    1    5    5    0    0  0.23545373639E+03  0.33048300839E+02  0.35293597616E+02  0.24036699066E+03  0.00000000000E+00 0. -1.
          2    1    6    6  503    0  0.17849167134E+03 -0.13692741119E+03 -0.87963536783E+02  0.24154911815E+03  0.00000000000E+00 0. -1.
         -2    1    6    6    0  503  0.17056713749E+03 -0.13400369599E+03 -0.19183821954E+03  0.28957216960E+03  0.00000000000E+00 0.  1.
<mgrwt>
<rscale>  0 0.89341413E+03</rscale>
<asrwt>0</asrwt>
<pdfrwt beam="1">  1        1 0.15858933E+00 0.89341413E+03</pdfrwt>
<pdfrwt beam="2">  1       -1 0.14070025E+00 0.89341413E+03</pdfrwt>
<totfact> 0.60141632E+00</totfact>
</mgrwt>
</event>
<event>
12    1  0.1418317E-007  0.1474594E+04  0.7818608E-02  0.8901526E-01
         -2   -1    0    0    0  501 -0.00000000000E+00  0.00000000000E+00  0.21825611846E+04  0.21825611846E+04  0.00000000000E+00 0.  1.
          2   -1    0    0  501    0  0.00000000000E+00 -0.00000000000E+00 -0.10647312004E+04  0.10647312004E+04  0.00000000000E+00 0. -1.
         23    2    1    2    0    0 -0.14024018869E+04 -0.29006977498E+03  0.21511719530E+03  0.14510572820E+04  0.91762200311E+02 0.  0.
    5000000    2    1    2    0    0  0.14024018869E+04  0.29006977498E+03  0.90271278891E+03  0.17962351029E+04  0.60058191706E+03 0.  0.
         23    2    4    4    0    0  0.13850364724E+04  0.21968833311E+03  0.91857626968E+03  0.16786197368E+04  0.85981766005E+02 0.  0.
         23    2    4    4    0    0  0.17365414488E+02  0.70381441869E+02 -0.15863480764E+02  0.11761536612E+03  0.91250311481E+02 0.  0.
          1    1    3    3  502    0 -0.26195236658E+03 -0.84894706066E+02  0.21151969627E+02  0.27617668130E+03  0.00000000000E+00 0. -1.
         -1    1    3    3    0  502 -0.11404495203E+04 -0.20517506891E+03  0.19396522568E+03  0.11748806007E+04  0.00000000000E+00 0.  1.
         13    1    5    5    0    0  0.84860022544E+03  0.15280791950E+03  0.60942506227E+03  0.10558747603E+04  0.00000000000E+00 0. -1.
        -13    1    5    5    0    0  0.53643624694E+03  0.66880413609E+02  0.30915120740E+03  0.62274497653E+03  0.00000000000E+00 0.  1.
          2    1    6    6  503    0 -0.70940742720E+01 -0.18618979255E+02  0.92389597194E+01  0.21962482896E+02  0.00000000000E+00 0. -1.
         -2    1    6    6    0  503  0.24459488760E+02  0.89000421123E+02 -0.25102440484E+02  0.95652883222E+02  0.00000000000E+00 0.  1.
<mgrwt>
<rscale>  0 0.14745936E+04</rscale>
<asrwt>0</asrwt>
<pdfrwt beam="1">  1        2 0.16380480E+00 0.14745936E+04</pdfrwt>
<pdfrwt beam="2">  1       -2 0.33577864E+00 0.14745936E+04</pdfrwt>
<totfact> 0.41603886E-01</totfact>
</mgrwt>
</event>
<event>
12    1  0.1418317E-007  0.8289118E+03  0.7818608E-02  0.9519086E-01
         -1   -1    0    0    0  501 -0.00000000000E+00  0.00000000000E+00  0.74489958838E+03  0.74489958838E+03  0.00000000000E+00 0.  1.
          1   -1    0    0  501    0  0.00000000000E+00 -0.00000000000E+00 -0.14605033011E+04  0.14605033011E+04  0.00000000000E+00 0. -1.
         23    2    1    2    0    0 -0.53175696868E+03 -0.49694475611E+03 -0.98104911592E+03  0.12255687838E+04  0.99206409677E+02 0.  0.
    5000000    2    1    2    0    0  0.53175696868E+03  0.49694475611E+03  0.26544540324E+03  0.97983410559E+03  0.59991170018E+03 0.  0.
         23    2    4    4    0    0  0.46863006121E+03  0.55490479185E+02  0.73709529945E+02  0.48626432978E+03  0.91250074311E+02 0.  0.
         23    2    4    4    0    0  0.63126907474E+02  0.44145427692E+03  0.19173587330E+03  0.49356977581E+03  0.89339763959E+02 0.  0.
          1    1    3    3  502    0 -0.31187250337E+03 -0.34032958516E+03 -0.67117882191E+03  0.81459787372E+03  0.00000000000E+00 0. -1.
         -1    1    3    3    0  502 -0.21988446531E+03 -0.15661517095E+03 -0.30987029401E+03  0.41097091012E+03  0.00000000000E+00 0.  1.
         11    1    5    5    0    0  0.37558807527E+03  0.10115379610E+02  0.42359425613E+02  0.37810454127E+03  0.00000000000E+00 0. -1.
        -11    1    5    5    0    0  0.93041985936E+02  0.45375099575E+02  0.31350104333E+02  0.10815978851E+03  0.00000000000E+00 0.  1.
          2    1    6    6  503    0  0.57869984985E+02  0.30428482036E+03  0.89497455728E+02  0.32240964881E+03  0.00000000000E+00 0. -1.
         -2    1    6    6    0  503  0.52569224890E+01  0.13716945656E+03  0.10223841757E+03  0.17116012700E+03  0.00000000000E+00 0.  1.
<mgrwt>
<rscale>  0 0.82891182E+03</rscale>
<asrwt>0</asrwt>
<pdfrwt beam="1">  1        1 0.22469281E+00 0.82891182E+03</pdfrwt>
<pdfrwt beam="2">  1       -1 0.11459994E+00 0.82891182E+03</pdfrwt>
<totfact> 0.49613953E+00</totfact>
</mgrwt>
</event>
<event>
12    1  0.1418317E-007  0.5048246E+03  0.7818608E-02  0.1012527E+00
         -1   -1    0    0    0  501 -0.00000000000E+00  0.00000000000E+00  0.11090493040E+03  0.11090493040E+03  0.00000000000E+00 0.  1.
          1   -1    0    0  501    0  0.00000000000E+00 -0.00000000000E+00 -0.26502201765E+04  0.26502201765E+04  0.00000000000E+00 0. -1.
         23    2    1    2    0    0 -0.93922301532E+02 -0.31405843287E+03 -0.13207039130E+04  0.13638218961E+04  0.91089189084E+02 0.  0.
    5000000    2    1    2    0    0  0.93922301532E+02  0.31405843287E+03 -0.12186113332E+04  0.13973032109E+04  0.59999048651E+03 0.  0.
         23    2    4    4    0    0  0.30046049046E+03  0.33753083261E+03 -0.81094072047E+03  0.93215301846E+03  0.84147658333E+02 0.  0.
         23    2    4    4    0    0 -0.20653818893E+03 -0.23472399734E+02 -0.40767061268E+03  0.46515019244E+03  0.83428988078E+02 0.  0.
          3    1    3    3  502    0 -0.26528712739E+02 -0.21955142654E+03 -0.77657167252E+03  0.80744669425E+03  0.00000000000E+00 0. -1.
         -3    1    3    3    0  502 -0.67393588793E+02 -0.94507006338E+02 -0.54413224048E+03  0.55637520180E+03  0.00000000000E+00 0.  1.
         11    1    5    5    0    0  0.19412423434E+03  0.23787453203E+03 -0.47033803119E+03  0.56168173811E+03  0.00000000000E+00 0.  1.
        -11    1    5    5    0    0  0.10633625612E+03  0.99656300582E+02 -0.34060268928E+03  0.37047128034E+03  0.00000000000E+00 0. -1.
          3    1    6    6  503    0 -0.12559712580E+02 -0.22395693567E+02 -0.23612921368E+02  0.34883857670E+02  0.00000000000E+00 0. -1.
         -3    1    6    6    0  503 -0.19397847635E+03 -0.10767061668E+01 -0.38405769131E+03  0.43026633477E+03  0.00000000000E+00 0.  1.
<mgrwt>
<rscale>  0 0.50482464E+03</rscale>
<asrwt>0</asrwt>
<pdfrwt beam="1">  1        1 0.40772621E+00 0.50482464E+03</pdfrwt>
<pdfrwt beam="2">  1       -1 0.17062296E-01 0.50482464E+03</pdfrwt>
<totfact> 0.30949369E+01</totfact>
</mgrwt>
</event>
<event>
12    1  0.1418317E-007  0.1372064E+04  0.7818608E-02  0.8974292E-01
         -1   -1    0    0    0  501 -0.00000000000E+00  0.00000000000E+00  0.15214681884E+04  0.15214681884E+04  0.00000000000E+00 0.  1.
          1   -1    0    0  501    0  0.00000000000E+00 -0.00000000000E+00 -0.13614704678E+04  0.13614704678E+04  0.00000000000E+00 0. -1.
         23    2    1    2    0    0 -0.94522300651E+03 -0.98379609862E+03  0.24881493596E+03  0.13898831177E+04  0.92546814510E+02 0.  0.
    5000000    2    1    2    0    0  0.94522300651E+03  0.98379609862E+03 -0.88817215364E+02  0.14930555385E+04  0.60002087275E+03 0.  0.
         23    2    4    4    0    0  0.60530178092E+02  0.15566360024E+03 -0.20035841322E+03  0.27266154435E+03  0.79408847852E+02 0.  0.
         23    2    4    4    0    0  0.88469282842E+03  0.82813249838E+03  0.11154119785E+03  0.12203939942E+04  0.91843490405E+02 0.  0.
          4    1    3    3  502    0 -0.83142298680E+03 -0.86918544781E+03  0.24929290209E+03  0.12283706593E+04  0.00000000000E+00 0. -1.
         -4    1    3    3    0  502 -0.11380001972E+03 -0.11461065081E+03 -0.47796612797E+00  0.16151245840E+03  0.00000000000E+00 0.  1.
         11    1    5    5    0    0  0.36790532118E+02  0.74464112322E+02 -0.41883843652E+02  0.93019909893E+02  0.00000000000E+00 0. -1.
        -11    1    5    5    0    0  0.23739645973E+02  0.81199487921E+02 -0.15847456957E+03  0.17964163445E+03  0.00000000000E+00 0.  1.
          3    1    6    6  503    0  0.27795802170E+03  0.24203341081E+03  0.74330863360E+02  0.37598658357E+03  0.00000000000E+00 0. -1.
         -3    1    6    6    0  503  0.60673480672E+03  0.58609908757E+03  0.37210334495E+02  0.84440741063E+03  0.00000000000E+00 0.  1.
<mgrwt>
<rscale>  0 0.13720643E+04</rscale>
<asrwt>0</asrwt>
<pdfrwt beam="1">  1        1 0.20945700E+00 0.13720643E+04</pdfrwt>
<pdfrwt beam="2">  1       -1 0.23407203E+00 0.13720643E+04</pdfrwt>
<totfact> 0.69683630E-01</totfact>
</mgrwt>
</event>
<event>
12    1  0.1418317E-007  0.6841759E+03  0.7818608E-02  0.9744683E-01
         -2   -1    0    0    0  501 -0.00000000000E+00  0.00000000000E+00  0.23947852071E+03  0.23947852071E+03  0.00000000000E+00 0.  1.
          2   -1    0    0  501    0  0.00000000000E+00 -0.00000000000E+00 -0.22484170357E+04  0.22484170357E+04  0.00000000000E+00 0. -1.
         23    2    1    2    0    0  0.48540874275E+03  0.30867646051E+03 -0.51061120304E+03  0.77447074117E+03  0.90434083382E+02 0.  0.
    5000000    2    1    2    0    0 -0.48540874275E+03 -0.30867646051E+03 -0.14983273119E+04  0.17134248152E+04  0.59994754680E+03 0.  0.
         23    2    4    4    0    0  0.88633188821E+02 -0.13450195259E+03 -0.61230644608E+03  0.63968530673E+03  0.91276997797E+02 0.  0.
         23    2    4    4    0    0 -0.57404193158E+03 -0.17417450792E+03 -0.88602086585E+03  0.10737395085E+04  0.89569296893E+02 0.  0.
          2    1    3    3  502    0  0.38741416869E+03  0.20018783711E+03 -0.37878697059E+03  0.57761966493E+03  0.00000000000E+00 0.  1.
         -2    1    3    3    0  502  0.97994574067E+02  0.10848862340E+03 -0.13182423245E+03  0.19685107623E+03  0.00000000000E+00 0. -1.
         11    1    5    5    0    0  0.13414317698E+02 -0.97263209820E+02 -0.27190134448E+03  0.28908548396E+03  0.00000000000E+00 0.  1.
        -11    1    5    5    0    0  0.75218871122E+02 -0.37238742774E+02 -0.34040510160E+03  0.35059982277E+03  0.00000000000E+00 0. -1.
          3    1    6    6  503    0 -0.45198427510E+03 -0.16645635508E+03 -0.66459017064E+03  0.82077865348E+03  0.00000000000E+00 0. -1.
         -3    1    6    6    0  503 -0.12205765648E+03 -0.77181528310E+01 -0.22143069521E+03  0.25296085501E+03  0.00000000000E+00 0.  1.
<mgrwt>
<rscale>  0 0.68417589E+03</rscale>
<asrwt>0</asrwt>
<pdfrwt beam="1">  1        2 0.34591031E+00 0.68417589E+03</pdfrwt>
<pdfrwt beam="2">  1       -2 0.36842850E-01 0.68417589E+03</pdfrwt>
<totfact> 0.35221615E+01</totfact>
</mgrwt>
</event>
<event>
12    1  0.1418317E-007  0.9351780E+03  0.7818608E-02  0.9382645E-01
         -2   -1    0    0    0  501 -0.00000000000E+00  0.00000000000E+00  0.65535552856E+03  0.65535552856E+03  0.00000000000E+00 0.  1.
          2   -1    0    0  501    0  0.00000000000E+00 -0.00000000000E+00 -0.15284863472E+04  0.15284863472E+04  0.00000000000E+00 0. -1.
         23    2    1    2    0    0 -0.38098636525E+03 -0.82287849573E+03 -0.33382783513E+03  0.97011747258E+03  0.86065427846E+02 0.  0.
    5000000    2    1    2    0    0  0.38098636525E+03  0.82287849573E+03 -0.53930298348E+03  0.12137244031E+04  0.59999965796E+03 0.  0.
         23    2    4    4    0    0  0.88840463640E+02  0.39791269600E+01  0.76754316775E+02  0.14431627181E+03  0.83830183903E+02 0.  0.
         23    2    4    4    0    0  0.29214590161E+03  0.81889936877E+03 -0.61605730025E+03  0.10694081313E+04  0.90342405183E+02 0.  0.
          4    1    3    3  502    0 -0.34479482931E+03 -0.74716959323E+03 -0.27495078666E+03  0.86760809727E+03  0.00000000000E+00 0.  1.
         -4    1    3    3    0  502 -0.36191535942E+02 -0.75708902499E+02 -0.58877048463E+02  0.10250937531E+03  0.00000000000E+00 0. -1.
         13    1    5    5    0    0  0.65921167332E+02  0.99046509409E+01  0.28597944160E+01  0.66722416299E+02  0.00000000000E+00 0. -1.
        -13    1    5    5    0    0  0.22919296308E+02 -0.59255239809E+01  0.73894522359E+02  0.77593855507E+02  0.00000000000E+00 0.  1.
          2    1    6    6  503    0  0.89108429707E+02  0.15304431991E+03 -0.14498948416E+03  0.22887731783E+03  0.00000000000E+00 0. -1.
         -2    1    6    6    0  503  0.20303747191E+03  0.66585504886E+03 -0.47106781609E+03  0.84053081350E+03  0.00000000000E+00 0.  1.
<mgrwt>
<rscale>  0 0.93517799E+03</rscale>
<asrwt>0</asrwt>
<pdfrwt beam="1">  1        2 0.23515174E+00 0.93517799E+03</pdfrwt>
<pdfrwt beam="2">  1       -2 0.10082393E+00 0.93517799E+03</pdfrwt>
<totfact> 0.99326672E+00</totfact>
</mgrwt>
</event>
<event>
12    1  0.1418317E-007  0.2702580E+03  0.7818608E-02  0.1101132E+00
         -1   -1    0    0    0  501 -0.00000000000E+00  0.00000000000E+00  0.11532663964E+04  0.11532663964E+04  0.00000000000E+00 0.  1.
          1   -1    0    0  501    0  0.00000000000E+00 -0.00000000000E+00 -0.70188083303E+03  0.70188083303E+03  0.00000000000E+00 0. -1.
         23    2    1    2    0    0  0.19959779928E+03 -0.27197541612E+02 -0.59359848020E+03  0.63339111024E+03  0.90808342604E+02 0.  0.
    5000000    2    1    2    0    0 -0.19959779928E+03  0.27197541612E+02  0.10449840436E+04  0.12217561192E+04  0.60009780513E+03 0.  0.
         23    2    4    4    0    0 -0.14814123473E+03 -0.94744023956E+02  0.10412738523E+04  0.10599360790E+04  0.91054932358E+02 0.  0.
         23    2    4    4    0    0 -0.51456564544E+02  0.12194156557E+03  0.37101913366E+01  0.16182004019E+03  0.93029223578E+02 0.  0.
          1    1    3    3  502    0  0.21409985785E+02  0.45497528817E+01 -0.18764474187E+03  0.18891701060E+03  0.00000000000E+00 0. -1.
         -1    1    3    3    0  502  0.17818781349E+03 -0.31747294494E+02 -0.40595373833E+03  0.44447409964E+03  0.00000000000E+00 0.  1.
         11    1    5    5    0    0 -0.15232247623E+03 -0.63355842412E+02  0.91494120481E+03  0.92969538441E+03  0.00000000000E+00 0.  1.
        -11    1    5    5    0    0  0.41812415012E+01 -0.31388181544E+02  0.12633264747E+03  0.13024069463E+03  0.00000000000E+00 0. -1.
          2    1    6    6  503    0 -0.37731774738E+02  0.30465508925E+02 -0.36760960634E+02  0.60853942236E+02  0.00000000000E+00 0. -1.
         -2    1    6    6    0  503 -0.13724789805E+02  0.91476056643E+02  0.40471151971E+02  0.10096609795E+03  0.00000000000E+00 0.  1.
<mgrwt>
<rscale>  0 0.27025804E+03</rscale>
<asrwt>0</asrwt>
<pdfrwt beam="1">  1        1 0.10798167E+00 0.27025804E+03</pdfrwt>
<pdfrwt beam="2">  1       -1 0.17742560E+00 0.27025804E+03</pdfrwt>
<totfact> 0.68191464E+00</totfact>
</mgrwt>
</event>
<event>
12    1  0.1418317E-007  0.1806066E+04  0.7818608E-02  0.8703080E-01
          2   -1    0    0  501    0  0.00000000000E+00  0.00000000000E+00  0.23673503053E+04  0.23673503053E+04  0.00000000000E+00 0. -1.
         -2   -1    0    0    0  501 -0.00000000000E+00 -0.00000000000E+00 -0.15723039671E+04  0.15723039671E+04  0.00000000000E+00 0.  1.
         23    2    1    2    0    0 -0.16752225915E+04 -0.64910378575E+03 -0.18256978857E+03  0.18081215062E+04  0.90913134070E+02 0.  0.
    5000000    2    1    2    0    0  0.16752225915E+04  0.64910378575E+03  0.97761612676E+03  0.21315327662E+04  0.59999348857E+03 0.  0.
         23    2    4    4    0    0  0.66648172353E+03  0.15929650834E+03  0.86978788764E+02  0.69638142982E+03  0.88365834668E+02 0.  0.
         23    2    4    4    0    0  0.10087408680E+04  0.48980727740E+03  0.89063733800E+03  0.14351513364E+04  0.94631827355E+02 0.  0.
          3    1    3    3  502    0 -0.54082302739E+03 -0.21639228001E+03 -0.10157135778E+03  0.59129680070E+03  0.00000000000E+00 0. -1.
         -3    1    3    3    0  502 -0.11343995641E+04 -0.43271150574E+03 -0.80998430792E+02  0.12168247055E+04  0.00000000000E+00 0.  1.
         11    1    5    5    0    0  0.39191523762E+03  0.13621164832E+03  0.39520631470E+02  0.41678897170E+03  0.00000000000E+00 0.  1.
        -11    1    5    5    0    0  0.27456648591E+03  0.23084860028E+02  0.47458157294E+02  0.27959245813E+03  0.00000000000E+00 0. -1.
          1    1    6    6  503    0  0.53051776969E+03  0.20704709247E+03  0.46747733836E+03  0.73678535839E+03  0.00000000000E+00 0. -1.
         -1    1    6    6    0  503  0.47822309827E+03  0.28276018493E+03  0.42315999964E+03  0.69836597798E+03  0.00000000000E+00 0.  1.
<mgrwt>
<rscale>  0 0.18060660E+04</rscale>
<asrwt>0</asrwt>
<pdfrwt beam="1">  1        2 0.36420774E+00 0.18060660E+04</pdfrwt>
<pdfrwt beam="2">  1       -2 0.24189292E+00 0.18060660E+04</pdfrwt>
<totfact> 0.27160811E-01</totfact>
</mgrwt>
</event>
<event>
12    1  0.1418317E-007  0.1209642E+04  0.7818608E-02  0.9104459E-01
          1   -1    0    0  501    0  0.00000000000E+00  0.00000000000E+00  0.13031644984E+04  0.13031644984E+04  0.00000000000E+00 0. -1.
         -1   -1    0    0    0  501 -0.00000000000E+00 -0.00000000000E+00 -0.16620201574E+04  0.16620201574E+04  0.00000000000E+00 0.  1.
         23    2    1    2    0    0 -0.11422868116E+04  0.22551901715E+03  0.62707907818E+03  0.13257389937E+04  0.93154292842E+02 0.  0.
    5000000    2    1    2    0    0  0.11422868116E+04 -0.22551901715E+03 -0.98593473720E+03  0.16394456621E+04  0.60003065412E+03 0.  0.
         23    2    4    4    0    0  0.95096764646E+03 -0.33826170466E+03 -0.58164065892E+03  0.11690922378E+04  0.98541153027E+02 0.  0.
         23    2    4    4    0    0  0.19131916510E+03  0.11274268752E+03 -0.40429407828E+03  0.47035342429E+03  0.92003834113E+02 0.  0.
          4    1    3    3  502    0 -0.41280894173E+03  0.39747197313E+02  0.20289726661E+03  0.46169076541E+03  0.00000000000E+00 0. -1.
         -4    1    3    3    0  502 -0.72947786983E+03  0.18577181984E+03  0.42418181157E+03  0.86404822833E+03  0.00000000000E+00 0.  1.
         13    1    5    5    0    0  0.27694232648E+03 -0.13241268269E+03 -0.13998587113E+03  0.33738140858E+03  0.00000000000E+00 0.  1.
        -13    1    5    5    0    0  0.67402531998E+03 -0.20584902197E+03 -0.44165478779E+03  0.83171082919E+03  0.00000000000E+00 0. -1.
          1    1    6    6  503    0  0.57829369226E+02 -0.10054226188E+02 -0.10912151928E+03  0.12390653485E+03  0.00000000000E+00 0. -1.
         -1    1    6    6    0  503  0.13348979587E+03  0.12279691370E+03 -0.29517255900E+03  0.34644688944E+03  0.00000000000E+00 0.  1.
<mgrwt>
<rscale>  0 0.12096415E+04</rscale>
<asrwt>0</asrwt>
<pdfrwt beam="1">  1        1 0.20048685E+00 0.12096415E+04</pdfrwt>
<pdfrwt beam="2">  1       -1 0.25569541E+00 0.12096415E+04</pdfrwt>
<totfact> 0.56445070E-01</totfact>
</mgrwt>
</event>
<event>
12    1  0.1418317E-007  0.6228644E+03  0.7818608E-02  0.9859073E-01
         -1   -1    0    0    0  501 -0.00000000000E+00  0.00000000000E+00  0.68469625657E+03  0.68469625657E+03  0.00000000000E+00 0.  1.
          1   -1    0    0  501    0  0.00000000000E+00 -0.00000000000E+00 -0.65655246098E+03  0.65655246098E+03  0.00000000000E+00 0. -1.
         23    2    1    2    0    0 -0.48461000864E+03  0.40051351246E+02  0.22671362964E+03  0.54384721513E+03  0.88992990331E+02 0.  0.
    5000000    2    1    2    0    0  0.48461000864E+03 -0.40051351246E+02 -0.19856983406E+03  0.79740150242E+03  0.59997350428E+03 0.  0.
         23    2    4    4    0    0 -0.28321875822E+02  0.18103181227E+03 -0.28493598107E+02  0.20637421362E+03  0.90574749315E+02 0.  0.
         23    2    4    4    0    0  0.51293188447E+03 -0.22108316351E+03 -0.17007623595E+03  0.59102728879E+03  0.91708487980E+02 0.  0.
          3    1    3    3  502    0 -0.29998537437E+03  0.25754594329E+02  0.91926033318E+02  0.31480933843E+03  0.00000000000E+00 0. -1.
         -3    1    3    3    0  502 -0.18462463428E+03  0.14296756917E+02  0.13478759632E+03  0.22903787670E+03  0.00000000000E+00 0.  1.
         13    1    5    5    0    0 -0.47876349966E+02  0.16652785453E+03 -0.42332531990E+02  0.17836960079E+03  0.00000000000E+00 0.  1.
        -13    1    5    5    0    0  0.19554474144E+02  0.14503957733E+02  0.13838933883E+02  0.28004612834E+02  0.00000000000E+00 0. -1.
          4    1    6    6  503    0  0.61697489202E+02 -0.49451262007E+02  0.30581316456E+00  0.79070228339E+02  0.00000000000E+00 0. -1.
         -4    1    6    6    0  503  0.45123439526E+03 -0.17163190151E+03 -0.17038204912E+03  0.51195706045E+03  0.00000000000E+00 0.  1.
<mgrwt>
<rscale>  0 0.62286441E+03</rscale>
<asrwt>0</asrwt>
<pdfrwt beam="1">  1        1 0.10100807E+00 0.62286441E+03</pdfrwt>
<pdfrwt beam="2">  1       -1 0.10533788E+00 0.62286441E+03</pdfrwt>
<totfact> 0.26381522E+01</totfact>
</mgrwt>
</event>
<event>
12    1  0.1418317E-007  0.2777353E+03  0.7818608E-02  0.1096932E+00
         -2   -1    0    0    0  501 -0.00000000000E+00  0.00000000000E+00  0.12909755551E+03  0.12909755551E+03  0.00000000000E+00 0.  1.
          2   -1    0    0  501    0  0.00000000000E+00 -0.00000000000E+00 -0.13388655848E+04  0.13388655848E+04  0.00000000000E+00 0. -1.
         23    2    1    2    0    0  0.13170969055E+03 -0.54261312470E+02 -0.98563719228E+02  0.19710119391E+03  0.94033724152E+02 0.  0.
    5000000    2    1    2    0    0 -0.13170969055E+03  0.54261312470E+02 -0.11112043101E+04  0.12708619464E+04  0.60001944594E+03 0.  0.
         23    2    4    4    0    0  0.24919000425E+02 -0.11984431974E+03 -0.97244480375E+03  0.98435185295E+03  0.91192414763E+02 0.  0.
         23    2    4    4    0    0 -0.15662869097E+03  0.17410563221E+03 -0.13875950635E+03  0.28651009349E+03  0.89378493313E+02 0.  0.
          3    1    3    3  502    0  0.89825563266E+02 -0.80769357480E+02 -0.64322161477E+02  0.13685635309E+03  0.00000000000E+00 0. -1.
         -3    1    3    3    0  502  0.41884127285E+02  0.26508045010E+02 -0.34241557751E+02  0.60244840823E+02  0.00000000000E+00 0.  1.
         13    1    5    5    0    0 -0.20404377699E+02 -0.98632492018E+02 -0.71830452445E+03  0.72533171512E+03  0.00000000000E+00 0. -1.
        -13    1    5    5    0    0  0.45323378124E+02 -0.21211827720E+02 -0.25414027930E+03  0.25902013783E+03  0.00000000000E+00 0.  1.
          3    1    6    6  503    0 -0.13106624905E+03  0.15017240030E+03 -0.15029958744E+03  0.24963989552E+03  0.00000000000E+00 0. -1.
         -3    1    6    6    0  503 -0.25562441922E+02  0.23933231912E+02  0.11540081090E+02  0.36870197970E+02  0.00000000000E+00 0.  1.
<mgrwt>
<rscale>  0 0.27773531E+03</rscale>
<asrwt>0</asrwt>
<pdfrwt beam="1">  1        2 0.20597932E+00 0.27773531E+03</pdfrwt>
<pdfrwt beam="2">  1       -2 0.19861163E-01 0.27773531E+03</pdfrwt>
<totfact> 0.35715329E+02</totfact>
</mgrwt>
</event>
<event>
12    1  0.1418317E-007  0.6888890E+03  0.7818608E-02  0.9736424E-01
          2   -1    0    0  501    0  0.00000000000E+00  0.00000000000E+00  0.17628280735E+04  0.17628280735E+04  0.00000000000E+00 0. -1.
         -2   -1    0    0    0  501 -0.00000000000E+00 -0.00000000000E+00 -0.44923818770E+03  0.44923818770E+03  0.00000000000E+00 0.  1.
         23    2    1    2    0    0  0.57746547988E+03 -0.97665679292E+01 -0.78505351180E+02  0.58989000333E+03  0.90803962232E+02 0.  0.
    5000000    2    1    2    0    0 -0.57746547988E+03  0.97665679292E+01  0.13920952370E+04  0.16221762579E+04  0.59997074639E+03 0.  0.
         23    2    4    4    0    0 -0.51214749992E+03 -0.22064274079E+03  0.10746756334E+04  0.12142334509E+04  0.91961271096E+02 0.  0.
         23    2    4    4    0    0 -0.65317979959E+02  0.23040930872E+03  0.31741960356E+03  0.40794280703E+03  0.91144067429E+02 0.  0.
          3    1    3    3  502    0  0.40713451526E+03 -0.19744872910E+02 -0.94796493439E+02  0.41849103777E+03  0.00000000000E+00 0. -1.
         -3    1    3    3    0  502  0.17033096462E+03  0.99783049808E+01  0.16291142259E+02  0.17139896556E+03  0.00000000000E+00 0.  1.
         11    1    5    5    0    0 -0.38068012175E+03 -0.18056396114E+03  0.88303761358E+03  0.97840488866E+03  0.00000000000E+00 0.  1.
        -11    1    5    5    0    0 -0.13146737818E+03 -0.40078779649E+02  0.19163801987E+03  0.23582856223E+03  0.00000000000E+00 0. -1.
          3    1    6    6  503    0 -0.62817870563E+02  0.18662803556E+03  0.19179576865E+03  0.27488493118E+03  0.00000000000E+00 0. -1.
         -3    1    6    6    0  503 -0.25001093957E+01  0.43781273164E+02  0.12562383491E+03  0.13305787584E+03  0.00000000000E+00 0.  1.
<mgrwt>
<rscale>  0 0.68888899E+03</rscale>
<asrwt>0</asrwt>
<pdfrwt beam="1">  1        2 0.27120432E+00 0.68888899E+03</pdfrwt>
<pdfrwt beam="2">  1       -2 0.69113568E-01 0.68888899E+03</pdfrwt>
<totfact> 0.17953347E+01</totfact>
</mgrwt>
</event>
<event>
12    1  0.1418317E-007  0.5512514E+03  0.7818608E-02  0.1001205E+00
         -1   -1    0    0    0  501 -0.00000000000E+00  0.00000000000E+00  0.68782477673E+03  0.68782477673E+03  0.00000000000E+00 0.  1.
          1   -1    0    0  501    0  0.00000000000E+00 -0.00000000000E+00 -0.47970829279E+03  0.47970829279E+03  0.00000000000E+00 0. -1.
         23    2    1    2    0    0  0.38251508306E+03 -0.13861969512E+03  0.13863664294E+03  0.43924055224E+03  0.90437466349E+02 0.  0.
    5000000    2    1    2    0    0 -0.38251508306E+03  0.13861969512E+03  0.69479840998E+02  0.72829251727E+03  0.60004111006E+03 0.  0.
         23    2    4    4    0    0 -0.20162883973E+03 -0.20214719959E+03 -0.70534684448E+02  0.30789446176E+03  0.91138238740E+02 0.  0.
         23    2    4    4    0    0 -0.18088624334E+03  0.34076689471E+03  0.14001452545E+03  0.42039805552E+03  0.91041464119E+02 0.  0.
          2    1    3    3  502    0  0.32826406923E+03 -0.84171105950E+02  0.12485689351E+03  0.36115276280E+03  0.00000000000E+00 0. -1.
         -2    1    3    3    0  502  0.54251013838E+02 -0.54448589172E+02  0.13779749431E+02  0.78087789440E+02  0.00000000000E+00 0.  1.
         11    1    5    5    0    0 -0.13393743917E+01 -0.45148032697E+02 -0.86381031952E+01  0.45986472000E+02  0.00000000000E+00 0.  1.
        -11    1    5    5    0    0 -0.20028946533E+03 -0.15699916689E+03 -0.61896581253E+02  0.26190798976E+03  0.00000000000E+00 0. -1.
          3    1    6    6  503    0 -0.15359518212E+03  0.31005934243E+03  0.93682664548E+02  0.35847554650E+03  0.00000000000E+00 0. -1.
         -3    1    6    6    0  503 -0.27291061215E+02  0.30707552279E+02  0.46331860898E+02  0.61922509021E+02  0.00000000000E+00 0.  1.
<mgrwt>
<rscale>  0 0.55125139E+03</rscale>
<asrwt>0</asrwt>
<pdfrwt beam="1">  1        1 0.73801275E-01 0.55125139E+03</pdfrwt>
<pdfrwt beam="2">  1       -1 0.10581920E+00 0.55125139E+03</pdfrwt>
<totfact> 0.40941574E+01</totfact>
</mgrwt>
</event>
<event>
12    1  0.1418317E-007  0.6757537E+03  0.7818608E-02  0.9759619E-01
          1   -1    0    0  501    0  0.00000000000E+00  0.00000000000E+00  0.31832669537E+03  0.31832669537E+03  0.00000000000E+00 0. -1.
         -1   -1    0    0    0  501 -0.00000000000E+00 -0.00000000000E+00 -0.19030492904E+04  0.19030492904E+04  0.00000000000E+00 0.  1.
         23    2    1    2    0    0  0.26043914232E+03  0.57099316404E+03 -0.96510404284E+03  0.11546734358E+04  0.89348696250E+02 0.  0.
    5000000    2    1    2    0    0 -0.26043914232E+03 -0.57099316404E+03 -0.61961855215E+03  0.10667025500E+04  0.60005453062E+03 0.  0.
         23    2    4    4    0    0 -0.12946173298E+03 -0.31828917805E+02  0.68688362530E+02  0.17721067750E+03  0.94403986985E+02 0.  0.
         23    2    4    4    0    0 -0.13097740933E+03 -0.53916424623E+03 -0.68830691468E+03  0.88949187247E+03  0.97858143351E+02 0.  0.
          3    1    3    3  502    0  0.35695744497E+02  0.39374407233E+02 -0.12045301885E+03  0.13165659828E+03  0.00000000000E+00 0. -1.
         -3    1    3    3    0  502  0.22474339782E+03  0.53161875680E+03 -0.84465102400E+03  0.10230168375E+04  0.00000000000E+00 0.  1.
         13    1    5    5    0    0 -0.14111700172E+03 -0.16541867253E+02  0.69073293672E+02  0.15798342143E+03  0.00000000000E+00 0.  1.
        -13    1    5    5    0    0  0.11655268744E+02 -0.15287050552E+02 -0.38493114194E+00  0.19227256072E+02  0.00000000000E+00 0. -1.
          2    1    6    6  503    0  0.79617402229E+01 -0.73561595417E+02 -0.12802171253E+03  0.14786567048E+03  0.00000000000E+00 0. -1.
         -2    1    6    6    0  503 -0.13893914956E+03 -0.46560265082E+03 -0.56028520215E+03  0.74162620199E+03  0.00000000000E+00 0.  1.
<mgrwt>
<rscale>  0 0.67575374E+03</rscale>
<asrwt>0</asrwt>
<pdfrwt beam="1">  1        1 0.48973337E-01 0.67575374E+03</pdfrwt>
<pdfrwt beam="2">  1       -1 0.29277682E+00 0.67575374E+03</pdfrwt>
<totfact> 0.31635643E+00</totfact>
</mgrwt>
</event>
<event>
12    1  0.1418317E-007  0.6611853E+03  0.7818608E-02  0.9786014E-01
          1   -1    0    0  501    0  0.00000000000E+00  0.00000000000E+00  0.19665003225E+04  0.19665003225E+04  0.00000000000E+00 0. -1.
         -1   -1    0    0    0  501 -0.00000000000E+00 -0.00000000000E+00 -0.40074600354E+03  0.40074600354E+03  0.00000000000E+00 0.  1.
         23    2    1    2    0    0 -0.45311192606E+02  0.55433934099E+03  0.14309221408E+04  0.15380768437E+04  0.93792298185E+02 0.  0.
    5000000    2    1    2    0    0  0.45311192606E+02 -0.55433934099E+03  0.13483217817E+03  0.82916948227E+03  0.59999758743E+03 0.  0.
         23    2    4    4    0    0 -0.22557027680E+03 -0.17333622695E+03 -0.77420902761E+02  0.30779389941E+03  0.88406396722E+02 0.  0.
         23    2    4    4    0    0  0.27088146940E+03 -0.38100311403E+03  0.21225308093E+03  0.52137558286E+03  0.90779869320E+02 0.  0.
          4    1    3    3  502    0 -0.30509934602E+02  0.21895892290E+03  0.45150400551E+03  0.50272232198E+03  0.00000000000E+00 0.  1.
         -4    1    3    3    0  502 -0.14801258004E+02  0.33538041809E+03  0.97941813525E+03  0.10353545218E+04  0.00000000000E+00 0. -1.
         13    1    5    5    0    0  0.56664902549E+00 -0.30022945120E+02 -0.10728050790E+02  0.31887135314E+02  0.00000000000E+00 0. -1.
        -13    1    5    5    0    0 -0.22613692582E+03 -0.14331328183E+03 -0.66692851971E+02  0.27590676410E+03  0.00000000000E+00 0.  1.
          2    1    6    6  503    0  0.13021572837E+03 -0.19884101251E+03  0.15645676007E+03  0.28455685187E+03  0.00000000000E+00 0.  1.
         -2    1    6    6    0  503  0.14066574103E+03 -0.18216210152E+03  0.55796320862E+02  0.23681873100E+03  0.00000000000E+00 0. -1.
<mgrwt>
<rscale>  0 0.66118533E+03</rscale>
<asrwt>0</asrwt>
<pdfrwt beam="1">  1        1 0.30253851E+00 0.66118533E+03</pdfrwt>
<pdfrwt beam="2">  1       -1 0.61653232E-01 0.66118533E+03</pdfrwt>
<totfact> 0.89004622E+00</totfact>
</mgrwt>
</event>
<event>
12    1  0.1418317E-007  0.5229569E+03  0.7818608E-02  0.1007955E+00
          2   -1    0    0  501    0  0.00000000000E+00  0.00000000000E+00  0.19781655643E+04  0.19781655643E+04  0.00000000000E+00 0. -1.
         -2   -1    0    0    0  501 -0.00000000000E+00 -0.00000000000E+00 -0.16630725638E+03  0.16630725638E+03  0.00000000000E+00 0.  1.
         23    2    1    2    0    0 -0.10466106122E+03  0.37111807638E+03  0.92616467750E+03  0.10073269895E+04  0.90796969109E+02 0.  0.
    5000000    2    1    2    0    0  0.10466106122E+03 -0.37111807638E+03  0.88569363043E+03  0.11371458312E+04  0.59997072432E+03 0.  0.
         23    2    4    4    0    0 -0.87072275705E+02  0.10190657121E+03  0.88462671746E+02  0.18619077516E+03  0.94206316191E+02 0.  0.
         23    2    4    4    0    0  0.19173333692E+03 -0.47302464759E+03  0.79723095869E+03  0.95095505603E+03  0.90688077371E+02 0.  0.
          3    1    3    3  502    0 -0.98995273119E+02  0.19049058068E+03  0.47194403157E+03  0.51847651284E+03  0.00000000000E+00 0. -1.
         -3    1    3    3    0  502 -0.56657880988E+01  0.18062749571E+03  0.45422064592E+03  0.48885047667E+03  0.00000000000E+00 0.  1.
         13    1    5    5    0    0 -0.31618703035E+02  0.50392918882E+02 -0.11716167688E+02  0.60633796190E+02  0.00000000000E+00 0. -1.
        -13    1    5    5    0    0 -0.55453572670E+02  0.51513652327E+02  0.10017883943E+03  0.12555697897E+03  0.00000000000E+00 0.  1.
          1    1    6    6  503    0  0.42094444203E+02 -0.19614465083E+03  0.36170493895E+03  0.41361229327E+03  0.00000000000E+00 0. -1.
         -1    1    6    6    0  503  0.14963889272E+03 -0.27687999676E+03  0.43552601974E+03  0.53734276276E+03  0.00000000000E+00 0.  1.
<mgrwt>
<rscale>  0 0.52295693E+03</rscale>
<asrwt>0</asrwt>
<pdfrwt beam="1">  1        2 0.30433315E+00 0.52295693E+03</pdfrwt>
<pdfrwt beam="2">  1       -2 0.25585733E-01 0.52295693E+03</pdfrwt>
<totfact> 0.99680615E+01</totfact>
</mgrwt>
</event>
<event>
12    1  0.1418317E-007  0.6618329E+03  0.7818608E-02  0.9784826E-01
          2   -1    0    0  501    0  0.00000000000E+00  0.00000000000E+00  0.34687333570E+04  0.34687333570E+04  0.00000000000E+00 0. -1.
         -2   -1    0    0    0  501 -0.00000000000E+00 -0.00000000000E+00 -0.13194261891E+03  0.13194261891E+03  0.00000000000E+00 0.  1.
         23    2    1    2    0    0 -0.42306034400E+03 -0.31482579090E+03  0.16295048928E+04  0.17152196856E+04  0.92720229012E+02 0.  0.
    5000000    2    1    2    0    0  0.42306034400E+03  0.31482579090E+03  0.17072858453E+04  0.18854562903E+04  0.60168524321E+03 0.  0.
         23    2    4    4    0    0  0.24258071794E+03  0.47495116727E+03  0.11348953148E+04  0.12571705054E+04  0.89812516508E+02 0.  0.
         23    2    4    4    0    0  0.18047962606E+03 -0.16012537637E+03  0.57239053047E+03  0.62828578489E+03  0.94334916853E+02 0.  0.
          3    1    3    3  502    0 -0.13482649392E+03 -0.89770484950E+02  0.64388962396E+03  0.66395088016E+03  0.00000000000E+00 0. -1.
         -3    1    3    3    0  502 -0.28823385008E+03 -0.22505530595E+03  0.98561526881E+03  0.10512688054E+04  0.00000000000E+00 0.  1.
         11    1    5    5    0    0  0.18428148539E+03  0.28896318795E+03  0.78718980236E+03  0.85856110720E+03  0.00000000000E+00 0. -1.
        -11    1    5    5    0    0  0.58299232548E+02  0.18598797932E+03  0.34770551244E+03  0.39860939822E+03  0.00000000000E+00 0.  1.
          4    1    6    6  503    0  0.17217294474E+03 -0.10298475366E+03  0.46281809834E+03  0.50443034656E+03  0.00000000000E+00 0. -1.
         -4    1    6    6    0  503  0.83066813170E+01 -0.57140622710E+02  0.10957243214E+03  0.12385543833E+03  0.00000000000E+00 0.  1.
<mgrwt>
<rscale>  0 0.66183287E+03</rscale>
<asrwt>0</asrwt>
<pdfrwt beam="1">  1        2 0.53365122E+00 0.66183287E+03</pdfrwt>
<pdfrwt beam="2">  1       -2 0.20298867E-01 0.66183287E+03</pdfrwt>
<totfact> 0.19440103E+01</totfact>
</mgrwt>
</event>
<event>
12    1  0.1418317E-007  0.5861001E+03  0.7818608E-02  0.9934671E-01
          2   -1    0    0  501    0  0.00000000000E+00  0.00000000000E+00  0.38628937779E+03  0.38628937779E+03  0.00000000000E+00 0. -1.
         -2   -1    0    0    0  501 -0.00000000000E+00 -0.00000000000E+00 -0.20583080105E+04  0.20583080105E+04  0.00000000000E+00 0.  1.
         23    2    1    2    0    0 -0.48421859532E+03 -0.11717531497E+03 -0.15798315941E+04  0.16590166978E+04  0.90944132322E+02 0.  0.
    5000000    2    1    2    0    0  0.48421859532E+03  0.11717531497E+03 -0.92187038548E+02  0.78558069048E+03  0.60036727816E+03 0.  0.
         23    2    4    4    0    0  0.46055879931E+03 -0.61058044973E+02  0.12496932788E+03  0.48926793373E+03  0.89012839444E+02 0.  0.
         23    2    4    4    0    0  0.23659796012E+02  0.17823335995E+03 -0.21715636643E+03  0.29631275676E+03  0.91200031745E+02 0.  0.
          1    1    3    3  502    0 -0.12990232751E+03 -0.15330304305E+02 -0.54500436550E+03  0.56048139249E+03  0.00000000000E+00 0. -1.
         -1    1    3    3    0  502 -0.35431626781E+03 -0.10184501067E+03 -0.10348272286E+04  0.10985353053E+04  0.00000000000E+00 0.  1.
         13    1    5    5    0    0  0.26492959051E+03 -0.79330111110E+02  0.71817080582E+02  0.28572477583E+03  0.00000000000E+00 0. -1.
        -13    1    5    5    0    0  0.19562920880E+03  0.18272066137E+02  0.53152247298E+02  0.20354315790E+03  0.00000000000E+00 0.  1.
          4    1    6    6  503    0  0.54426072472E+02  0.14254295107E+03 -0.14752825939E+03  0.21223872781E+03  0.00000000000E+00 0. -1.
         -4    1    6    6    0  503 -0.30766276460E+02  0.35690408876E+02 -0.69628107039E+02  0.84074028944E+02  0.00000000000E+00 0.  1.
<mgrwt>
<rscale>  0 0.58610015E+03</rscale>
<asrwt>0</asrwt>
<pdfrwt beam="1">  1        2 0.59429135E-01 0.58610015E+03</pdfrwt>
<pdfrwt beam="2">  1       -2 0.31666277E+00 0.58610015E+03</pdfrwt>
<totfact> 0.22325303E+00</totfact>
</mgrwt>
</event>
<event>
12    1  0.1418317E-007  0.4947169E+03  0.7818608E-02  0.1015167E+00
          2   -1    0    0  501    0  0.00000000000E+00  0.00000000000E+00  0.32996014245E+04  0.32996014245E+04  0.00000000000E+00 0.  1.
         -2   -1    0    0    0  501 -0.00000000000E+00 -0.00000000000E+00 -0.42595977501E+03  0.42595977501E+03  0.00000000000E+00 0. -1.
         23    2    1    2    0    0  0.18295524696E+03  0.32370744424E+03 -0.29264054597E+03  0.48155109777E+03  0.89408270129E+02 0.  0.
    5000000    2    1    2    0    0 -0.18295524696E+03 -0.32370744424E+03  0.31662821955E+04  0.32440101018E+04  0.59999955592E+03 0.  0.
         23    2    4    4    0    0  0.87907307358E+01  0.11912715545E+03  0.14782225577E+04  0.14859588342E+04  0.93076156777E+02 0.  0.
         23    2    4    4    0    0 -0.19174597770E+03 -0.44283459969E+03  0.16880596378E+04  0.17580512675E+04  0.91268372311E+02 0.  0.
          3    1    3    3  502    0  0.11001186994E+03  0.18354745792E+03 -0.22241413931E+03  0.30864272258E+03  0.00000000000E+00 0. -1.
         -3    1    3    3    0  502  0.72943377020E+02  0.14015998632E+03 -0.70226406654E+02  0.17290837519E+03  0.00000000000E+00 0.  1.
         13    1    5    5    0    0 -0.16027250169E+02  0.67203814976E+01  0.59656462594E+03  0.59681771857E+03  0.00000000000E+00 0. -1.
        -13    1    5    5    0    0  0.24817980905E+02  0.11240677395E+03  0.88165793172E+03  0.88914111566E+03  0.00000000000E+00 0.  1.
          3    1    6    6  503    0 -0.40187252924E+02 -0.14901692321E+03  0.67461859762E+03  0.69204863338E+03  0.00000000000E+00 0. -1.
         -3    1    6    6    0  503 -0.15155872477E+03 -0.29381767648E+03  0.10134410402E+04  0.10660026342E+04  0.00000000000E+00 0.  1.
<mgrwt>
<rscale>  0 0.49471694E+03</rscale>
<asrwt>0</asrwt>
<pdfrwt beam="1">  1        2 0.50763097E+00 0.49471694E+03</pdfrwt>
<pdfrwt beam="2">  1       -2 0.65532275E-01 0.49471694E+03</pdfrwt>
<totfact> 0.27595260E+00</totfact>
</mgrwt>
</event>
<event>
12    1  0.1418317E-007  0.3836236E+03  0.7818608E-02  0.1049603E+00
         -2   -1    0    0    0  501 -0.00000000000E+00  0.00000000000E+00  0.50064756998E+03  0.50064756998E+03  0.00000000000E+00 0.  1.
          2   -1    0    0  501    0  0.00000000000E+00 -0.00000000000E+00 -0.60510787024E+03  0.60510787024E+03  0.00000000000E+00 0. -1.
         23    2    1    2    0    0 -0.19989367872E+03 -0.28849273198E+03 -0.18468018172E+03  0.40595878463E+03  0.86661560709E+02 0.  0.
    5000000    2    1    2    0    0  0.19989367872E+03  0.28849273198E+03  0.80219881464E+02  0.69979665559E+03  0.60007882032E+03 0.  0.
         23    2    4    4    0    0 -0.43259424638E+02  0.61166352584E+02  0.27833103435E+03  0.30258129817E+03  0.92057464735E+02 0.  0.
         23    2    4    4    0    0  0.24315310336E+03  0.22732637939E+03 -0.19811115288E+03  0.39721535742E+03  0.87927793296E+02 0.  0.
          2    1    3    3  502    0 -0.83220053701E+02 -0.13813163729E+03 -0.13223197904E+03  0.20854549345E+03  0.00000000000E+00 0. -1.
         -2    1    3    3    0  502 -0.11667362502E+03 -0.15036109468E+03 -0.52448202681E+02  0.19741329118E+03  0.00000000000E+00 0.  1.
         13    1    5    5    0    0 -0.17338681981E+02  0.51838388813E+02  0.54946778016E+02  0.77504818314E+02  0.00000000000E+00 0. -1.
        -13    1    5    5    0    0 -0.25920742658E+02  0.93279637705E+01  0.22338425633E+03  0.22507647986E+03  0.00000000000E+00 0.  1.
          2    1    6    6  503    0  0.23856584583E+03  0.21848718944E+03 -0.16601292815E+03  0.36360776540E+03  0.00000000000E+00 0. -1.
         -2    1    6    6    0  503  0.45872575310E+01  0.88391899503E+01 -0.32098224729E+02  0.33607592020E+02  0.00000000000E+00 0.  1.
<mgrwt>
<rscale>  0 0.38362355E+03</rscale>
<asrwt>0</asrwt>
<pdfrwt beam="1">  1        2 0.93093518E-01 0.38362355E+03</pdfrwt>
<pdfrwt beam="2">  1       -2 0.77022704E-01 0.38362355E+03</pdfrwt>
<totfact> 0.77133983E+01</totfact>
</mgrwt>
</event>
<event>
12    1  0.1418317E-007  0.4348413E+03  0.7818608E-02  0.1032341E+00
         -1   -1    0    0    0  501 -0.00000000000E+00  0.00000000000E+00  0.14549561871E+03  0.14549561871E+03  0.00000000000E+00 0.  1.
          1   -1    0    0  501    0  0.00000000000E+00 -0.00000000000E+00 -0.16698940303E+04  0.16698940303E+04  0.00000000000E+00 0. -1.
         23    2    1    2    0    0 -0.18842598209E+02 -0.25071098496E+03 -0.79220876214E+03  0.83600737101E+03  0.90014221588E+02 0.  0.
    5000000    2    1    2    0    0  0.18842598209E+02  0.25071098496E+03 -0.73218964949E+03  0.97938227804E+03  0.59989742642E+03 0.  0.
         23    2    4    4    0    0 -0.23198024942E+03  0.27411747056E+03 -0.31945849188E+03  0.48936735730E+03  0.92040526779E+02 0.  0.
         23    2    4    4    0    0  0.25082284763E+03 -0.23406485604E+02 -0.41273115762E+03  0.49001492074E+03  0.79420712766E+02 0.  0.
          1    1    3    3  502    0 -0.10116846665E+02 -0.47263368727E+02 -0.29140025825E+03  0.29538159576E+03  0.00000000000E+00 0. -1.
         -1    1    3    3    0  502 -0.87257515441E+01 -0.20344761623E+03 -0.50080850389E+03  0.54062577525E+03  0.00000000000E+00 0.  1.
         11    1    5    5    0    0 -0.88863216904E+02  0.69899771630E+02 -0.15012022309E+03  0.18793278259E+03  0.00000000000E+00 0. -1.
        -11    1    5    5    0    0 -0.14311703252E+03  0.20421769893E+03 -0.16933826879E+03  0.30143457471E+03  0.00000000000E+00 0.  1.
          1    1    6    6  503    0  0.57186500180E+02 -0.23011709303E+02 -0.16119117306E+03  0.17257586402E+03  0.00000000000E+00 0. -1.
         -1    1    6    6    0  503  0.19363634745E+03 -0.39477630149E+00 -0.25153998455E+03  0.31743905672E+03  0.00000000000E+00 0.  1.
<mgrwt>
<rscale>  0 0.43484126E+03</rscale>
<asrwt>0</asrwt>
<pdfrwt beam="1">  1        1 0.25690678E+00 0.43484126E+03</pdfrwt>
<pdfrwt beam="2">  1       -1 0.22383940E-01 0.43484126E+03</pdfrwt>
<totfact> 0.90228022E+01</totfact>
</mgrwt>
</event>
<event>
12    1  0.1418317E-007  0.9735659E+03  0.7818608E-02  0.9338022E-01
         -2   -1    0    0    0  501 -0.00000000000E+00  0.00000000000E+00  0.98584511246E+03  0.98584511246E+03  0.00000000000E+00 0.  1.
          2   -1    0    0  501    0  0.00000000000E+00 -0.00000000000E+00 -0.11229398025E+04  0.11229398025E+04  0.00000000000E+00 0. -1.
         23    2    1    2    0    0 -0.87115971798E+03 -0.41348328784E+03 -0.68173555906E+02  0.97103555780E+03  0.91513590503E+02 0.  0.
    5000000    2    1    2    0    0  0.87115971798E+03  0.41348328784E+03 -0.68921134184E+02  0.11377493572E+04  0.59986314568E+03 0.  0.
         23    2    4    4    0    0  0.18348275068E+03  0.37245960062E+02  0.21422506034E+03  0.29874538475E+03  0.91122154787E+02 0.  0.
         23    2    4    4    0    0  0.68767696730E+03  0.37623732778E+03 -0.28314619452E+03  0.83900397246E+03  0.96445633243E+02 0.  0.
          1    1    3    3  502    0 -0.32999294224E+03 -0.11492622789E+03 -0.47337347994E+02  0.35262473580E+03  0.00000000000E+00 0. -1.
         -1    1    3    3    0  502 -0.54116677574E+03 -0.29855705995E+03 -0.20836207912E+02  0.61841082200E+03  0.00000000000E+00 0.  1.
         11    1    5    5    0    0  0.12295401297E+03  0.44529287963E+02  0.85293657293E+02  0.15612672662E+03  0.00000000000E+00 0.  1.
        -11    1    5    5    0    0  0.60528737712E+02 -0.72833279011E+01  0.12893140304E+03  0.14261865812E+03  0.00000000000E+00 0. -1.
          4    1    6    6  503    0  0.56466795706E+03  0.34223111857E+03 -0.25817169671E+03  0.70896027056E+03  0.00000000000E+00 0. -1.
         -4    1    6    6    0  503  0.12300901023E+03  0.34006209207E+02 -0.24974497813E+02  0.13004370190E+03  0.00000000000E+00 0.  1.
<mgrwt>
<rscale>  0 0.97356594E+03</rscale>
<asrwt>0</asrwt>
<pdfrwt beam="1">  1        2 0.17275997E+00 0.97356594E+03</pdfrwt>
<pdfrwt beam="2">  1       -2 0.15166848E+00 0.97356594E+03</pdfrwt>
<totfact> 0.60981654E+00</totfact>
</mgrwt>
</event>
<event>
12    1  0.1418317E-007  0.4963855E+03  0.7818608E-02  0.1014727E+00
          2   -1    0    0  501    0  0.00000000000E+00  0.00000000000E+00  0.11127688455E+04  0.11127688455E+04  0.00000000000E+00 0. -1.
         -2   -1    0    0    0  501 -0.00000000000E+00 -0.00000000000E+00 -0.29749773312E+03  0.29749773312E+03  0.00000000000E+00 0.  1.
         23    2    1    2    0    0 -0.40690226237E+03  0.66207067936E+02  0.31883445562E+03  0.52897236307E+03  0.90573306399E+02 0.  0.
    5000000    2    1    2    0    0  0.40690226237E+03 -0.66207067936E+02  0.49643665680E+03  0.88129421559E+03  0.60023104988E+03 0.  0.
         23    2    4    4    0    0  0.65861423383E+02  0.14473359687E+03 -0.56617952818E+02  0.19201854615E+03  0.91542276198E+02 0.  0.
         23    2    4    4    0    0  0.34104083899E+03 -0.21094066481E+03  0.55305460962E+03  0.68927566944E+03  0.91797218540E+02 0.  0.
          1    1    3    3  502    0 -0.16570974608E+03  0.39710600299E+02  0.18636105360E+03  0.25252147239E+03  0.00000000000E+00 0. -1.
         -1    1    3    3    0  502 -0.24119251629E+03  0.26496467637E+02  0.13247340203E+03  0.27645089068E+03  0.00000000000E+00 0.  1.
         11    1    5    5    0    0  0.50389585118E+02  0.44655251110E+02 -0.60724766003E+02  0.90668070158E+02  0.00000000000E+00 0.  1.
        -11    1    5    5    0    0  0.15471838265E+02  0.10007834576E+03  0.41068131855E+01  0.10135047599E+03  0.00000000000E+00 0. -1.
          3    1    6    6  503    0  0.30589227918E+03 -0.14979206780E+03  0.46698073009E+03  0.57799546046E+03  0.00000000000E+00 0. -1.
         -3    1    6    6    0  503  0.35148559803E+02 -0.61148597010E+02  0.86073879533E+02  0.11128020898E+03  0.00000000000E+00 0.  1.
<mgrwt>
<rscale>  0 0.49638552E+03</rscale>
<asrwt>0</asrwt>
<pdfrwt beam="1">  1        2 0.17119520E+00 0.49638552E+03</pdfrwt>
<pdfrwt beam="2">  1       -2 0.45768883E-01 0.49638552E+03</pdfrwt>
<totfact> 0.10063314E+02</totfact>
</mgrwt>
</event>
<event>
12    1  0.1418317E-007  0.9015036E+03  0.7818608E-02  0.9423704E-01
         -1   -1    0    0    0  501 -0.00000000000E+00  0.00000000000E+00  0.19176849957E+04  0.19176849957E+04  0.00000000000E+00 0.  1.
          1   -1    0    0  501    0  0.00000000000E+00 -0.00000000000E+00 -0.52542813871E+03  0.52542813871E+03  0.00000000000E+00 0. -1.
         23    2    1    2    0    0 -0.58853814789E+03 -0.64456362831E+03  0.95618003470E+03  0.12977413016E+04  0.89514270990E+02 0.  0.
    5000000    2    1    2    0    0  0.58853814789E+03  0.64456362831E+03  0.43607682229E+03  0.11453718328E+04  0.59989517245E+03 0.  0.
         23    2    4    4    0    0  0.60320163042E+02  0.26317796420E+03 -0.94668275127E+02  0.29999441600E+03  0.90185389103E+02 0.  0.
         23    2    4    4    0    0  0.52821798484E+03  0.38138566411E+03  0.53074509742E+03  0.84537741678E+03  0.92213632729E+02 0.  0.
          1    1    3    3  502    0 -0.44659853206E+03 -0.52387310415E+03  0.70912332734E+03  0.98830621341E+03  0.00000000000E+00 0.  1.
         -1    1    3    3    0  502 -0.14193961583E+03 -0.12069052417E+03  0.24705670736E+03  0.30943508821E+03  0.00000000000E+00 0. -1.
         13    1    5    5    0    0  0.30832988087E+02  0.44367231735E+02  0.11134247720E+02  0.55164262694E+02  0.00000000000E+00 0.  1.
        -13    1    5    5    0    0  0.29487174955E+02  0.21881073247E+03 -0.10580252285E+03  0.24483015331E+03  0.00000000000E+00 0. -1.
          2    1    6    6  503    0  0.35495953855E+03  0.28497343109E+03  0.32268997766E+03  0.55797397082E+03  0.00000000000E+00 0.  1.
         -2    1    6    6    0  503  0.17325844630E+03  0.96412233022E+02  0.20805511976E+03  0.28740344596E+03  0.00000000000E+00 0. -1.
<mgrwt>
<rscale>  0 0.90150357E+03</rscale>
<asrwt>0</asrwt>
<pdfrwt beam="1">  1        1 0.80835099E-01 0.90150357E+03</pdfrwt>
<pdfrwt beam="2">  1       -1 0.29502846E+00 0.90150357E+03</pdfrwt>
<totfact> 0.15118015E+00</totfact>
</mgrwt>
</event>
<event>
12    1  0.1418317E-007  0.6190522E+03  0.7818608E-02  0.9866649E-01
         -1   -1    0    0    0  501 -0.00000000000E+00  0.00000000000E+00  0.63642622071E+03  0.63642622071E+03  0.00000000000E+00 0.  1.
          1   -1    0    0  501    0  0.00000000000E+00 -0.00000000000E+00 -0.73635432699E+03  0.73635432699E+03  0.00000000000E+00 0. -1.
         23    2    1    2    0    0  0.53093424525E+03 -0.51980012219E+02 -0.16907130697E+03  0.56696248363E+03  0.90929954135E+02 0.  0.
    5000000    2    1    2    0    0 -0.53093424525E+03  0.51980012219E+02  0.69143200695E+02  0.80581806407E+03  0.59997406255E+03 0.  0.
         23    2    4    4    0    0 -0.19164402390E+03 -0.18252255721E+03  0.22187660675E+03  0.35711241427E+03  0.90874264896E+02 0.  0.
         23    2    4    4    0    0 -0.33929022135E+03  0.23450256943E+03 -0.15273340605E+03  0.44870564980E+03  0.88881704858E+02 0.  0.
          3    1    3    3  502    0  0.24349176650E+03 -0.67498325268E+02 -0.92705999133E+02  0.26914432289E+03  0.00000000000E+00 0. -1.
         -3    1    3    3    0  502  0.28744247875E+03  0.15518313048E+02 -0.76365307838E+02  0.29781816075E+03  0.00000000000E+00 0.  1.
         11    1    5    5    0    0 -0.52388025500E+02 -0.88275746497E+01  0.68856507674E+02  0.86969247088E+02  0.00000000000E+00 0.  1.
        -11    1    5    5    0    0 -0.13925599840E+03 -0.17369498256E+03  0.15302009907E+03  0.27014316719E+03  0.00000000000E+00 0. -1.
          4    1    6    6  503    0 -0.27586431810E+03  0.14367728921E+03 -0.10842407313E+03  0.32939348061E+03  0.00000000000E+00 0. -1.
         -4    1    6    6    0  503 -0.63425903249E+02  0.90825280226E+02 -0.44309332917E+02  0.11931216918E+03  0.00000000000E+00 0.  1.
<mgrwt>
<rscale>  0 0.61905217E+03</rscale>
<asrwt>0</asrwt>
<pdfrwt beam="1">  1        1 0.11328528E+00 0.61905217E+03</pdfrwt>
<pdfrwt beam="2">  1       -1 0.97911726E-01 0.61905217E+03</pdfrwt>
<totfact> 0.26261452E+01</totfact>
</mgrwt>
</event>
<event>
12    1  0.1418317E-007  0.5153153E+03  0.7818608E-02  0.1009857E+00
         -2   -1    0    0    0  501 -0.00000000000E+00  0.00000000000E+00  0.79708121388E+03  0.79708121388E+03  0.00000000000E+00 0.  1.
          2   -1    0    0  501    0  0.00000000000E+00 -0.00000000000E+00 -0.98904980831E+03  0.98904980831E+03  0.00000000000E+00 0. -1.
         23    2    1    2    0    0  0.20766239389E+03  0.34194559351E+03  0.59256483662E+03  0.72064033858E+03  0.90216147315E+02 0.  0.
    5000000    2    1    2    0    0 -0.20766239389E+03 -0.34194559351E+03 -0.78453343105E+03  0.10654906836E+04  0.59977265166E+03 0.  0.
         23    2    4    4    0    0  0.20385006107E+02  0.11581316984E+03 -0.37689913924E+03  0.40544068486E+03  0.92200591089E+02 0.  0.
         23    2    4    4    0    0 -0.22804740000E+03 -0.45775876335E+03 -0.40763429181E+03  0.66004999875E+03  0.89171648704E+02 0.  0.
          1    1    3    3  502    0  0.18604509979E+03  0.28513474204E+03  0.43947971312E+03  0.55592896895E+03  0.00000000000E+00 0. -1.
         -1    1    3    3    0  502  0.21617294099E+02  0.56810851469E+02  0.15308512350E+03  0.16471136963E+03  0.00000000000E+00 0.  1.
         13    1    5    5    0    0  0.10314981564E+02  0.38523040311E+02 -0.27117028536E+03  0.27408711597E+03  0.00000000000E+00 0. -1.
        -13    1    5    5    0    0  0.10070024543E+02  0.77290129527E+02 -0.10572885388E+03  0.13135356889E+03  0.00000000000E+00 0.  1.
          4    1    6    6  503    0 -0.16310714422E+03 -0.33930743847E+03 -0.34693412256E+03  0.51195386872E+03  0.00000000000E+00 0. -1.
         -4    1    6    6    0  503 -0.64940255777E+02 -0.11845132488E+03 -0.60700169242E+02  0.14809613004E+03  0.00000000000E+00 0.  1.
<mgrwt>
<rscale>  0 0.51531529E+03</rscale>
<asrwt>0</asrwt>
<pdfrwt beam="1">  1        2 0.15216151E+00 0.51531529E+03</pdfrwt>
<pdfrwt beam="2">  1       -2 0.12262788E+00 0.51531529E+03</pdfrwt>
<totfact> 0.13522242E+01</totfact>
</mgrwt>
</event>
<event>
12    1  0.1418317E-007  0.1414948E+04  0.7818608E-02  0.8943069E-01
         -2   -1    0    0    0  501 -0.00000000000E+00  0.00000000000E+00  0.90314057860E+03  0.90314057860E+03  0.00000000000E+00 0.  1.
          2   -1    0    0  501    0  0.00000000000E+00 -0.00000000000E+00 -0.30453102816E+04  0.30453102816E+04  0.00000000000E+00 0. -1.
         23    2    1    2    0    0 -0.60987987393E+03  0.12327882238E+04 -0.57121596798E+02  0.13795567025E+04  0.90518248238E+02 0.  0.
    5000000    2    1    2    0    0  0.60987987393E+03 -0.12327882238E+04 -0.20850481062E+04  0.25688941577E+04  0.60005943280E+03 0.  0.
         23    2    4    4    0    0  0.22134886969E+03 -0.92779134910E+03 -0.10687863427E+04  0.14352544606E+04  0.88651062290E+02 0.  0.
         23    2    4    4    0    0  0.38853100424E+03 -0.30499687468E+03 -0.10162617635E+04  0.11336396971E+04  0.91496207342E+02 0.  0.
          1    1    3    3  502    0 -0.14352064372E+03  0.37267159693E+03  0.20301233976E+01  0.39935750366E+03  0.00000000000E+00 0. -1.
         -1    1    3    3    0  502 -0.46635923022E+03  0.86011662686E+03 -0.59151720195E+02  0.98019919884E+03  0.00000000000E+00 0.  1.
         11    1    5    5    0    0  0.21208021407E+03 -0.75621904269E+03 -0.85500289899E+03  0.11609802819E+04  0.00000000000E+00 0.  1.
        -11    1    5    5    0    0  0.92686556199E+01 -0.17157230641E+03 -0.21378344369E+03  0.27427417869E+03  0.00000000000E+00 0. -1.
          1    1    6    6  503    0  0.19931991299E+03 -0.13678213375E+03 -0.59385377048E+03  0.64117086688E+03  0.00000000000E+00 0. -1.
         -1    1    6    6    0  503  0.18921109125E+03 -0.16821474094E+03 -0.42240799302E+03  0.49246883017E+03  0.00000000000E+00 0.  1.
<mgrwt>
<rscale>  0 0.14149478E+04</rscale>
<asrwt>0</asrwt>
<pdfrwt beam="1">  1        2 0.46850927E+00 0.14149478E+04</pdfrwt>
<pdfrwt beam="2">  1       -2 0.13894470E+00 0.14149478E+04</pdfrwt>
<totfact> 0.57289118E-01</totfact>
</mgrwt>
</event>
<event>
12    1  0.1418317E-007  0.1910216E+04  0.7818608E-02  0.8649788E-01
         -2   -1    0    0    0  501 -0.00000000000E+00  0.00000000000E+00  0.23722799495E+04  0.23722799495E+04  0.00000000000E+00 0.  1.
          2   -1    0    0  501    0  0.00000000000E+00 -0.00000000000E+00 -0.16052901317E+04  0.16052901317E+04  0.00000000000E+00 0. -1.
         23    2    1    2    0    0  0.64009926244E+03  0.17539874233E+04  0.75577504334E+03  0.20163642473E+04  0.91268366081E+02 0.  0.
    5000000    2    1    2    0    0 -0.64009926244E+03 -0.17539874233E+04  0.11214774492E+02  0.19612058340E+04  0.60000300435E+03 0.  0.
         23    2    4    4    0    0 -0.72407010663E+03 -0.13373067810E+04 -0.30786586356E+02  0.15238732309E+04  0.92600562211E+02 0.  0.
         23    2    4    4    0    0  0.83970844198E+02 -0.41668064229E+03  0.42001360848E+02  0.43733260308E+03  0.93924603103E+02 0.  0.
          2    1    3    3  502    0  0.14432540355E+03  0.36081186676E+03  0.11987860509E+03  0.40667665935E+03  0.00000000000E+00 0.  1.
         -2    1    3    3    0  502  0.49577385889E+03  0.13931755565E+04  0.63589643826E+03  0.16096875879E+04  0.00000000000E+00 0. -1.
         13    1    5    5    0    0 -0.68536743937E+03 -0.12338831975E+04 -0.47151851399E+02  0.14122392039E+04  0.00000000000E+00 0. -1.
        -13    1    5    5    0    0 -0.38702667264E+02 -0.10342358354E+03  0.16365265043E+02  0.11163402701E+03  0.00000000000E+00 0.  1.
          1    1    6    6  503    0  0.88748762429E+02 -0.26568667718E+03 -0.15111092918E+01  0.28012146779E+03  0.00000000000E+00 0. -1.
         -1    1    6    6    0  503 -0.47779182313E+01 -0.15099396511E+03  0.43512470139E+02  0.15721113529E+03  0.00000000000E+00 0.  1.
<mgrwt>
<rscale>  0 0.19102164E+04</rscale>
<asrwt>0</asrwt>
<pdfrwt beam="1">  1        2 0.24696771E+00 0.19102164E+04</pdfrwt>
<pdfrwt beam="2">  1       -2 0.36496615E+00 0.19102164E+04</pdfrwt>
<totfact> 0.12478820E-01</totfact>
</mgrwt>
</event>
<event>
12    1  0.1418317E-007  0.5179755E+03  0.7818608E-02  0.1009191E+00
         -1   -1    0    0    0  501 -0.00000000000E+00  0.00000000000E+00  0.10645846105E+03  0.10645846105E+03  0.00000000000E+00 0.  1.
          1   -1    0    0  501    0  0.00000000000E+00 -0.00000000000E+00 -0.30858036249E+04  0.30858036249E+04  0.00000000000E+00 0. -1.
         23    2    1    2    0    0 -0.30448415412E+03 -0.21620995577E+03 -0.15595397509E+04  0.16062960586E+04  0.92549706161E+02 0.  0.
    5000000    2    1    2    0    0  0.30448415412E+03  0.21620995577E+03 -0.14198054130E+04  0.15859660274E+04  0.59998623670E+03 0.  0.
         23    2    4    4    0    0  0.45195776025E+03  0.12253414617E+03 -0.11973783817E+04  0.12886801329E+04  0.87755695376E+02 0.  0.
         23    2    4    4    0    0 -0.14747360613E+03  0.93675809606E+02 -0.22242703130E+03  0.29728589446E+03  0.91550516019E+02 0.  0.
          2    1    3    3  502    0 -0.19854148846E+03 -0.14340114676E+03 -0.11926662819E+04  0.12175530672E+04  0.00000000000E+00 0. -1.
         -2    1    3    3    0  502 -0.10594266567E+03 -0.72808809011E+02 -0.36687346906E+03  0.38874299142E+03  0.00000000000E+00 0.  1.
         13    1    5    5    0    0  0.19411456118E+03  0.70690739484E+02 -0.63680959631E+03  0.66948047430E+03  0.00000000000E+00 0. -1.
        -13    1    5    5    0    0  0.25784319907E+03  0.51843406681E+02 -0.56056878537E+03  0.61919965863E+03  0.00000000000E+00 0.  1.
          3    1    6    6  503    0 -0.11425946339E+03  0.10753933814E+03 -0.20240251458E+03  0.25609902797E+03  0.00000000000E+00 0. -1.
         -3    1    6    6    0  503 -0.33214142736E+02 -0.13863528534E+02 -0.20024516722E+02  0.41186866488E+02  0.00000000000E+00 0.  1.
<mgrwt>
<rscale>  0 0.51797546E+03</rscale>
<asrwt>0</asrwt>
<pdfrwt beam="1">  1        1 0.47473899E+00 0.51797546E+03</pdfrwt>
<pdfrwt beam="2">  1       -1 0.16378226E-01 0.51797546E+03</pdfrwt>
<totfact> 0.16336834E+01</totfact>
</mgrwt>
</event>
<event>
12    1  0.1418317E-007  0.5032363E+03  0.7818608E-02  0.1012938E+00
         -1   -1    0    0    0  501 -0.00000000000E+00  0.00000000000E+00  0.16697135407E+03  0.16697135407E+03  0.00000000000E+00 0.  1.
          1   -1    0    0  501    0  0.00000000000E+00 -0.00000000000E+00 -0.20265185122E+04  0.20265185122E+04  0.00000000000E+00 0. -1.
         23    2    1    2    0    0  0.22383669136E+03  0.35020044385E+03 -0.56338001544E+03  0.70590117845E+03  0.90311774770E+02 0.  0.
    5000000    2    1    2    0    0 -0.22383669136E+03 -0.35020044385E+03 -0.12961671427E+04  0.14875886878E+04  0.60010634648E+03 0.  0.
         23    2    4    4    0    0  0.23596850309E+02  0.59296918392E+02 -0.74158335046E+03  0.74950149134E+03  0.87941366688E+02 0.  0.
         23    2    4    4    0    0 -0.24743354167E+03 -0.40949736224E+03 -0.55458379224E+03  0.73808719649E+03  0.91093796592E+02 0.  0.
          1    1    3    3  502    0  0.45897295826E+02  0.45465483105E+02 -0.44695469057E+02  0.78557984141E+02  0.00000000000E+00 0. -1.
         -1    1    3    3    0  502  0.17793939553E+03  0.30473496074E+03 -0.51868454638E+03  0.62734319430E+03  0.00000000000E+00 0.  1.
         13    1    5    5    0    0  0.44902516514E+02  0.51244123266E+00 -0.25593615842E+03  0.25984575381E+03  0.00000000000E+00 0. -1.
        -13    1    5    5    0    0 -0.21305666205E+02  0.58784477160E+02 -0.48564719204E+03  0.48965573753E+03  0.00000000000E+00 0.  1.
          4    1    6    6  503    0 -0.28160240947E+02 -0.19873200110E+02 -0.74364126523E+02  0.81963202513E+02  0.00000000000E+00 0.  1.
         -4    1    6    6    0  503 -0.21927330072E+03 -0.38962416213E+03 -0.48021966572E+03  0.65612399398E+03  0.00000000000E+00 0. -1.
<mgrwt>
<rscale>  0 0.50323629E+03</rscale>
<asrwt>0</asrwt>
<pdfrwt beam="1">  1        1 0.31177208E+00 0.50323629E+03</pdfrwt>
<pdfrwt beam="2">  1       -1 0.25687900E-01 0.50323629E+03</pdfrwt>
<totfact> 0.41074661E+01</totfact>
</mgrwt>
</event>
<event>
12    1  0.1418317E-007  0.7796817E+03  0.7818608E-02  0.9589902E-01
         -1   -1    0    0    0  501 -0.00000000000E+00  0.00000000000E+00  0.49566459761E+03  0.49566459761E+03  0.00000000000E+00 0.  1.
          1   -1    0    0  501    0  0.00000000000E+00 -0.00000000000E+00 -0.17043459466E+04  0.17043459466E+04  0.00000000000E+00 0. -1.
         23    2    1    2    0    0 -0.37946258778E+03  0.63825460052E+03 -0.95347935766E+03  0.12118223295E+04  0.89608493900E+02 0.  0.
    5000000    2    1    2    0    0  0.37946258778E+03 -0.63825460052E+03 -0.25520199134E+03  0.98818821472E+03  0.60002258351E+03 0.  0.
         23    2    4    4    0    0  0.28835431713E+03 -0.18288118313E+03  0.13247162269E+03  0.37643931160E+03  0.86971749169E+02 0.  0.
         23    2    4    4    0    0  0.91108270648E+02 -0.45537341740E+03 -0.38767361403E+03  0.61174890312E+03  0.90995731790E+02 0.  0.
          1    1    3    3  502    0 -0.31583740370E+03  0.56966345606E+03 -0.79470351874E+03  0.10275326766E+04  0.00000000000E+00 0. -1.
         -1    1    3    3    0  502 -0.63625184071E+02  0.68591144460E+02 -0.15877583892E+03  0.18428965292E+03  0.00000000000E+00 0.  1.
         11    1    5    5    0    0  0.20754886375E+03 -0.14208987449E+03  0.55402965873E+02  0.25755689062E+03  0.00000000000E+00 0. -1.
        -11    1    5    5    0    0  0.80805453374E+02 -0.40791308634E+02  0.77068656814E+02  0.11888242098E+03  0.00000000000E+00 0.  1.
          4    1    6    6  503    0  0.70861678126E+02 -0.14520807026E+03 -0.11564848150E+03  0.19869910007E+03  0.00000000000E+00 0. -1.
         -4    1    6    6    0  503  0.20246592522E+02 -0.31016534713E+03 -0.27202513253E+03  0.41304980305E+03  0.00000000000E+00 0.  1.
<mgrwt>
<rscale>  0 0.77968168E+03</rscale>
<asrwt>0</asrwt>
<pdfrwt beam="1">  1        1 0.26220707E+00 0.77968168E+03</pdfrwt>
<pdfrwt beam="2">  1       -1 0.76256092E-01 0.77968168E+03</pdfrwt>
<totfact> 0.84798184E+00</totfact>
</mgrwt>
</event>
<event>
12    1  0.1418317E-007  0.8308506E+03  0.7818608E-02  0.9516405E-01
         -2   -1    0    0    0  501 -0.00000000000E+00  0.00000000000E+00  0.57815798710E+03  0.57815798710E+03  0.00000000000E+00 0.  1.
          2   -1    0    0  501    0  0.00000000000E+00 -0.00000000000E+00 -0.12265957189E+04  0.12265957189E+04  0.00000000000E+00 0. -1.
         23    2    1    2    0    0  0.21044206336E+03 -0.69902751508E+03 -0.33827241969E+03  0.81018546680E+03  0.95115360550E+02 0.  0.
    5000000    2    1    2    0    0 -0.21044206336E+03  0.69902751508E+03 -0.31016531211E+03  0.99456823920E+03  0.60003177642E+03 0.  0.
         23    2    4    4    0    0 -0.30847313179E+03  0.11793263670E+03 -0.17189330916E+03  0.38256625145E+03  0.88010494709E+02 0.  0.
         23    2    4    4    0    0  0.98031068432E+02  0.58109487838E+03 -0.13827200294E+03  0.61200198774E+03  0.90254851087E+02 0.  0.
          2    1    3    3  502    0  0.62865733587E+02 -0.34276893838E+03 -0.19106803955E+03  0.39742878773E+03  0.00000000000E+00 0. -1.
         -2    1    3    3    0  502  0.14757632977E+03 -0.35625857670E+03 -0.14720438014E+03  0.41275667907E+03  0.00000000000E+00 0.  1.
         11    1    5    5    0    0 -0.16545597048E+03  0.94265600869E+02 -0.13364577437E+03  0.23264323477E+03  0.00000000000E+00 0. -1.
        -11    1    5    5    0    0 -0.14301716131E+03  0.23667035831E+02 -0.38247534789E+02  0.14992301669E+03  0.00000000000E+00 0.  1.
          1    1    6    6  503    0  0.60677860808E+02  0.49021342730E+03 -0.14106957116E+03  0.51370383588E+03  0.00000000000E+00 0. -1.
         -1    1    6    6    0  503  0.37353207625E+02  0.90881451085E+02  0.27975682169E+01  0.98298151860E+02  0.00000000000E+00 0.  1.
<mgrwt>
<rscale>  0 0.83085062E+03</rscale>
<asrwt>0</asrwt>
<pdfrwt beam="1">  1        2 0.18870703E+00 0.83085062E+03</pdfrwt>
<pdfrwt beam="2">  1       -2 0.88947384E-01 0.83085062E+03</pdfrwt>
<totfact> 0.20042459E+01</totfact>
</mgrwt>
</event>
<event>
12    1  0.1418317E-007  0.8452909E+03  0.7818608E-02  0.9496679E-01
          1   -1    0    0  501    0  0.00000000000E+00  0.00000000000E+00  0.13568880035E+04  0.13568880035E+04  0.00000000000E+00 0. -1.
         -1   -1    0    0    0  501 -0.00000000000E+00 -0.00000000000E+00 -0.13489087208E+04  0.13489087208E+04  0.00000000000E+00 0.  1.
         23    2    1    2    0    0 -0.35722195553E+03  0.72229665355E+03 -0.99681114434E+03  0.12849228092E+04  0.89856479000E+02 0.  0.
    5000000    2    1    2    0    0  0.35722195553E+03 -0.72229665355E+03  0.10047904271E+04  0.14208739151E+04  0.59996574818E+03 0.  0.
         23    2    4    4    0    0  0.26740067874E+03 -0.71053558287E+03  0.10289387300E+04  0.12817730236E+04  0.88674892437E+02 0.  0.
         23    2    4    4    0    0  0.89821276786E+02 -0.11761070680E+02 -0.24148302864E+02  0.13910089148E+03  0.10276056117E+03 0.  0.
          3    1    3    3  502    0 -0.35503351480E+03  0.66887566437E+03 -0.93525299875E+03  0.12033875613E+04  0.00000000000E+00 0. -1.
         -3    1    3    3    0  502 -0.21884407278E+01  0.53420989182E+02 -0.61558145588E+02  0.81535247876E+02  0.00000000000E+00 0.  1.
         11    1    5    5    0    0  0.45117210835E+02 -0.93795918059E+02  0.19463150637E+03  0.22071397833E+03  0.00000000000E+00 0.  1.
        -11    1    5    5    0    0  0.22228346791E+03 -0.61673966482E+03  0.83430722360E+03  0.10610590453E+04  0.00000000000E+00 0. -1.
          3    1    6    6  503    0 -0.11053642951E+02  0.12255359175E+02 -0.31064120891E+02  0.35176077918E+02  0.00000000000E+00 0. -1.
         -3    1    6    6    0  503  0.10087491974E+03 -0.24016429854E+02  0.69158180266E+01  0.10392481356E+03  0.00000000000E+00 0.  1.
<mgrwt>
<rscale>  0 0.84529089E+03</rscale>
<asrwt>0</asrwt>
<pdfrwt beam="1">  1        1 0.20875200E+00 0.84529089E+03</pdfrwt>
<pdfrwt beam="2">  1       -1 0.20752442E+00 0.84529089E+03</pdfrwt>
<totfact> 0.11365279E+00</totfact>
</mgrwt>
</event>
<event>
12    1  0.1418317E-007  0.1468509E+04  0.7818608E-02  0.8905668E-01
         -2   -1    0    0    0  501 -0.00000000000E+00  0.00000000000E+00  0.79984832355E+03  0.79984832355E+03  0.00000000000E+00 0.  1.
          2   -1    0    0  501    0  0.00000000000E+00 -0.00000000000E+00 -0.28343023149E+04  0.28343023149E+04  0.00000000000E+00 0. -1.
         23    2    1    2    0    0 -0.14092826173E+04 -0.22643657911E+03 -0.12424216967E+04  0.18945757109E+04  0.91947987189E+02 0.  0.
    5000000    2    1    2    0    0  0.14092826173E+04  0.22643657911E+03 -0.79203229465E+03  0.17395749275E+04  0.60121107190E+03 0.  0.
         23    2    4    4    0    0  0.10919701566E+04 -0.35531350172E+02 -0.41267977104E+03  0.11719634520E+04  0.97634213413E+02 0.  0.
         23    2    4    4    0    0  0.31731246069E+03  0.26196792928E+03 -0.37935252362E+03  0.56761147554E+03  0.94657574009E+02 0.  0.
          4    1    3    3  502    0 -0.70992168739E+03 -0.15768624984E+03 -0.65312962566E+03  0.97746205222E+03  0.00000000000E+00 0. -1.
         -4    1    3    3    0  502 -0.69936092986E+03 -0.68750329269E+02 -0.58929207101E+03  0.91711365869E+03  0.00000000000E+00 0.  1.
         13    1    5    5    0    0  0.55265373208E+02 -0.19893548497E+02 -0.94571190274E+01  0.59493292462E+02  0.00000000000E+00 0. -1.
        -13    1    5    5    0    0  0.10367047834E+04 -0.15637801674E+02 -0.40322265201E+03  0.11124701595E+04  0.00000000000E+00 0.  1.
          2    1    6    6  503    0  0.15453090831E+03  0.13048819407E+03 -0.12306910911E+03  0.23675509716E+03  0.00000000000E+00 0.  1.
         -2    1    6    6    0  503  0.16278155238E+03  0.13147973521E+03 -0.25628341451E+03  0.33085637838E+03  0.00000000000E+00 0. -1.
<mgrwt>
<rscale>  0 0.14685088E+04</rscale>
<asrwt>0</asrwt>
<pdfrwt beam="1">  1        2 0.43604650E+00 0.14685088E+04</pdfrwt>
<pdfrwt beam="2">  1       -2 0.12305359E+00 0.14685088E+04</pdfrwt>
<totfact> 0.10487334E+00</totfact>
</mgrwt>
</event>
<event>
12    1  0.1418317E-007  0.7999643E+03  0.7818608E-02  0.9560069E-01
         -2   -1    0    0    0  501 -0.00000000000E+00  0.00000000000E+00  0.29130460191E+03  0.29130460191E+03  0.00000000000E+00 0.  1.
          2   -1    0    0  501    0  0.00000000000E+00 -0.00000000000E+00 -0.27847285629E+04  0.27847285629E+04  0.00000000000E+00 0. -1.
         23    2    1    2    0    0 -0.72006698349E+03 -0.16102460965E+03 -0.16291217818E+04  0.17908465102E+04  0.93102403360E+02 0.  0.
    5000000    2    1    2    0    0  0.72006698349E+03  0.16102460965E+03 -0.86430217916E+03  0.12851866546E+04  0.60021753942E+03 0.  0.
         23    2    4    4    0    0 -0.11461862893E+01  0.12883176924E+03 -0.37910093811E+03  0.41077728132E+03  0.91768813130E+02 0.  0.
         23    2    4    4    0    0  0.72121316978E+03  0.32192840414E+02 -0.48520124105E+03  0.87440937327E+03  0.89368297072E+02 0.  0.
          4    1    3    3  502    0 -0.23757465694E+03 -0.48317255808E+02 -0.43476470113E+03  0.49779174378E+03  0.00000000000E+00 0. -1.
         -4    1    3    3    0  502 -0.48249232654E+03 -0.11270735384E+03 -0.11943570807E+04  0.12930547664E+04  0.00000000000E+00 0.  1.
         11    1    5    5    0    0  0.37485504025E+01  0.13121699488E+03 -0.25727129045E+03  0.28882601729E+03  0.00000000000E+00 0. -1.
        -11    1    5    5    0    0 -0.48947366918E+01 -0.23852256397E+01 -0.12182964766E+03  0.12195126403E+03  0.00000000000E+00 0.  1.
          1    1    6    6  503    0  0.14429359702E+03  0.34536902296E+02 -0.72970519863E+02  0.16534248253E+03  0.00000000000E+00 0. -1.
         -1    1    6    6    0  503  0.57691957276E+03 -0.23440618819E+01 -0.41223072118E+03  0.70906689074E+03  0.00000000000E+00 0.  1.
<mgrwt>
<rscale>  0 0.79996433E+03</rscale>
<asrwt>0</asrwt>
<pdfrwt beam="1">  1        2 0.42841976E+00 0.79996433E+03</pdfrwt>
<pdfrwt beam="2">  1       -2 0.44816095E-01 0.79996433E+03</pdfrwt>
<totfact> 0.11681603E+01</totfact>
</mgrwt>
</event>
<event>
12    1  0.1418317E-007  0.7596342E+03  0.7818608E-02  0.9620356E-01
          2   -1    0    0  501    0  0.00000000000E+00  0.00000000000E+00  0.11474320231E+04  0.11474320231E+04  0.00000000000E+00 0. -1.
         -2   -1    0    0    0  501 -0.00000000000E+00 -0.00000000000E+00 -0.65544336902E+03  0.65544336902E+03  0.00000000000E+00 0.  1.
         23    2    1    2    0    0  0.63604966532E+02  0.67886314477E+03  0.56596137348E+03  0.89168646576E+03  0.99457105671E+02 0.  0.
    5000000    2    1    2    0    0 -0.63604966532E+02 -0.67886314477E+03 -0.73972719360E+02  0.91118892639E+03  0.59991043938E+03 0.  0.
         23    2    4    4    0    0  0.13482134150E+03 -0.60413328842E+03 -0.18767299269E+03  0.65304787208E+03  0.89980813199E+02 0.  0.
         23    2    4    4    0    0 -0.19842630803E+03 -0.74729856348E+02  0.11370027333E+03  0.25814105431E+03  0.93549455447E+02 0.  0.
          3    1    3    3  502    0  0.14844174522E+02  0.44687370601E+03  0.31822757817E+03  0.54880347134E+03  0.00000000000E+00 0. -1.
         -3    1    3    3    0  502  0.48760792010E+02  0.23198943875E+03  0.24773379530E+03  0.34288299443E+03  0.00000000000E+00 0.  1.
         11    1    5    5    0    0  0.30419399312E+02 -0.19205881686E+03 -0.10133995484E+03  0.21927543281E+03  0.00000000000E+00 0.  1.
        -11    1    5    5    0    0  0.10440194219E+03 -0.41207447156E+03 -0.86333037848E+02  0.43377243927E+03  0.00000000000E+00 0. -1.
          2    1    6    6  503    0 -0.10476345918E+03 -0.59999902992E+02  0.10988777437E+03  0.16325040183E+03  0.00000000000E+00 0. -1.
         -2    1    6    6    0  503 -0.93662848849E+02 -0.14729953356E+02  0.38124989570E+01  0.94890652483E+02  0.00000000000E+00 0.  1.
<mgrwt>
<rscale>  0 0.75963417E+03</rscale>
<asrwt>0</asrwt>
<pdfrwt beam="1">  1        2 0.17652800E+00 0.75963417E+03</pdfrwt>
<pdfrwt beam="2">  1       -2 0.10083744E+00 0.75963417E+03</pdfrwt>
<totfact> 0.16787345E+01</totfact>
</mgrwt>
</event>
<event>
12    1  0.1567801E-007  0.1580979E+04  0.7818608E-02  0.8832320E-01
          2   -1    0    0  501    0  0.00000000000E+00  0.00000000000E+00  0.18615302289E+04  0.18615302289E+04  0.00000000000E+00 0. -1.
         -2   -1    0    0    0  501 -0.00000000000E+00 -0.00000000000E+00 -0.15790120058E+04  0.15790120058E+04  0.00000000000E+00 0.  1.
         23    2    1    2    0    0 -0.66421767150E+03  0.14266760556E+04  0.66918721005E+03  0.17125309361E+04  0.91438516413E+02 0.  0.
    5000000    2    1    2    0    0  0.66421767150E+03 -0.14266760556E+04 -0.38666898691E+03  0.17280112986E+04  0.59993371308E+03 0.  0.
         23    2    4    4    0    0  0.14933213950E+03 -0.41654213084E+03 -0.38051292890E+03  0.59063431870E+03  0.90837077848E+02 0.  0.
         23    2    4    4    0    0  0.51488553200E+03 -0.10101339247E+04 -0.61560580096E+01  0.11373769799E+04  0.90060204711E+02 0.  0.
          4    1    3    3  502    0 -0.41593065950E+03  0.81867197166E+03  0.35504879545E+03  0.98452108045E+03  0.00000000000E+00 0. -1.
         -4    1    3    3    0  502 -0.24828701200E+03  0.60800408391E+03  0.31413841460E+03  0.72800985564E+03  0.00000000000E+00 0.  1.
         11    1    5    5    0    0  0.14531160197E+03 -0.28621941700E+03 -0.28101405655E+03  0.42662151412E+03  0.00000000000E+00 0. -1.
        -11    1    5    5    0    0  0.40205375254E+01 -0.13032271385E+03 -0.99498872350E+02  0.16401280458E+03  0.00000000000E+00 0.  1.
          3    1    6    6  503    0  0.35425997185E+03 -0.62777734243E+03  0.26887880792E+02  0.72133728411E+03  0.00000000000E+00 0. -1.
         -3    1    6    6    0  503  0.16062556016E+03 -0.38235658230E+03 -0.33043938801E+02  0.41603969582E+03  0.00000000000E+00 0.  1.
<mgrwt>
<rscale>  0 0.15809786E+04</rscale>
<asrwt>0</asrwt>
<pdfrwt beam="1">  1        2 0.28638927E+00 0.15809786E+04</pdfrwt>
<pdfrwt beam="2">  1       -2 0.24292492E+00 0.15809786E+04</pdfrwt>
<totfact> 0.52729096E-01</totfact>
</mgrwt>
</event>
<event>
12    1  0.1418317E-007  0.6141936E+03  0.7818608E-02  0.9876389E-01
          2   -1    0    0  501    0  0.00000000000E+00  0.00000000000E+00  0.13930636776E+04  0.13930636776E+04  0.00000000000E+00 0. -1.
         -2   -1    0    0    0  501 -0.00000000000E+00 -0.00000000000E+00 -0.42719750563E+03  0.42719750563E+03  0.00000000000E+00 0.  1.
         23    2    1    2    0    0  0.46420952288E+03  0.88530002381E+02  0.93983403459E+03  0.10560260542E+04  0.92601144789E+02 0.  0.
    5000000    2    1    2    0    0 -0.46420952288E+03 -0.88530002381E+02  0.26032137424E+02  0.76423512913E+03  0.60004134688E+03 0.  0.
         23    2    4    4    0    0 -0.36624365708E+02 -0.26926221126E+03  0.48959976410E+02  0.29080996592E+03  0.91268145643E+02 0.  0.
         23    2    4    4    0    0 -0.42758515717E+03  0.18073220888E+03 -0.22927838986E+02  0.47342516321E+03  0.90069425461E+02 0.  0.
          3    1    3    3  502    0  0.11582254712E+03  0.62313290839E+02  0.28246072307E+03  0.31157963463E+03  0.00000000000E+00 0. -1.
         -3    1    3    3    0  502  0.34838697576E+03  0.26216711542E+02  0.65737331152E+03  0.74444641952E+03  0.00000000000E+00 0.  1.
         13    1    5    5    0    0  0.86003114611E+01 -0.89773481468E+02 -0.21571955371E+02  0.92728596402E+02  0.00000000000E+00 0.  1.
        -13    1    5    5    0    0 -0.45224677169E+02 -0.17948872980E+03  0.70531931781E+02  0.19808136952E+03  0.00000000000E+00 0. -1.
          3    1    6    6  503    0 -0.17385864457E+03  0.28103549221E+02  0.35205624799E+01  0.17615059503E+03  0.00000000000E+00 0. -1.
         -3    1    6    6    0  503 -0.25372651260E+03  0.15262865966E+03 -0.26448401466E+02  0.29727456818E+03  0.00000000000E+00 0.  1.
<mgrwt>
<rscale>  0 0.61419364E+03</rscale>
<asrwt>0</asrwt>
<pdfrwt beam="1">  1        2 0.21431749E+00 0.61419364E+03</pdfrwt>
<pdfrwt beam="2">  1       -2 0.65722694E-01 0.61419364E+03</pdfrwt>
<totfact> 0.32326572E+01</totfact>
</mgrwt>
</event>
<event>
12    1  0.1418317E-007  0.8687806E+03  0.7818608E-02  0.9465471E-01
         -2   -1    0    0    0  501 -0.00000000000E+00  0.00000000000E+00  0.75467994407E+03  0.75467994407E+03  0.00000000000E+00 0.  1.
          2   -1    0    0  501    0  0.00000000000E+00 -0.00000000000E+00 -0.12340106524E+04  0.12340106524E+04  0.00000000000E+00 0. -1.
         23    2    1    2    0    0 -0.75806974182E+03 -0.17534531915E+03  0.18186377340E+03  0.80438958057E+03  0.92479461746E+02 0.  0.
    5000000    2    1    2    0    0  0.75806974182E+03  0.17534531915E+03 -0.66119448172E+03  0.11843010159E+04  0.59997919895E+03 0.  0.
         23    2    4    4    0    0  0.53921336380E+03 -0.14212055971E+03 -0.50742237072E+03  0.75921299361E+03  0.89317423624E+02 0.  0.
         23    2    4    4    0    0  0.21885637802E+03  0.31746587886E+03 -0.15377211100E+03  0.42508802229E+03  0.91494623475E+02 0.  0.
          3    1    3    3  502    0 -0.15449569873E+03 -0.74855242372E+02  0.40934153051E+02  0.17648748715E+03  0.00000000000E+00 0. -1.
         -3    1    3    3    0  502 -0.60357404309E+03 -0.10049007678E+03  0.14092962035E+03  0.62790209342E+03  0.00000000000E+00 0.  1.
         13    1    5    5    0    0  0.44041717095E+03 -0.11179964170E+03 -0.36276862511E+03  0.58143573997E+03  0.00000000000E+00 0.  1.
        -13    1    5    5    0    0  0.98796192843E+02 -0.30320918012E+02 -0.14465374562E+03  0.17777725364E+03  0.00000000000E+00 0. -1.
          4    1    6    6  503    0  0.12436177176E+03  0.10144455364E+03 -0.59879290718E+02  0.17129616807E+03  0.00000000000E+00 0. -1.
         -4    1    6    6    0  503  0.94494606259E+02  0.21602132523E+03 -0.93892820282E+02  0.25379185421E+03  0.00000000000E+00 0.  1.
<mgrwt>
<rscale>  0 0.86878063E+03</rscale>
<asrwt>0</asrwt>
<pdfrwt beam="1">  1        2 0.18984779E+00 0.86878063E+03</pdfrwt>
<pdfrwt beam="2">  1       -2 0.11610461E+00 0.86878063E+03</pdfrwt>
<totfact> 0.10477291E+01</totfact>
</mgrwt>
</event>
<event>
12    1  0.1418317E-007  0.1052183E+04  0.7818608E-02  0.9253093E-01
          4   -1    0    0  501    0  0.00000000000E+00  0.00000000000E+00  0.65730043698E+03  0.65730043698E+03  0.00000000000E+00 0. -1.
         -4   -1    0    0    0  501 -0.00000000000E+00 -0.00000000000E+00 -0.18820205776E+04  0.18820205776E+04  0.00000000000E+00 0.  1.
         23    2    1    2    0    0  0.97460969054E+03  0.26712274215E+03 -0.79115448528E+03  0.12865133354E+04  0.89289048647E+02 0.  0.
    5000000    2    1    2    0    0 -0.97460969054E+03 -0.26712274215E+03 -0.43356565539E+03  0.12528076793E+04  0.60027435013E+03 0.  0.
         23    2    4    4    0    0  0.15565029612E+02 -0.47591299452E+02 -0.17084858120E+03  0.20135885806E+03  0.94068858227E+02 0.  0.
         23    2    4    4    0    0 -0.99017472015E+03 -0.21953144269E+03 -0.26271707418E+03  0.10514488212E+04  0.88793759848E+02 0.  0.
          4    1    3    3  502    0  0.10893309070E+03  0.21508635879E+02 -0.12318087404E+03  0.16583898033E+03  0.00000000000E+00 0. -1.
         -4    1    3    3    0  502  0.86567659984E+03  0.24561410627E+03 -0.66797361124E+03  0.11206743550E+04  0.00000000000E+00 0.  1.
         11    1    5    5    0    0 -0.20093523082E+02 -0.36919002691E+02 -0.15552795049E+03  0.16110774597E+03  0.00000000000E+00 0.  1.
        -11    1    5    5    0    0  0.35658552694E+02 -0.10672296761E+02 -0.15320630715E+02  0.40251112082E+02  0.00000000000E+00 0. -1.
          4    1    6    6  503    0 -0.46554218010E+03 -0.10084074133E+03 -0.77742324429E+02  0.48264090748E+03  0.00000000000E+00 0. -1.
         -4    1    6    6    0  503 -0.52463254005E+03 -0.11869070136E+03 -0.18497474975E+03  0.56880791373E+03  0.00000000000E+00 0.  1.
<mgrwt>
<rscale>  0 0.10521829E+04</rscale>
<asrwt>0</asrwt>
<pdfrwt beam="1">  1        4 0.10112315E+00 0.10521829E+04</pdfrwt>
<pdfrwt beam="2">  1       -4 0.28954162E+00 0.10521829E+04</pdfrwt>
<totfact> 0.55985970E-02</totfact>
</mgrwt>
</event>
<event>
12    1  0.1418317E-007  0.5295420E+03  0.7818608E-02  0.1006343E+00
         -2   -1    0    0    0  501 -0.00000000000E+00  0.00000000000E+00  0.50130592130E+03  0.50130592130E+03  0.00000000000E+00 0.  1.
          2   -1    0    0  501    0  0.00000000000E+00 -0.00000000000E+00 -0.68906122477E+03  0.68906122477E+03  0.00000000000E+00 0. -1.
         23    2    1    2    0    0 -0.36439896976E+03  0.10726124630E+03  0.13130773753E+03  0.41182447464E+03  0.89811423894E+02 0.  0.
    5000000    2    1    2    0    0  0.36439896976E+03 -0.10726124630E+03 -0.31906304100E+03  0.77854267143E+03  0.60002990174E+03 0.  0.
         23    2    4    4    0    0  0.46568069559E+03 -0.21564581285E+03 -0.16844739215E+03  0.54741016279E+03  0.89004132262E+02 0.  0.
         23    2    4    4    0    0 -0.10128172584E+03  0.10838456655E+03 -0.15061564885E+03  0.23113250863E+03  0.93444960351E+02 0.  0.
          1    1    3    3  502    0 -0.31393216114E+03  0.64161186149E+02  0.12901039263E+03  0.34541821175E+03  0.00000000000E+00 0. -1.
         -1    1    3    3    0  502 -0.50466808618E+02  0.43100060151E+02  0.22973448990E+01  0.66406262888E+02  0.00000000000E+00 0.  1.
         13    1    5    5    0    0  0.21770421026E+03 -0.14978422858E+03 -0.83040157067E+02  0.27699477610E+03  0.00000000000E+00 0.  1.
        -13    1    5    5    0    0  0.24797648533E+03 -0.65861584267E+02 -0.85407235087E+02  0.27041538670E+03  0.00000000000E+00 0. -1.
          4    1    6    6  503    0  0.15097822748E+01  0.67400856998E+01 -0.60265648696E+02  0.60660173182E+02  0.00000000000E+00 0. -1.
         -4    1    6    6    0  503 -0.10279150811E+03  0.10164448085E+03 -0.90350000152E+02  0.17047233545E+03  0.00000000000E+00 0.  1.
<mgrwt>
<rscale>  0 0.52954195E+03</rscale>
<asrwt>0</asrwt>
<pdfrwt beam="1">  1        2 0.10600942E+00 0.52954195E+03</pdfrwt>
<pdfrwt beam="2">  1       -2 0.77123989E-01 0.52954195E+03</pdfrwt>
<totfact> 0.64674556E+01</totfact>
</mgrwt>
</event>
<event>
12    1  0.1418317E-007  0.1720052E+04  0.7818608E-02  0.8750010E-01
          1   -1    0    0  501    0  0.00000000000E+00  0.00000000000E+00  0.27437792071E+04  0.27437792071E+04  0.00000000000E+00 0. -1.
         -1   -1    0    0    0  501 -0.00000000000E+00 -0.00000000000E+00 -0.12723085800E+04  0.12723085800E+04  0.00000000000E+00 0.  1.
         23    2    1    2    0    0  0.59663665188E+03  0.15902977307E+04  0.14169878107E+04  0.22138782542E+04  0.91543989785E+02 0.  0.
    5000000    2    1    2    0    0 -0.59663665188E+03 -0.15902977307E+04  0.54482816331E+02  0.18022095329E+04  0.59997387977E+03 0.  0.
         23    2    4    4    0    0  0.31353038614E+02 -0.16553422620E+03 -0.12992045365E+03  0.23173396963E+03  0.91851594057E+02 0.  0.
         23    2    4    4    0    0 -0.62798969050E+03 -0.14247635045E+04  0.18440326998E+03  0.15704755632E+04  0.89815553180E+02 0.  0.
          4    1    3    3  502    0  0.28778389041E+03  0.79187465901E+03  0.64438408666E+03  0.10607148035E+04  0.00000000000E+00 0. -1.
         -4    1    3    3    0  502  0.30885276147E+03  0.79842307171E+03  0.77260372405E+03  0.11531634507E+04  0.00000000000E+00 0.  1.
         11    1    5    5    0    0 -0.24375122703E+02 -0.60722642908E+02 -0.16337711441E+02  0.67441135694E+02  0.00000000000E+00 0. -1.
        -11    1    5    5    0    0  0.55728161317E+02 -0.10481158329E+03 -0.11358274221E+03  0.16429283394E+03  0.00000000000E+00 0.  1.
          3    1    6    6  503    0 -0.19180805423E+01 -0.10849214933E+02 -0.58784591548E+01  0.12487625061E+02  0.00000000000E+00 0. -1.
         -3    1    6    6    0  503 -0.62607160995E+03 -0.14139142896E+04  0.19028172913E+03  0.15579879382E+04  0.00000000000E+00 0.  1.
<mgrwt>
<rscale>  0 0.17200524E+04</rscale>
<asrwt>0</asrwt>
<pdfrwt beam="1">  1        1 0.42211988E+00 0.17200524E+04</pdfrwt>
<pdfrwt beam="2">  1       -1 0.19573978E+00 0.17200524E+04</pdfrwt>
<totfact> 0.13576980E-01</totfact>
</mgrwt>
</event>
<event>
12    1  0.1418317E-007  0.5281574E+03  0.7818608E-02  0.1006680E+00
          1   -1    0    0  501    0  0.00000000000E+00  0.00000000000E+00  0.73111866043E+03  0.73111866043E+03  0.00000000000E+00 0. -1.
         -1   -1    0    0    0  501 -0.00000000000E+00 -0.00000000000E+00 -0.94585764695E+03  0.94585764695E+03  0.00000000000E+00 0.  1.
         23    2    1    2    0    0 -0.40030775724E+03 -0.94446250784E+02 -0.68985721700E+03  0.80806676452E+03  0.88896126377E+02 0.  0.
    5000000    2    1    2    0    0  0.40030775724E+03  0.94446250784E+02  0.47511823049E+03  0.86890954286E+03  0.60008338249E+03 0.  0.
         23    2    4    4    0    0  0.11111568171E+03 -0.19331022431E+03  0.36018166818E+03  0.43379864235E+03  0.93460635883E+02 0.  0.
         23    2    4    4    0    0  0.28919207552E+03  0.28775647510E+03  0.11493656230E+03  0.43511090051E+03  0.98362782030E+02 0.  0.
          2    1    3    3  502    0 -0.11194122901E+03 -0.37627755758E+02 -0.12919144879E+03  0.17503461714E+03  0.00000000000E+00 0. -1.
         -2    1    3    3    0  502 -0.28836652822E+03 -0.56818495026E+02 -0.56066576821E+03  0.63303214738E+03  0.00000000000E+00 0.  1.
         13    1    5    5    0    0  0.87567173609E+02 -0.11934730202E+03  0.15454485259E+03  0.21399976601E+03  0.00000000000E+00 0. -1.
        -13    1    5    5    0    0  0.23548508105E+02 -0.73962922295E+02  0.20563681560E+03  0.21979887633E+03  0.00000000000E+00 0.  1.
          1    1    6    6  503    0  0.18359891936E+03  0.11641855281E+03  0.74637818007E+02  0.22985353273E+03  0.00000000000E+00 0. -1.
         -1    1    6    6    0  503  0.10559315616E+03  0.17133792228E+03  0.40298744296E+02  0.20525736779E+03  0.00000000000E+00 0.  1.
<mgrwt>
<rscale>  0 0.52815742E+03</rscale>
<asrwt>0</asrwt>
<pdfrwt beam="1">  1        1 0.11247979E+00 0.52815742E+03</pdfrwt>
<pdfrwt beam="2">  1       -1 0.14551656E+00 0.52815742E+03</pdfrwt>
<totfact> 0.10294799E+01</totfact>
</mgrwt>
</event>
<event>
12    1  0.1418317E-007  0.5514147E+03  0.7818608E-02  0.1001167E+00
          2   -1    0    0  501    0  0.00000000000E+00  0.00000000000E+00  0.17796315215E+04  0.17796315215E+04  0.00000000000E+00 0.  1.
         -2   -1    0    0    0  501 -0.00000000000E+00 -0.00000000000E+00 -0.18863416068E+03  0.18863416068E+03  0.00000000000E+00 0. -1.
         23    2    1    2    0    0  0.28971189131E+03  0.28246346491E+03  0.76366851388E+03  0.86904928491E+03  0.91315231673E+02 0.  0.
    5000000    2    1    2    0    0 -0.28971189131E+03 -0.28246346491E+03  0.82732884691E+03  0.10992163972E+04  0.60007089417E+03 0.  0.
         23    2    4    4    0    0  0.49276790993E+01  0.15280991424E+03  0.29099598665E+03  0.34243929426E+03  0.95973194678E+02 0.  0.
         23    2    4    4    0    0 -0.29463957041E+03 -0.43527337915E+03  0.53633286026E+03  0.75677710297E+03  0.93719024383E+02 0.  0.
          4    1    3    3  502    0  0.65899262166E+02  0.11974911279E+03  0.28699875676E+03  0.31788496213E+03  0.00000000000E+00 0. -1.
         -4    1    3    3    0  502  0.22381262915E+03  0.16271435213E+03  0.47666975711E+03  0.55116432278E+03  0.00000000000E+00 0.  1.
         11    1    5    5    0    0  0.22408074652E+02  0.23204645208E+02  0.12188964220E+02  0.34484028443E+02  0.00000000000E+00 0.  1.
        -11    1    5    5    0    0 -0.17480395553E+02  0.12960526903E+03  0.27880702243E+03  0.30795526582E+03  0.00000000000E+00 0. -1.
          4    1    6    6  503    0 -0.57409186658E+00 -0.62054997443E+01 -0.34730429689E+01  0.71344120999E+01  0.00000000000E+00 0.  1.
         -4    1    6    6    0  503 -0.29406547855E+03 -0.42906787941E+03  0.53980590323E+03  0.74964269087E+03  0.00000000000E+00 0. -1.
<mgrwt>
<rscale>  0 0.55141465E+03</rscale>
<asrwt>0</asrwt>
<pdfrwt beam="1">  1        2 0.27378945E+00 0.55141465E+03</pdfrwt>
<pdfrwt beam="2">  1       -2 0.29020641E-01 0.55141465E+03</pdfrwt>
<totfact> 0.10101745E+02</totfact>
</mgrwt>
</event>
<event>
12    1  0.1418317E-007  0.4245928E+03  0.7818608E-02  0.1035582E+00
          1   -1    0    0  501    0  0.00000000000E+00  0.00000000000E+00  0.14130397942E+04  0.14130397942E+04  0.00000000000E+00 0. -1.
         -1   -1    0    0    0  501 -0.00000000000E+00 -0.00000000000E+00 -0.29311791005E+03  0.29311791005E+03  0.00000000000E+00 0.  1.
         23    2    1    2    0    0  0.27364931866E+03  0.14464369309E+03 -0.76984928663E+02  0.33196646609E+03  0.92028842278E+02 0.  0.
    5000000    2    1    2    0    0 -0.27364931866E+03 -0.14464369309E+03  0.11969068128E+04  0.13741912381E+04  0.60000824403E+03 0.  0.
         23    2    4    4    0    0 -0.36991437952E+03 -0.14458510372E+03  0.41699241309E+03  0.58310888691E+03  0.91606773870E+02 0.  0.
         23    2    4    4    0    0  0.96265060857E+02 -0.58589373787E-01  0.77991439968E+03  0.79108235122E+03  0.90982691755E+02 0.  0.
          1    1    3    3  502    0  0.15124762014E+03  0.29709795189E+02 -0.49047529486E+02  0.16175343791E+03  0.00000000000E+00 0. -1.
         -1    1    3    3    0  502  0.12240169852E+03  0.11493389790E+03 -0.27937399177E+02  0.17021302818E+03  0.00000000000E+00 0.  1.
         13    1    5    5    0    0 -0.35027881390E+03 -0.15343258573E+03  0.37334566322E+03  0.53443782621E+03  0.00000000000E+00 0. -1.
        -13    1    5    5    0    0 -0.19635565618E+02  0.88474820193E+01  0.43646749872E+02  0.48671060699E+02  0.00000000000E+00 0.  1.
          3    1    6    6  503    0  0.59834748283E+02  0.37706234702E+02  0.29602750913E+03  0.30435874129E+03  0.00000000000E+00 0. -1.
         -3    1    6    6    0  503  0.36430312573E+02 -0.37764824075E+02  0.48388689055E+03  0.48672360993E+03  0.00000000000E+00 0.  1.
<mgrwt>
<rscale>  0 0.42459276E+03</rscale>
<asrwt>0</asrwt>
<pdfrwt beam="1">  1        1 0.21739073E+00 0.42459276E+03</pdfrwt>
<pdfrwt beam="2">  1       -1 0.45095064E-01 0.42459276E+03</pdfrwt>
<totfact> 0.39678410E+01</totfact>
</mgrwt>
</event>
<event>
12    1  0.1418317E-007  0.4271503E+03  0.7818608E-02  0.1034764E+00
          2   -1    0    0  501    0  0.00000000000E+00  0.00000000000E+00  0.20054920080E+04  0.20054920080E+04  0.00000000000E+00 0. -1.
         -2   -1    0    0    0  501 -0.00000000000E+00 -0.00000000000E+00 -0.29642992669E+03  0.29642992669E+03  0.00000000000E+00 0.  1.
         23    2    1    2    0    0  0.34709603855E+03  0.72604092750E+02  0.15423930941E+04  0.15853326143E+04  0.92498793690E+02 0.  0.
    5000000    2    1    2    0    0 -0.34709603855E+03 -0.72604092750E+02  0.16666898715E+03  0.71658932038E+03  0.59997890675E+03 0.  0.
         23    2    4    4    0    0  0.43506298532E+02  0.17819375351E+02  0.27303924442E+03  0.29213337742E+03  0.92634513327E+02 0.  0.
         23    2    4    4    0    0 -0.39060233708E+03 -0.90423468101E+02 -0.10637025727E+03  0.42445594295E+03  0.90009035989E+02 0.  0.
          4    1    3    3  502    0  0.58005414490E+02 -0.19763133202E+02  0.32120144519E+03  0.32699476745E+03  0.00000000000E+00 0. -1.
         -4    1    3    3    0  502  0.28909062406E+03  0.92367225952E+02  0.12211916490E+04  0.12583378469E+04  0.00000000000E+00 0.  1.
         13    1    5    5    0    0 -0.82189961939E+01 -0.21178596860E+02  0.16195689326E+03  0.16354241083E+03  0.00000000000E+00 0. -1.
        -13    1    5    5    0    0  0.51725294726E+02  0.38997972211E+02  0.11108235116E+03  0.12859096660E+03  0.00000000000E+00 0.  1.
          2    1    6    6  503    0 -0.33581471630E+03 -0.88194896574E+02 -0.59382470488E+02  0.35224443398E+03  0.00000000000E+00 0. -1.
         -2    1    6    6    0  503 -0.54787620779E+02 -0.22285715268E+01 -0.46987786785E+02  0.72211508977E+02  0.00000000000E+00 0.  1.
<mgrwt>
<rscale>  0 0.42715027E+03</rscale>
<asrwt>0</asrwt>
<pdfrwt beam="1">  1        2 0.30853722E+00 0.42715027E+03</pdfrwt>
<pdfrwt beam="2">  1       -2 0.45604605E-01 0.42715027E+03</pdfrwt>
<totfact> 0.33007137E+01</totfact>
</mgrwt>
</event>
<event>
12    1  0.1418317E-007  0.6262674E+03  0.7818608E-02  0.9852360E-01
         -1   -1    0    0    0  501 -0.00000000000E+00  0.00000000000E+00  0.22489497807E+03  0.22489497807E+03  0.00000000000E+00 0.  1.
          1   -1    0    0  501    0  0.00000000000E+00 -0.00000000000E+00 -0.25285252858E+04  0.25285252858E+04  0.00000000000E+00 0. -1.
         23    2    1    2    0    0 -0.56443011557E+03 -0.39882709723E+02 -0.46420626907E+03  0.73756392150E+03  0.91329579833E+02 0.  0.
    5000000    2    1    2    0    0  0.56443011557E+03  0.39882709723E+02 -0.18394240387E+04  0.20158563424E+04  0.60002001065E+03 0.  0.
         23    2    4    4    0    0  0.85894482422E+01 -0.92504303788E+02 -0.92059098880E+03  0.92999842552E+03  0.93693532193E+02 0.  0.
         23    2    4    4    0    0  0.55584066733E+03  0.13238701351E+03 -0.91883304991E+03  0.10858579169E+04  0.91367791236E+02 0.  0.
          1    1    3    3  502    0 -0.41652146895E+03 -0.46806370767E+02 -0.38742139331E+03  0.57076817223E+03  0.00000000000E+00 0. -1.
         -1    1    3    3    0  502 -0.14790864662E+03  0.69236610440E+01 -0.76784875763E+02  0.16679574926E+03  0.00000000000E+00 0.  1.
         13    1    5    5    0    0 -0.18234914148E+02 -0.73283985224E+02 -0.33189391002E+03  0.34037717622E+03  0.00000000000E+00 0.  1.
        -13    1    5    5    0    0  0.26824362390E+02 -0.19220318564E+02 -0.58869707878E+03  0.58962124930E+03  0.00000000000E+00 0. -1.
          3    1    6    6  503    0  0.18279726835E+02  0.20966928910E+02 -0.65775420849E+02  0.71415450072E+02  0.00000000000E+00 0. -1.
         -3    1    6    6    0  503  0.53756094049E+03  0.11142008460E+03 -0.85305762906E+03  0.10144424668E+04  0.00000000000E+00 0.  1.
<mgrwt>
<rscale>  0 0.62626745E+03</rscale>
<asrwt>0</asrwt>
<pdfrwt beam="1">  1        1 0.38900389E+00 0.62626745E+03</pdfrwt>
<pdfrwt beam="2">  1       -1 0.34599228E-01 0.62626745E+03</pdfrwt>
<totfact> 0.11039453E+01</totfact>
</mgrwt>
</event>
<event>
12    1  0.1418317E-007  0.1336400E+04  0.7818608E-02  0.9001187E-01
         -2   -1    0    0    0  501 -0.00000000000E+00  0.00000000000E+00  0.10196818023E+04  0.10196818023E+04  0.00000000000E+00 0.  1.
          2   -1    0    0  501    0  0.00000000000E+00 -0.00000000000E+00 -0.18956814752E+04  0.18956814752E+04  0.00000000000E+00 0. -1.
         23    2    1    2    0    0 -0.11962461702E+04  0.50223184632E+03 -0.69604391449E+03  0.14746744088E+04  0.83341188261E+02 0.  0.
    5000000    2    1    2    0    0  0.11962461702E+04 -0.50223184632E+03 -0.17995575849E+03  0.14406888688E+04  0.59996551093E+03 0.  0.
         23    2    4    4    0    0  0.12081027220E+03 -0.20464561871E+03 -0.19487543756E+03  0.32093053227E+03  0.92439273340E+02 0.  0.
         23    2    4    4    0    0  0.10754358980E+04 -0.29758622761E+03  0.14919679068E+02  0.11197583365E+04  0.92283268583E+02 0.  0.
          3    1    3    3  502    0 -0.98333518008E+03  0.43954863275E+03 -0.55474075571E+03  0.12115644362E+04  0.00000000000E+00 0. -1.
         -3    1    3    3    0  502 -0.21291099016E+03  0.62683213576E+02 -0.14130315878E+03  0.26310997259E+03  0.00000000000E+00 0.  1.
         11    1    5    5    0    0  0.71966487276E+02 -0.19068958087E+03 -0.14887594083E+03  0.25239995503E+03  0.00000000000E+00 0.  1.
        -11    1    5    5    0    0  0.48843784919E+02 -0.13956037843E+02 -0.45999496730E+02  0.68530577240E+02  0.00000000000E+00 0. -1.
          3    1    6    6  503    0  0.44978301537E+03 -0.80765568480E+02 -0.10750914089E+02  0.45710329262E+03  0.00000000000E+00 0. -1.
         -3    1    6    6    0  503  0.62565288267E+03 -0.21682065913E+03  0.25670593156E+02  0.66265504388E+03  0.00000000000E+00 0.  1.
<mgrwt>
<rscale>  0 0.13364002E+04</rscale>
<asrwt>0</asrwt>
<pdfrwt beam="1">  1        2 0.29164331E+00 0.13364002E+04</pdfrwt>
<pdfrwt beam="2">  1       -2 0.15687412E+00 0.13364002E+04</pdfrwt>
<totfact> 0.19450178E+00</totfact>
</mgrwt>
</event>
<event>
12    1  0.1418317E-007  0.7271560E+03  0.7818608E-02  0.9671887E-01
          2   -1    0    0  501    0  0.00000000000E+00  0.00000000000E+00  0.17851516971E+04  0.17851516971E+04  0.00000000000E+00 0. -1.
         -2   -1    0    0    0  501 -0.00000000000E+00 -0.00000000000E+00 -0.54899568357E+03  0.54899568357E+03  0.00000000000E+00 0.  1.
         23    2    1    2    0    0 -0.22985060255E+03 -0.56662464119E+03 -0.21025677494E+03  0.65306280216E+03  0.91587819396E+02 0.  0.
    5000000    2    1    2    0    0  0.22985060255E+03  0.56662464119E+03  0.14464127885E+04  0.16810845785E+04  0.60003385070E+03 0.  0.
         23    2    4    4    0    0  0.34323482232E+03  0.11566231547E+03  0.50978306450E+03  0.63167930937E+03  0.89174337976E+02 0.  0.
         23    2    4    4    0    0 -0.11338421977E+03  0.45096232571E+03  0.93662972395E+03  0.10494052691E+04  0.88052135709E+02 0.  0.
          2    1    3    3  502    0 -0.11113148824E+03 -0.17874577162E+03 -0.98018916461E+02  0.23218089184E+03  0.00000000000E+00 0. -1.
         -2    1    3    3    0  502 -0.11871911431E+03 -0.38787886957E+03 -0.11223785848E+03  0.42088191032E+03  0.00000000000E+00 0.  1.
         13    1    5    5    0    0  0.95134088076E+02  0.74974961633E+02  0.15107762254E+03  0.19363932353E+03  0.00000000000E+00 0. -1.
        -13    1    5    5    0    0  0.24810073424E+03  0.40687353840E+02  0.35870544196E+03  0.43803998583E+03  0.00000000000E+00 0.  1.
          1    1    6    6  503    0 -0.77198768315E+02  0.25698576236E+03  0.44480865109E+03  0.51947672515E+03  0.00000000000E+00 0. -1.
         -1    1    6    6    0  503 -0.36185451454E+02  0.19397656335E+03  0.49182107286E+03  0.52992854399E+03  0.00000000000E+00 0.  1.
<mgrwt>
<rscale>  0 0.72715604E+03</rscale>
<asrwt>0</asrwt>
<pdfrwt beam="1">  1        2 0.27463872E+00 0.72715604E+03</pdfrwt>
<pdfrwt beam="2">  1       -2 0.84460875E-01 0.72715604E+03</pdfrwt>
<totfact> 0.11113509E+01</totfact>
</mgrwt>
</event>
<event>
12    1  0.1418317E-007  0.5823792E+03  0.7818608E-02  0.9942653E-01
         -1   -1    0    0    0  501 -0.00000000000E+00  0.00000000000E+00  0.86175206123E+03  0.86175206123E+03  0.00000000000E+00 0.  1.
          1   -1    0    0  501    0  0.00000000000E+00 -0.00000000000E+00 -0.56277207289E+03  0.56277207289E+03  0.00000000000E+00 0. -1.
         23    2    1    2    0    0 -0.34562916315E+03 -0.25738685389E+03  0.49246112076E+03  0.66090616483E+03  0.92582354012E+02 0.  0.
    5000000    2    1    2    0    0  0.34562916315E+03  0.25738685389E+03 -0.19348113242E+03  0.76361796929E+03  0.59997495235E+03 0.  0.
         23    2    4    4    0    0  0.37075445870E+03 -0.70680081037E+02 -0.15331683506E+03  0.41960079517E+03  0.10051981340E+03 0.  0.
         23    2    4    4    0    0 -0.25125295553E+02  0.32806693492E+03 -0.40164297353E+02  0.34401717412E+03  0.92062212889E+02 0.  0.
          3    1    3    3  502    0 -0.53245819647E+02 -0.66484845940E+02  0.14583810766E+03  0.16889080998E+03  0.00000000000E+00 0. -1.
         -3    1    3    3    0  502 -0.29238334350E+03 -0.19090200795E+03  0.34662301309E+03  0.49201535484E+03  0.00000000000E+00 0.  1.
         13    1    5    5    0    0  0.11217018832E+03  0.23388880920E+02 -0.32660358660E+02  0.11914650614E+03  0.00000000000E+00 0. -1.
        -13    1    5    5    0    0  0.25858427039E+03 -0.94068961957E+02 -0.12065647640E+03  0.30045428902E+03  0.00000000000E+00 0.  1.
          1    1    6    6  503    0  0.14359828667E+02  0.27026403864E+03 -0.42576997014E+02  0.27397382345E+03  0.00000000000E+00 0. -1.
         -1    1    6    6    0  503 -0.39485124221E+02  0.57802896279E+02  0.24126996609E+01  0.70043350667E+02  0.00000000000E+00 0.  1.
<mgrwt>
<rscale>  0 0.58237917E+03</rscale>
<asrwt>0</asrwt>
<pdfrwt beam="1">  1        1 0.86580319E-01 0.58237917E+03</pdfrwt>
<pdfrwt beam="2">  1       -1 0.13257724E+00 0.58237917E+03</pdfrwt>
<totfact> 0.18994055E+01</totfact>
</mgrwt>
</event>
<event>
12    1  0.1418317E-007  0.3911581E+03  0.7818608E-02  0.1046885E+00
          1   -1    0    0  501    0  0.00000000000E+00  0.00000000000E+00  0.43986627442E+03  0.43986627442E+03  0.00000000000E+00 0. -1.
         -1   -1    0    0    0  501 -0.00000000000E+00 -0.00000000000E+00 -0.86692172016E+03  0.86692172016E+03  0.00000000000E+00 0.  1.
         23    2    1    2    0    0  0.14918274020E+03 -0.30521813610E+03 -0.50196935281E+03  0.61307647781E+03  0.92064846178E+02 0.  0.
    5000000    2    1    2    0    0 -0.14918274020E+03  0.30521813610E+03  0.74913907076E+02  0.69371151678E+03  0.60017495321E+03 0.  0.
         23    2    4    4    0    0  0.10963413886E+02  0.26515517052E+03 -0.21133668795E+03  0.35122388958E+03  0.90926146091E+02 0.  0.
         23    2    4    4    0    0 -0.16014615408E+03  0.40062965580E+02  0.28625059503E+03  0.34248762719E+03  0.90036324604E+02 0.  0.
          3    1    3    3  502    0 -0.75810203918E+01 -0.26853045375E+02 -0.73484235439E+02  0.78603376354E+02  0.00000000000E+00 0. -1.
         -3    1    3    3    0  502  0.15676376059E+03 -0.27836509072E+03 -0.42848511737E+03  0.53447310145E+03  0.00000000000E+00 0.  1.
         11    1    5    5    0    0  0.23558820846E+02  0.15874055240E+03 -0.73169315310E+02  0.17637270117E+03  0.00000000000E+00 0.  1.
        -11    1    5    5    0    0 -0.12595406960E+02  0.10641461812E+03 -0.13816737264E+03  0.17485118841E+03  0.00000000000E+00 0. -1.
          2    1    6    6  503    0 -0.15510808701E+02  0.12828026752E+02  0.11471030207E+03  0.11646285613E+03  0.00000000000E+00 0. -1.
         -2    1    6    6    0  503 -0.14463534538E+03  0.27234938828E+02  0.17154029296E+03  0.22602477107E+03  0.00000000000E+00 0.  1.
<mgrwt>
<rscale>  0 0.39115805E+03</rscale>
<asrwt>0</asrwt>
<pdfrwt beam="1">  1        1 0.67671735E-01 0.39115805E+03</pdfrwt>
<pdfrwt beam="2">  1       -1 0.13337257E+00 0.39115805E+03</pdfrwt>
<totfact> 0.26984361E+01</totfact>
</mgrwt>
</event>
<event>
12    1  0.1418317E-007  0.4608423E+03  0.7818608E-02  0.1024537E+00
         -1   -1    0    0    0  501 -0.00000000000E+00  0.00000000000E+00  0.65236383059E+03  0.65236383059E+03  0.00000000000E+00 0.  1.
          1   -1    0    0  501    0  0.00000000000E+00 -0.00000000000E+00 -0.48868766817E+03  0.48868766817E+03  0.00000000000E+00 0. -1.
         23    2    1    2    0    0 -0.35834114708E+03  0.23604376007E+02  0.23432235671E+03  0.43825071698E+03  0.90505136970E+02 0.  0.
    5000000    2    1    2    0    0  0.35834114708E+03 -0.23604376007E+02 -0.70646194296E+02  0.70280078178E+03  0.59997709110E+03 0.  0.
         23    2    4    4    0    0  0.32150506624E+02  0.14736721101E+03  0.17687649899E+03  0.24986984840E+03  0.91645486987E+02 0.  0.
         23    2    4    4    0    0  0.32619064046E+03 -0.17097158702E+03 -0.24752269328E+03  0.45293093338E+03  0.90814807350E+02 0.  0.
          4    1    3    3  502    0 -0.68473161991E+02 -0.30201924717E+02  0.36949021200E+02  0.83462328852E+02  0.00000000000E+00 0. -1.
         -4    1    3    3    0  502 -0.28986798509E+03  0.53806300724E+02  0.19737333551E+03  0.35478838813E+03  0.00000000000E+00 0.  1.
         11    1    5    5    0    0  0.62702212558E+02  0.74155806995E+02  0.94367737580E+02  0.13541019558E+03  0.00000000000E+00 0. -1.
        -11    1    5    5    0    0 -0.30551705934E+02  0.73211404019E+02  0.82508761408E+02  0.11445965282E+03  0.00000000000E+00 0.  1.
          2    1    6    6  503    0  0.77719592442E+02 -0.78498095986E+02 -0.44873101111E+02  0.11923037082E+03  0.00000000000E+00 0. -1.
         -2    1    6    6    0  503  0.24847104802E+03 -0.92473491035E+02 -0.20264959217E+03  0.33370056256E+03  0.00000000000E+00 0.  1.
<mgrwt>
<rscale>  0 0.46084231E+03</rscale>
<asrwt>0</asrwt>
<pdfrwt beam="1">  1        1 0.75182719E-01 0.46084231E+03</pdfrwt>
<pdfrwt beam="2">  1       -1 0.10036367E+00 0.46084231E+03</pdfrwt>
<totfact> 0.45608869E+01</totfact>
</mgrwt>
</event>
<event>
12    1  0.1418317E-007  0.4847900E+03  0.7818608E-02  0.1017827E+00
          1   -1    0    0  501    0  0.00000000000E+00  0.00000000000E+00  0.16122938645E+04  0.16122938645E+04  0.00000000000E+00 0. -1.
         -1   -1    0    0    0  501 -0.00000000000E+00 -0.00000000000E+00 -0.21574198783E+03  0.21574198783E+03  0.00000000000E+00 0.  1.
         23    2    1    2    0    0 -0.30022089972E+03 -0.17062246674E+03  0.92140449619E+03  0.98841627685E+03  0.93465908019E+02 0.  0.
    5000000    2    1    2    0    0  0.30022089972E+03  0.17062246674E+03  0.47514738052E+03  0.83961957551E+03  0.59995948495E+03 0.  0.
         23    2    4    4    0    0 -0.10292141208E+03  0.16166304781E+03  0.24482629548E+01  0.21182890501E+03  0.90209383735E+02 0.  0.
         23    2    4    4    0    0  0.40314231181E+03  0.89594189321E+01  0.47269911756E+03  0.62779067051E+03  0.89848068829E+02 0.  0.
          1    1    3    3  502    0 -0.11271508126E+03 -0.18889895567E+02  0.24655379538E+03  0.27175410156E+03  0.00000000000E+00 0. -1.
         -1    1    3    3    0  502 -0.18750581846E+03 -0.15173257117E+03  0.67485070081E+03  0.71666217530E+03  0.00000000000E+00 0.  1.
         13    1    5    5    0    0 -0.80882489220E+01 -0.64722585680E+01 -0.14754740237E+02  0.18028096434E+02  0.00000000000E+00 0. -1.
        -13    1    5    5    0    0 -0.94833163163E+02  0.16813530637E+03  0.17203003192E+02  0.19380080857E+03  0.00000000000E+00 0.  1.
          3    1    6    6  503    0  0.28730796080E+03  0.41698782810E+02  0.30195145636E+03  0.41887866360E+03  0.00000000000E+00 0. -1.
         -3    1    6    6    0  503  0.11583435101E+03 -0.32739363878E+02  0.17074766120E+03  0.20891200690E+03  0.00000000000E+00 0.  1.
<mgrwt>
<rscale>  0 0.48479000E+03</rscale>
<asrwt>0</asrwt>
<pdfrwt beam="1">  1        1 0.24804520E+00 0.48479000E+03</pdfrwt>
<pdfrwt beam="2">  1       -1 0.33191076E-01 0.48479000E+03</pdfrwt>
<totfact> 0.49869530E+01</totfact>
</mgrwt>
</event>
<event>
12    1  0.1418317E-007  0.1855127E+04  0.7818608E-02  0.8677520E-01
         -1   -1    0    0    0  501 -0.00000000000E+00  0.00000000000E+00  0.16804177328E+04  0.16804177328E+04  0.00000000000E+00 0.  1.
          1   -1    0    0  501    0  0.00000000000E+00 -0.00000000000E+00 -0.23416078164E+04  0.23416078164E+04  0.00000000000E+00 0. -1.
         23    2    1    2    0    0  0.89635160869E+03  0.15695127115E+04 -0.10301984052E+04  0.20821903031E+04  0.85972938796E+02 0.  0.
    5000000    2    1    2    0    0 -0.89635160869E+03 -0.15695127115E+04  0.36900832160E+03  0.19398352461E+04  0.59998106858E+03 0.  0.
         23    2    4    4    0    0 -0.42948459766E+03 -0.25923518703E+03  0.79762584132E+02  0.51627314964E+03  0.92282140181E+02 0.  0.
         23    2    4    4    0    0 -0.46686701103E+03 -0.13102775244E+04  0.28924573747E+03  0.14235620964E+04  0.89855154098E+02 0.  0.
          3    1    3    3  502    0  0.45271578081E+03  0.73000749770E+03 -0.52340842142E+03  0.10058920919E+04  0.00000000000E+00 0. -1.
         -3    1    3    3    0  502  0.44363582788E+03  0.83950521377E+03 -0.50678998377E+03  0.10762982112E+04  0.00000000000E+00 0.  1.
         11    1    5    5    0    0 -0.37781790464E+03 -0.18906130036E+03  0.74250096136E+02  0.42895643268E+03  0.00000000000E+00 0. -1.
        -11    1    5    5    0    0 -0.51666693021E+02 -0.70173886671E+02  0.55124879960E+01  0.87316716968E+02  0.00000000000E+00 0.  1.
          3    1    6    6  503    0 -0.29674203875E+03 -0.91110941922E+03  0.16598951093E+03  0.97248585033E+03  0.00000000000E+00 0. -1.
         -3    1    6    6    0  503 -0.17012497229E+03 -0.39916810522E+03  0.12325622654E+03  0.45107624611E+03  0.00000000000E+00 0.  1.
<mgrwt>
<rscale>  0 0.18551273E+04</rscale>
<asrwt>0</asrwt>
<pdfrwt beam="1">  1        1 0.36024736E+00 0.18551273E+04</pdfrwt>
<pdfrwt beam="2">  1       -1 0.25852580E+00 0.18551273E+04</pdfrwt>
<totfact> 0.96736557E-02</totfact>
</mgrwt>
</event>
<event>
12    1  0.1418317E-007  0.6463865E+03  0.7818608E-02  0.9813583E-01
          1   -1    0    0  501    0  0.00000000000E+00  0.00000000000E+00  0.29723783128E+04  0.29723783128E+04  0.00000000000E+00 0. -1.
         -1   -1    0    0    0  501 -0.00000000000E+00 -0.00000000000E+00 -0.19895014628E+03  0.19895014628E+03  0.00000000000E+00 0.  1.
         23    2    1    2    0    0  0.51688011612E+03 -0.33771312057E+03  0.15928268861E+04  0.17102037318E+04  0.80523965630E+02 0.  0.
    5000000    2    1    2    0    0 -0.51688011612E+03  0.33771312057E+03  0.11806012805E+04  0.14611247273E+04  0.59987571966E+03 0.  0.
         23    2    4    4    0    0 -0.38115395063E+03  0.11871548676E+03  0.22558680431E+03  0.46766926462E+03  0.91942557669E+02 0.  0.
         23    2    4    4    0    0 -0.13572616549E+03  0.21899763380E+03  0.95501447617E+03  0.99345546269E+03  0.92301414140E+02 0.  0.
          3    1    3    3  502    0  0.22276553692E+03 -0.11399126177E+03  0.56383766894E+03  0.61687227942E+03  0.00000000000E+00 0. -1.
         -3    1    3    3    0  502  0.29411457920E+03 -0.22372185880E+03  0.10289892171E+04  0.10933314524E+04  0.00000000000E+00 0.  1.
         13    1    5    5    0    0 -0.18452305396E+03  0.62547643723E+02  0.58027462261E+02  0.20329326491E+03  0.00000000000E+00 0.  1.
        -13    1    5    5    0    0 -0.19663089667E+03  0.56167843041E+02  0.16755934205E+03  0.26437599971E+03  0.00000000000E+00 0. -1.
          4    1    6    6  503    0 -0.93670914698E+02  0.64948916319E+02  0.40184623769E+03  0.41769965374E+03  0.00000000000E+00 0. -1.
         -4    1    6    6    0  503 -0.42055250791E+02  0.15404871749E+03  0.55316823848E+03  0.57575580895E+03  0.00000000000E+00 0.  1.
<mgrwt>
<rscale>  0 0.64638646E+03</rscale>
<asrwt>0</asrwt>
<pdfrwt beam="1">  1        1 0.45728894E+00 0.64638646E+03</pdfrwt>
<pdfrwt beam="2">  1       -1 0.30607717E-01 0.64638646E+03</pdfrwt>
<totfact> 0.66994205E+00</totfact>
</mgrwt>
</event>
<event>
12    1  0.1418317E-007  0.6067632E+03  0.7818608E-02  0.9891473E-01
          1   -1    0    0  501    0  0.00000000000E+00  0.00000000000E+00  0.87329005764E+03  0.87329005764E+03  0.00000000000E+00 0. -1.
         -1   -1    0    0    0  501 -0.00000000000E+00 -0.00000000000E+00 -0.13978352593E+04  0.13978352593E+04  0.00000000000E+00 0.  1.
         23    2    1    2    0    0 -0.77573339331E+02 -0.55769153178E+03 -0.11193927014E+04  0.12557763180E+04  0.83046211793E+02 0.  0.
    5000000    2    1    2    0    0  0.77573339331E+02  0.55769153178E+03  0.59484749975E+03  0.10153489989E+04  0.60004381011E+03 0.  0.
         23    2    4    4    0    0 -0.18909116317E+02  0.52680561846E+03  0.15664707592E+03  0.55719010447E+03  0.89670462291E+02 0.  0.
         23    2    4    4    0    0  0.96482455648E+02  0.30885913319E+02  0.43820042383E+03  0.45815889445E+03  0.87333597340E+02 0.  0.
          4    1    3    3  502    0 -0.68752226811E+02 -0.38318468117E+03 -0.69098671522E+03  0.79310781687E+03  0.00000000000E+00 0. -1.
         -4    1    3    3    0  502 -0.88211125203E+01 -0.17450685061E+03 -0.42840598615E+03  0.46266850110E+03  0.00000000000E+00 0.  1.
         11    1    5    5    0    0  0.78370780594E+00  0.47269359566E+03  0.16120354729E+03  0.49942610388E+03  0.00000000000E+00 0. -1.
        -11    1    5    5    0    0 -0.19692824123E+02  0.54112022802E+02 -0.45564713696E+01  0.57764000597E+02  0.00000000000E+00 0.  1.
          2    1    6    6  503    0 -0.35889961318E+01 -0.10369435296E+02  0.57904410136E+01  0.12407066080E+02  0.00000000000E+00 0. -1.
         -2    1    6    6    0  503  0.10007145178E+03  0.41255348615E+02  0.43240998282E+03  0.44575182837E+03  0.00000000000E+00 0.  1.
<mgrwt>
<rscale>  0 0.60676322E+03</rscale>
<asrwt>0</asrwt>
<pdfrwt beam="1">  1        1 0.13435232E+00 0.60676322E+03</pdfrwt>
<pdfrwt beam="2">  1       -1 0.21505158E+00 0.60676322E+03</pdfrwt>
<totfact> 0.24384150E+00</totfact>
</mgrwt>
</event>
<event>
12    1  0.1418317E-007  0.3360641E+03  0.7818608E-02  0.1068485E+00
          2   -1    0    0  501    0  0.00000000000E+00  0.00000000000E+00  0.95014876286E+03  0.95014876286E+03  0.00000000000E+00 0. -1.
         -2   -1    0    0    0  501 -0.00000000000E+00 -0.00000000000E+00 -0.18207426694E+03  0.18207426694E+03  0.00000000000E+00 0.  1.
         23    2    1    2    0    0  0.18188638887E+03 -0.30833527855E+02  0.18847577969E+03  0.27786057578E+03  0.87464364997E+02 0.  0.
    5000000    2    1    2    0    0 -0.18188638887E+03  0.30833527855E+02  0.57959871623E+03  0.85436245401E+03  0.59997263778E+03 0.  0.
         23    2    4    4    0    0 -0.24105556894E+03 -0.14742860721E+03  0.70750247888E+02  0.30437835746E+03  0.88304050716E+02 0.  0.
         23    2    4    4    0    0  0.59169180072E+02  0.17826213507E+03  0.50884846834E+03  0.54998409655E+03  0.90980009118E+02 0.  0.
          1    1    3    3  502    0  0.93198226642E+02 -0.36729006758E+02  0.46697114542E+02  0.11052397882E+03  0.00000000000E+00 0. -1.
         -1    1    3    3    0  502  0.88688162230E+02  0.58954789031E+01  0.14177866515E+03  0.16733659696E+03  0.00000000000E+00 0.  1.
         11    1    5    5    0    0 -0.20973972911E+03 -0.15158215803E+03  0.42998220832E+02  0.26232947145E+03  0.00000000000E+00 0. -1.
        -11    1    5    5    0    0 -0.31315839836E+02  0.41535508153E+01  0.27752027055E+02  0.42048886010E+02  0.00000000000E+00 0.  1.
          3    1    6    6  503    0  0.63846211444E+02  0.13671410003E+03  0.28717257417E+03  0.32439970903E+03  0.00000000000E+00 0.  1.
         -3    1    6    6    0  503 -0.46770313722E+01  0.41548035034E+02  0.22167589416E+03  0.22558438752E+03  0.00000000000E+00 0. -1.
<mgrwt>
<rscale>  0 0.33606408E+03</rscale>
<asrwt>0</asrwt>
<pdfrwt beam="1">  1        2 0.14617673E+00 0.33606408E+03</pdfrwt>
<pdfrwt beam="2">  1       -2 0.28011426E-01 0.33606408E+03</pdfrwt>
<totfact> 0.32714083E+02</totfact>
</mgrwt>
</event>
<event>
12    1  0.1418317E-007  0.4263298E+03  0.7818608E-02  0.1035026E+00
         -1   -1    0    0    0  501 -0.00000000000E+00  0.00000000000E+00  0.52112290545E+03  0.52112290545E+03  0.00000000000E+00 0.  1.
          1   -1    0    0  501    0  0.00000000000E+00 -0.00000000000E+00 -0.92564380347E+03  0.92564380347E+03  0.00000000000E+00 0. -1.
         23    2    1    2    0    0  0.18152223315E+03 -0.35042164967E+03 -0.58003149699E+03  0.70748371849E+03  0.91383919490E+02 0.  0.
    5000000    2    1    2    0    0 -0.18152223315E+03  0.35042164967E+03  0.17551059897E+03  0.73928299043E+03  0.59999142985E+03 0.  0.
         23    2    4    4    0    0  0.47736650236E+02  0.39352227403E+02 -0.17616630441E+03  0.20904962113E+03  0.94020166486E+02 0.  0.
         23    2    4    4    0    0 -0.22925888339E+03  0.31106942227E+03  0.35167690338E+03  0.53023336930E+03  0.90260514402E+02 0.  0.
          1    1    3    3  502    0  0.12694569333E+03 -0.25733724596E+03 -0.48584904432E+03  0.56425788526E+03  0.00000000000E+00 0. -1.
         -1    1    3    3    0  502  0.54576539818E+02 -0.93084403714E+02 -0.94182452673E+02  0.14322583323E+03  0.00000000000E+00 0.  1.
         11    1    5    5    0    0  0.25831642719E+02  0.29964598407E+02 -0.94980892593E+01  0.40686172379E+02  0.00000000000E+00 0.  1.
        -11    1    5    5    0    0  0.21905007517E+02  0.93876289967E+01 -0.16666821515E+03  0.16836344875E+03  0.00000000000E+00 0. -1.
          4    1    6    6  503    0 -0.31723935267E+02  0.10186107166E+03  0.70144133401E+02  0.12768040351E+03  0.00000000000E+00 0. -1.
         -4    1    6    6    0  503 -0.19753494812E+03  0.20920835061E+03  0.28153276998E+03  0.40255296579E+03  0.00000000000E+00 0.  1.
<mgrwt>
<rscale>  0 0.42632981E+03</rscale>
<asrwt>0</asrwt>
<pdfrwt beam="1">  1        1 0.14240674E+00 0.42632981E+03</pdfrwt>
<pdfrwt beam="2">  1       -1 0.80172755E-01 0.42632981E+03</pdfrwt>
<totfact> 0.28990273E+01</totfact>
</mgrwt>
</event>
<event>
12    1  0.1418317E-007  0.8086961E+03  0.7818608E-02  0.9547514E-01
         -2   -1    0    0    0  501 -0.00000000000E+00  0.00000000000E+00  0.46430463864E+03  0.46430463864E+03  0.00000000000E+00 0.  1.
          2   -1    0    0  501    0  0.00000000000E+00 -0.00000000000E+00 -0.17667278909E+04  0.17667278909E+04  0.00000000000E+00 0. -1.
         23    2    1    2    0    0 -0.42071939345E+03 -0.57806791575E+03 -0.10326750568E+04  0.12589999211E+04  0.86577741250E+02 0.  0.
    5000000    2    1    2    0    0  0.42071939345E+03  0.57806791575E+03 -0.26974819546E+03  0.97203260840E+03  0.60076283139E+03 0.  0.
         23    2    4    4    0    0  0.48292855775E+03  0.23117778194E+03 -0.27404346256E+03  0.60814159615E+03  0.89851114889E+02 0.  0.
         23    2    4    4    0    0 -0.62209164295E+02  0.34689013381E+03  0.42952670959E+01  0.36389101225E+03  0.90528859593E+02 0.  0.
          2    1    3    3  502    0 -0.27648447562E+03 -0.34720437960E+03 -0.57333319963E+03  0.72505551806E+03  0.00000000000E+00 0. -1.
         -2    1    3    3    0  502 -0.14423491783E+03 -0.23086353615E+03 -0.45934185716E+03  0.53394440309E+03  0.00000000000E+00 0.  1.
         13    1    5    5    0    0  0.46591090909E+03  0.20860061143E+03 -0.24056270474E+03  0.56432048094E+03  0.00000000000E+00 0.  1.
        -13    1    5    5    0    0  0.17017648657E+02  0.22577170509E+02 -0.33480757819E+02  0.43821115209E+02  0.00000000000E+00 0. -1.
          1    1    6    6  503    0 -0.61991106045E+02  0.11457466583E+03  0.16184379583E+02  0.13127141891E+03  0.00000000000E+00 0. -1.
         -1    1    6    6    0  503 -0.21805824991E+00  0.23231546797E+03 -0.11889112487E+02  0.23261959334E+03  0.00000000000E+00 0.  1.
<mgrwt>
<rscale>  0 0.80869611E+03</rscale>
<asrwt>0</asrwt>
<pdfrwt beam="1">  1        2 0.27180428E+00 0.80869611E+03</pdfrwt>
<pdfrwt beam="2">  1       -2 0.71431485E-01 0.80869611E+03</pdfrwt>
<totfact> 0.16357753E+01</totfact>
</mgrwt>
</event>
<event>
12    1  0.1651404E-007  0.1419591E+04  0.7818608E-02  0.8939758E-01
         -2   -1    0    0    0  501 -0.00000000000E+00  0.00000000000E+00  0.11002400015E+04  0.11002400015E+04  0.00000000000E+00 0.  1.
          2   -1    0    0  501    0  0.00000000000E+00 -0.00000000000E+00 -0.21855912127E+04  0.21855912127E+04  0.00000000000E+00 0. -1.
         23    2    1    2    0    0 -0.12478413015E+04 -0.64899076698E+03 -0.10485348018E+04  0.17561803605E+04  0.80295072052E+02 0.  0.
    5000000    2    1    2    0    0  0.12478413015E+04  0.64899076698E+03 -0.36816409348E+02  0.15296508537E+04  0.60014944558E+03 0.  0.
         23    2    4    4    0    0  0.11983282601E+03  0.39217673603E+02 -0.17773124567E+03  0.23661846482E+03  0.92206128282E+02 0.  0.
         23    2    4    4    0    0  0.11280084755E+04  0.60977309338E+03  0.14091483632E+03  0.12930323889E+04  0.88596961281E+02 0.  0.
          2    1    3    3  502    0 -0.49366035861E+03 -0.29134228034E+03 -0.39613407607E+03  0.69678051078E+03  0.00000000000E+00 0. -1.
         -2    1    3    3    0  502 -0.75418094288E+03 -0.35764848664E+03 -0.65240072577E+03  0.10593998497E+04  0.00000000000E+00 0.  1.
         13    1    5    5    0    0 -0.11811097569E+02  0.31694926780E+01 -0.43486708380E+02  0.45173460298E+02  0.00000000000E+00 0. -1.
        -13    1    5    5    0    0  0.13164392358E+03  0.36048180925E+02 -0.13424453729E+03  0.19144500452E+03  0.00000000000E+00 0.  1.
          2    1    6    6  503    0  0.17975982392E+03  0.86082815904E+02  0.52928573993E+02  0.20621658381E+03  0.00000000000E+00 0. -1.
         -2    1    6    6    0  503  0.94824865155E+03  0.52369027748E+03  0.87986262331E+02  0.10868158051E+04  0.00000000000E+00 0.  1.
<mgrwt>
<rscale>  0 0.14195911E+04</rscale>
<asrwt>0</asrwt>
<pdfrwt beam="1">  1        2 0.33624480E+00 0.14195911E+04</pdfrwt>
<pdfrwt beam="2">  1       -2 0.16926769E+00 0.14195911E+04</pdfrwt>
<totfact> 0.10776984E+00</totfact>
</mgrwt>
</event>
<event>
12    1  0.1418317E-007  0.8005054E+03  0.7818608E-02  0.9559286E-01
          1   -1    0    0  501    0  0.00000000000E+00  0.00000000000E+00  0.89924174545E+03  0.89924174545E+03  0.00000000000E+00 0. -1.
         -1   -1    0    0    0  501 -0.00000000000E+00 -0.00000000000E+00 -0.11932319487E+04  0.11932319487E+04  0.00000000000E+00 0.  1.
         23    2    1    2    0    0  0.12891295560E+03 -0.68347945705E+03 -0.78318061730E+03  0.10517407454E+04  0.94994725408E+02 0.  0.
    5000000    2    1    2    0    0 -0.12891295560E+03  0.68347945705E+03  0.48919041408E+03  0.10407329487E+04  0.60004590744E+03 0.  0.
         23    2    4    4    0    0  0.12344265899E+03 -0.23545990429E+02  0.37606239385E+02  0.15985523570E+03  0.91361717443E+02 0.  0.
         23    2    4    4    0    0 -0.25235561459E+03  0.70702544748E+03  0.45158417469E+03  0.88087771304E+03  0.91918109746E+02 0.  0.
          1    1    3    3  502    0  0.98849368529E+02 -0.57526365023E+03 -0.60155150385E+03  0.83819071620E+03  0.00000000000E+00 0. -1.
         -1    1    3    3    0  502  0.30063587067E+02 -0.10821580682E+03 -0.18162911345E+03  0.21355002918E+03  0.00000000000E+00 0.  1.
         11    1    5    5    0    0  0.90681526970E+02  0.23571554557E+02  0.41203794715E+02  0.10235482508E+03  0.00000000000E+00 0. -1.
        -11    1    5    5    0    0  0.32761132024E+02 -0.47117544985E+02 -0.35975553296E+01  0.57500410618E+02  0.00000000000E+00 0.  1.
          4    1    6    6  503    0 -0.84798483545E+02  0.15083190317E+03  0.74898941289E+02  0.18854945567E+03  0.00000000000E+00 0.  1.
         -4    1    6    6    0  503 -0.16755713105E+03  0.55619354431E+03  0.37668523340E+03  0.69232825737E+03  0.00000000000E+00 0. -1.
<mgrwt>
<rscale>  0 0.80050542E+03</rscale>
<asrwt>0</asrwt>
<pdfrwt beam="1">  1        1 0.13834489E+00 0.80050542E+03</pdfrwt>
<pdfrwt beam="2">  1       -1 0.18357414E+00 0.80050542E+03</pdfrwt>
<totfact> 0.36837874E+00</totfact>
</mgrwt>
</event>
<event>
12    1  0.1418317E-007  0.7170605E+03  0.7818608E-02  0.9688493E-01
          1   -1    0    0  501    0  0.00000000000E+00  0.00000000000E+00  0.18753844744E+04  0.18753844744E+04  0.00000000000E+00 0. -1.
         -1   -1    0    0    0  501 -0.00000000000E+00 -0.00000000000E+00 -0.42365646877E+03  0.42365646877E+03  0.00000000000E+00 0.  1.
         23    2    1    2    0    0  0.56923872357E+03  0.27785888377E+03  0.12497635462E+04  0.14041775954E+04  0.92560868598E+02 0.  0.
    5000000    2    1    2    0    0 -0.56923872357E+03 -0.27785888377E+03  0.20196445948E+03  0.89486334779E+03  0.59895950164E+03 0.  0.
         23    2    4    4    0    0 -0.28925225655E+03  0.11473637015E+03  0.23867961583E+03  0.40315440331E+03  0.93457002614E+02 0.  0.
         23    2    4    4    0    0 -0.27998646702E+03 -0.39259525392E+03 -0.36715156356E+02  0.49170894447E+03  0.88916973930E+02 0.  0.
          3    1    3    3  502    0  0.27094851626E+03  0.14038878375E+03  0.50221279776E+03  0.58765619481E+03  0.00000000000E+00 0.  1.
         -3    1    3    3    0  502  0.29829020732E+03  0.13747010002E+03  0.74755074840E+03  0.81652140059E+03  0.00000000000E+00 0. -1.
         11    1    5    5    0    0 -0.12431901940E+03  0.64766217676E+02  0.53105810219E+02  0.14990032894E+03  0.00000000000E+00 0. -1.
        -11    1    5    5    0    0 -0.16493323716E+03  0.49970152473E+02  0.18557380562E+03  0.25325407438E+03  0.00000000000E+00 0.  1.
          3    1    6    6  503    0 -0.19029774050E+03 -0.20290772093E+03  0.28145155611E+01  0.27819542547E+03  0.00000000000E+00 0. -1.
         -3    1    6    6    0  503 -0.89688726519E+02 -0.18968753299E+03 -0.39529671917E+02  0.21351351900E+03  0.00000000000E+00 0.  1.
<mgrwt>
<rscale>  0 0.71706050E+03</rscale>
<asrwt>0</asrwt>
<pdfrwt beam="1">  1        1 0.28852068E+00 0.71706050E+03</pdfrwt>
<pdfrwt beam="2">  1       -1 0.65177919E-01 0.71706050E+03</pdfrwt>
<totfact> 0.90739058E+00</totfact>
</mgrwt>
</event>
<event>
12    1  0.1418317E-007  0.6957638E+03  0.7818608E-02  0.9724504E-01
         -2   -1    0    0    0  501 -0.00000000000E+00  0.00000000000E+00  0.24420011494E+03  0.24420011494E+03  0.00000000000E+00 0.  1.
          2   -1    0    0  501    0  0.00000000000E+00 -0.00000000000E+00 -0.22121218819E+04  0.22121218819E+04  0.00000000000E+00 0. -1.
         23    2    1    2    0    0 -0.54513125046E+03 -0.19844765958E+03 -0.11311169719E+04  0.12744440287E+04  0.90732708378E+02 0.  0.
    5000000    2    1    2    0    0  0.54513125046E+03  0.19844765958E+03 -0.83680479501E+03  0.11818779681E+04  0.60003642614E+03 0.  0.
         23    2    4    4    0    0  0.26230913527E+03  0.38453090469E+03 -0.56776612682E+03  0.73994062603E+03  0.92106765144E+02 0.  0.
         23    2    4    4    0    0  0.28282211518E+03 -0.18608324511E+03 -0.26903866819E+03  0.44193734206E+03  0.91167353690E+02 0.  0.
          3    1    3    3  502    0 -0.28384589155E+03 -0.13471127463E+03 -0.53439807790E+03  0.61991686807E+03  0.00000000000E+00 0. -1.
         -3    1    3    3    0  502 -0.26128535891E+03 -0.63736384952E+02 -0.59671889405E+03  0.65452716067E+03  0.00000000000E+00 0.  1.
         11    1    5    5    0    0  0.51091142436E+02  0.12409847651E+03 -0.21325476540E+03  0.25196891014E+03  0.00000000000E+00 0. -1.
        -11    1    5    5    0    0  0.21121799284E+03  0.26043242818E+03 -0.35451136141E+03  0.48797171590E+03  0.00000000000E+00 0.  1.
          2    1    6    6  503    0  0.62831943227E+02 -0.48801859940E+02 -0.11654778047E+03  0.14111293263E+03  0.00000000000E+00 0.  1.
         -2    1    6    6    0  503  0.21999017196E+03 -0.13728138517E+03 -0.15249088772E+03  0.30082440943E+03  0.00000000000E+00 0. -1.
<mgrwt>
<rscale>  0 0.69576375E+03</rscale>
<asrwt>0</asrwt>
<pdfrwt beam="1">  1        2 0.34032643E+00 0.69576375E+03</pdfrwt>
<pdfrwt beam="2">  1       -2 0.37569250E-01 0.69576375E+03</pdfrwt>
<totfact> 0.35462302E+01</totfact>
</mgrwt>
</event>
<event>
12    1  0.1418317E-007  0.1394007E+04  0.7818608E-02  0.8958168E-01
          2   -1    0    0  501    0  0.00000000000E+00  0.00000000000E+00  0.14226014476E+04  0.14226014476E+04  0.00000000000E+00 0. -1.
         -2   -1    0    0    0  501 -0.00000000000E+00 -0.00000000000E+00 -0.14152625744E+04  0.14152625744E+04  0.00000000000E+00 0.  1.
         23    2    1    2    0    0  0.13124534963E+04 -0.24124927619E+03  0.23220824034E+03  0.13576001521E+04  0.91772069735E+02 0.  0.
    5000000    2    1    2    0    0 -0.13124534963E+04  0.24124927619E+03 -0.22486936720E+03  0.14802638699E+04  0.59989957424E+03 0.  0.
         23    2    4    4    0    0 -0.89947094105E+03 -0.11219447751E+03 -0.16252214336E+03  0.92546919432E+03  0.91892371728E+02 0.  0.
         23    2    4    4    0    0 -0.41298255524E+03  0.35344375370E+03 -0.62347223839E+02  0.55479467563E+03  0.91830701940E+02 0.  0.
          2    1    3    3  502    0  0.55846001319E+03 -0.11041849754E+03  0.53718223791E+02  0.57180020855E+03  0.00000000000E+00 0. -1.
         -2    1    3    3    0  502  0.75399348311E+03 -0.13083077865E+03  0.17849001655E+03  0.78579994351E+03  0.00000000000E+00 0.  1.
         13    1    5    5    0    0 -0.70722045864E+03 -0.11729927985E+03 -0.10361405885E+03  0.72433125803E+03  0.00000000000E+00 0.  1.
        -13    1    5    5    0    0 -0.19225048241E+03  0.51048023452E+01 -0.58908084515E+02  0.20113793629E+03  0.00000000000E+00 0. -1.
          4    1    6    6  503    0 -0.30897939718E+03  0.24822022166E+03 -0.84371780019E+02  0.40521616896E+03  0.00000000000E+00 0. -1.
         -4    1    6    6    0  503 -0.10400315807E+03  0.10522353204E+03  0.22024556180E+02  0.14957850667E+03  0.00000000000E+00 0.  1.
<mgrwt>
<rscale>  0 0.13940074E+04</rscale>
<asrwt>0</asrwt>
<pdfrwt beam="1">  1        2 0.21886176E+00 0.13940074E+04</pdfrwt>
<pdfrwt beam="2">  1       -2 0.21773270E+00 0.13940074E+04</pdfrwt>
<totfact> 0.13651754E+00</totfact>
</mgrwt>
</event>
<event>
12    1  0.1418317E-007  0.1338803E+04  0.7818608E-02  0.8999347E-01
         -2   -1    0    0    0  501 -0.00000000000E+00  0.00000000000E+00  0.69175193793E+03  0.69175193793E+03  0.00000000000E+00 0.  1.
          2   -1    0    0  501    0  0.00000000000E+00 -0.00000000000E+00 -0.26428610892E+04  0.26428610892E+04  0.00000000000E+00 0. -1.
         23    2    1    2    0    0 -0.61843040793E+03  0.11251244564E+04 -0.93253322749E+03  0.15893563622E+04  0.89856628638E+02 0.  0.
    5000000    2    1    2    0    0  0.61843040793E+03 -0.11251244564E+04 -0.10185759238E+04  0.17452566650E+04  0.60005224953E+03 0.  0.
         23    2    4    4    0    0  0.27608301364E+03 -0.96225951697E+03 -0.85650966677E+03  0.13207798576E+04  0.93195571397E+02 0.  0.
         23    2    4    4    0    0  0.34234739429E+03 -0.16286493945E+03 -0.16206625700E+03  0.42447680736E+03  0.10093741351E+03 0.  0.
          2    1    3    3  502    0 -0.54821757373E+03  0.97693892858E+03 -0.84702415230E+03  0.14044223342E+04  0.00000000000E+00 0. -1.
         -2    1    3    3    0  502 -0.70212834199E+02  0.14818552785E+03 -0.85509075189E+02  0.18493402794E+03  0.00000000000E+00 0.  1.
         11    1    5    5    0    0  0.20321723560E+03 -0.65217340061E+03 -0.63625663770E+03  0.93351480884E+03  0.00000000000E+00 0.  1.
        -11    1    5    5    0    0  0.72865778041E+02 -0.31008611637E+03 -0.22025302907E+03  0.38726504876E+03  0.00000000000E+00 0. -1.
          1    1    6    6  503    0 -0.98877852137E+00 -0.19756709172E+02 -0.13440716199E+02  0.23915645344E+02  0.00000000000E+00 0. -1.
         -1    1    6    6    0  503  0.34333617281E+03 -0.14310823028E+03 -0.14862554080E+03  0.40056116202E+03  0.00000000000E+00 0.  1.
<mgrwt>
<rscale>  0 0.13388034E+04</rscale>
<asrwt>0</asrwt>
<pdfrwt beam="1">  1        2 0.40659400E+00 0.13388034E+04</pdfrwt>
<pdfrwt beam="2">  1       -2 0.10642338E+00 0.13388034E+04</pdfrwt>
<totfact> 0.19794674E+00</totfact>
</mgrwt>
</event>
<event>
12    1  0.1418317E-007  0.1266156E+04  0.7818608E-02  0.9056843E-01
          1   -1    0    0  501    0  0.00000000000E+00  0.00000000000E+00  0.31003894312E+04  0.31003894312E+04  0.00000000000E+00 0.  1.
         -1   -1    0    0    0  501 -0.00000000000E+00 -0.00000000000E+00 -0.56691717864E+03  0.56691717864E+03  0.00000000000E+00 0. -1.
         23    2    1    2    0    0 -0.91402278898E+03 -0.86155721296E+03  0.12012742508E+04  0.17404990583E+04  0.92513005544E+02 0.  0.
    5000000    2    1    2    0    0  0.91402278898E+03  0.86155721296E+03  0.13321980017E+04  0.19268075515E+04  0.60009777115E+03 0.  0.
         23    2    4    4    0    0  0.47285460178E+03  0.58356074475E+03  0.40083420674E+03  0.85605894161E+03  0.89633882978E+02 0.  0.
         23    2    4    4    0    0  0.44116818720E+03  0.27799646821E+03  0.93136379497E+03  0.10707486099E+04  0.84573408079E+02 0.  0.
          2    1    3    3  502    0 -0.39598811321E+03 -0.41063503681E+03  0.59662145227E+03  0.82546040278E+03  0.00000000000E+00 0.  1.
         -2    1    3    3    0  502 -0.51803467577E+03 -0.45092217615E+03  0.60465279854E+03  0.91503865548E+03  0.00000000000E+00 0. -1.
         11    1    5    5    0    0  0.80366287675E+02  0.13812850611E+03  0.11673965051E+03  0.19790495293E+03  0.00000000000E+00 0. -1.
        -11    1    5    5    0    0  0.39248831411E+03  0.44543223864E+03  0.28409455624E+03  0.65815398868E+03  0.00000000000E+00 0.  1.
          2    1    6    6  503    0  0.21518257617E+03  0.14198197521E+03  0.54550041432E+03  0.60335157611E+03  0.00000000000E+00 0. -1.
         -2    1    6    6    0  503  0.22598561102E+03  0.13601449299E+03  0.38586338065E+03  0.46739703382E+03  0.00000000000E+00 0.  1.
<mgrwt>
<rscale>  0 0.12661556E+04</rscale>
<asrwt>0</asrwt>
<pdfrwt beam="1">  1        1 0.47698298E+00 0.12661556E+04</pdfrwt>
<pdfrwt beam="2">  1       -1 0.87218029E-01 0.12661556E+04</pdfrwt>
<totfact> 0.64596457E-01</totfact>
</mgrwt>
</event>
<event>
12    1  0.1418317E-007  0.1197006E+04  0.7818608E-02  0.9115482E-01
         -1   -1    0    0    0  501 -0.00000000000E+00  0.00000000000E+00  0.93260456635E+03  0.93260456635E+03  0.00000000000E+00 0.  1.
          1   -1    0    0  501    0  0.00000000000E+00 -0.00000000000E+00 -0.21328430542E+04  0.21328430542E+04  0.00000000000E+00 0. -1.
         23    2    1    2    0    0  0.11748359921E+04 -0.11069073623E+03  0.12769745253E+03  0.11903723650E+04  0.90485802354E+02 0.  0.
    5000000    2    1    2    0    0 -0.11748359921E+04  0.11069073623E+03 -0.13279359404E+04  0.18750752556E+04  0.60000108735E+03 0.  0.
         23    2    4    4    0    0 -0.10232043930E+04  0.39482702884E+01 -0.13146116597E+04  0.16677934496E+04  0.79801979369E+02 0.  0.
         23    2    4    4    0    0 -0.15163159916E+03  0.10674246594E+03 -0.13324280725E+02  0.20728180605E+03  0.91663050168E+02 0.  0.
          2    1    3    3  502    0  0.23575501238E+03 -0.56689758918E+02  0.13768767687E+02  0.24286566985E+03  0.00000000000E+00 0. -1.
         -2    1    3    3    0  502  0.93908097975E+03 -0.54000977307E+02  0.11392868485E+03  0.94750669513E+03  0.00000000000E+00 0.  1.
         13    1    5    5    0    0 -0.72552910646E+03  0.11926357480E+02 -0.87350378246E+03  0.11355807238E+04  0.00000000000E+00 0. -1.
        -13    1    5    5    0    0 -0.29767528652E+03 -0.79780871912E+01 -0.44110787724E+03  0.53221272575E+03  0.00000000000E+00 0.  1.
          3    1    6    6  503    0 -0.12212101014E+03  0.71440258103E+02 -0.48284686381E+02  0.14949469066E+03  0.00000000000E+00 0. -1.
         -3    1    6    6    0  503 -0.29510589015E+02  0.35302207834E+02  0.34960405656E+02  0.57787115395E+02  0.00000000000E+00 0.  1.
<mgrwt>
<rscale>  0 0.11970056E+04</rscale>
<asrwt>0</asrwt>
<pdfrwt beam="1">  1        1 0.32812970E+00 0.11970056E+04</pdfrwt>
<pdfrwt beam="2">  1       -1 0.14347763E+00 0.11970056E+04</pdfrwt>
<totfact> 0.93635868E-01</totfact>
</mgrwt>
</event>
<event>
12    1  0.1418317E-007  0.8429282E+03  0.7818608E-02  0.9499878E-01
          1   -1    0    0  501    0  0.00000000000E+00  0.00000000000E+00  0.15310604889E+04  0.15310604889E+04  0.00000000000E+00 0. -1.
         -1   -1    0    0    0  501 -0.00000000000E+00 -0.00000000000E+00 -0.54208940785E+03  0.54208940785E+03  0.00000000000E+00 0.  1.
         23    2    1    2    0    0 -0.73507099412E+03 -0.47142088948E+02  0.82410920854E+03  0.11089505985E+04  0.89798102981E+02 0.  0.
    5000000    2    1    2    0    0  0.73507099412E+03  0.47142088948E+02  0.16486187251E+03  0.96419929828E+03  0.59995758754E+03 0.  0.
         23    2    4    4    0    0  0.70691608201E+03  0.22535053532E+03  0.13260356157E+03  0.75875229826E+03  0.87224622680E+02 0.  0.
         23    2    4    4    0    0  0.28154912110E+02 -0.17820844637E+03  0.32258310939E+02  0.20544700002E+03  0.92827376124E+02 0.  0.
          1    1    3    3  502    0 -0.34968572352E+03 -0.59873734285E+02  0.35789084908E+03  0.50393534223E+03  0.00000000000E+00 0. -1.
         -1    1    3    3    0  502 -0.38538527060E+03  0.12731645337E+02  0.46621835945E+03  0.60501525624E+03  0.00000000000E+00 0.  1.
         13    1    5    5    0    0  0.23387795633E+03  0.10485056336E+03  0.15593188105E+02  0.25677945129E+03  0.00000000000E+00 0. -1.
        -13    1    5    5    0    0  0.47303812569E+03  0.12049997196E+03  0.11701037347E+03  0.50197284697E+03  0.00000000000E+00 0.  1.
          3    1    6    6  503    0  0.60592565976E+02 -0.11772901100E+03  0.34335671058E+02  0.13678639329E+03  0.00000000000E+00 0. -1.
         -3    1    6    6    0  503 -0.32437653866E+02 -0.60479435371E+02 -0.20773601185E+01  0.68660606727E+02  0.00000000000E+00 0.  1.
<mgrwt>
<rscale>  0 0.84292821E+03</rscale>
<asrwt>0</asrwt>
<pdfrwt beam="1">  1        1 0.23554777E+00 0.84292821E+03</pdfrwt>
<pdfrwt beam="2">  1       -1 0.83398371E-01 0.84292821E+03</pdfrwt>
<totfact> 0.91090644E+00</totfact>
</mgrwt>
</event>
<event>
12    1  0.1418317E-007  0.8055546E+03  0.7818608E-02  0.9552012E-01
         -2   -1    0    0    0  501 -0.00000000000E+00  0.00000000000E+00  0.65246865822E+03  0.65246865822E+03  0.00000000000E+00 0. -1.
          2   -1    0    0  501    0  0.00000000000E+00 -0.00000000000E+00 -0.14962663685E+04  0.14962663685E+04  0.00000000000E+00 0.  1.
         23    2    1    2    0    0  0.80091547910E+03  0.17588961239E+02 -0.81682130417E+03  0.11475771947E+04  0.89226669685E+02 0.  0.
    5000000    2    1    2    0    0 -0.80091547910E+03 -0.17588961239E+02 -0.26976406134E+02  0.10011578321E+04  0.59984523170E+03 0.  0.
         23    2    4    4    0    0 -0.51175412960E+03  0.33584350335E+02  0.25837665088E+03  0.58167094000E+03  0.92533188452E+02 0.  0.
         23    2    4    4    0    0 -0.28916134950E+03 -0.51173311574E+02 -0.28535305702E+03  0.41948689207E+03  0.91158606860E+02 0.  0.
          2    1    3    3  502    0  0.63219425285E+03  0.16574713035E+02 -0.59010112997E+03  0.86496452994E+03  0.00000000000E+00 0. -1.
         -2    1    3    3    0  502  0.16872122625E+03  0.10142482040E+01 -0.22672017419E+03  0.28261266474E+03  0.00000000000E+00 0.  1.
         11    1    5    5    0    0 -0.29836429952E+03 -0.27138051153E+01  0.19379092763E+03  0.35578581140E+03  0.00000000000E+00 0.  1.
        -11    1    5    5    0    0 -0.21338983008E+03  0.36298155450E+02  0.64585723258E+02  0.22588512860E+03  0.00000000000E+00 0. -1.
          3    1    6    6  503    0 -0.46783215012E+02 -0.19572029893E+02 -0.10719185550E+02  0.51832755086E+02  0.00000000000E+00 0. -1.
         -3    1    6    6    0  503 -0.24237813449E+03 -0.31601281681E+02 -0.27463387147E+03  0.36765413698E+03  0.00000000000E+00 0.  1.
<mgrwt>
<rscale>  0 0.80555462E+03</rscale>
<asrwt>0</asrwt>
<pdfrwt beam="1">  1        2 0.23019482E+00 0.80555462E+03</pdfrwt>
<pdfrwt beam="2">  1       -2 0.10037979E+00 0.80555462E+03</pdfrwt>
<totfact> 0.10621502E+01</totfact>
</mgrwt>
</event>
<event>
12    1  0.1418317E-007  0.6484706E+03  0.7818608E-02  0.9809653E-01
         -2   -1    0    0    0  501 -0.00000000000E+00  0.00000000000E+00  0.23424721509E+03  0.23424721509E+03  0.00000000000E+00 0.  1.
          2   -1    0    0  501    0  0.00000000000E+00 -0.00000000000E+00 -0.20641820608E+04  0.20641820608E+04  0.00000000000E+00 0. -1.
         23    2    1    2    0    0 -0.53395270903E+03  0.11609398398E+03 -0.53135766302E+03  0.76707287156E+03  0.86466847042E+02 0.  0.
    5000000    2    1    2    0    0  0.53395270903E+03 -0.11609398398E+03 -0.12985771827E+04  0.15313564044E+04  0.60013867490E+03 0.  0.
         23    2    4    4    0    0 -0.64762466770E+02 -0.12918167835E+03 -0.11525873461E+03  0.20212037962E+03  0.81767896087E+02 0.  0.
         23    2    4    4    0    0  0.59871517580E+03  0.13087694365E+02 -0.11833184481E+04  0.13292360248E+04  0.89413144246E+02 0.  0.
          4    1    3    3  502    0 -0.28354654173E+03  0.42464470244E+02 -0.33184257742E+03  0.43854460292E+03  0.00000000000E+00 0. -1.
         -4    1    3    3    0  502 -0.25040616730E+03  0.73629513741E+02 -0.19951508560E+03  0.32852826864E+03  0.00000000000E+00 0.  1.
         11    1    5    5    0    0 -0.40225002662E+02 -0.40042317769E+02 -0.32046445863E+01  0.56848111652E+02  0.00000000000E+00 0. -1.
        -11    1    5    5    0    0 -0.24537464109E+02 -0.89139360581E+02 -0.11205409002E+03  0.14527226797E+03  0.00000000000E+00 0.  1.
          4    1    6    6  503    0  0.43151004662E+03  0.26127159764E+02 -0.76758875612E+03  0.88095178491E+03  0.00000000000E+00 0. -1.
         -4    1    6    6    0  503  0.16720512917E+03 -0.13039465399E+02 -0.41572969201E+03  0.44828423985E+03  0.00000000000E+00 0.  1.
<mgrwt>
<rscale>  0 0.64847062E+03</rscale>
<asrwt>0</asrwt>
<pdfrwt beam="1">  1        2 0.31756647E+00 0.64847062E+03</pdfrwt>
<pdfrwt beam="2">  1       -2 0.36038034E-01 0.64847062E+03</pdfrwt>
<totfact> 0.46595137E+01</totfact>
</mgrwt>
</event>
<event>
12    1  0.1418317E-007  0.8598875E+03  0.7818608E-02  0.9477162E-01
          2   -1    0    0  501    0  0.00000000000E+00  0.00000000000E+00  0.26104852807E+04  0.26104852807E+04  0.00000000000E+00 0. -1.
         -2   -1    0    0    0  501 -0.00000000000E+00 -0.00000000000E+00 -0.31757496686E+03  0.31757496686E+03  0.00000000000E+00 0.  1.
         23    2    1    2    0    0 -0.12094466264E+03  0.79963222090E+03  0.10441073908E+04  0.13238377307E+04  0.91360789086E+02 0.  0.
    5000000    2    1    2    0    0  0.12094466264E+03 -0.79963222090E+03  0.12488029231E+04  0.16042225168E+04  0.59998486869E+03 0.  0.
         23    2    4    4    0    0  0.19714280263E+03 -0.74464022914E+03  0.71677653892E+03  0.10562718969E+04  0.92667999040E+02 0.  0.
         23    2    4    4    0    0 -0.76198139996E+02 -0.54991991758E+02  0.53202638414E+03  0.54795061986E+03  0.91474218705E+02 0.  0.
          3    1    3    3  502    0 -0.37054093274E+02  0.53047167808E+03  0.66917580410E+03  0.85473356309E+03  0.00000000000E+00 0. -1.
         -3    1    3    3    0  502 -0.83890569363E+02  0.26916054282E+03  0.37493158666E+03  0.46910416766E+03  0.00000000000E+00 0.  1.
         13    1    5    5    0    0  0.12940276514E+03 -0.31343888252E+03  0.29987944093E+03  0.45267724462E+03  0.00000000000E+00 0.  1.
        -13    1    5    5    0    0  0.67740037490E+02 -0.43120134662E+03  0.41689709799E+03  0.60359465232E+03  0.00000000000E+00 0. -1.
          2    1    6    6  503    0 -0.42514894367E+02 -0.78596986492E+02  0.33800941222E+03  0.34962174600E+03  0.00000000000E+00 0. -1.
         -2    1    6    6    0  503 -0.33683245629E+02  0.23604994734E+02  0.19401697192E+03  0.19832887386E+03  0.00000000000E+00 0.  1.
<mgrwt>
<rscale>  0 0.85988750E+03</rscale>
<asrwt>0</asrwt>
<pdfrwt beam="1">  1        2 0.40161311E+00 0.85988750E+03</pdfrwt>
<pdfrwt beam="2">  1       -2 0.48857689E-01 0.85988750E+03</pdfrwt>
<totfact> 0.12297244E+01</totfact>
</mgrwt>
</event>
<event>
12    1  0.1418317E-007  0.1272193E+04  0.7818608E-02  0.9051912E-01
         -2   -1    0    0    0  501 -0.00000000000E+00  0.00000000000E+00  0.11860966993E+04  0.11860966993E+04  0.00000000000E+00 0.  1.
          2   -1    0    0  501    0  0.00000000000E+00 -0.00000000000E+00 -0.15321080173E+04  0.15321080173E+04  0.00000000000E+00 0. -1.
         23    2    1    2    0    0 -0.43836005210E+03 -0.11882056489E+04  0.19783295680E+02  0.12697684292E+04  0.89040921288E+02 0.  0.
    5000000    2    1    2    0    0  0.43836005210E+03  0.11882056489E+04 -0.36579461363E+03  0.14484362874E+04  0.60014146657E+03 0.  0.
         23    2    4    4    0    0  0.18713245019E+03  0.55857509135E+03 -0.46626147940E+03  0.75691975787E+03  0.92212071327E+02 0.  0.
         23    2    4    4    0    0  0.25122760191E+03  0.62963055757E+03  0.10046686577E+03  0.69151652952E+03  0.92474712777E+02 0.  0.
          2    1    3    3  502    0 -0.12741654700E+03 -0.38576797438E+03 -0.32793824881E+02  0.40758721945E+03  0.00000000000E+00 0. -1.
         -2    1    3    3    0  502 -0.31094350510E+03 -0.80243767453E+03  0.52577120560E+02  0.86218120977E+03  0.00000000000E+00 0.  1.
         13    1    5    5    0    0  0.53365109158E+02  0.73253367530E+02 -0.48833075747E+02  0.10294930800E+03  0.00000000000E+00 0.  1.
        -13    1    5    5    0    0  0.13376734103E+03  0.48532172382E+03 -0.41742840365E+03  0.65397044988E+03  0.00000000000E+00 0. -1.
          4    1    6    6  503    0  0.17473960146E+03  0.32049239207E+03  0.69093994343E+02  0.37151484727E+03  0.00000000000E+00 0.  1.
         -4    1    6    6    0  503  0.76488000458E+02  0.30913816550E+03  0.31372871423E+02  0.32000168225E+03  0.00000000000E+00 0. -1.
<mgrwt>
<rscale>  0 0.12721927E+04</rscale>
<asrwt>0</asrwt>
<pdfrwt beam="1">  1        2 0.23570893E+00 0.12721927E+04</pdfrwt>
<pdfrwt beam="2">  1       -2 0.18247642E+00 0.12721927E+04</pdfrwt>
<totfact> 0.20444110E+00</totfact>
</mgrwt>
</event>
<event>
12    1  0.1418317E-007  0.4449457E+03  0.7818608E-02  0.1029240E+00
          2   -1    0    0  501    0  0.00000000000E+00  0.00000000000E+00  0.24269126233E+04  0.24269126233E+04  0.00000000000E+00 0.  1.
         -2   -1    0    0    0  501 -0.00000000000E+00 -0.00000000000E+00 -0.10959962360E+03  0.10959962360E+03  0.00000000000E+00 0. -1.
         23    2    1    2    0    0 -0.88772827928E+01  0.29988948904E+03  0.42140518859E+03  0.52542359779E+03  0.92060373450E+02 0.  0.
    5000000    2    1    2    0    0  0.88772827928E+01 -0.29988948904E+03  0.18959078111E+04  0.20110886491E+04  0.59999884545E+03 0.  0.
         23    2    4    4    0    0  0.24151729117E+02  0.13259041108E+03  0.19602077615E+03  0.25475278790E+03  0.91166414497E+02 0.  0.
         23    2    4    4    0    0 -0.15274446324E+02 -0.43247990011E+03  0.16998870350E+04  0.17563358612E+04  0.88473459314E+02 0.  0.
          3    1    3    3  502    0 -0.31562049054E+02  0.98374907320E+02  0.20050775275E+03  0.22555962459E+03  0.00000000000E+00 0. -1.
         -3    1    3    3    0  502  0.22684766261E+02  0.20151458172E+03  0.22089743584E+03  0.29986397320E+03  0.00000000000E+00 0.  1.
         13    1    5    5    0    0 -0.21001083788E+02  0.28028452690E+02  0.99419914396E+02  0.10540853409E+03  0.00000000000E+00 0. -1.
        -13    1    5    5    0    0  0.45152812905E+02  0.10456195839E+03  0.96600861757E+02  0.14934425381E+03  0.00000000000E+00 0.  1.
          3    1    6    6  503    0 -0.30400298005E+02 -0.28216931945E+03  0.12481189113E+04  0.12799783278E+04  0.00000000000E+00 0. -1.
         -3    1    6    6    0  503  0.15125851681E+02 -0.15031058067E+03  0.45176812368E+03  0.47635753339E+03  0.00000000000E+00 0.  1.
<mgrwt>
<rscale>  0 0.44494568E+03</rscale>
<asrwt>0</asrwt>
<pdfrwt beam="1">  1        2 0.37337113E+00 0.44494568E+03</pdfrwt>
<pdfrwt beam="2">  1       -2 0.16861482E-01 0.44494568E+03</pdfrwt>
<totfact> 0.11923554E+02</totfact>
</mgrwt>
</event>
<event>
12    1  0.1418317E-007  0.7956570E+03  0.7818608E-02  0.9566325E-01
          2   -1    0    0  501    0  0.00000000000E+00  0.00000000000E+00  0.88960521803E+03  0.88960521803E+03  0.00000000000E+00 0. -1.
         -2   -1    0    0    0  501 -0.00000000000E+00 -0.00000000000E+00 -0.79523725326E+03  0.79523725326E+03  0.00000000000E+00 0.  1.
         23    2    1    2    0    0  0.12711979645E+03  0.68261386134E+03 -0.19126578976E+03  0.72370009622E+03  0.70979578715E+02 0.  0.
    5000000    2    1    2    0    0 -0.12711979645E+03 -0.68261386134E+03  0.28563375454E+03  0.96114237507E+03  0.60007240987E+03 0.  0.
         23    2    4    4    0    0 -0.31169429032E+03 -0.21947429997E+03  0.29494239460E+02  0.39323588811E+03  0.91881742306E+02 0.  0.
         23    2    4    4    0    0  0.18457449387E+03 -0.46313956137E+03  0.25613951508E+03  0.56790648696E+03  0.91347302398E+02 0.  0.
          2    1    3    3  502    0  0.21001109105E+02  0.24208798146E+03 -0.91980967547E+02  0.25982327790E+03  0.00000000000E+00 0. -1.
         -2    1    3    3    0  502  0.10611868734E+03  0.44052587989E+03 -0.99284822213E+02  0.46387681832E+03  0.00000000000E+00 0.  1.
         13    1    5    5    0    0 -0.25649103942E+03 -0.13141738717E+03  0.21503743480E+02  0.28899929747E+03  0.00000000000E+00 0.  1.
        -13    1    5    5    0    0 -0.55203250903E+02 -0.88056912808E+02  0.79904959806E+01  0.10423659065E+03  0.00000000000E+00 0. -1.
          1    1    6    6  503    0  0.10767435139E+03 -0.35056918289E+03  0.21676778698E+03  0.42600562368E+03  0.00000000000E+00 0. -1.
         -1    1    6    6    0  503  0.76900142485E+02 -0.11257037848E+03  0.39371728094E+02  0.14190086328E+03  0.00000000000E+00 0.  1.
<mgrwt>
<rscale>  0 0.79565704E+03</rscale>
<asrwt>0</asrwt>
<pdfrwt beam="1">  1        2 0.13686234E+00 0.79565704E+03</pdfrwt>
<pdfrwt beam="2">  1       -2 0.12234419E+00 0.79565704E+03</pdfrwt>
<totfact> 0.15244694E+01</totfact>
</mgrwt>
</event>
<event>
12    1  0.1418317E-007  0.1806054E+04  0.7818608E-02  0.8703087E-01
          2   -1    0    0  501    0  0.00000000000E+00  0.00000000000E+00  0.31286188367E+04  0.31286188367E+04  0.00000000000E+00 0. -1.
         -2   -1    0    0    0  501 -0.00000000000E+00 -0.00000000000E+00 -0.16275243275E+04  0.16275243275E+04  0.00000000000E+00 0.  1.
         23    2    1    2    0    0  0.16959569384E+04  0.53891072370E+03  0.21287981145E+04  0.27761268800E+04  0.91675167590E+02 0.  0.
    5000000    2    1    2    0    0 -0.16959569384E+04 -0.53891072370E+03 -0.62770360538E+03  0.19800162842E+04  0.59979826972E+03 0.  0.
         23    2    4    4    0    0 -0.12030668544E+04 -0.18814647556E+03 -0.61831453700E+03  0.13685124054E+04  0.88002186070E+02 0.  0.
         23    2    4    4    0    0 -0.49289008405E+03 -0.35076424814E+03 -0.93890683776E+01  0.61150387878E+03  0.88727934867E+02 0.  0.
          3    1    3    3  502    0  0.78672885976E+03  0.26805660534E+03  0.92823023183E+03  0.12459566629E+04  0.00000000000E+00 0. -1.
         -3    1    3    3    0  502  0.90922807868E+03  0.27085411835E+03  0.12005678827E+04  0.15301702171E+04  0.00000000000E+00 0.  1.
         11    1    5    5    0    0 -0.10192370657E+04 -0.19117274857E+03 -0.52559934860E+03  0.11626030669E+04  0.00000000000E+00 0.  1.
        -11    1    5    5    0    0 -0.18382978870E+03  0.30262730085E+01 -0.92715188397E+02  0.20590933855E+03  0.00000000000E+00 0. -1.
          1    1    6    6  503    0 -0.43277495700E+03 -0.26779473500E+03 -0.50530328419E+01  0.50895355057E+03  0.00000000000E+00 0. -1.
         -1    1    6    6    0  503 -0.60115127057E+02 -0.82969513137E+02 -0.43360355357E+01  0.10255032821E+03  0.00000000000E+00 0.  1.
<mgrwt>
<rscale>  0 0.18060540E+04</rscale>
<asrwt>0</asrwt>
<pdfrwt beam="1">  1        2 0.48132598E+00 0.18060540E+04</pdfrwt>
<pdfrwt beam="2">  1       -2 0.25038836E+00 0.18060540E+04</pdfrwt>
<totfact> 0.83573698E-02</totfact>
</mgrwt>
</event>
