<event>
12    3  0.2212098E-007  0.5754869E+03  0.7818608E-02  0.9957610E-01
          1   -1    0    0  501    0  0.00000000000E+00  0.00000000000E+00  0.52878630733E+03  0.52878630733E+03  0.00000000000E+00 0. -1.
         -2   -1    0    0    0  501 -0.00000000000E+00 -0.00000000000E+00 -0.76579497409E+03  0.76579497409E+03  0.00000000000E+00 0.  1.
        -24    2    1    2    0    0  0.45177206346E+03  0.19196567388E+03 -0.10361772747E+03  0.50780934948E+03  0.78644037950E+02 0.  0.
    5000000    2    1    2    0    0 -0.45177206346E+03 -0.19196567388E+03 -0.13339093929E+03  0.78677193194E+03  0.60022338586E+03 0.  0.
        -24    2    4    4    0    0 -0.36211684717E+03 -0.32159967774E+03 -0.27317961430E+03  0.56158053932E+03  0.78680599552E+02 0.  0.
         24    2    4    4    0    0 -0.89655216295E+02  0.12963400386E+03  0.13978867501E+03  0.22519139262E+03  0.79544056260E+02 0.  0.
         13    1    3    3    0    0  0.20451321408E+03  0.70541672564E+02 -0.82508643925E+02  0.23153716467E+03  0.00000000000E+00 0. -1.
        -14    1    3    3    0    0  0.24725884938E+03  0.12142400132E+03 -0.21109083540E+02  0.27627218481E+03  0.00000000000E+00 0.  1.
         13    1    5    5    0    0 -0.24738437753E+03 -0.17156056551E+03 -0.15288748694E+03  0.33764869546E+03  0.00000000000E+00 0. -1.
        -14    1    5    5    0    0 -0.11473246963E+03 -0.15003911223E+03 -0.12029212736E+03  0.22393184385E+03  0.00000000000E+00 0.  1.
          4    1    6    6  502    0 -0.42456580896E+02  0.14592946401E+02  0.11109360167E+02  0.46248602458E+02  0.00000000000E+00 0. -1.
         -3    1    6    6    0  502 -0.47198635399E+02  0.11504105746E+03  0.12867931484E+03  0.17894279017E+03  0.00000000000E+00 0.  1.
<mgrwt>
<rscale>  0 0.57548688E+03</rscale>
<asrwt>0</asrwt>
<pdfrwt beam="1">  1        1 0.81351740E-01 0.57548688E+03</pdfrwt>
<pdfrwt beam="2">  1       -2 0.11781461E+00 0.57548688E+03</pdfrwt>
<totfact> 0.20656740E+01</totfact>
</mgrwt>
</event>
<event>
12    3  0.2212098E-007  0.2831650E+03  0.7818608E-02  0.1093973E+00
         -2   -1    0    0    0  501 -0.00000000000E+00  0.00000000000E+00  0.15850703935E+03  0.15850703935E+03  0.00000000000E+00 0.  1.
          1   -1    0    0  501    0  0.00000000000E+00 -0.00000000000E+00 -0.12997198651E+04  0.12997198651E+04  0.00000000000E+00 0. -1.
        -24    2    1    2    0    0 -0.24464457697E+03  0.25974747500E+02 -0.35878597661E+03  0.44243345621E+03  0.80587403576E+02 0.  0.
    5000000    2    1    2    0    0  0.24464457697E+03 -0.25974747500E+02 -0.78242684916E+03  0.10157934483E+04  0.59926529908E+03 0.  0.
        -24    2    4    4    0    0  0.12802790828E+03  0.60345073080E+02  0.47440165136E+02  0.16919519791E+03  0.79647803381E+02 0.  0.
         24    2    4    4    0    0  0.11661666869E+03 -0.86319820580E+02 -0.82986701430E+03  0.84659825035E+03  0.83658694897E+02 0.  0.
         11    1    5    5    0    0  0.15536839499E+02 -0.69752851992E+01  0.33218240422E+02  0.37329605972E+02  0.00000000000E+00 0. -1.
        -12    1    5    5    0    0  0.11249106878E+03  0.67320358280E+02  0.14221924714E+02  0.13186559193E+03  0.00000000000E+00 0.  1.
         11    1    3    3    0    0 -0.15238332264E+03  0.48483639715E+02 -0.26121859269E+03  0.30627845746E+03  0.00000000000E+00 0. -1.
        -12    1    3    3    0    0 -0.92261254329E+02 -0.22508892215E+02 -0.97567383915E+02  0.13615499875E+03  0.00000000000E+00 0.  1.
          2    1    6    6  502    0  0.10875409246E+03 -0.99873702583E+02 -0.67614390248E+03  0.69207859810E+03  0.00000000000E+00 0. -1.
         -1    1    6    6    0  502  0.78625762294E+01  0.13553882002E+02 -0.15372311182E+03  0.15451965225E+03  0.00000000000E+00 0.  1.
<mgrwt>
<rscale>  0 0.28316499E+03</rscale>
<asrwt>0</asrwt>
<pdfrwt beam="1">  1        1 0.19995690E+00 0.28316499E+03</pdfrwt>
<pdfrwt beam="2">  1       -2 0.24385699E-01 0.28316499E+03</pdfrwt>
<totfact> 0.12835249E+02</totfact>
</mgrwt>
</event>
<event>
12    3  0.2212098E-007  0.1394766E+04  0.7818608E-02  0.8957616E-01
         -2   -1    0    0    0  501 -0.00000000000E+00  0.00000000000E+00  0.28602192714E+04  0.28602192714E+04  0.00000000000E+00 0.  1.
          1   -1    0    0  501    0  0.00000000000E+00 -0.00000000000E+00 -0.99176082943E+03  0.99176082943E+03  0.00000000000E+00 0. -1.
        -24    2    1    2    0    0 -0.12879680219E+04 -0.43742991755E+03  0.19318295536E+04  0.23640010735E+04  0.79555596998E+02 0.  0.
    5000000    2    1    2    0    0  0.12879680219E+04  0.43742991755E+03 -0.63371111642E+02  0.14879790274E+04  0.59988259672E+03 0.  0.
        -24    2    4    4    0    0  0.10272970942E+04  0.50942730075E+03 -0.21089881932E+03  0.11688868914E+04  0.83443144488E+02 0.  0.
         24    2    4    4    0    0  0.26067092768E+03 -0.71997383202E+02  0.14752770768E+03  0.31909213595E+03  0.83201027432E+02 0.  0.
         11    1    3    3    0    0 -0.10090596141E+04 -0.30773418602E+03  0.15006655504E+04  0.18343660289E+04  0.00000000000E+00 0. -1.
        -12    1    3    3    0    0 -0.27890840779E+03 -0.12969573153E+03  0.43116400327E+03  0.52963504456E+03  0.00000000000E+00 0.  1.
         11    1    5    5    0    0  0.73388560781E+03  0.33214486059E+03 -0.12197829850E+03  0.81473124346E+03  0.00000000000E+00 0. -1.
        -12    1    5    5    0    0  0.29341148641E+03  0.17728244016E+03 -0.88920520822E+02  0.35415564794E+03  0.00000000000E+00 0.  1.
          2    1    6    6  502    0  0.20378554878E+03 -0.84143344564E+02  0.92739546380E+02  0.23918460609E+03  0.00000000000E+00 0. -1.
         -1    1    6    6    0  502  0.56885378901E+02  0.12145961363E+02  0.54788161301E+02  0.79907529863E+02  0.00000000000E+00 0.  1.
<mgrwt>
<rscale>  0 0.13947655E+04</rscale>
<asrwt>0</asrwt>
<pdfrwt beam="1">  1        1 0.15257859E+00 0.13947655E+04</pdfrwt>
<pdfrwt beam="2">  1       -2 0.44003373E+00 0.13947655E+04</pdfrwt>
<totfact> 0.52336628E-02</totfact>
</mgrwt>
</event>
<event>
12    3  0.2212098E-007  0.7172304E+03  0.7818608E-02  0.9688211E-01
          1   -1    0    0  501    0  0.00000000000E+00  0.00000000000E+00  0.95616755307E+03  0.95616755307E+03  0.00000000000E+00 0. -1.
         -2   -1    0    0    0  501 -0.00000000000E+00 -0.00000000000E+00 -0.87605377334E+03  0.87605377334E+03  0.00000000000E+00 0.  1.
        -24    2    1    2    0    0  0.49114497373E+03  0.34221109006E+03  0.58888315305E+03  0.84371783954E+03  0.82125571118E+02 0.  0.
    5000000    2    1    2    0    0 -0.49114497373E+03 -0.34221109006E+03 -0.50876937332E+03  0.98850348687E+03  0.59996754324E+03 0.  0.
        -24    2    4    4    0    0 -0.61311579261E+03 -0.21683063334E+03 -0.40036847666E+03  0.76779411423E+03  0.79286733107E+02 0.  0.
         24    2    4    4    0    0  0.12197081888E+03 -0.12538045672E+03 -0.10840089666E+03  0.22070937263E+03  0.79779277924E+02 0.  0.
         11    1    5    5    0    0 -0.30813829675E+02  0.62378464986E+01 -0.22665769265E+02  0.38757449923E+02  0.00000000000E+00 0. -1.
        -12    1    5    5    0    0 -0.58230196294E+03 -0.22306847984E+03 -0.37770270739E+03  0.72903666431E+03  0.00000000000E+00 0.  1.
         11    1    3    3    0    0  0.22431258955E+03  0.19274143687E+03  0.25026051980E+03  0.38742189805E+03  0.00000000000E+00 0. -1.
        -12    1    3    3    0    0  0.26683238418E+03  0.14946965319E+03  0.33862263325E+03  0.45629594149E+03  0.00000000000E+00 0.  1.
          4    1    6    6  502    0  0.10489711829E+03 -0.88569089343E+02 -0.11562760723E+03  0.17949270895E+03  0.00000000000E+00 0. -1.
         -3    1    6    6    0  502  0.17073700592E+02 -0.36811367372E+02  0.72267105651E+01  0.41216663685E+02  0.00000000000E+00 0.  1.
<mgrwt>
<rscale>  0 0.71723043E+03</rscale>
<asrwt>0</asrwt>
<pdfrwt beam="1">  1        1 0.14710270E+00 0.71723043E+03</pdfrwt>
<pdfrwt beam="2">  1       -2 0.13477750E+00 0.71723043E+03</pdfrwt>
<totfact> 0.58554008E+00</totfact>
</mgrwt>
</event>
<event>
12    3  0.2212098E-007  0.1598843E+04  0.7818608E-02  0.8821259E-01
          1   -1    0    0  501    0  0.00000000000E+00  0.00000000000E+00  0.33261068984E+04  0.33261068984E+04  0.00000000000E+00 0. -1.
         -2   -1    0    0    0  501 -0.00000000000E+00 -0.00000000000E+00 -0.78060924307E+03  0.78060924307E+03  0.00000000000E+00 0.  1.
        -24    2    1    2    0    0  0.15114964717E+04  0.36192106018E+03  0.12046495140E+04  0.19681346471E+04  0.82250226499E+02 0.  0.
    5000000    2    1    2    0    0 -0.15114964717E+04 -0.36192106018E+03  0.13408481413E+04  0.21385814944E+04  0.60004052550E+03 0.  0.
        -24    2    4    4    0    0 -0.12336572876E+04 -0.64479083923E+02  0.11163477601E+04  0.16668722835E+04  0.78504983265E+02 0.  0.
         24    2    4    4    0    0 -0.27783918411E+03 -0.29744197625E+03  0.22450038118E+03  0.47170921089E+03  0.80267160314E+02 0.  0.
         13    1    5    5    0    0 -0.64265947536E+03 -0.26420056571E+02  0.52919237855E+03  0.83291884009E+03  0.00000000000E+00 0. -1.
        -14    1    5    5    0    0 -0.59099781221E+03 -0.38059027352E+02  0.58715538159E+03  0.83395344339E+03  0.00000000000E+00 0.  1.
         13    1    3    3    0    0  0.82616690183E+03  0.19231600942E+03  0.60595779318E+03  0.10424596128E+04  0.00000000000E+00 0. -1.
        -14    1    3    3    0    0  0.68532956985E+03  0.16960505076E+03  0.59869172081E+03  0.92567503430E+03  0.00000000000E+00 0.  1.
          4    1    6    6  502    0 -0.18557889143E+03 -0.21762933486E+03  0.19512355747E+03  0.34623006082E+03  0.00000000000E+00 0. -1.
         -3    1    6    6    0  502 -0.92260292677E+02 -0.79812641397E+02  0.29376823714E+02  0.12547915007E+03  0.00000000000E+00 0.  1.
<mgrwt>
<rscale>  0 0.15988434E+04</rscale>
<asrwt>0</asrwt>
<pdfrwt beam="1">  1        1 0.51170875E+00 0.15988434E+04</pdfrwt>
<pdfrwt beam="2">  1       -2 0.12009373E+00 0.15988434E+04</pdfrwt>
<totfact> 0.14991913E-01</totfact>
</mgrwt>
</event>
<event>
12    3  0.2212098E-007  0.8223825E+03  0.7818608E-02  0.9528173E-01
         -2   -1    0    0    0  501 -0.00000000000E+00  0.00000000000E+00  0.26382238618E+03  0.26382238618E+03  0.00000000000E+00 0.  1.
          1   -1    0    0  501    0  0.00000000000E+00 -0.00000000000E+00 -0.29500272168E+04  0.29500272168E+04  0.00000000000E+00 0. -1.
        -24    2    1    2    0    0  0.76376062094E+03  0.58122641062E+02 -0.14374209865E+04  0.16307749783E+04  0.80866617823E+02 0.  0.
    5000000    2    1    2    0    0 -0.76376062094E+03 -0.58122641062E+02 -0.12487838441E+04  0.15830746247E+04  0.59996304095E+03 0.  0.
        -24    2    4    4    0    0 -0.11558161043E+03 -0.17005367571E+03 -0.69646570238E+02  0.23044069840E+03  0.77297538394E+02 0.  0.
         24    2    4    4    0    0 -0.64817901051E+03  0.11193103465E+03 -0.11791372739E+04  0.13526339263E+04  0.81174144368E+02 0.  0.
         11    1    3    3    0    0  0.69816308463E+03  0.48171452730E+02 -0.12591740647E+04  0.14405802674E+04  0.00000000000E+00 0. -1.
        -12    1    3    3    0    0  0.65597536317E+02  0.99511883323E+01 -0.17824692186E+03  0.19019471095E+03  0.00000000000E+00 0.  1.
         13    1    5    5    0    0 -0.63654297558E+02 -0.37910559457E+02 -0.44904563414E+01  0.74224283857E+02  0.00000000000E+00 0. -1.
        -14    1    5    5    0    0 -0.51927312875E+02 -0.13214311625E+03 -0.65156113896E+02  0.15621641455E+03  0.00000000000E+00 0.  1.
          2    1    6    6  502    0 -0.21502432668E+03 -0.47092642064E+00 -0.39975441191E+03  0.45391549068E+03  0.00000000000E+00 0. -1.
         -1    1    6    6    0  502 -0.43315468383E+03  0.11240196107E+03 -0.77938286197E+03  0.89871843561E+03  0.00000000000E+00 0.  1.
<mgrwt>
<rscale>  0 0.82238248E+03</rscale>
<asrwt>0</asrwt>
<pdfrwt beam="1">  1        1 0.45385034E+00 0.82238248E+03</pdfrwt>
<pdfrwt beam="2">  1       -2 0.40588059E-01 0.82238248E+03</pdfrwt>
<totfact> 0.34527933E+00</totfact>
</mgrwt>
</event>
<event>
12    3  0.2212098E-007  0.4761449E+03  0.7818608E-02  0.1020200E+00
         -2   -1    0    0    0  501 -0.00000000000E+00  0.00000000000E+00  0.86914055643E+03  0.86914055643E+03  0.00000000000E+00 0.  1.
          1   -1    0    0  501    0  0.00000000000E+00 -0.00000000000E+00 -0.98347818127E+03  0.98347818127E+03  0.00000000000E+00 0. -1.
        -24    2    1    2    0    0 -0.65539314435E+02  0.32790696088E+03 -0.80691052607E+03  0.87716739780E+03  0.80620530572E+02 0.  0.
    5000000    2    1    2    0    0  0.65539314435E+02 -0.32790696088E+03  0.69257290124E+03  0.97545133990E+03  0.60002476304E+03 0.  0.
        -24    2    4    4    0    0  0.25734708944E+03 -0.40356669270E+02  0.10665718485E+03  0.29047122080E+03  0.71704880126E+02 0.  0.
         24    2    4    4    0    0 -0.19180777501E+03 -0.28755029161E+03  0.58591571638E+03  0.68498011910E+03  0.80156996579E+02 0.  0.
         11    1    5    5    0    0  0.65893817619E+02 -0.42397877710E+02  0.24213112078E+02  0.82011279902E+02  0.00000000000E+00 0. -1.
        -12    1    5    5    0    0  0.19145327183E+03  0.20412084401E+01  0.82444072774E+02  0.20845994090E+03  0.00000000000E+00 0.  1.
         13    1    3    3    0    0  0.36447268506E+01  0.59368925010E+02 -0.22232074473E+03  0.23014010260E+03  0.00000000000E+00 0. -1.
        -14    1    3    3    0    0 -0.69184041286E+02  0.26853803587E+03 -0.58458978134E+03  0.64702729519E+03  0.00000000000E+00 0.  1.
          2    1    6    6  502    0 -0.86153678976E+02 -0.12504923114E+03  0.18249444566E+03  0.23741101345E+03  0.00000000000E+00 0. -1.
         -1    1    6    6    0  502 -0.10565409603E+03 -0.16250106046E+03  0.40342127073E+03  0.44756910566E+03  0.00000000000E+00 0.  1.
<mgrwt>
<rscale>  0 0.47614492E+03</rscale>
<asrwt>0</asrwt>
<pdfrwt beam="1">  1        1 0.15130434E+00 0.47614492E+03</pdfrwt>
<pdfrwt beam="2">  1       -2 0.13371393E+00 0.47614492E+03</pdfrwt>
<totfact> 0.59217492E+00</totfact>
</mgrwt>
</event>
<event>
12    3  0.2500943E-007  0.5381574E+03  0.7818608E-02  0.1004273E+00
          1   -1    0    0  501    0  0.00000000000E+00  0.00000000000E+00  0.11881394414E+04  0.11881394414E+04  0.00000000000E+00 0. -1.
         -2   -1    0    0    0  501 -0.00000000000E+00 -0.00000000000E+00 -0.26644812672E+03  0.26644812672E+03  0.00000000000E+00 0.  1.
        -24    2    1    2    0    0 -0.22467044532E+03  0.32510910984E+03  0.27885707861E+03  0.49057012187E+03  0.82006291683E+02 0.  0.
    5000000    2    1    2    0    0  0.22467044532E+03 -0.32510910984E+03  0.64283423612E+03  0.96401744630E+03  0.59993419584E+03 0.  0.
        -24    2    4    4    0    0 -0.82253739638E+02 -0.35448690663E+03  0.21464389474E+03  0.43090113258E+03  0.84718001953E+02 0.  0.
         24    2    4    4    0    0  0.30692418496E+03  0.29377796795E+02  0.42819034138E+03  0.53311631371E+03  0.76161179325E+02 0.  0.
         11    1    5    5    0    0  0.30517359319E+01 -0.63436847964E+02  0.82540961809E+01  0.64044335234E+02  0.00000000000E+00 0. -1.
        -12    1    5    5    0    0 -0.85305475570E+02 -0.29105005867E+03  0.20638979855E+03  0.36685679735E+03  0.00000000000E+00 0.  1.
         13    1    3    3    0    0 -0.13151371619E+03  0.13402951025E+03  0.99914913278E+02  0.21270344863E+03  0.00000000000E+00 0. -1.
        -14    1    3    3    0    0 -0.93156729134E+02  0.19107959959E+03  0.17894216533E+03  0.27786667324E+03  0.00000000000E+00 0.  1.
          2    1    6    6  502    0  0.14482640072E+03  0.25216152151E+02  0.14319075890E+03  0.20521728511E+03  0.00000000000E+00 0. -1.
         -1    1    6    6    0  502  0.16209778424E+03  0.41616446439E+01  0.28499958248E+03  0.32789902860E+03  0.00000000000E+00 0.  1.
<mgrwt>
<rscale>  0 0.53815739E+03</rscale>
<asrwt>0</asrwt>
<pdfrwt beam="1">  1        1 0.18279068E+00 0.53815739E+03</pdfrwt>
<pdfrwt beam="2">  1       -2 0.40992020E-01 0.53815739E+03</pdfrwt>
<totfact> 0.56375857E+01</totfact>
</mgrwt>
</event>
<event>
12    3  0.2212098E-007  0.5895695E+03  0.7818608E-02  0.9927285E-01
         -2   -1    0    0    0  501 -0.00000000000E+00  0.00000000000E+00  0.71421718827E+03  0.71421718827E+03  0.00000000000E+00 0.  1.
          1   -1    0    0  501    0  0.00000000000E+00 -0.00000000000E+00 -0.50134353216E+03  0.50134353216E+03  0.00000000000E+00 0. -1.
        -24    2    1    2    0    0  0.25996870193E+03  0.35940570533E+03  0.10416963599E+03  0.46146577866E+03  0.73096954889E+02 0.  0.
    5000000    2    1    2    0    0 -0.25996870193E+03 -0.35940570533E+03  0.10870402012E+03  0.75409494176E+03  0.60007202084E+03 0.  0.
        -24    2    4    4    0    0  0.72941117622E+02 -0.38866237199E+03  0.38806350937E+02  0.40338197089E+03  0.69514282871E+02 0.  0.
         24    2    4    4    0    0 -0.33290981955E+03  0.29256666668E+02  0.69897669185E+02  0.35071297087E+03  0.80181065615E+02 0.  0.
         11    1    3    3    0    0  0.75793866490E+02  0.16497431012E+03  0.48661831678E+02  0.18796065296E+03  0.00000000000E+00 0. -1.
        -12    1    3    3    0    0  0.18417483544E+03  0.19443139521E+03  0.55507804312E+02  0.27350512571E+03  0.00000000000E+00 0.  1.
         13    1    5    5    0    0  0.35021704603E+02 -0.17236522479E+03 -0.17288363956E+02  0.17673476749E+03  0.00000000000E+00 0. -1.
        -14    1    5    5    0    0  0.37919413019E+02 -0.21629714720E+03  0.56094714893E+02  0.22664720340E+03  0.00000000000E+00 0.  1.
          4    1    6    6  502    0 -0.24370013128E+03  0.25003012582E+02  0.86635019469E+02  0.25984713048E+03  0.00000000000E+00 0. -1.
         -1    1    6    6    0  502 -0.89209688272E+02  0.42536540864E+01 -0.16737350284E+02  0.90865840386E+02  0.00000000000E+00 0.  1.
<mgrwt>
<rscale>  0 0.58956949E+03</rscale>
<asrwt>0</asrwt>
<pdfrwt beam="1">  1        1 0.77129774E-01 0.58956949E+03</pdfrwt>
<pdfrwt beam="2">  1       -2 0.10987957E+00 0.58956949E+03</pdfrwt>
<totfact> 0.26284628E+01</totfact>
</mgrwt>
</event>
<event>
12    3  0.2212098E-007  0.5306904E+03  0.7818608E-02  0.1006065E+00
         -2   -1    0    0    0  501 -0.00000000000E+00  0.00000000000E+00  0.92715789479E+03  0.92715789479E+03  0.00000000000E+00 0.  1.
          1   -1    0    0  501    0  0.00000000000E+00 -0.00000000000E+00 -0.35277294540E+03  0.35277294540E+03  0.00000000000E+00 0. -1.
        -24    2    1    2    0    0  0.34837536101E+03 -0.15518000913E+03  0.42783757893E+02  0.39219436724E+03  0.80868685920E+02 0.  0.
    5000000    2    1    2    0    0 -0.34837536101E+03  0.15518000913E+03  0.53160119149E+03  0.88773647295E+03  0.60002499216E+03 0.  0.
        -24    2    4    4    0    0 -0.71727754590E+02  0.33714040907E+03  0.17718197287E+03  0.39578480417E+03  0.80272246120E+02 0.  0.
         24    2    4    4    0    0 -0.27664760642E+03 -0.18196039994E+03  0.35441921862E+03  0.49195166878E+03  0.82219076845E+02 0.  0.
         11    1    5    5    0    0 -0.13195932104E+02  0.17768602294E+03  0.12654162903E+03  0.21853887354E+03  0.00000000000E+00 0. -1.
        -12    1    5    5    0    0 -0.58531822486E+02  0.15945438614E+03  0.50640343837E+02  0.17724593063E+03  0.00000000000E+00 0.  1.
         13    1    3    3    0    0  0.25748287551E+03 -0.11436625637E+03 -0.47985439932E+01  0.28178022962E+03  0.00000000000E+00 0. -1.
        -14    1    3    3    0    0  0.90892485496E+02 -0.40813752765E+02  0.47582301886E+02  0.11041413762E+03  0.00000000000E+00 0.  1.
          2    1    6    6  502    0 -0.16450920762E+03 -0.94153139870E+02  0.25723649075E+03  0.31952888025E+03  0.00000000000E+00 0. -1.
         -1    1    6    6    0  502 -0.11213839880E+03 -0.87807260070E+02  0.97182727868E+02  0.17242278852E+03  0.00000000000E+00 0.  1.
<mgrwt>
<rscale>  0 0.53069043E+03</rscale>
<asrwt>0</asrwt>
<pdfrwt beam="1">  1        1 0.54272761E-01 0.53069043E+03</pdfrwt>
<pdfrwt beam="2">  1       -2 0.14263967E+00 0.53069043E+03</pdfrwt>
<totfact> 0.21994752E+01</totfact>
</mgrwt>
</event>
<event>
12    3  0.2212098E-007  0.8893810E+03  0.7818608E-02  0.9438954E-01
         -2   -1    0    0    0  501 -0.00000000000E+00  0.00000000000E+00  0.90554283532E+03  0.90554283532E+03  0.00000000000E+00 0.  1.
          1   -1    0    0  501    0  0.00000000000E+00 -0.00000000000E+00 -0.10178693569E+04  0.10178693569E+04  0.00000000000E+00 0. -1.
        -24    2    1    2    0    0  0.51245869440E+03  0.61006555761E+03 -0.38638333031E+03  0.88905616682E+03  0.79592033340E+02 0.  0.
    5000000    2    1    2    0    0 -0.51245869440E+03 -0.61006555761E+03  0.27405680873E+03  0.10343560254E+04  0.59999279565E+03 0.  0.
        -24    2    4    4    0    0 -0.28340781056E+03  0.41348857915E+02  0.13064684093E+03  0.32450275722E+03  0.78763743325E+02 0.  0.
         24    2    4    4    0    0 -0.22905088384E+03 -0.65141441553E+03  0.14340996780E+03  0.70985326818E+03  0.80747726538E+02 0.  0.
         11    1    5    5    0    0 -0.19248752439E+03  0.34207207736E+02  0.12719248801E+03  0.23323702346E+03  0.00000000000E+00 0. -1.
        -12    1    5    5    0    0 -0.90920286175E+02  0.71416501786E+01  0.34543529173E+01  0.91265733764E+02  0.00000000000E+00 0.  1.
         13    1    3    3    0    0  0.23083666547E+03  0.22694528746E+03 -0.12992391846E+03  0.34881220480E+03  0.00000000000E+00 0. -1.
        -14    1    3    3    0    0  0.28162202893E+03  0.38312027016E+03 -0.25645941185E+03  0.54024396203E+03  0.00000000000E+00 0.  1.
          4    1    6    6  502    0 -0.94634631045E+02 -0.35481116035E+03  0.46801433849E+02  0.37018515247E+03  0.00000000000E+00 0. -1.
         -3    1    6    6    0  502 -0.13441625279E+03 -0.29660325518E+03  0.96608533955E+02  0.33966811571E+03  0.00000000000E+00 0.  1.
<mgrwt>
<rscale>  0 0.88938103E+03</rscale>
<asrwt>0</asrwt>
<pdfrwt beam="1">  1        1 0.15659528E+00 0.88938103E+03</pdfrwt>
<pdfrwt beam="2">  1       -2 0.13931428E+00 0.88938103E+03</pdfrwt>
<totfact> 0.47109821E+00</totfact>
</mgrwt>
</event>
<event>
12    3  0.2212098E-007  0.4647593E+03  0.7818608E-02  0.1023410E+00
          1   -1    0    0  501    0  0.00000000000E+00  0.00000000000E+00  0.15758036542E+04  0.15758036542E+04  0.00000000000E+00 0. -1.
         -2   -1    0    0    0  501 -0.00000000000E+00 -0.00000000000E+00 -0.13424935864E+04  0.13424935864E+04  0.00000000000E+00 0.  1.
        -24    2    1    2    0    0 -0.46689178938E+02 -0.29621286815E+03  0.14746256104E+04  0.15073655444E+04  0.87796645889E+02 0.  0.
    5000000    2    1    2    0    0  0.46689178938E+02  0.29621286815E+03 -0.12413155426E+04  0.14109316962E+04  0.59995169185E+03 0.  0.
        -24    2    4    4    0    0 -0.22725891977E+03  0.23816384797E+03 -0.90559078211E+03  0.96685146443E+03  0.79614411648E+02 0.  0.
         24    2    4    4    0    0  0.27394809870E+03  0.58049020184E+02 -0.33572476045E+03  0.44408023180E+03  0.77967223689E+02 0.  0.
         11    1    5    5    0    0 -0.42451226806E+02  0.94334895289E+02 -0.24335288233E+03  0.26442731414E+03  0.00000000000E+00 0. -1.
        -12    1    5    5    0    0 -0.18480769296E+03  0.14382895268E+03 -0.66223789978E+03  0.70242415029E+03  0.00000000000E+00 0.  1.
         13    1    3    3    0    0 -0.63886332831E+02 -0.13860743002E+03  0.65485850459E+03  0.67240846530E+03  0.00000000000E+00 0. -1.
        -14    1    3    3    0    0  0.17197153893E+02 -0.15760543813E+03  0.81976710579E+03  0.83495707911E+03  0.00000000000E+00 0.  1.
          4    1    6    6  502    0  0.17396472592E+03  0.27088674989E+02 -0.26352248087E+03  0.31692525948E+03  0.00000000000E+00 0. -1.
         -3    1    6    6    0  502  0.99983372784E+02  0.30960345195E+02 -0.72202279582E+02  0.12715497232E+03  0.00000000000E+00 0.  1.
<mgrwt>
<rscale>  0 0.46475927E+03</rscale>
<asrwt>0</asrwt>
<pdfrwt beam="1">  1        1 0.24243133E+00 0.46475927E+03</pdfrwt>
<pdfrwt beam="2">  1       -2 0.20653747E+00 0.46475927E+03</pdfrwt>
<totfact> 0.68858382E-01</totfact>
</mgrwt>
</event>
<event>
12    3  0.2212098E-007  0.8172555E+03  0.7818608E-02  0.9535371E-01
          1   -1    0    0  501    0  0.00000000000E+00  0.00000000000E+00  0.34605413414E+04  0.34605413414E+04  0.00000000000E+00 0. -1.
         -2   -1    0    0    0  501 -0.00000000000E+00 -0.00000000000E+00 -0.26310426158E+03  0.26310426158E+03  0.00000000000E+00 0.  1.
        -24    2    1    2    0    0  0.13886883755E+03 -0.74810374562E+03  0.22171401300E+04  0.23452443392E+04  0.74275745251E+02 0.  0.
    5000000    2    1    2    0    0 -0.13886883755E+03  0.74810374562E+03  0.98029694980E+03  0.13784012637E+04  0.60005346915E+03 0.  0.
        -24    2    4    4    0    0 -0.23387810994E+03  0.71661815078E+03  0.56789122978E+03  0.94714808173E+03  0.79677446778E+02 0.  0.
         24    2    4    4    0    0  0.95009272385E+02  0.31485594839E+02  0.41240572002E+03  0.43125318201E+03  0.76698921568E+02 0.  0.
         11    1    3    3    0    0  0.56820368589E+02 -0.17677892200E+03  0.47638834925E+03  0.51129756585E+03  0.00000000000E+00 0. -1.
        -12    1    3    3    0    0  0.82048468962E+02 -0.57132482362E+03  0.17407517808E+04  0.18339467734E+04  0.00000000000E+00 0.  1.
         13    1    5    5    0    0 -0.12000274854E+03  0.47007025552E+03  0.33726549627E+03  0.59085930623E+03  0.00000000000E+00 0. -1.
        -14    1    5    5    0    0 -0.11387536139E+03  0.24654789526E+03  0.23062573351E+03  0.35628877550E+03  0.00000000000E+00 0.  1.
          4    1    6    6  502    0  0.46400102163E+02 -0.13875145493E+02  0.91438624713E+02  0.10347227277E+03  0.00000000000E+00 0. -1.
         -3    1    6    6    0  502  0.48609170223E+02  0.45360740332E+02  0.32096709531E+03  0.32778090924E+03  0.00000000000E+00 0.  1.
<mgrwt>
<rscale>  0 0.81725554E+03</rscale>
<asrwt>0</asrwt>
<pdfrwt beam="1">  1        1 0.53239094E+00 0.81725554E+03</pdfrwt>
<pdfrwt beam="2">  1       -2 0.40477581E-01 0.81725554E+03</pdfrwt>
<totfact> 0.14563256E+00</totfact>
</mgrwt>
</event>
<event>
12    3  0.2212098E-007  0.1558640E+04  0.7818608E-02  0.8846368E-01
          1   -1    0    0  501    0  0.00000000000E+00  0.00000000000E+00  0.23281851866E+04  0.23281851866E+04  0.00000000000E+00 0. -1.
         -2   -1    0    0    0  501 -0.00000000000E+00 -0.00000000000E+00 -0.14082152096E+04  0.14082152096E+04  0.00000000000E+00 0.  1.
        -24    2    1    2    0    0 -0.12469914743E+04  0.92536780298E+03  0.13024713448E+04  0.20282996630E+04  0.79212444759E+02 0.  0.
    5000000    2    1    2    0    0  0.12469914743E+04 -0.92536780298E+03 -0.38250136780E+03  0.17081007331E+04  0.60000625864E+03 0.  0.
        -24    2    4    4    0    0  0.11055297277E+04 -0.76980649118E+03 -0.51948810141E+03  0.14461310896E+04  0.81420072113E+02 0.  0.
         24    2    4    4    0    0  0.14146174662E+03 -0.15556131179E+03  0.13698673361E+03  0.26196964354E+03  0.75179661266E+02 0.  0.
         11    1    3    3    0    0 -0.10850556600E+04  0.77104063630E+03  0.11206593001E+04  0.17400364120E+04  0.00000000000E+00 0. -1.
        -12    1    3    3    0    0 -0.16193581431E+03  0.15432716668E+03  0.18181204467E+03  0.28826325107E+03  0.00000000000E+00 0.  1.
         13    1    5    5    0    0  0.46407488319E+03 -0.28604461627E+03 -0.23779852527E+03  0.59475638570E+03  0.00000000000E+00 0. -1.
        -14    1    5    5    0    0  0.64145484448E+03 -0.48376187491E+03 -0.28168957614E+03  0.85137470389E+03  0.00000000000E+00 0.  1.
          2    1    6    6  502    0  0.14379089662E+02 -0.38590260230E+02  0.60227696963E+02  0.72961235500E+02  0.00000000000E+00 0. -1.
         -1    1    6    6    0  502  0.12708265696E+03 -0.11697105156E+03  0.76759036644E+02  0.18900840804E+03  0.00000000000E+00 0.  1.
<mgrwt>
<rscale>  0 0.15586397E+04</rscale>
<asrwt>0</asrwt>
<pdfrwt beam="1">  1        1 0.35818234E+00 0.15586397E+04</pdfrwt>
<pdfrwt beam="2">  1       -2 0.21664849E+00 0.15586397E+04</pdfrwt>
<totfact> 0.15141227E-01</totfact>
</mgrwt>
</event>
<event>
12    3  0.2212098E-007  0.1070741E+04  0.7818608E-02  0.9234188E-01
          1   -1    0    0  501    0  0.00000000000E+00  0.00000000000E+00  0.15567173451E+04  0.15567173451E+04  0.00000000000E+00 0. -1.
         -2   -1    0    0    0  501 -0.00000000000E+00 -0.00000000000E+00 -0.97434303617E+03  0.97434303617E+03  0.00000000000E+00 0.  1.
        -24    2    1    2    0    0 -0.85516834505E+03 -0.52919747677E+03  0.86217480339E+03  0.13269996438E+04  0.78865679064E+02 0.  0.
    5000000    2    1    2    0    0  0.85516834505E+03  0.52919747677E+03 -0.27980049442E+03  0.12040607375E+04  0.60009255540E+03 0.  0.
        -24    2    4    4    0    0  0.19523094463E+03  0.41176366561E+03 -0.25346313508E+03  0.52741214719E+03  0.79092187315E+02 0.  0.
         24    2    4    4    0    0  0.65993740042E+03  0.11743381116E+03 -0.26337359342E+02  0.67664859029E+03  0.88609174290E+02 0.  0.
         13    1    3    3    0    0 -0.44734347352E+03 -0.25548623905E+03  0.39528075233E+03  0.64933525609E+03  0.00000000000E+00 0. -1.
        -14    1    3    3    0    0 -0.40782487154E+03 -0.27371123772E+03  0.46689405106E+03  0.67766438775E+03  0.00000000000E+00 0.  1.
         13    1    5    5    0    0  0.11256359400E+03  0.31523559505E+03 -0.17061575980E+03  0.37570437923E+03  0.00000000000E+00 0. -1.
        -14    1    5    5    0    0  0.82667350640E+02  0.96528070565E+02 -0.82847375277E+02  0.15170776796E+03  0.00000000000E+00 0.  1.
          2    1    6    6  502    0  0.23223354102E+03  0.10479317895E+02 -0.38345373807E+02  0.23561112319E+03  0.00000000000E+00 0. -1.
         -1    1    6    6    0  502  0.42770385940E+03  0.10695449327E+03  0.12008014465E+02  0.44103746710E+03  0.00000000000E+00 0.  1.
<mgrwt>
<rscale>  0 0.10707414E+04</rscale>
<asrwt>0</asrwt>
<pdfrwt beam="1">  1        1 0.23949498E+00 0.10707414E+04</pdfrwt>
<pdfrwt beam="2">  1       -2 0.14989893E+00 0.10707414E+04</pdfrwt>
<totfact> 0.15579289E+00</totfact>
</mgrwt>
</event>
<event>
12    3  0.2212098E-007  0.1106798E+04  0.7818608E-02  0.9198591E-01
         -2   -1    0    0    0  501 -0.00000000000E+00  0.00000000000E+00  0.17864105383E+04  0.17864105383E+04  0.00000000000E+00 0.  1.
          1   -1    0    0  501    0  0.00000000000E+00 -0.00000000000E+00 -0.77508082940E+03  0.77508082940E+03  0.00000000000E+00 0. -1.
        -24    2    1    2    0    0  0.10896845357E+04  0.11925018777E+03  0.55440333111E+03  0.12309667397E+04  0.79265793752E+02 0.  0.
    5000000    2    1    2    0    0 -0.10896845357E+04 -0.11925018777E+03  0.45692637783E+03  0.13305246281E+04  0.59990088893E+03 0.  0.
        -24    2    4    4    0    0 -0.28139517541E+03 -0.67568707144E+02  0.41842449512E+03  0.51567145214E+03  0.84197467326E+02 0.  0.
         24    2    4    4    0    0 -0.80828936026E+03 -0.51681480630E+02  0.38501882702E+02  0.81485317592E+03  0.80626533910E+02 0.  0.
         11    1    3    3    0    0  0.55066357892E+03  0.25374129212E+02  0.29972355188E+03  0.62746189616E+03  0.00000000000E+00 0. -1.
        -12    1    3    3    0    0  0.53902095675E+03  0.93876058563E+02  0.25467977922E+03  0.60350484351E+03  0.00000000000E+00 0.  1.
         13    1    5    5    0    0 -0.24382885377E+03 -0.87115215687E+02  0.35438167698E+03  0.43889400054E+03  0.00000000000E+00 0. -1.
        -14    1    5    5    0    0 -0.37566321640E+02  0.19546508543E+02  0.64042818147E+02  0.76777451599E+02  0.00000000000E+00 0.  1.
          4    1    6    6  502    0 -0.57026349248E+03 -0.73217650402E+02  0.27522981486E+02  0.57560297923E+03  0.00000000000E+00 0. -1.
         -3    1    6    6    0  502 -0.23802586779E+03  0.21536169772E+02  0.10978901216E+02  0.23925019669E+03  0.00000000000E+00 0.  1.
<mgrwt>
<rscale>  0 0.11067982E+04</rscale>
<asrwt>0</asrwt>
<pdfrwt beam="1">  1        1 0.11924321E+00 0.11067982E+04</pdfrwt>
<pdfrwt beam="2">  1       -2 0.27483239E+00 0.11067982E+04</pdfrwt>
<totfact> 0.91516832E-01</totfact>
</mgrwt>
</event>
<event>
12    3  0.2212098E-007  0.1478228E+04  0.7818608E-02  0.8899062E-01
          1   -1    0    0  501    0  0.00000000000E+00  0.00000000000E+00  0.30088183987E+04  0.30088183987E+04  0.00000000000E+00 0. -1.
         -2   -1    0    0    0  501 -0.00000000000E+00 -0.00000000000E+00 -0.95038318269E+03  0.95038318269E+03  0.00000000000E+00 0.  1.
        -24    2    1    2    0    0 -0.34578166434E+03 -0.14320110026E+04  0.18325973753E+04  0.23526123613E+04  0.78430297569E+02 0.  0.
    5000000    2    1    2    0    0  0.34578166434E+03  0.14320110026E+04  0.22583784071E+03  0.16065892201E+04  0.59992142892E+03 0.  0.
        -24    2    4    4    0    0  0.27983926354E+03  0.12791084224E+04  0.38151659736E+03  0.13658286308E+04  0.74192755414E+02 0.  0.
         24    2    4    4    0    0  0.65942400801E+02  0.15290258021E+03 -0.15567875664E+03  0.24076058932E+03  0.77473781626E+02 0.  0.
         11    1    5    5    0    0  0.27398813037E+03  0.12299295383E+04  0.35260871787E+03  0.13084835012E+04  0.00000000000E+00 0. -1.
        -12    1    5    5    0    0  0.58511331678E+01  0.49178884038E+02  0.28907879489E+02  0.57345129620E+02  0.00000000000E+00 0.  1.
         13    1    3    3    0    0 -0.15908327035E+03 -0.56654729178E+03  0.68146994760E+03  0.90038025867E+03  0.00000000000E+00 0. -1.
        -14    1    3    3    0    0 -0.18669839398E+03 -0.86546371082E+03  0.11511274277E+04  0.14522321026E+04  0.00000000000E+00 0.  1.
          2    1    6    6  502    0  0.42748977300E+02  0.42761782835E+02 -0.95752114515E+02  0.11324536443E+03  0.00000000000E+00 0. -1.
         -1    1    6    6    0  502  0.23193423501E+02  0.11014079738E+03 -0.59926642129E+02  0.12751522489E+03  0.00000000000E+00 0.  1.
<mgrwt>
<rscale>  0 0.14782278E+04</rscale>
<asrwt>0</asrwt>
<pdfrwt beam="1">  1        1 0.46289513E+00 0.14782278E+04</pdfrwt>
<pdfrwt beam="2">  1       -2 0.14621280E+00 0.14782278E+04</pdfrwt>
<totfact> 0.15765701E-01</totfact>
</mgrwt>
</event>
<event>
12    3  0.2212098E-007  0.5509360E+03  0.7818608E-02  0.1001278E+00
         -2   -1    0    0    0  501 -0.00000000000E+00  0.00000000000E+00  0.98501479540E+03  0.98501479540E+03  0.00000000000E+00 0.  1.
          1   -1    0    0  501    0  0.00000000000E+00 -0.00000000000E+00 -0.47243557818E+03  0.47243557818E+03  0.00000000000E+00 0. -1.
        -24    2    1    2    0    0 -0.44768585498E+03  0.28273067924E+03  0.61891378560E+02  0.53896417229E+03  0.79325749539E+02 0.  0.
    5000000    2    1    2    0    0  0.44768585498E+03 -0.28273067924E+03  0.45068783866E+03  0.91848620130E+03  0.60011508258E+03 0.  0.
        -24    2    4    4    0    0  0.35189738925E+03 -0.28893677869E+03  0.16645415244E+02  0.46685024647E+03  0.10176368770E+03 0.  0.
         24    2    4    4    0    0  0.95788465722E+02  0.62060994527E+01  0.43404242342E+03  0.45163595483E+03  0.79801406861E+02 0.  0.
         11    1    3    3    0    0 -0.39366679394E+03  0.21433421204E+03  0.50593827886E+02  0.45107918875E+03  0.00000000000E+00 0. -1.
        -12    1    3    3    0    0 -0.54019061037E+02  0.68396467195E+02  0.11297550674E+02  0.87884983537E+02  0.00000000000E+00 0.  1.
         13    1    5    5    0    0  0.27533464282E+03 -0.17525581475E+03 -0.12932389515E+02  0.32663590256E+03  0.00000000000E+00 0. -1.
        -14    1    5    5    0    0  0.76562746434E+02 -0.11368096394E+03  0.29577804759E+02  0.14021434391E+03  0.00000000000E+00 0.  1.
          2    1    6    6  502    0  0.75905441658E+02 -0.11064932003E+02  0.17269205539E+03  0.18896194005E+03  0.00000000000E+00 0. -1.
         -1    1    6    6    0  502  0.19883024064E+02  0.17271031456E+02  0.26135036803E+03  0.26267401478E+03  0.00000000000E+00 0.  1.
<mgrwt>
<rscale>  0 0.55093602E+03</rscale>
<asrwt>0</asrwt>
<pdfrwt beam="1">  1        1 0.72682397E-01 0.55093602E+03</pdfrwt>
<pdfrwt beam="2">  1       -2 0.15154074E+00 0.55093602E+03</pdfrwt>
<totfact> 0.12739423E+01</totfact>
</mgrwt>
</event>
<event>
12    3  0.2212098E-007  0.3183373E+03  0.7818608E-02  0.1076417E+00
          1   -1    0    0  501    0  0.00000000000E+00  0.00000000000E+00  0.24881065454E+03  0.24881065454E+03  0.00000000000E+00 0. -1.
         -2   -1    0    0    0  501 -0.00000000000E+00 -0.00000000000E+00 -0.23258589748E+04  0.23258589748E+04  0.00000000000E+00 0.  1.
        -24    2    1    2    0    0  0.21876521668E+03 -0.18545283881E+03 -0.18471179717E+04  0.18710047309E+04  0.81011889099E+02 0.  0.
    5000000    2    1    2    0    0 -0.21876521668E+03  0.18545283881E+03 -0.22993034853E+03  0.70366489842E+03  0.60002112350E+03 0.  0.
        -24    2    4    4    0    0 -0.46012436628E+02 -0.30693741211E+02 -0.37080971074E+03  0.38302278381E+03  0.78405109975E+02 0.  0.
         24    2    4    4    0    0 -0.17275278005E+03  0.21614658002E+03  0.14087936221E+03  0.32064211461E+03  0.80009398794E+02 0.  0.
         11    1    5    5    0    0 -0.98879459376E+01 -0.11580867880E+02 -0.30615933605E+03  0.30653780685E+03  0.00000000000E+00 0. -1.
        -12    1    5    5    0    0 -0.36124490690E+02 -0.19112873331E+02 -0.64650374686E+02  0.76484976967E+02  0.00000000000E+00 0.  1.
         11    1    3    3    0    0  0.16230538057E+02 -0.51612004847E+02 -0.40472175465E+03  0.40832208867E+03  0.00000000000E+00 0. -1.
        -12    1    3    3    0    0  0.20253467862E+03 -0.13384083396E+03 -0.14423962171E+04  0.14626826422E+04  0.00000000000E+00 0.  1.
          4    1    6    6  502    0 -0.93058456132E+02  0.16371870490E+03  0.66627926259E+02  0.19975728059E+03  0.00000000000E+00 0. -1.
         -3    1    6    6    0  502 -0.79694323920E+02  0.52427875113E+02  0.74251435947E+02  0.12088483401E+03  0.00000000000E+00 0.  1.
<mgrwt>
<rscale>  0 0.31833733E+03</rscale>
<asrwt>0</asrwt>
<pdfrwt beam="1">  1        1 0.38278563E-01 0.31833733E+03</pdfrwt>
<pdfrwt beam="2">  1       -2 0.35782445E+00 0.31833733E+03</pdfrwt>
<totfact> 0.15940089E+00</totfact>
</mgrwt>
</event>
<event>
12    3  0.2212098E-007  0.7927010E+03  0.7818608E-02  0.9570643E-01
          1   -1    0    0  501    0  0.00000000000E+00  0.00000000000E+00  0.91546130640E+03  0.91546130640E+03  0.00000000000E+00 0. -1.
         -2   -1    0    0    0  501 -0.00000000000E+00 -0.00000000000E+00 -0.76483832945E+03  0.76483832945E+03  0.00000000000E+00 0.  1.
        -24    2    1    2    0    0  0.49199675174E+03  0.53255687102E+03  0.12683381668E+02  0.72938259465E+03  0.78488703773E+02 0.  0.
    5000000    2    1    2    0    0 -0.49199675174E+03 -0.53255687102E+03  0.13793959529E+03  0.95091704120E+03  0.59961509546E+03 0.  0.
        -24    2    4    4    0    0 -0.16495250601E+03  0.47708889770E+02 -0.12892318324E+03  0.22903453616E+03  0.79687917380E+02 0.  0.
         24    2    4    4    0    0 -0.32704424573E+03 -0.58026576079E+03  0.26686277852E+03  0.72188250504E+03  0.78945023335E+02 0.  0.
         11    1    5    5    0    0 -0.16477455659E+03  0.26819587565E+02 -0.12287117544E+03  0.20728548075E+03  0.00000000000E+00 0. -1.
        -12    1    5    5    0    0 -0.17794941771E+00  0.20889302206E+02 -0.60520077903E+01  0.21749055403E+02  0.00000000000E+00 0.  1.
         13    1    3    3    0    0  0.17969646492E+03  0.14492733043E+03  0.18154751557E+02  0.23156931061E+03  0.00000000000E+00 0. -1.
        -14    1    3    3    0    0  0.31230028682E+03  0.38762954059E+03 -0.54713698886E+01  0.49781328405E+03  0.00000000000E+00 0.  1.
          2    1    6    6  502    0 -0.17678963204E+03 -0.25111163567E+03  0.14902575874E+03  0.34135070577E+03  0.00000000000E+00 0. -1.
         -1    1    6    6    0  502 -0.15025461370E+03 -0.32915412512E+03  0.11783701978E+03  0.38053179927E+03  0.00000000000E+00 0.  1.
<mgrwt>
<rscale>  0 0.79270095E+03</rscale>
<asrwt>0</asrwt>
<pdfrwt beam="1">  1        1 0.14084020E+00 0.79270095E+03</pdfrwt>
<pdfrwt beam="2">  1       -2 0.11766744E+00 0.79270095E+03</pdfrwt>
<totfact> 0.87923426E+00</totfact>
</mgrwt>
</event>
<event>
12    3  0.2212098E-007  0.4419512E+03  0.7818608E-02  0.1030150E+00
         -4   -1    0    0    0  501 -0.00000000000E+00  0.00000000000E+00  0.14068295737E+03  0.14068295737E+03  0.00000000000E+00 0.  1.
          1   -1    0    0  501    0  0.00000000000E+00 -0.00000000000E+00 -0.16488943113E+04  0.16488943113E+04  0.00000000000E+00 0. -1.
        -24    2    1    2    0    0  0.13277326099E+03 -0.24987132516E+03 -0.55674083556E+03  0.62962894079E+03  0.80048904575E+02 0.  0.
    5000000    2    1    2    0    0 -0.13277326099E+03  0.24987132516E+03 -0.95147051839E+03  0.11599483279E+04  0.60009962347E+03 0.  0.
        -24    2    4    4    0    0 -0.26401283385E+03  0.34026426388E+03 -0.84569595273E+03  0.95246817213E+03  0.80693424456E+02 0.  0.
         24    2    4    4    0    0  0.13123957285E+03 -0.90392938721E+02 -0.10577456566E+03  0.20748015578E+03  0.80405518763E+02 0.  0.
         11    1    5    5    0    0 -0.12181035328E+03  0.19501478141E+03 -0.51966955978E+03  0.56826488409E+03  0.00000000000E+00 0. -1.
        -12    1    5    5    0    0 -0.14220248057E+03  0.14524948247E+03 -0.32602639295E+03  0.38420328804E+03  0.00000000000E+00 0.  1.
         13    1    3    3    0    0  0.32484157122E+02 -0.16319355319E+02 -0.10734372402E+03  0.11333232949E+03  0.00000000000E+00 0. -1.
        -14    1    3    3    0    0  0.10028910387E+03 -0.23355196984E+03 -0.44939711154E+03  0.51629661129E+03  0.00000000000E+00 0.  1.
          4    1    6    6  502    0  0.55569712658E+02 -0.28711528422E+02  0.13259394807E+01  0.62562792016E+02  0.00000000000E+00 0. -1.
         -1    1    6    6    0  502  0.75669860196E+02 -0.61681410299E+02 -0.10710050514E+03  0.14491736376E+03  0.00000000000E+00 0.  1.
<mgrwt>
<rscale>  0 0.44195120E+03</rscale>
<asrwt>0</asrwt>
<pdfrwt beam="1">  1        1 0.25367607E+00 0.44195120E+03</pdfrwt>
<pdfrwt beam="2">  1       -4 0.21643530E-01 0.44195120E+03</pdfrwt>
<totfact> 0.52657140E+01</totfact>
</mgrwt>
</event>
<event>
12    3  0.2212098E-007  0.2241823E+04  0.7818608E-02  0.8501219E-01
          3   -1    0    0  501    0  0.00000000000E+00  0.00000000000E+00  0.21340313704E+04  0.21340313704E+04  0.00000000000E+00 0. -1.
         -2   -1    0    0    0  501 -0.00000000000E+00 -0.00000000000E+00 -0.28626289203E+04  0.28626289203E+04  0.00000000000E+00 0.  1.
        -24    2    1    2    0    0  0.22071716684E+04 -0.38938733653E+03  0.60231844790E+03  0.23218826382E+04  0.71569554691E+02 0.  0.
    5000000    2    1    2    0    0 -0.22071716684E+04  0.38938733653E+03 -0.13309159979E+04  0.26747776525E+04  0.59989067778E+03 0.  0.
        -24    2    4    4    0    0 -0.92617713917E+03  0.15103969023E+03 -0.23612373593E+03  0.97112886583E+03  0.81974229052E+02 0.  0.
         24    2    4    4    0    0 -0.12809945293E+04  0.23834764630E+03 -0.10947922619E+04  0.17036487867E+04  0.78054513765E+02 0.  0.
         13    1    3    3    0    0  0.48184150306E+03 -0.83224464921E+02  0.10102073685E+03  0.49930224805E+03  0.00000000000E+00 0. -1.
        -14    1    3    3    0    0  0.17253301654E+04 -0.30616287161E+03  0.50129771105E+03  0.18225803902E+04  0.00000000000E+00 0.  1.
         13    1    5    5    0    0 -0.85445978961E+02  0.82870459924E+01  0.15566571265E+01  0.85861013465E+02  0.00000000000E+00 0. -1.
        -14    1    5    5    0    0 -0.84073116021E+03  0.14275264424E+03 -0.23768039305E+03  0.88526785236E+03  0.00000000000E+00 0.  1.
          4    1    6    6  502    0 -0.97194945321E+03  0.20057175639E+03 -0.86798527111E+03  0.13184510609E+04  0.00000000000E+00 0. -1.
         -3    1    6    6    0  502 -0.30904507606E+03  0.37775889910E+02 -0.22680699083E+03  0.38519772583E+03  0.00000000000E+00 0.  1.
<mgrwt>
<rscale>  0 0.22418228E+04</rscale>
<asrwt>0</asrwt>
<pdfrwt beam="1">  1        3 0.32831252E+00 0.22418228E+04</pdfrwt>
<pdfrwt beam="2">  1       -2 0.44040445E+00 0.22418228E+04</pdfrwt>
<totfact> 0.38251159E-04</totfact>
</mgrwt>
</event>
<event>
12    3  0.2212098E-007  0.1190087E+04  0.7818608E-02  0.9121578E-01
          1   -1    0    0  501    0  0.00000000000E+00  0.00000000000E+00  0.13438410649E+04  0.13438410649E+04  0.00000000000E+00 0. -1.
         -2   -1    0    0    0  501 -0.00000000000E+00 -0.00000000000E+00 -0.14311063702E+04  0.14311063702E+04  0.00000000000E+00 0.  1.
        -24    2    1    2    0    0  0.11683183062E+04 -0.10118348501E+03 -0.64917072176E+03  0.13428385679E+04  0.81160527356E+02 0.  0.
    5000000    2    1    2    0    0 -0.11683183062E+04  0.10118348501E+03  0.56190541646E+03  0.14321088673E+04  0.59999362365E+03 0.  0.
        -24    2    4    4    0    0 -0.69796091022E+02 -0.13984000359E+02  0.26459113744E+03  0.28548933540E+03  0.80178825294E+02 0.  0.
         24    2    4    4    0    0 -0.10985222152E+04  0.11516748537E+03  0.29731427902E+03  0.11466195319E+04  0.79535925477E+02 0.  0.
         11    1    5    5    0    0  0.14403767719E+02 -0.81744751668E+01  0.90681459403E+02  0.92181438740E+02  0.00000000000E+00 0. -1.
        -12    1    5    5    0    0 -0.84199858740E+02 -0.58095251917E+01  0.17390967804E+03  0.19330789666E+03  0.00000000000E+00 0.  1.
         13    1    3    3    0    0  0.60121350077E+03 -0.51054042470E+02 -0.28764477906E+03  0.66843377210E+03  0.00000000000E+00 0. -1.
        -14    1    3    3    0    0  0.56710480541E+03 -0.50129442543E+02 -0.36152594270E+03  0.67440479578E+03  0.00000000000E+00 0.  1.
          2    1    6    6  502    0 -0.22663050386E+03 -0.30391575699E+01  0.79529443025E+02  0.24019898848E+03  0.00000000000E+00 0. -1.
         -1    1    6    6    0  502 -0.87189171129E+03  0.11820664294E+03  0.21778483600E+03  0.90642054337E+03  0.00000000000E+00 0.  1.
<mgrwt>
<rscale>  0 0.11900871E+04</rscale>
<asrwt>0</asrwt>
<pdfrwt beam="1">  1        1 0.20674478E+00 0.11900871E+04</pdfrwt>
<pdfrwt beam="2">  1       -2 0.22017021E+00 0.11900871E+04</pdfrwt>
<totfact> 0.70990979E-01</totfact>
</mgrwt>
</event>
<event>
12    3  0.2212098E-007  0.1983979E+04  0.7818608E-02  0.8614148E-01
         -2   -1    0    0    0  501 -0.00000000000E+00  0.00000000000E+00  0.25899208272E+04  0.25899208272E+04  0.00000000000E+00 0.  1.
          1   -1    0    0  501    0  0.00000000000E+00 -0.00000000000E+00 -0.15366908354E+04  0.15366908354E+04  0.00000000000E+00 0. -1.
        -24    2    1    2    0    0 -0.13829946861E+04 -0.13720066906E+04  0.45462967100E+03  0.20020857654E+04  0.81133304859E+02 0.  0.
    5000000    2    1    2    0    0  0.13829946861E+04  0.13720066906E+04  0.59860032081E+03  0.21245258972E+04  0.60017604331E+03 0.  0.
        -24    2    4    4    0    0  0.84727004481E+02 -0.18166904400E+02  0.88784856337E+02  0.15365112481E+03  0.90648859552E+02 0.  0.
         24    2    4    4    0    0  0.12982676816E+04  0.13901735950E+04  0.50981546447E+03  0.19708747724E+04  0.79711750901E+02 0.  0.
         11    1    3    3    0    0 -0.10322425085E+04 -0.10723483245E+04  0.34348672622E+03  0.15275597063E+04  0.00000000000E+00 0. -1.
        -12    1    3    3    0    0 -0.35075217765E+03 -0.29965836612E+03  0.11114294478E+03  0.47452605902E+03  0.00000000000E+00 0.  1.
         13    1    5    5    0    0  0.14696578120E+02  0.28073548349E+02  0.54409375204E+02  0.62964225044E+02  0.00000000000E+00 0. -1.
        -14    1    5    5    0    0  0.70030426361E+02 -0.46240452749E+02  0.34375481133E+02  0.90686899770E+02  0.00000000000E+00 0.  1.
          4    1    6    6  502    0  0.43861508411E+03  0.44095050382E+03  0.13380175694E+03  0.63617878697E+03  0.00000000000E+00 0. -1.
         -3    1    6    6    0  502  0.85965259753E+03  0.94922309119E+03  0.37601370753E+03  0.13346959854E+04  0.00000000000E+00 0.  1.
<mgrwt>
<rscale>  0 0.19839793E+04</rscale>
<asrwt>0</asrwt>
<pdfrwt beam="1">  1        1 0.23641398E+00 0.19839793E+04</pdfrwt>
<pdfrwt beam="2">  1       -2 0.39844936E+00 0.19839793E+04</pdfrwt>
<totfact> 0.36754581E-02</totfact>
</mgrwt>
</event>
<event>
12    3  0.2212098E-007  0.5315866E+03  0.7818608E-02  0.1005848E+00
         -2   -1    0    0    0  501 -0.00000000000E+00  0.00000000000E+00  0.58860055122E+03  0.58860055122E+03  0.00000000000E+00 0.  1.
          1   -1    0    0  501    0  0.00000000000E+00 -0.00000000000E+00 -0.68907938015E+03  0.68907938015E+03  0.00000000000E+00 0. -1.
        -24    2    1    2    0    0  0.11678270848E+03  0.43185911562E+03  0.16528319837E+03  0.48370369499E+03  0.80686009567E+02 0.  0.
    5000000    2    1    2    0    0 -0.11678270848E+03 -0.43185911562E+03 -0.26576202730E+03  0.79397623637E+03  0.59969018002E+03 0.  0.
        -24    2    4    4    0    0  0.85263250614E+02  0.15152884789E+02 -0.27286751333E+03  0.29724680407E+03  0.79997192948E+02 0.  0.
         24    2    4    4    0    0 -0.20204595909E+03 -0.44701200041E+03  0.71054860265E+01  0.49672943229E+03  0.77764663414E+02 0.  0.
         11    1    5    5    0    0  0.46662806668E+02  0.46488507680E+02 -0.12577169734E+03  0.14197576809E+03  0.00000000000E+00 0. -1.
        -12    1    5    5    0    0  0.38600443946E+02 -0.31335622891E+02 -0.14709581599E+03  0.15527103599E+03  0.00000000000E+00 0.  1.
         11    1    3    3    0    0  0.22771097474E+02  0.19243677912E+03  0.41157977675E+02  0.19810203422E+03  0.00000000000E+00 0. -1.
        -12    1    3    3    0    0  0.94011611003E+02  0.23942233651E+03  0.12412522070E+03  0.28560166077E+03  0.00000000000E+00 0.  1.
          4    1    6    6  502    0 -0.13714555348E+03 -0.37676919198E+03  0.20172203446E+01  0.40095884582E+03  0.00000000000E+00 0. -1.
         -3    1    6    6    0  502 -0.64900405615E+02 -0.70242808430E+02  0.50882656819E+01  0.95770586469E+02  0.00000000000E+00 0.  1.
<mgrwt>
<rscale>  0 0.53158656E+03</rscale>
<asrwt>0</asrwt>
<pdfrwt beam="1">  1        1 0.10601221E+00 0.53158656E+03</pdfrwt>
<pdfrwt beam="2">  1       -2 0.90553931E-01 0.53158656E+03</pdfrwt>
<totfact> 0.26559433E+01</totfact>
</mgrwt>
</event>
<event>
12    3  0.2212098E-007  0.1380696E+04  0.7818608E-02  0.8967912E-01
          1   -1    0    0  501    0  0.00000000000E+00  0.00000000000E+00  0.31819684751E+04  0.31819684751E+04  0.00000000000E+00 0. -1.
         -2   -1    0    0    0  501 -0.00000000000E+00 -0.00000000000E+00 -0.72731425951E+03  0.72731425951E+03  0.00000000000E+00 0.  1.
        -24    2    1    2    0    0 -0.13278600162E+04 -0.30877783991E+03  0.50537988463E+03  0.14560744132E+04  0.78663154821E+02 0.  0.
    5000000    2    1    2    0    0  0.13278600162E+04  0.30877783991E+03  0.19492743309E+04  0.24532083214E+04  0.60000389512E+03 0.  0.
        -24    2    4    4    0    0  0.51683117462E+03  0.26415673189E+03  0.12462114347E+04  0.13759717826E+04  0.57984173507E+02 0.  0.
         24    2    4    4    0    0  0.81102884153E+03  0.44621108019E+02  0.70306289618E+03  0.10772365388E+04  0.79889295216E+02 0.  0.
         11    1    3    3    0    0 -0.31839246561E+03 -0.64149717787E+02  0.86545743034E+02  0.33612365892E+03  0.00000000000E+00 0. -1.
        -12    1    3    3    0    0 -0.10094675505E+04 -0.24462812212E+03  0.41883414160E+03  0.11199507542E+04  0.00000000000E+00 0.  1.
         11    1    5    5    0    0  0.30381395448E+03  0.18626234548E+03  0.74698284014E+03  0.82763515134E+03  0.00000000000E+00 0. -1.
        -12    1    5    5    0    0  0.21301722014E+03  0.77894386414E+02  0.49922859461E+03  0.54833663126E+03  0.00000000000E+00 0.  1.
          4    1    6    6  502    0  0.63144918419E+03  0.82061561002E+01  0.57096686892E+03  0.85135103138E+03  0.00000000000E+00 0. -1.
         -1    1    6    6    0  502  0.17957965734E+03  0.36414951919E+02  0.13209602726E+03  0.22588550744E+03  0.00000000000E+00 0.  1.
<mgrwt>
<rscale>  0 0.13806957E+04</rscale>
<asrwt>0</asrwt>
<pdfrwt beam="1">  1        1 0.48953360E+00 0.13806957E+04</pdfrwt>
<pdfrwt beam="2">  1       -2 0.11189450E+00 0.13806957E+04</pdfrwt>
<totfact> 0.23527712E-01</totfact>
</mgrwt>
</event>
<event>
12    3  0.2212098E-007  0.5699005E+03  0.7818608E-02  0.9969899E-01
          1   -1    0    0  501    0  0.00000000000E+00  0.00000000000E+00  0.78900064993E+03  0.78900064993E+03  0.00000000000E+00 0. -1.
         -2   -1    0    0    0  501 -0.00000000000E+00 -0.00000000000E+00 -0.42764045558E+03  0.42764045558E+03  0.00000000000E+00 0.  1.
        -24    2    1    2    0    0  0.19300563923E+03 -0.36675410267E+03  0.54650165297E+02  0.42549401541E+03  0.79364777964E+02 0.  0.
    5000000    2    1    2    0    0 -0.19300563923E+03  0.36675410267E+03  0.30671002905E+03  0.79114709011E+03  0.60006910241E+03 0.  0.
        -24    2    4    4    0    0  0.18081340199E+03  0.26795981395E+03  0.15422445837E+03  0.36803649131E+03  0.84674241354E+02 0.  0.
         24    2    4    4    0    0 -0.37381904122E+03  0.98794288721E+02  0.15248557069E+03  0.42311059880E+03  0.79181705489E+02 0.  0.
         13    1    5    5    0    0  0.53536023444E+02  0.88702817991E+02  0.94478854463E+02  0.14021608205E+03  0.00000000000E+00 0. -1.
        -14    1    5    5    0    0  0.12727737855E+03  0.17925699596E+03  0.59745603903E+02  0.22782040926E+03  0.00000000000E+00 0.  1.
         13    1    3    3    0    0  0.13170736818E+03 -0.16587108356E+03  0.32931511184E+02  0.21434675557E+03  0.00000000000E+00 0. -1.
        -14    1    3    3    0    0  0.61298271047E+02 -0.20088301911E+03  0.21718654113E+02  0.21114725984E+03  0.00000000000E+00 0.  1.
          2    1    6    6  502    0 -0.46026090545E+02 -0.13597810688E+02  0.14664007173E+02  0.50183010797E+02  0.00000000000E+00 0. -1.
         -1    1    6    6    0  502 -0.32779295068E+03  0.11239209941E+03  0.13782156351E+03  0.37292758800E+03  0.00000000000E+00 0.  1.
<mgrwt>
<rscale>  0 0.56990052E+03</rscale>
<asrwt>0</asrwt>
<pdfrwt beam="1">  1        1 0.12138472E+00 0.56990052E+03</pdfrwt>
<pdfrwt beam="2">  1       -2 0.65790839E-01 0.56990052E+03</pdfrwt>
<totfact> 0.43701708E+01</totfact>
</mgrwt>
</event>
<event>
12    3  0.2212098E-007  0.1230964E+04  0.7818608E-02  0.9086178E-01
         -2   -1    0    0    0  501 -0.00000000000E+00  0.00000000000E+00  0.10403787961E+04  0.10403787961E+04  0.00000000000E+00 0.  1.
          1   -1    0    0  501    0  0.00000000000E+00 -0.00000000000E+00 -0.17440731767E+04  0.17440731767E+04  0.00000000000E+00 0. -1.
        -24    2    1    2    0    0 -0.11035952317E+04  0.45072317269E+03  0.14428873405E+03  0.12032721605E+04  0.77271209654E+02 0.  0.
    5000000    2    1    2    0    0  0.11035952317E+04 -0.45072317269E+03 -0.84798311462E+03  0.15811798122E+04  0.59998368489E+03 0.  0.
        -24    2    4    4    0    0  0.77106502367E+03 -0.50121476325E+03 -0.81625753039E+03  0.12322247220E+04  0.79648602853E+02 0.  0.
         24    2    4    4    0    0  0.33253020799E+03  0.50491590560E+02 -0.31725584231E+02  0.34895509022E+03  0.87392232815E+02 0.  0.
         11    1    3    3    0    0 -0.42514846514E+03  0.21447468569E+03  0.58841620509E+02  0.47980511097E+03  0.00000000000E+00 0. -1.
        -12    1    3    3    0    0 -0.67844676652E+03  0.23624848700E+03  0.85447113536E+02  0.72346704958E+03  0.00000000000E+00 0.  1.
         13    1    5    5    0    0  0.17900902522E+03 -0.10516547214E+03 -0.14304746047E+03  0.25212414320E+03  0.00000000000E+00 0. -1.
        -14    1    5    5    0    0  0.59205599845E+03 -0.39604929111E+03 -0.67321006992E+03  0.98010057879E+03  0.00000000000E+00 0.  1.
          2    1    6    6  502    0  0.23908613778E+03 -0.42386439892E+01 -0.18072969400E+02  0.23980571220E+03  0.00000000000E+00 0. -1.
         -1    1    6    6    0  502  0.93444070206E+02  0.54730234550E+02 -0.13652614832E+02  0.10914937802E+03  0.00000000000E+00 0.  1.
<mgrwt>
<rscale>  0 0.12309638E+04</rscale>
<asrwt>0</asrwt>
<pdfrwt beam="1">  1        1 0.26831895E+00 0.12309638E+04</pdfrwt>
<pdfrwt beam="2">  1       -2 0.16005828E+00 0.12309638E+04</pdfrwt>
<totfact> 0.95435107E-01</totfact>
</mgrwt>
</event>
<event>
12    3  0.2212098E-007  0.1408257E+04  0.7818608E-02  0.8947864E-01
         -2   -1    0    0    0  501 -0.00000000000E+00  0.00000000000E+00  0.19623145718E+04  0.19623145718E+04  0.00000000000E+00 0.  1.
          1   -1    0    0  501    0  0.00000000000E+00 -0.00000000000E+00 -0.11305724231E+04  0.11305724231E+04  0.00000000000E+00 0. -1.
        -24    2    1    2    0    0 -0.17615078215E+03 -0.13741820298E+04  0.75805220780E+03  0.15813387352E+04  0.81139982615E+02 0.  0.
    5000000    2    1    2    0    0  0.17615078215E+03  0.13741820298E+04  0.73689940967E+02  0.15115482596E+04  0.59995215207E+03 0.  0.
        -24    2    4    4    0    0  0.21184054211E+03  0.47099053577E+03  0.26227446803E+03  0.58464775231E+03  0.79477025819E+02 0.  0.
         24    2    4    4    0    0 -0.35689759967E+02  0.90319149403E+03 -0.18858452706E+03  0.92690050734E+03  0.80943145504E+02 0.  0.
         13    1    3    3    0    0 -0.10635401637E+03 -0.54747243109E+03  0.28520701760E+03  0.62640265205E+03  0.00000000000E+00 0. -1.
        -14    1    3    3    0    0 -0.69796765775E+02 -0.82670959870E+03  0.47284519020E+03  0.95493608320E+03  0.00000000000E+00 0.  1.
         13    1    5    5    0    0  0.72228079540E+02  0.83158611999E+02  0.61545955465E+02  0.12617509603E+03  0.00000000000E+00 0. -1.
        -14    1    5    5    0    0  0.13961246257E+03  0.38783192377E+03  0.20072851256E+03  0.45847265628E+03  0.00000000000E+00 0.  1.
          4    1    6    6  502    0  0.70744799277E+01  0.64979728502E+03 -0.15148618755E+03  0.66725903883E+03  0.00000000000E+00 0. -1.
         -3    1    6    6    0  502 -0.42764239895E+02  0.25339420901E+03 -0.37098339509E+02  0.25964146850E+03  0.00000000000E+00 0.  1.
<mgrwt>
<rscale>  0 0.14082566E+04</rscale>
<asrwt>0</asrwt>
<pdfrwt beam="1">  1        1 0.17393422E+00 0.14082566E+04</pdfrwt>
<pdfrwt beam="2">  1       -2 0.30189455E+00 0.14082566E+04</pdfrwt>
<totfact> 0.31202923E-01</totfact>
</mgrwt>
</event>
<event>
12    3  0.2212098E-007  0.1200289E+04  0.7818608E-02  0.9112603E-01
         -2   -1    0    0    0  501 -0.00000000000E+00  0.00000000000E+00  0.26492904645E+04  0.26492904645E+04  0.00000000000E+00 0.  1.
          1   -1    0    0  501    0  0.00000000000E+00 -0.00000000000E+00 -0.96737498512E+03  0.96737498512E+03  0.00000000000E+00 0. -1.
        -24    2    1    2    0    0  0.76159904282E+03 -0.91234674994E+03  0.19245941398E+04  0.22633271462E+04  0.78596905290E+02 0.  0.
    5000000    2    1    2    0    0 -0.76159904282E+03  0.91234674994E+03 -0.24267866047E+03  0.13533383034E+04  0.60018491903E+03 0.  0.
        -24    2    4    4    0    0 -0.39063693852E+03  0.30144792138E+03 -0.37301113965E+03  0.62258527857E+03  0.70760523988E+02 0.  0.
         24    2    4    4    0    0 -0.37096210430E+03  0.61089882856E+03  0.13033247918E+03  0.73075302482E+03  0.78760184053E+02 0.  0.
         11    1    3    3    0    0  0.39878025360E+03 -0.51748178451E+03  0.10003927278E+04  0.11948216175E+04  0.00000000000E+00 0. -1.
        -12    1    3    3    0    0  0.36281878922E+03 -0.39486496543E+03  0.92420141203E+03  0.10685055286E+04  0.00000000000E+00 0.  1.
         13    1    5    5    0    0 -0.24211073831E+03  0.21880107537E+03 -0.21720089789E+03  0.39200478343E+03  0.00000000000E+00 0. -1.
        -14    1    5    5    0    0 -0.14852620020E+03  0.82646846011E+02 -0.15581024176E+03  0.23058049514E+03  0.00000000000E+00 0.  1.
          4    1    6    6  502    0 -0.16432090804E+03  0.27494119982E+03  0.18746441006E+02  0.32085113874E+03  0.00000000000E+00 0. -1.
         -3    1    6    6    0  502 -0.20664119626E+03  0.33595762873E+03  0.11158603817E+03  0.40990188608E+03  0.00000000000E+00 0.  1.
<mgrwt>
<rscale>  0 0.12002892E+04</rscale>
<asrwt>0</asrwt>
<pdfrwt beam="1">  1        1 0.14882692E+00 0.12002892E+04</pdfrwt>
<pdfrwt beam="2">  1       -2 0.40758315E+00 0.12002892E+04</pdfrwt>
<totfact> 0.92168800E-02</totfact>
</mgrwt>
</event>
<event>
12    3  0.2212098E-007  0.3908501E+03  0.7818608E-02  0.1046995E+00
          1   -1    0    0  501    0  0.00000000000E+00  0.00000000000E+00  0.59968453350E+03  0.59968453350E+03  0.00000000000E+00 0. -1.
         -2   -1    0    0    0  501 -0.00000000000E+00 -0.00000000000E+00 -0.31607939185E+03  0.31607939185E+03  0.00000000000E+00 0.  1.
        -24    2    1    2    0    0 -0.21466059522E+03 -0.86044139422E+01  0.11700615326E+03  0.25743513639E+03  0.80182307704E+02 0.  0.
    5000000    2    1    2    0    0  0.21466059522E+03  0.86044139422E+01  0.16659898839E+03  0.65832878895E+03  0.59957348536E+03 0.  0.
        -24    2    4    4    0    0  0.31101672152E+03 -0.15332036101E+03 -0.51452003972E+02  0.35948673248E+03  0.79654679411E+02 0.  0.
         24    2    4    4    0    0 -0.96356126299E+02  0.16192477495E+03  0.21805099236E+03  0.29884205647E+03  0.79096166967E+02 0.  0.
         11    1    3    3    0    0 -0.10666376563E+03  0.33708286126E+02  0.42981071588E+02  0.11983647177E+03  0.00000000000E+00 0. -1.
        -12    1    3    3    0    0 -0.10799682959E+03 -0.42312700069E+02  0.74025081671E+02  0.13759866462E+03  0.00000000000E+00 0.  1.
         13    1    5    5    0    0  0.15981269060E+03 -0.10643086579E+03  0.31266884421E+01  0.19203489644E+03  0.00000000000E+00 0. -1.
        -14    1    5    5    0    0  0.15120403092E+03 -0.46889495218E+02 -0.54578692414E+02  0.16745183604E+03  0.00000000000E+00 0.  1.
          2    1    6    6  502    0 -0.93343966140E+02  0.84085343561E+02  0.12135896417E+03  0.17467523923E+03  0.00000000000E+00 0. -1.
         -1    1    6    6    0  502 -0.30121601590E+01  0.77839431387E+02  0.96692028190E+02  0.12416681724E+03  0.00000000000E+00 0.  1.
<mgrwt>
<rscale>  0 0.39085010E+03</rscale>
<asrwt>0</asrwt>
<pdfrwt beam="1">  1        1 0.92259159E-01 0.39085010E+03</pdfrwt>
<pdfrwt beam="2">  1       -2 0.48627599E-01 0.39085010E+03</pdfrwt>
<totfact> 0.12527707E+02</totfact>
</mgrwt>
</event>
<event>
12    3  0.2212098E-007  0.8260660E+03  0.7818608E-02  0.9523036E-01
          1   -1    0    0  501    0  0.00000000000E+00  0.00000000000E+00  0.76100216794E+03  0.76100216794E+03  0.00000000000E+00 0. -1.
         -2   -1    0    0    0  501 -0.00000000000E+00 -0.00000000000E+00 -0.12017760136E+04  0.12017760136E+04  0.00000000000E+00 0.  1.
        -24    2    1    2    0    0 -0.42065077806E+03 -0.64740914882E+03  0.19042865091E+03  0.79896070701E+03  0.77391583550E+02 0.  0.
    5000000    2    1    2    0    0  0.42065077806E+03  0.64740914882E+03 -0.63120249658E+03  0.11638174745E+04  0.59997403219E+03 0.  0.
        -24    2    4    4    0    0  0.38810801296E+03  0.23072247234E+03 -0.77219414781E+02  0.46499403125E+03  0.79974509150E+02 0.  0.
         24    2    4    4    0    0  0.32542765098E+02  0.41668667648E+03 -0.55398308180E+03  0.69882344328E+03  0.82280812175E+02 0.  0.
         11    1    5    5    0    0  0.12112071175E+03  0.11669997404E+03 -0.30797380959E+02  0.17099002728E+03  0.00000000000E+00 0. -1.
        -12    1    5    5    0    0  0.26698730122E+03  0.11402249830E+03 -0.46422033821E+02  0.29400400398E+03  0.00000000000E+00 0.  1.
         13    1    3    3    0    0 -0.19527560423E+03 -0.27967339367E+03  0.46393561166E+02  0.34424138516E+03  0.00000000000E+00 0. -1.
        -14    1    3    3    0    0 -0.22537517383E+03 -0.36773575515E+03  0.14403508975E+03  0.45471932186E+03  0.00000000000E+00 0.  1.
          2    1    6    6  502    0 -0.42360674423E+01  0.16374300438E+01  0.11754845055E+01  0.46911841092E+01  0.00000000000E+00 0. -1.
         -1    1    6    6    0  502  0.36778832540E+02  0.41504924643E+03 -0.55515856630E+03  0.69413225918E+03  0.00000000000E+00 0.  1.
<mgrwt>
<rscale>  0 0.82606602E+03</rscale>
<asrwt>0</asrwt>
<pdfrwt beam="1">  1        1 0.11707726E+00 0.82606602E+03</pdfrwt>
<pdfrwt beam="2">  1       -2 0.18488862E+00 0.82606602E+03</pdfrwt>
<totfact> 0.35769562E+00</totfact>
</mgrwt>
</event>
<event>
12    3  0.2212098E-007  0.6065369E+03  0.7818608E-02  0.9891936E-01
          1   -1    0    0  501    0  0.00000000000E+00  0.00000000000E+00  0.29328524402E+04  0.29328524402E+04  0.00000000000E+00 0. -1.
         -2   -1    0    0    0  501 -0.00000000000E+00 -0.00000000000E+00 -0.13615719336E+03  0.13615719336E+03  0.00000000000E+00 0.  1.
        -24    2    1    2    0    0  0.22344424448E+03 -0.42557004673E+03  0.92973717510E+03  0.10499881277E+04  0.83825165904E+02 0.  0.
    5000000    2    1    2    0    0 -0.22344424448E+03  0.42557004673E+03  0.18669580718E+04  0.20190215059E+04  0.59989849515E+03 0.  0.
        -24    2    4    4    0    0 -0.12725420180E+03 -0.12197678937E+03  0.32943061200E+03  0.38212627142E+03  0.80149798254E+02 0.  0.
         24    2    4    4    0    0 -0.96190042683E+02  0.54754683611E+03  0.15375274598E+04  0.16368952345E+04  0.79845207141E+02 0.  0.
         11    1    5    5    0    0 -0.46735562231E+02 -0.41569363659E+02  0.20114279843E+03  0.21064341939E+03  0.00000000000E+00 0. -1.
        -12    1    5    5    0    0 -0.80518639565E+02 -0.80407425715E+02  0.12828781358E+03  0.17148285203E+03  0.00000000000E+00 0.  1.
         13    1    3    3    0    0  0.92758320558E+02 -0.17595543951E+03  0.47599059901E+03  0.51587932026E+03  0.00000000000E+00 0. -1.
        -14    1    3    3    0    0  0.13068592392E+03 -0.24961460722E+03  0.45374657609E+03  0.53410880742E+03  0.00000000000E+00 0.  1.
          4    1    6    6  502    0 -0.48514735344E+02  0.24053228666E+03  0.79440252908E+03  0.83143540860E+03  0.00000000000E+00 0. -1.
         -3    1    6    6    0  502 -0.47675307339E+02  0.30701454945E+03  0.74312493069E+03  0.80545982588E+03  0.00000000000E+00 0.  1.
<mgrwt>
<rscale>  0 0.60653690E+03</rscale>
<asrwt>0</asrwt>
<pdfrwt beam="1">  1        1 0.45120802E+00 0.60653690E+03</pdfrwt>
<pdfrwt beam="2">  1       -2 0.20947263E-01 0.60653690E+03</pdfrwt>
<totfact> 0.12549838E+01</totfact>
</mgrwt>
</event>
<event>
12    3  0.2212098E-007  0.8781698E+03  0.7818608E-02  0.9453289E-01
         -2   -1    0    0    0  501 -0.00000000000E+00  0.00000000000E+00  0.15629239487E+04  0.15629239487E+04  0.00000000000E+00 0.  1.
          1   -1    0    0  501    0  0.00000000000E+00 -0.00000000000E+00 -0.55847643136E+03  0.55847643136E+03  0.00000000000E+00 0. -1.
        -24    2    1    2    0    0  0.42208425329E+03 -0.70181869177E+03  0.26230294862E+03  0.86383848231E+03  0.81911499007E+02 0.  0.
    5000000    2    1    2    0    0 -0.42208425329E+03  0.70181869177E+03  0.74214456869E+03  0.12575618977E+04  0.59998231037E+03 0.  0.
        -24    2    4    4    0    0 -0.39369967540E+02 -0.39733808095E+02  0.28638200386E+03  0.30350201512E+03  0.83486832477E+02 0.  0.
         24    2    4    4    0    0 -0.38271428575E+03  0.74155249986E+03  0.45576256483E+03  0.95405988259E+03  0.78360765059E+02 0.  0.
         11    1    3    3    0    0  0.17322211049E+03 -0.35470928718E+03  0.10268574719E+03  0.40788348906E+03  0.00000000000E+00 0. -1.
        -12    1    3    3    0    0  0.24886214280E+03 -0.34710940459E+03  0.15961720143E+03  0.45595499325E+03  0.00000000000E+00 0.  1.
         13    1    5    5    0    0 -0.29827577753E+02 -0.64683778029E+02  0.23547049368E+03  0.24600818875E+03  0.00000000000E+00 0. -1.
        -14    1    5    5    0    0 -0.95423897872E+01  0.24949969935E+02  0.50911510178E+02  0.57493826375E+02  0.00000000000E+00 0.  1.
          2    1    6    6  502    0 -0.27448762195E+03  0.47091521384E+03  0.26851830123E+03  0.60762379095E+03  0.00000000000E+00 0. -1.
         -1    1    6    6    0  502 -0.10822666380E+03  0.27063728602E+03  0.18724426360E+03  0.34643609164E+03  0.00000000000E+00 0.  1.
<mgrwt>
<rscale>  0 0.87816983E+03</rscale>
<asrwt>0</asrwt>
<pdfrwt beam="1">  1        1 0.85919452E-01 0.87816983E+03</pdfrwt>
<pdfrwt beam="2">  1       -2 0.24044984E+00 0.87816983E+03</pdfrwt>
<totfact> 0.24848665E+00</totfact>
</mgrwt>
</event>
<event>
12    3  0.2212098E-007  0.1082314E+04  0.7818608E-02  0.9222603E-01
         -2   -1    0    0    0  501 -0.00000000000E+00  0.00000000000E+00  0.94910171454E+03  0.94910171454E+03  0.00000000000E+00 0.  1.
          1   -1    0    0  501    0  0.00000000000E+00 -0.00000000000E+00 -0.14592034578E+04  0.14592034578E+04  0.00000000000E+00 0. -1.
        -24    2    1    2    0    0  0.10213380177E+04  0.33627451863E+03 -0.46991376980E+03  0.11763414942E+04  0.82149020342E+02 0.  0.
    5000000    2    1    2    0    0 -0.10213380177E+04 -0.33627451863E+03 -0.40187973508E+02  0.12319636782E+04  0.59992293916E+03 0.  0.
        -24    2    4    4    0    0 -0.66899432789E+03 -0.23000484654E+03  0.25221817927E+03  0.75534462928E+03  0.80472721172E+02 0.  0.
         24    2    4    4    0    0 -0.35234368982E+03 -0.10626967209E+03 -0.29240615278E+03  0.47661904893E+03  0.78898926854E+02 0.  0.
         11    1    5    5    0    0 -0.31327733705E+03 -0.66147613078E+02  0.10538583708E+03  0.33708214323E+03  0.00000000000E+00 0. -1.
        -12    1    5    5    0    0 -0.35571699084E+03 -0.16385723346E+03  0.14683234219E+03  0.41826248606E+03  0.00000000000E+00 0.  1.
         13    1    3    3    0    0  0.83825735485E+03  0.24945941874E+03 -0.40286213331E+03  0.96291395930E+03  0.00000000000E+00 0. -1.
        -14    1    3    3    0    0  0.18308066286E+03  0.86815099888E+02 -0.67051636486E+02  0.21342753486E+03  0.00000000000E+00 0.  1.
          2    1    6    6  502    0 -0.12426938554E+03 -0.70392644338E+00 -0.11149430308E+03  0.16695614788E+03  0.00000000000E+00 0. -1.
         -1    1    6    6    0  502 -0.22807430428E+03 -0.10556574565E+03 -0.18091184970E+03  0.30966290105E+03  0.00000000000E+00 0.  1.
<mgrwt>
<rscale>  0 0.10823145E+04</rscale>
<asrwt>0</asrwt>
<pdfrwt beam="1">  1        1 0.22449284E+00 0.10823145E+04</pdfrwt>
<pdfrwt beam="2">  1       -2 0.14601565E+00 0.10823145E+04</pdfrwt>
<totfact> 0.19478745E+00</totfact>
</mgrwt>
</event>
<event>
12    3  0.2212098E-007  0.1184319E+04  0.7818608E-02  0.9126693E-01
          1   -1    0    0  501    0  0.00000000000E+00  0.00000000000E+00  0.35710465975E+03  0.35710465975E+03  0.00000000000E+00 0. -1.
         -2   -1    0    0    0  501 -0.00000000000E+00 -0.00000000000E+00 -0.42110211473E+04  0.42110211473E+04  0.00000000000E+00 0.  1.
        -24    2    1    2    0    0  0.45291109326E+03 -0.10586715515E+04 -0.18247762426E+04  0.21591097095E+04  0.77669103703E+02 0.  0.
    5000000    2    1    2    0    0 -0.45291109326E+03  0.10586715515E+04 -0.20291402449E+04  0.24090160975E+04  0.60002875959E+03 0.  0.
        -24    2    4    4    0    0 -0.32537826917E+03  0.32838342063E+03 -0.39999814598E+03  0.61703003542E+03  0.83790565268E+02 0.  0.
         24    2    4    4    0    0 -0.12753282409E+03  0.73028813086E+03 -0.16291420989E+04  0.17919860621E+04  0.86744988465E+02 0.  0.
         11    1    3    3    0    0  0.16866932747E+03 -0.46247971668E+03 -0.83100577171E+03  0.96587132838E+03  0.00000000000E+00 0. -1.
        -12    1    3    3    0    0  0.28424176579E+03 -0.59619183481E+03 -0.99377047091E+03  0.11932383811E+04  0.00000000000E+00 0.  1.
         11    1    5    5    0    0 -0.18135168432E+03  0.12433053616E+03 -0.17886195258E+03  0.28343978851E+03  0.00000000000E+00 0. -1.
        -12    1    5    5    0    0 -0.14402658485E+03  0.20405288447E+03 -0.22113619340E+03  0.33359024691E+03  0.00000000000E+00 0.  1.
          2    1    6    6  502    0 -0.88658735383E+02  0.26728355578E+03 -0.59686518111E+03  0.65996129808E+03  0.00000000000E+00 0. -1.
         -1    1    6    6    0  502 -0.38874088712E+02  0.46300457508E+03 -0.10322769178E+04  0.11320247640E+04  0.00000000000E+00 0.  1.
<mgrwt>
<rscale>  0 0.11843195E+04</rscale>
<asrwt>0</asrwt>
<pdfrwt beam="1">  1        1 0.54939180E-01 0.11843195E+04</pdfrwt>
<pdfrwt beam="2">  1       -2 0.64784939E+00 0.11843195E+04</pdfrwt>
<totfact> 0.20208223E-02</totfact>
</mgrwt>
</event>
<event>
12    3  0.2212098E-007  0.1299428E+04  0.7818608E-02  0.9030019E-01
          1   -1    0    0  501    0  0.00000000000E+00  0.00000000000E+00  0.12971830389E+04  0.12971830389E+04  0.00000000000E+00 0. -1.
         -2   -1    0    0    0  501 -0.00000000000E+00 -0.00000000000E+00 -0.16539256238E+04  0.16539256238E+04  0.00000000000E+00 0.  1.
        -24    2    1    2    0    0 -0.98571233736E+03 -0.81799446214E+03  0.40363208625E+03  0.13453382634E+04  0.79198672639E+02 0.  0.
    5000000    2    1    2    0    0  0.98571233736E+03  0.81799446214E+03 -0.76037467113E+03  0.16057703993E+04  0.59965421914E+03 0.  0.
        -24    2    4    4    0    0  0.81420046139E+03  0.77626432951E+03 -0.39937732249E+03  0.11961231926E+04  0.75496659878E+02 0.  0.
         24    2    4    4    0    0  0.17151187597E+03  0.41730132637E+02 -0.36099734864E+03  0.40964720663E+03  0.79586560458E+02 0.  0.
         11    1    3    3    0    0 -0.74008286436E+03 -0.64848414103E+03  0.28801632916E+03  0.10252842207E+04  0.00000000000E+00 0. -1.
        -12    1    3    3    0    0 -0.24562947300E+03 -0.16951032111E+03  0.11561575709E+03  0.32005404271E+03  0.00000000000E+00 0.  1.
         11    1    5    5    0    0  0.46413263622E+03  0.47759084553E+03 -0.26480892479E+03  0.71668395154E+03  0.00000000000E+00 0. -1.
        -12    1    5    5    0    0  0.35006782516E+03  0.29867348398E+03 -0.13456839770E+03  0.47943924110E+03  0.00000000000E+00 0.  1.
          2    1    6    6  502    0  0.15544031568E+03  0.59393094069E+02 -0.28539240551E+03  0.33036049474E+03  0.00000000000E+00 0. -1.
         -1    1    6    6    0  502  0.16071560292E+02 -0.17662961432E+02 -0.75604943128E+02  0.79286711888E+02  0.00000000000E+00 0.  1.
<mgrwt>
<rscale>  0 0.12994280E+04</rscale>
<asrwt>0</asrwt>
<pdfrwt beam="1">  1        1 0.19956662E+00 0.12994280E+04</pdfrwt>
<pdfrwt beam="2">  1       -2 0.25445009E+00 0.12994280E+04</pdfrwt>
<totfact> 0.46376249E-01</totfact>
</mgrwt>
</event>
<event>
12    3  0.2212098E-007  0.9024851E+03  0.7818608E-02  0.9422480E-01
         -2   -1    0    0    0  501 -0.00000000000E+00  0.00000000000E+00  0.13467948013E+04  0.13467948013E+04  0.00000000000E+00 0.  1.
          1   -1    0    0  501    0  0.00000000000E+00 -0.00000000000E+00 -0.88598024300E+03  0.88598024300E+03  0.00000000000E+00 0. -1.
        -24    2    1    2    0    0 -0.74332600585E+03  0.37962154148E+03  0.79136594090E+03  0.11529671674E+04  0.80169639079E+02 0.  0.
    5000000    2    1    2    0    0  0.74332600585E+03 -0.37962154148E+03 -0.33055138260E+03  0.10798078769E+04  0.60006230400E+03 0.  0.
        -24    2    4    4    0    0  0.72423202565E+03 -0.16753548526E+03 -0.96911540339E+02  0.75375575458E+03  0.78585781894E+02 0.  0.
         24    2    4    4    0    0  0.19093980201E+02 -0.21208605622E+03 -0.23363984226E+03  0.32605212229E+03  0.79858219572E+02 0.  0.
         11    1    3    3    0    0 -0.13226953062E+03  0.56075420827E+02  0.98967382848E+02  0.17445407539E+03  0.00000000000E+00 0. -1.
        -12    1    3    3    0    0 -0.61105647523E+03  0.32354612065E+03  0.69239855805E+03  0.97851309204E+03  0.00000000000E+00 0.  1.
         11    1    5    5    0    0  0.56318322345E+03 -0.15113718310E+03 -0.10115149157E+03  0.59181873538E+03  0.00000000000E+00 0. -1.
        -12    1    5    5    0    0  0.16104880220E+03 -0.16398302160E+02  0.42399512351E+01  0.16193701921E+03  0.00000000000E+00 0.  1.
          4    1    6    6  502    0  0.28074452904E+02 -0.25024772289E+02 -0.59094536970E+02  0.70046973051E+02  0.00000000000E+00 0. -1.
         -3    1    6    6    0  502 -0.89804727030E+01 -0.18706128393E+03 -0.17454530529E+03  0.25600514924E+03  0.00000000000E+00 0.  1.
<mgrwt>
<rscale>  0 0.90248507E+03</rscale>
<asrwt>0</asrwt>
<pdfrwt beam="1">  1        1 0.13630465E+00 0.90248507E+03</pdfrwt>
<pdfrwt beam="2">  1       -2 0.20719920E+00 0.90248507E+03</pdfrwt>
<totfact> 0.19732886E+00</totfact>
</mgrwt>
</event>
<event>
12    3  0.2212098E-007  0.5368349E+03  0.7818608E-02  0.1004588E+00
         -2   -1    0    0    0  501 -0.00000000000E+00  0.00000000000E+00  0.26326562281E+03  0.26326562281E+03  0.00000000000E+00 0.  1.
          1   -1    0    0  501    0  0.00000000000E+00 -0.00000000000E+00 -0.12536603828E+04  0.12536603828E+04  0.00000000000E+00 0. -1.
        -24    2    1    2    0    0  0.15250559752E+03  0.36409051731E+03 -0.20191750515E+03  0.45039107058E+03  0.79130117525E+02 0.  0.
    5000000    2    1    2    0    0 -0.15250559752E+03 -0.36409051731E+03 -0.78847725482E+03  0.10665349350E+04  0.59998376994E+03 0.  0.
        -24    2    4    4    0    0 -0.17327331733E+03  0.10567779944E+03 -0.38155675504E+03  0.43960272029E+03  0.80458402746E+02 0.  0.
         24    2    4    4    0    0  0.20767719811E+02 -0.46976831675E+03 -0.40692049978E+03  0.62693221474E+03  0.79662658330E+02 0.  0.
         13    1    3    3    0    0  0.86865294233E+02  0.24924069707E+03 -0.17114573526E+03  0.31457489906E+03  0.00000000000E+00 0. -1.
        -14    1    3    3    0    0  0.65640303287E+02  0.11484982024E+03 -0.30771769893E+02  0.13581617152E+03  0.00000000000E+00 0.  1.
         13    1    5    5    0    0 -0.11037210636E+03  0.64768413968E+02 -0.15532972341E+03  0.20125673228E+03  0.00000000000E+00 0. -1.
        -14    1    5    5    0    0 -0.62901210967E+02  0.40909385467E+02 -0.22622703163E+03  0.23834598801E+03  0.00000000000E+00 0.  1.
          2    1    6    6  502    0 -0.19897683675E+02 -0.26005042532E+03 -0.25533502223E+03  0.36499056851E+03  0.00000000000E+00 0. -1.
         -1    1    6    6    0  502  0.40665403486E+02 -0.20971789143E+03 -0.15158547755E+03  0.26194164623E+03  0.00000000000E+00 0.  1.
<mgrwt>
<rscale>  0 0.53683490E+03</rscale>
<asrwt>0</asrwt>
<pdfrwt beam="1">  1        1 0.19287083E+00 0.53683490E+03</pdfrwt>
<pdfrwt beam="2">  1       -2 0.40502404E-01 0.53683490E+03</pdfrwt>
<totfact> 0.51832408E+01</totfact>
</mgrwt>
</event>
<event>
12    3  0.2212098E-007  0.7926464E+03  0.7818608E-02  0.9570723E-01
         -4   -1    0    0    0  501 -0.00000000000E+00  0.00000000000E+00  0.60697435678E+03  0.60697435678E+03  0.00000000000E+00 0.  1.
          1   -1    0    0  501    0  0.00000000000E+00 -0.00000000000E+00 -0.13203565522E+04  0.13203565522E+04  0.00000000000E+00 0. -1.
        -24    2    1    2    0    0  0.70723747739E+03  0.31466848587E+03 -0.50025421170E+03  0.92496588614E+03  0.78144153799E+02 0.  0.
    5000000    2    1    2    0    0 -0.70723747739E+03 -0.31466848587E+03 -0.21312798372E+03  0.10023650228E+04  0.60009248967E+03 0.  0.
        -24    2    4    4    0    0 -0.21836998909E+03 -0.20998298807E+03 -0.35762667854E+03  0.47559840335E+03  0.80738421135E+02 0.  0.
         24    2    4    4    0    0 -0.48886748830E+03 -0.10468549780E+03  0.14449869482E+03  0.52676661950E+03  0.81564232630E+02 0.  0.
         13    1    3    3    0    0  0.45852877562E+03  0.17300047832E+03 -0.34508631354E+03  0.59938499094E+03  0.00000000000E+00 0. -1.
        -14    1    3    3    0    0  0.24870870177E+03  0.14166800755E+03 -0.15516789816E+03  0.32558089520E+03  0.00000000000E+00 0.  1.
         13    1    5    5    0    0 -0.15368228678E+03 -0.12437075928E+03 -0.17625532861E+03  0.26486274161E+03  0.00000000000E+00 0. -1.
        -14    1    5    5    0    0 -0.64687702313E+02 -0.85612228793E+02 -0.18137134994E+03  0.21073566174E+03  0.00000000000E+00 0.  1.
          2    1    6    6  502    0 -0.46034433544E+03 -0.11349414138E+03  0.12254007652E+03  0.48970797181E+03  0.00000000000E+00 0. -1.
         -1    1    6    6    0  502 -0.28523152863E+02  0.88086435801E+01  0.21958618302E+02  0.37058647691E+02  0.00000000000E+00 0.  1.
<mgrwt>
<rscale>  0 0.79264642E+03</rscale>
<asrwt>0</asrwt>
<pdfrwt beam="1">  1        1 0.20313177E+00 0.79264642E+03</pdfrwt>
<pdfrwt beam="2">  1       -4 0.93380672E-01 0.79264642E+03</pdfrwt>
<totfact> 0.41411038E+00</totfact>
</mgrwt>
</event>
<event>
12    3  0.2212098E-007  0.1371178E+04  0.7818608E-02  0.8974950E-01
          1   -1    0    0  501    0  0.00000000000E+00  0.00000000000E+00  0.16627022275E+04  0.16627022275E+04  0.00000000000E+00 0. -1.
         -2   -1    0    0    0  501 -0.00000000000E+00 -0.00000000000E+00 -0.12277079432E+04  0.12277079432E+04  0.00000000000E+00 0.  1.
        -24    2    1    2    0    0  0.10681880190E+04 -0.77651760863E+03  0.55551681255E+03  0.14349465546E+04  0.80420427895E+02 0.  0.
    5000000    2    1    2    0    0 -0.10681880190E+04  0.77651760863E+03 -0.12052252820E+03  0.14554636160E+04  0.59986950030E+03 0.  0.
        -24    2    4    4    0    0 -0.89797525602E+03  0.36460324301E+03  0.47373671327E+02  0.97315062716E+03  0.74045885647E+02 0.  0.
         24    2    4    4    0    0 -0.17021276296E+03  0.41191436561E+03 -0.16789619953E+03  0.48231298886E+03  0.76097674987E+02 0.  0.
         11    1    5    5    0    0 -0.52097835738E+03  0.18829031322E+03  0.56727430259E+02  0.55685697648E+03  0.00000000000E+00 0. -1.
        -12    1    5    5    0    0 -0.37699689864E+03  0.17631292979E+03 -0.93537589326E+01  0.41629365068E+03  0.00000000000E+00 0.  1.
         13    1    3    3    0    0  0.39257628060E+03 -0.33379059254E+03  0.21407779273E+03  0.55799784686E+03  0.00000000000E+00 0. -1.
        -14    1    3    3    0    0  0.67561173837E+03 -0.44272701609E+03  0.34143901982E+03  0.87694870777E+03  0.00000000000E+00 0.  1.
          2    1    6    6  502    0 -0.29906924583E+02  0.14024776313E+03 -0.28175160952E+02  0.14614273466E+03  0.00000000000E+00 0. -1.
         -1    1    6    6    0  502 -0.14030583837E+03  0.27166660249E+03 -0.13972103858E+03  0.33617025420E+03  0.00000000000E+00 0.  1.
<mgrwt>
<rscale>  0 0.13711778E+04</rscale>
<asrwt>0</asrwt>
<pdfrwt beam="1">  1        1 0.25580034E+00 0.13711778E+04</pdfrwt>
<pdfrwt beam="2">  1       -2 0.18887815E+00 0.13711778E+04</pdfrwt>
<totfact> 0.66832006E-01</totfact>
</mgrwt>
</event>
<event>
12    3  0.2212098E-007  0.7064643E+03  0.7818608E-02  0.9706241E-01
         -4   -1    0    0    0  501 -0.00000000000E+00  0.00000000000E+00  0.79245352175E+03  0.79245352175E+03  0.00000000000E+00 0.  1.
          3   -1    0    0  501    0  0.00000000000E+00 -0.00000000000E+00 -0.85497028534E+03  0.85497028534E+03  0.00000000000E+00 0. -1.
        -24    2    1    2    0    0  0.27747506987E+03 -0.55373604744E+03 -0.37673844757E+03  0.72966336349E+03  0.82829593201E+02 0.  0.
    5000000    2    1    2    0    0 -0.27747506987E+03  0.55373604744E+03  0.31422168398E+03  0.91776044360E+03  0.59994411450E+03 0.  0.
        -24    2    4    4    0    0 -0.18026363077E+03 -0.34440063260E+02 -0.60729050145E+02  0.20897700954E+03  0.79386890908E+02 0.  0.
         24    2    4    4    0    0 -0.97211439101E+02  0.58817611070E+03  0.37495073412E+03  0.70878343406E+03  0.79904332131E+02 0.  0.
         11    1    5    5    0    0 -0.14819330610E+03  0.82898405447E+00 -0.27135578849E+02  0.15065949299E+03  0.00000000000E+00 0. -1.
        -12    1    5    5    0    0 -0.32070324669E+02 -0.35269047315E+02 -0.33593471296E+02  0.58317516550E+02  0.00000000000E+00 0.  1.
         13    1    3    3    0    0  0.87062771664E+02 -0.21863263130E+03 -0.10278160233E+03  0.25679605031E+03  0.00000000000E+00 0. -1.
        -14    1    3    3    0    0  0.19041229821E+03 -0.33510341614E+03 -0.27395684525E+03  0.47286731318E+03  0.00000000000E+00 0.  1.
          2    1    6    6  502    0 -0.79153105020E+02  0.44310883763E+03  0.24135701049E+03  0.51074833581E+03  0.00000000000E+00 0. -1.
         -1    1    6    6    0  502 -0.18058334080E+02  0.14506727307E+03  0.13359372364E+03  0.19803509825E+03  0.00000000000E+00 0.  1.
<mgrwt>
<rscale>  0 0.70646426E+03</rscale>
<asrwt>0</asrwt>
<pdfrwt beam="1">  1        3 0.13153389E+00 0.70646426E+03</pdfrwt>
<pdfrwt beam="2">  1       -4 0.12191593E+00 0.70646426E+03</pdfrwt>
<totfact> 0.51759498E-01</totfact>
</mgrwt>
</event>
<event>
12    3  0.2212098E-007  0.4104084E+03  0.7818608E-02  0.1040234E+00
          3   -1    0    0  501    0  0.00000000000E+00  0.00000000000E+00  0.15664521095E+04  0.15664521095E+04  0.00000000000E+00 0. -1.
         -4   -1    0    0    0  501 -0.00000000000E+00 -0.00000000000E+00 -0.23587827034E+03  0.23587827034E+03  0.00000000000E+00 0.  1.
        -24    2    1    2    0    0 -0.25534193328E+03  0.22830226978E+03  0.95119051352E+03  0.10141067037E+04  0.79546113479E+02 0.  0.
    5000000    2    1    2    0    0  0.25534193328E+03 -0.22830226978E+03  0.37938332569E+03  0.78822367619E+03  0.60003618776E+03 0.  0.
        -24    2    4    4    0    0  0.93765873493E+02  0.70955014078E+02 -0.11558056329E+03  0.18252228180E+03  0.78287059526E+02 0.  0.
         24    2    4    4    0    0  0.16157605979E+03 -0.29925728386E+03  0.49496388898E+03  0.60570139439E+03  0.78887151857E+02 0.  0.
         11    1    3    3    0    0 -0.11385443725E+03  0.52355109104E+02  0.31291925983E+03  0.33707915020E+03  0.00000000000E+00 0. -1.
        -12    1    3    3    0    0 -0.14148749603E+03  0.17594716068E+03  0.63827125369E+03  0.67702755348E+03  0.00000000000E+00 0.  1.
         13    1    5    5    0    0  0.45777655690E+02  0.88263731583E+01 -0.49702642529E+01  0.46884988539E+02  0.00000000000E+00 0. -1.
        -14    1    5    5    0    0  0.47988217803E+02  0.62128640920E+02 -0.11061029904E+03  0.13563729327E+03  0.00000000000E+00 0.  1.
          2    1    6    6  502    0  0.11248475225E+03 -0.15010558736E+03  0.22045970154E+03  0.28945981906E+03  0.00000000000E+00 0. -1.
         -1    1    6    6    0  502  0.49091307534E+02 -0.14915169650E+03  0.27450418744E+03  0.31624157533E+03  0.00000000000E+00 0.  1.
<mgrwt>
<rscale>  0 0.41040841E+03</rscale>
<asrwt>0</asrwt>
<pdfrwt beam="1">  1        3 0.24099263E+00 0.41040841E+03</pdfrwt>
<pdfrwt beam="2">  1       -4 0.36288966E-01 0.41040841E+03</pdfrwt>
<totfact> 0.14334232E+00</totfact>
</mgrwt>
</event>
<event>
12    3  0.2212098E-007  0.4827981E+03  0.7818608E-02  0.1018369E+00
          1   -1    0    0  501    0  0.00000000000E+00  0.00000000000E+00  0.14586468648E+04  0.14586468648E+04  0.00000000000E+00 0. -1.
         -4   -1    0    0    0  501 -0.00000000000E+00 -0.00000000000E+00 -0.16806938188E+03  0.16806938188E+03  0.00000000000E+00 0.  1.
        -24    2    1    2    0    0  0.30622693300E+03  0.19515735501E+02  0.41747337309E+03  0.52412556991E+03  0.79169421942E+02 0.  0.
    5000000    2    1    2    0    0 -0.30622693300E+03 -0.19515735501E+02  0.87310410987E+03  0.11025906768E+04  0.59936601130E+03 0.  0.
        -24    2    4    4    0    0 -0.27108664490E+03 -0.27882197823E+03  0.56488935857E+03  0.69061365352E+03  0.81348425984E+02 0.  0.
         24    2    4    4    0    0 -0.35140288102E+02  0.25930624273E+03  0.30821475129E+03  0.41197702329E+03  0.79083294305E+02 0.  0.
         13    1    5    5    0    0 -0.11889535633E+03 -0.17599578461E+03  0.27566153302E+03  0.34799411309E+03  0.00000000000E+00 0. -1.
        -14    1    5    5    0    0 -0.15219128857E+03 -0.10282619363E+03  0.28922782555E+03  0.34261954043E+03  0.00000000000E+00 0.  1.
         13    1    3    3    0    0  0.77562529684E+02  0.13960577369E+02  0.16858721344E+03  0.18609807164E+03  0.00000000000E+00 0. -1.
        -14    1    3    3    0    0  0.22866440332E+03  0.55551581322E+01  0.24888615965E+03  0.33802749828E+03  0.00000000000E+00 0.  1.
          2    1    6    6  502    0 -0.10569078595E+01  0.43235572017E+02  0.14205973081E+02  0.45521878400E+02  0.00000000000E+00 0. -1.
         -1    1    6    6    0  502 -0.34083380242E+02  0.21607067072E+03  0.29400877821E+03  0.36645514489E+03  0.00000000000E+00 0.  1.
<mgrwt>
<rscale>  0 0.48279812E+03</rscale>
<asrwt>0</asrwt>
<pdfrwt beam="1">  1        1 0.22440720E+00 0.48279812E+03</pdfrwt>
<pdfrwt beam="2">  1       -4 0.25856829E-01 0.48279812E+03</pdfrwt>
<totfact> 0.50510788E+01</totfact>
</mgrwt>
</event>
<event>
12    3  0.2624442E-007  0.1333043E+04  0.7818608E-02  0.9003764E-01
         -2   -1    0    0    0  501 -0.00000000000E+00  0.00000000000E+00  0.21006325435E+04  0.21006325435E+04  0.00000000000E+00 0.  1.
          1   -1    0    0  501    0  0.00000000000E+00 -0.00000000000E+00 -0.99797749059E+03  0.99797749059E+03  0.00000000000E+00 0. -1.
        -24    2    1    2    0    0  0.77877022378E+03 -0.99673781230E+03  0.11305546292E+04  0.16983543166E+04  0.79273495600E+02 0.  0.
    5000000    2    1    2    0    0 -0.77877022378E+03  0.99673781230E+03 -0.27899576305E+02  0.14002557175E+04  0.59997363285E+03 0.  0.
        -24    2    4    4    0    0 -0.82833539528E+03  0.69284354339E+03 -0.16222484596E+02  0.10829502530E+04  0.79664162021E+02 0.  0.
         24    2    4    4    0    0  0.49565171498E+02  0.30389426891E+03 -0.11677091710E+02  0.31730546453E+03  0.75749392402E+02 0.  0.
         11    1    5    5    0    0 -0.28670501865E+03  0.19218537526E+03 -0.11709605378E+02  0.34535793178E+03  0.00000000000E+00 0. -1.
        -12    1    5    5    0    0 -0.54163037663E+03  0.50065816813E+03 -0.45128792172E+01  0.73759232119E+03  0.00000000000E+00 0.  1.
         13    1    3    3    0    0  0.10810524125E+03 -0.17600409118E+03  0.20891393219E+03  0.29378429904E+03  0.00000000000E+00 0. -1.
        -14    1    3    3    0    0  0.67066498253E+03 -0.82073372112E+03  0.92164069701E+03  0.14045700175E+04  0.00000000000E+00 0.  1.
          2    1    6    6  502    0  0.36821738309E+02  0.47114916196E+02  0.21845501964E+01  0.59836677714E+02  0.00000000000E+00 0. -1.
         -1    1    6    6    0  502  0.12743433189E+02  0.25677935271E+03 -0.13861641906E+02  0.25746878682E+03  0.00000000000E+00 0.  1.
<mgrwt>
<rscale>  0 0.13330433E+04</rscale>
<asrwt>0</asrwt>
<pdfrwt beam="1">  1        1 0.15353500E+00 0.13330433E+04</pdfrwt>
<pdfrwt beam="2">  1       -2 0.32317424E+00 0.13330433E+04</pdfrwt>
<totfact> 0.29468763E-01</totfact>
</mgrwt>
</event>
<event>
12    3  0.2212098E-007  0.5724038E+03  0.7818608E-02  0.9964373E-01
         -2   -1    0    0    0  501 -0.00000000000E+00  0.00000000000E+00  0.73906298861E+03  0.73906298861E+03  0.00000000000E+00 0.  1.
          1   -1    0    0  501    0  0.00000000000E+00 -0.00000000000E+00 -0.55259372104E+03  0.55259372104E+03  0.00000000000E+00 0. -1.
        -24    2    1    2    0    0 -0.30007161972E+03 -0.32148213621E+03  0.30110179211E+03  0.53901222086E+03  0.80486919169E+02 0.  0.
    5000000    2    1    2    0    0  0.30007161972E+03  0.32148213621E+03 -0.11463252455E+03  0.75264448879E+03  0.59994947284E+03 0.  0.
        -24    2    4    4    0    0  0.18591394588E+02 -0.14992088604E+03  0.42592404349E+02  0.17595215196E+03  0.79518141609E+02 0.  0.
         24    2    4    4    0    0  0.28148022513E+03  0.47140302226E+03 -0.15722492890E+03  0.57669233683E+03  0.80015289538E+02 0.  0.
         11    1    5    5    0    0  0.35705456078E+01 -0.60011397959E+02 -0.22232538111E+02  0.64096820761E+02  0.00000000000E+00 0. -1.
        -12    1    5    5    0    0  0.15020848980E+02 -0.89909488086E+02  0.64824942460E+02  0.11185533120E+03  0.00000000000E+00 0.  1.
         11    1    3    3    0    0 -0.41116263761E+02 -0.19089312543E+02  0.53732557367E+02  0.70300332291E+02  0.00000000000E+00 0. -1.
        -12    1    3    3    0    0 -0.25895535596E+03 -0.30239282367E+03  0.24736923474E+03  0.46871188857E+03  0.00000000000E+00 0.  1.
          4    1    6    6  502    0  0.23411543192E+03  0.41450401484E+03 -0.10909862295E+03  0.48839136285E+03  0.00000000000E+00 0. -1.
         -3    1    6    6    0  502  0.47364793212E+02  0.56899007419E+02 -0.48126305949E+02  0.88300973979E+02  0.00000000000E+00 0.  1.
<mgrwt>
<rscale>  0 0.57240381E+03</rscale>
<asrwt>0</asrwt>
<pdfrwt beam="1">  1        1 0.85014419E-01 0.57240381E+03</pdfrwt>
<pdfrwt beam="2">  1       -2 0.11370200E+00 0.57240381E+03</pdfrwt>
<totfact> 0.21194007E+01</totfact>
</mgrwt>
</event>
<event>
12    3  0.2212098E-007  0.5845232E+03  0.7818608E-02  0.9938046E-01
          1   -1    0    0  501    0  0.00000000000E+00  0.00000000000E+00  0.22530933458E+04  0.22530933458E+04  0.00000000000E+00 0. -1.
         -2   -1    0    0    0  501 -0.00000000000E+00 -0.00000000000E+00 -0.17981263841E+03  0.17981263841E+03  0.00000000000E+00 0.  1.
        -24    2    1    2    0    0  0.99005405372E+02 -0.44193103131E+03  0.11753835383E+04  0.12619030341E+04  0.75945366011E+02 0.  0.
    5000000    2    1    2    0    0 -0.99005405372E+02  0.44193103131E+03  0.89789716905E+03  0.11710029501E+04  0.59993622678E+03 0.  0.
        -24    2    4    4    0    0 -0.24431736797E+03  0.12780764864E+02  0.16390176108E+03  0.30478182781E+03  0.78573857200E+02 0.  0.
         24    2    4    4    0    0  0.14531196260E+03  0.42915026644E+03  0.73399540797E+03  0.86622112228E+03  0.79399345751E+02 0.  0.
         13    1    5    5    0    0 -0.11855180682E+03  0.44442018627E+02  0.91898803448E+02  0.15644492320E+03  0.00000000000E+00 0. -1.
        -14    1    5    5    0    0 -0.12576556115E+03 -0.31661253764E+02  0.72002957634E+02  0.14833690461E+03  0.00000000000E+00 0.  1.
         13    1    3    3    0    0  0.31232438318E+02 -0.30322301337E+03  0.77850218752E+03  0.83605341756E+03  0.00000000000E+00 0. -1.
        -14    1    3    3    0    0  0.67772967054E+02 -0.13870801794E+03  0.39688135082E+03  0.42584961657E+03  0.00000000000E+00 0.  1.
          4    1    6    6  502    0  0.21766366682E+02  0.89837539523E+02  0.96993806522E+02  0.13398640502E+03  0.00000000000E+00 0. -1.
         -3    1    6    6    0  502  0.12354559592E+03  0.33931272692E+03  0.63700160145E+03  0.73223471726E+03  0.00000000000E+00 0.  1.
<mgrwt>
<rscale>  0 0.58452316E+03</rscale>
<asrwt>0</asrwt>
<pdfrwt beam="1">  1        1 0.34662973E+00 0.58452316E+03</pdfrwt>
<pdfrwt beam="2">  1       -2 0.27663484E-01 0.58452316E+03</pdfrwt>
<totfact> 0.22405518E+01</totfact>
</mgrwt>
</event>
<event>
12    3  0.2212098E-007  0.1450411E+04  0.7818608E-02  0.8918116E-01
         -2   -1    0    0    0  501 -0.00000000000E+00  0.00000000000E+00  0.40324423908E+04  0.40324423908E+04  0.00000000000E+00 0.  1.
          1   -1    0    0  501    0  0.00000000000E+00 -0.00000000000E+00 -0.55121636001E+03  0.55121636001E+03  0.00000000000E+00 0. -1.
        -24    2    1    2    0    0 -0.70004580048E+03  0.12005508399E+04  0.21847551294E+04  0.25906165889E+04  0.82175990722E+02 0.  0.
    5000000    2    1    2    0    0  0.70004580048E+03 -0.12005508399E+04  0.12964709014E+04  0.19930421619E+04  0.59999484922E+03 0.  0.
        -24    2    4    4    0    0  0.61484061109E+03 -0.48491515597E+03  0.72343252839E+03  0.10690466553E+04  0.79589211270E+02 0.  0.
         24    2    4    4    0    0  0.85205189391E+02 -0.71563568390E+03  0.57303837303E+03  0.92399550662E+03  0.77462009534E+02 0.  0.
         11    1    3    3    0    0 -0.30730711390E+03  0.54630753456E+03  0.10595463121E+04  0.12310678178E+04  0.00000000000E+00 0. -1.
        -12    1    3    3    0    0 -0.39273868658E+03  0.65424330531E+03  0.11252088173E+04  0.13595487711E+04  0.00000000000E+00 0.  1.
         13    1    5    5    0    0  0.27452560897E+02 -0.43189797017E+02  0.60968944373E+02  0.79600338216E+02  0.00000000000E+00 0. -1.
        -14    1    5    5    0    0  0.58738805019E+03 -0.44172535896E+03  0.66246358402E+03  0.98944631709E+03  0.00000000000E+00 0.  1.
          2    1    6    6  502    0  0.32589656548E+02 -0.55136971539E+03  0.43357259072E+03  0.70217935044E+03  0.00000000000E+00 0. -1.
         -1    1    6    6    0  502  0.52615532843E+02 -0.16426596851E+03  0.13946578231E+03  0.22181615618E+03  0.00000000000E+00 0.  1.
<mgrwt>
<rscale>  0 0.14504109E+04</rscale>
<asrwt>0</asrwt>
<pdfrwt beam="1">  1        1 0.84802519E-01 0.14504109E+04</pdfrwt>
<pdfrwt beam="2">  1       -2 0.62037573E+00 0.14504109E+04</pdfrwt>
<totfact> 0.13441691E-02</totfact>
</mgrwt>
</event>
<event>
12    3  0.2212098E-007  0.3946585E+03  0.7818608E-02  0.1045645E+00
         -2   -1    0    0    0  501 -0.00000000000E+00  0.00000000000E+00  0.46251650363E+03  0.46251650363E+03  0.00000000000E+00 0.  1.
          1   -1    0    0  501    0  0.00000000000E+00 -0.00000000000E+00 -0.12530938634E+04  0.12530938634E+04  0.00000000000E+00 0. -1.
        -24    2    1    2    0    0  0.37680866059E+03 -0.77245217135E+02 -0.91173738251E+03  0.99279420273E+03  0.80147888527E+02 0.  0.
    5000000    2    1    2    0    0 -0.37680866059E+03  0.77245217135E+02  0.12116002277E+03  0.72281616428E+03  0.59985987193E+03 0.  0.
        -24    2    4    4    0    0 -0.11966264449E+03  0.59644570462E+02 -0.23177302886E+03  0.27870409623E+03  0.77978285916E+02 0.  0.
         24    2    4    4    0    0 -0.25714601610E+03  0.17600646673E+02  0.35293305163E+03  0.44411206805E+03  0.78993250953E+02 0.  0.
         13    1    3    3    0    0  0.23517523698E+03 -0.19189711843E+02 -0.61910427461E+03  0.66254489657E+03  0.00000000000E+00 0. -1.
        -14    1    3    3    0    0  0.14163342362E+03 -0.58055505292E+02 -0.29263310790E+03  0.33024930616E+03  0.00000000000E+00 0.  1.
         13    1    5    5    0    0 -0.16007160989E+02  0.15839601475E+02 -0.11247041085E+03  0.11470272662E+03  0.00000000000E+00 0. -1.
        -14    1    5    5    0    0 -0.10365548350E+03  0.43804968987E+02 -0.11930261801E+03  0.16400136960E+03  0.00000000000E+00 0.  1.
          4    1    6    6  502    0 -0.18650165078E+03 -0.15657051045E+02  0.28301565994E+03  0.33930203766E+03  0.00000000000E+00 0. -1.
         -3    1    6    6    0  502 -0.70644365324E+02  0.33257697718E+02  0.69917391689E+02  0.10481003039E+03  0.00000000000E+00 0.  1.
<mgrwt>
<rscale>  0 0.39465847E+03</rscale>
<asrwt>0</asrwt>
<pdfrwt beam="1">  1        1 0.19278367E+00 0.39465847E+03</pdfrwt>
<pdfrwt beam="2">  1       -2 0.71156387E-01 0.39465847E+03</pdfrwt>
<totfact> 0.16735671E+01</totfact>
</mgrwt>
</event>
<event>
12    3  0.2212098E-007  0.4371866E+03  0.7818608E-02  0.1031614E+00
         -2   -1    0    0    0  501 -0.00000000000E+00  0.00000000000E+00  0.25633436831E+03  0.25633436831E+03  0.00000000000E+00 0.  1.
          1   -1    0    0  501    0  0.00000000000E+00 -0.00000000000E+00 -0.17723464068E+04  0.17723464068E+04  0.00000000000E+00 0. -1.
        -24    2    1    2    0    0 -0.23277247492E+03 -0.32519647764E+03 -0.11499452635E+04  0.12199858426E+04  0.77817562324E+02 0.  0.
    5000000    2    1    2    0    0  0.23277247492E+03  0.32519647764E+03 -0.36606677501E+03  0.80869493250E+03  0.60003902868E+03 0.  0.
        -24    2    4    4    0    0 -0.11908574925E+02  0.52691236939E+02 -0.41961047559E+03  0.42997879064E+03  0.76750430396E+02 0.  0.
         24    2    4    4    0    0  0.24468104985E+03  0.27250524070E+03  0.53543700580E+02  0.37871614186E+03  0.80193926658E+02 0.  0.
         13    1    3    3    0    0 -0.10427342241E+03 -0.21158607147E+03 -0.67096673467E+03  0.71122287034E+03  0.00000000000E+00 0. -1.
        -14    1    3    3    0    0 -0.12849905251E+03 -0.11361040617E+03 -0.47897852880E+03  0.50876297225E+03  0.00000000000E+00 0.  1.
         13    1    5    5    0    0  0.11139282577E+02 -0.16818124186E+02 -0.10914956100E+03  0.11099801612E+03  0.00000000000E+00 0. -1.
        -14    1    5    5    0    0 -0.23047857502E+02  0.69509361125E+02 -0.31046091459E+03  0.31898077451E+03  0.00000000000E+00 0.  1.
          2    1    6    6  502    0  0.61407403027E+02  0.26714902197E+02 -0.26142682881E+01  0.67017830050E+02  0.00000000000E+00 0. -1.
         -1    1    6    6    0  502  0.18327364682E+03  0.24579033850E+03  0.56157968868E+02  0.31169831181E+03  0.00000000000E+00 0.  1.
<mgrwt>
<rscale>  0 0.43718664E+03</rscale>
<asrwt>0</asrwt>
<pdfrwt beam="1">  1        1 0.27266868E+00 0.43718664E+03</pdfrwt>
<pdfrwt beam="2">  1       -2 0.39436057E-01 0.43718664E+03</pdfrwt>
<totfact> 0.24704853E+01</totfact>
</mgrwt>
</event>
<event>
12    3  0.2212098E-007  0.7549930E+03  0.7818608E-02  0.9627550E-01
          1   -1    0    0  501    0  0.00000000000E+00  0.00000000000E+00  0.82284548502E+03  0.82284548502E+03  0.00000000000E+00 0. -1.
         -2   -1    0    0    0  501 -0.00000000000E+00 -0.00000000000E+00 -0.82563819966E+03  0.82563819966E+03  0.00000000000E+00 0.  1.
        -24    2    1    2    0    0 -0.49634644270E+03  0.41615956683E+03 -0.29770961630E+03  0.71757728268E+03  0.82082670080E+02 0.  0.
    5000000    2    1    2    0    0  0.49634644270E+03 -0.41615956683E+03  0.29491690167E+03  0.93090640201E+03  0.60005180956E+03 0.  0.
        -24    2    4    4    0    0  0.43410416720E+03 -0.25949583041E+01  0.24032806741E+03  0.50267146831E+03  0.80423027002E+02 0.  0.
         24    2    4    4    0    0  0.62242275496E+02 -0.41356460853E+03  0.54588834260E+02  0.42823493370E+03  0.74131176515E+02 0.  0.
         13    1    3    3    0    0 -0.42040582800E+03  0.38681696197E+03 -0.26647680075E+03  0.63037949493E+03  0.00000000000E+00 0. -1.
        -14    1    3    3    0    0 -0.75940614698E+02  0.29342604855E+02 -0.31232815550E+02  0.87197787745E+02  0.00000000000E+00 0.  1.
         13    1    5    5    0    0  0.91516493488E+02  0.25636545474E+02  0.29913371074E+02  0.99635891189E+02  0.00000000000E+00 0. -1.
        -14    1    5    5    0    0  0.34258767372E+03 -0.28231503778E+02  0.21041469634E+03  0.40303557712E+03  0.00000000000E+00 0.  1.
          4    1    6    6  502    0  0.11994650804E+02 -0.12669776581E+03 -0.16827954315E+02  0.12837202014E+03  0.00000000000E+00 0. -1.
         -3    1    6    6    0  502  0.50247624692E+02 -0.28686684272E+03  0.71416788575E+02  0.29986291356E+03  0.00000000000E+00 0.  1.
<mgrwt>
<rscale>  0 0.75499296E+03</rscale>
<asrwt>0</asrwt>
<pdfrwt beam="1">  1        1 0.12659161E+00 0.75499296E+03</pdfrwt>
<pdfrwt beam="2">  1       -2 0.12702126E+00 0.75499296E+03</pdfrwt>
<totfact> 0.87084026E+00</totfact>
</mgrwt>
</event>
<event>
12    3  0.2212098E-007  0.1099348E+04  0.7818608E-02  0.9205828E-01
         -2   -1    0    0    0  501 -0.00000000000E+00  0.00000000000E+00  0.11440839126E+04  0.11440839126E+04  0.00000000000E+00 0.  1.
          1   -1    0    0  501    0  0.00000000000E+00 -0.00000000000E+00 -0.12059982844E+04  0.12059982844E+04  0.00000000000E+00 0. -1.
        -24    2    1    2    0    0 -0.49460400254E+03 -0.95640912769E+03  0.17790658676E+03  0.10942643648E+04  0.80076261842E+02 0.  0.
    5000000    2    1    2    0    0  0.49460400254E+03  0.95640912769E+03 -0.23982095859E+03  0.12558178322E+04  0.60017730434E+03 0.  0.
        -24    2    4    4    0    0  0.21336592194E+03  0.15868826112E+03 -0.29399791449E+03  0.40414997349E+03  0.78711158560E+02 0.  0.
         24    2    4    4    0    0  0.28123808060E+03  0.79772086657E+03  0.54176955898E+02  0.85166785872E+03  0.83364021494E+02 0.  0.
         13    1    3    3    0    0 -0.16256975868E+03 -0.36071662685E+03  0.98040858052E+02  0.40762411750E+03  0.00000000000E+00 0. -1.
        -14    1    3    3    0    0 -0.33203424387E+03 -0.59569250084E+03  0.79865728705E+02  0.68664024735E+03  0.00000000000E+00 0.  1.
         13    1    5    5    0    0  0.41738769875E+01  0.24629659000E+02 -0.50109659543E+02  0.55991243343E+02  0.00000000000E+00 0. -1.
        -14    1    5    5    0    0  0.20919204496E+03  0.13405860211E+03 -0.24388825495E+03  0.34815873014E+03  0.00000000000E+00 0.  1.
          4    1    6    6  502    0  0.13128959695E+03  0.29253012725E+03  0.51077983803E+02  0.32468414504E+03  0.00000000000E+00 0. -1.
         -3    1    6    6    0  502  0.14994848365E+03  0.50519073933E+03  0.30989720948E+01  0.52698371367E+03  0.00000000000E+00 0.  1.
<mgrwt>
<rscale>  0 0.10993480E+04</rscale>
<asrwt>0</asrwt>
<pdfrwt beam="1">  1        1 0.18553820E+00 0.10993480E+04</pdfrwt>
<pdfrwt beam="2">  1       -2 0.17601291E+00 0.10993480E+04</pdfrwt>
<totfact> 0.17663423E+00</totfact>
</mgrwt>
</event>
<event>
12    3  0.2212098E-007  0.8221924E+03  0.7818608E-02  0.9528439E-01
          1   -1    0    0  501    0  0.00000000000E+00  0.00000000000E+00  0.13653813550E+04  0.13653813550E+04  0.00000000000E+00 0. -1.
         -2   -1    0    0    0  501 -0.00000000000E+00 -0.00000000000E+00 -0.22189110808E+04  0.22189110808E+04  0.00000000000E+00 0.  1.
        -24    2    1    2    0    0 -0.36969208205E+03  0.62658703099E+03 -0.19824609440E+04  0.21133276463E+04  0.81968307516E+02 0.  0.
    5000000    2    1    2    0    0  0.36969208205E+03 -0.62658703099E+03  0.11289312182E+04  0.14709647895E+04  0.59997347736E+03 0.  0.
        -24    2    4    4    0    0 -0.16341850465E+02 -0.51247952184E+03  0.75307356413E+03  0.91453679300E+03  0.79720990795E+02 0.  0.
         24    2    4    4    0    0  0.38603393252E+03 -0.11410750915E+03  0.37585765403E+03  0.55642799646E+03  0.79375175278E+02 0.  0.
         11    1    5    5    0    0  0.41641569041E+01 -0.38435804111E+03  0.50572160284E+03  0.63521868955E+03  0.00000000000E+00 0. -1.
        -12    1    5    5    0    0 -0.20506007369E+02 -0.12812148073E+03  0.24735196128E+03  0.27931810345E+03  0.00000000000E+00 0.  1.
         11    1    3    3    0    0 -0.22910185149E+03  0.39562114005E+03 -0.11286536195E+04  0.12177285156E+04  0.00000000000E+00 0. -1.
        -12    1    3    3    0    0 -0.14059023056E+03  0.23096589094E+03 -0.85380732446E+03  0.89559913075E+03  0.00000000000E+00 0.  1.
          4    1    6    6  502    0  0.13076087056E+03 -0.33289335624E+02  0.77774105343E+02  0.15574144149E+03  0.00000000000E+00 0. -1.
         -3    1    6    6    0  502  0.25527306195E+03 -0.80818173531E+02  0.29808354868E+03  0.40068655496E+03  0.00000000000E+00 0.  1.
<mgrwt>
<rscale>  0 0.82219244E+03</rscale>
<asrwt>0</asrwt>
<pdfrwt beam="1">  1        1 0.21005867E+00 0.82219244E+03</pdfrwt>
<pdfrwt beam="2">  1       -2 0.34137093E+00 0.82219244E+03</pdfrwt>
<totfact> 0.13238975E-01</totfact>
</mgrwt>
</event>
<event>
12    3  0.2212098E-007  0.4385516E+03  0.7818608E-02  0.1031192E+00
          1   -1    0    0  501    0  0.00000000000E+00  0.00000000000E+00  0.40573640281E+03  0.40573640281E+03  0.00000000000E+00 0. -1.
         -2   -1    0    0    0  501 -0.00000000000E+00 -0.00000000000E+00 -0.70945238524E+03  0.70945238524E+03  0.00000000000E+00 0.  1.
        -24    2    1    2    0    0  0.30074254374E+03 -0.11444634859E+03  0.69960096645E+02  0.33856474555E+03  0.78661473941E+02 0.  0.
    5000000    2    1    2    0    0 -0.30074254374E+03  0.11444634859E+03 -0.37367607907E+03  0.77662404250E+03  0.59997253854E+03 0.  0.
        -24    2    4    4    0    0 -0.39810817218E+03  0.15218925692E+02 -0.41880323814E+02  0.40844935861E+03  0.79719411517E+02 0.  0.
         24    2    4    4    0    0  0.97365628435E+02  0.99227422901E+02 -0.33179575526E+03  0.36817468389E+03  0.78345565268E+02 0.  0.
         11    1    5    5    0    0 -0.19942467516E+03  0.35548518867E+02  0.75268038378E+01  0.20270804382E+03  0.00000000000E+00 0. -1.
        -12    1    5    5    0    0 -0.19868349702E+03 -0.20329593176E+02 -0.49407127652E+02  0.20574131479E+03  0.00000000000E+00 0.  1.
         13    1    3    3    0    0  0.10508688029E+03 -0.18509876399E+01  0.30135249480E+02  0.10933806211E+03  0.00000000000E+00 0. -1.
        -14    1    3    3    0    0  0.19565566345E+03 -0.11259536095E+03  0.39824847165E+02  0.22922668344E+03  0.00000000000E+00 0.  1.
          4    1    6    6  502    0  0.56828811704E+02  0.82361897929E+02 -0.14425671983E+03  0.17556479512E+03  0.00000000000E+00 0. -1.
         -3    1    6    6    0  502  0.40536816732E+02  0.16865524972E+02 -0.18753903543E+03  0.19260988877E+03  0.00000000000E+00 0.  1.
<mgrwt>
<rscale>  0 0.43855164E+03</rscale>
<asrwt>0</asrwt>
<pdfrwt beam="1">  1        1 0.62420985E-01 0.43855164E+03</pdfrwt>
<pdfrwt beam="2">  1       -2 0.10914652E+00 0.43855164E+03</pdfrwt>
<totfact> 0.36026827E+01</totfact>
</mgrwt>
</event>
<event>
12    3  0.2212098E-007  0.5844252E+03  0.7818608E-02  0.9938256E-01
         -2   -1    0    0    0  501 -0.00000000000E+00  0.00000000000E+00  0.29117409776E+03  0.29117409776E+03  0.00000000000E+00 0.  1.
          1   -1    0    0  501    0  0.00000000000E+00 -0.00000000000E+00 -0.13520392955E+04  0.13520392955E+04  0.00000000000E+00 0. -1.
        -24    2    1    2    0    0 -0.13464431396E+03 -0.44524049308E+03 -0.25648186483E+03  0.53708141158E+03  0.79405967786E+02 0.  0.
    5000000    2    1    2    0    0  0.13464431396E+03  0.44524049308E+03 -0.80438333291E+03  0.11061319817E+04  0.60010601287E+03 0.  0.
        -24    2    4    4    0    0 -0.18661467632E+03  0.24769331125E+03 -0.16541481460E+03  0.36018631969E+03  0.78709022007E+02 0.  0.
         24    2    4    4    0    0  0.32125899029E+03  0.19754718183E+03 -0.63896851831E+03  0.74594566200E+03  0.76954112122E+02 0.  0.
         11    1    3    3    0    0 -0.51187679713E+02 -0.23847400254E+03 -0.94906437072E+02  0.26171981247E+03  0.00000000000E+00 0. -1.
        -12    1    3    3    0    0 -0.83456634248E+02 -0.20676649054E+03 -0.16157542776E+03  0.27536159912E+03  0.00000000000E+00 0.  1.
         13    1    5    5    0    0 -0.12958007675E+03  0.11155373911E+03 -0.10532448632E+03  0.20081952201E+03  0.00000000000E+00 0. -1.
        -14    1    5    5    0    0 -0.57034599574E+02  0.13613957214E+03 -0.60090328275E+02  0.15936679768E+03  0.00000000000E+00 0.  1.
          2    1    6    6  502    0  0.22545111656E+03  0.99929747128E+02 -0.44206532722E+03  0.50619750478E+03  0.00000000000E+00 0. -1.
         -1    1    6    6    0  502  0.95807873722E+02  0.97617434702E+02 -0.19690319109E+03  0.23974815721E+03  0.00000000000E+00 0.  1.
<mgrwt>
<rscale>  0 0.58442522E+03</rscale>
<asrwt>0</asrwt>
<pdfrwt beam="1">  1        1 0.20800605E+00 0.58442522E+03</pdfrwt>
<pdfrwt beam="2">  1       -2 0.44796015E-01 0.58442522E+03</pdfrwt>
<totfact> 0.36049143E+01</totfact>
</mgrwt>
</event>
<event>
12    3  0.2212098E-007  0.8338100E+03  0.7818608E-02  0.9512328E-01
         -2   -1    0    0    0  501 -0.00000000000E+00  0.00000000000E+00  0.93051296609E+03  0.93051296609E+03  0.00000000000E+00 0.  1.
          1   -1    0    0  501    0  0.00000000000E+00 -0.00000000000E+00 -0.19544888853E+04  0.19544888853E+04  0.00000000000E+00 0. -1.
        -24    2    1    2    0    0  0.41064596304E+03  0.63717630776E+03 -0.15909656741E+04  0.17642328286E+04  0.81987457406E+02 0.  0.
    5000000    2    1    2    0    0 -0.41064596304E+03 -0.63717630776E+03  0.56698975489E+03  0.11207690228E+04  0.60001838820E+03 0.  0.
        -24    2    4    4    0    0 -0.34237461130E+03 -0.99700662540E+02  0.53973954792E+02  0.37020856393E+03  0.83549963720E+02 0.  0.
         24    2    4    4    0    0 -0.68271351740E+02 -0.53747564522E+03  0.51301580010E+03  0.75056045886E+03  0.81331080096E+02 0.  0.
         13    1    3    3    0    0  0.83545957146E+02  0.10791713431E+03 -0.35908715085E+03  0.38414790997E+03  0.00000000000E+00 0. -1.
        -14    1    3    3    0    0  0.32710000590E+03  0.52925917345E+03 -0.12318785233E+04  0.13800849186E+04  0.00000000000E+00 0.  1.
         13    1    5    5    0    0 -0.16359094080E+03 -0.15970386432E+02 -0.41164931212E+01  0.16442017720E+03  0.00000000000E+00 0. -1.
        -14    1    5    5    0    0 -0.17878367050E+03 -0.83730276108E+02  0.58090447913E+02  0.20578838673E+03  0.00000000000E+00 0.  1.
          2    1    6    6  502    0  0.14859807774E+02 -0.15808920112E+03  0.16625535952E+03  0.22989966065E+03  0.00000000000E+00 0. -1.
         -1    1    6    6    0  502 -0.83131159514E+02 -0.37938644410E+03  0.34676044058E+03  0.52066079821E+03  0.00000000000E+00 0.  1.
<mgrwt>
<rscale>  0 0.83381004E+03</rscale>
<asrwt>0</asrwt>
<pdfrwt beam="1">  1        1 0.30069060E+00 0.83381004E+03</pdfrwt>
<pdfrwt beam="2">  1       -2 0.14315584E+00 0.83381004E+03</pdfrwt>
<totfact> 0.97940130E-01</totfact>
</mgrwt>
</event>
<event>
12    3  0.2212098E-007  0.3794306E+03  0.7818608E-02  0.1051144E+00
          1   -1    0    0  501    0  0.00000000000E+00  0.00000000000E+00  0.72915572803E+03  0.72915572803E+03  0.00000000000E+00 0. -1.
         -2   -1    0    0    0  501 -0.00000000000E+00 -0.00000000000E+00 -0.36305170514E+03  0.36305170514E+03  0.00000000000E+00 0.  1.
        -24    2    1    2    0    0 -0.18503009066E+03  0.60078341942E+02  0.40898976517E+03  0.45995901434E+03  0.80275309002E+02 0.  0.
    5000000    2    1    2    0    0  0.18503009066E+03 -0.60078341942E+02 -0.42885742288E+02  0.63224841883E+03  0.60004444385E+03 0.  0.
        -24    2    4    4    0    0  0.24287380662E+03 -0.25108966598E+03 -0.15480956412E+03  0.39034556260E+03  0.79811971508E+02 0.  0.
         24    2    4    4    0    0 -0.57843715962E+02  0.19101132404E+03  0.11192382183E+03  0.24190285622E+03  0.78478204418E+02 0.  0.
         13    1    3    3    0    0 -0.85672775425E+02  0.54140696860E+02  0.27473701983E+03  0.29283351852E+03  0.00000000000E+00 0. -1.
        -14    1    3    3    0    0 -0.99357315235E+02  0.59376450813E+01  0.13425274535E+03  0.16712549582E+03  0.00000000000E+00 0.  1.
         13    1    5    5    0    0  0.32500179581E+02 -0.66896003178E+02 -0.58451997884E+02  0.94593725852E+02  0.00000000000E+00 0. -1.
        -14    1    5    5    0    0  0.21037362704E+03 -0.18419366280E+03 -0.96357566239E+02  0.29575183675E+03  0.00000000000E+00 0.  1.
          4    1    6    6  502    0 -0.40731916675E+02  0.64192522519E+02  0.68659442197E+01  0.76334200548E+02  0.00000000000E+00 0. -1.
         -3    1    6    6    0  502 -0.17111799287E+02  0.12681880152E+03  0.10505787761E+03  0.16556865568E+03  0.00000000000E+00 0.  1.
<mgrwt>
<rscale>  0 0.37943060E+03</rscale>
<asrwt>0</asrwt>
<pdfrwt beam="1">  1        1 0.11217780E+00 0.37943060E+03</pdfrwt>
<pdfrwt beam="2">  1       -2 0.55854109E-01 0.37943060E+03</pdfrwt>
<totfact> 0.71237751E+01</totfact>
</mgrwt>
</event>
<event>
12    3  0.2212098E-007  0.5167971E+03  0.7818608E-02  0.1009485E+00
         -2   -1    0    0    0  501 -0.00000000000E+00  0.00000000000E+00  0.51196114383E+03  0.51196114383E+03  0.00000000000E+00 0.  1.
          1   -1    0    0  501    0  0.00000000000E+00 -0.00000000000E+00 -0.86115663134E+03  0.86115663134E+03  0.00000000000E+00 0. -1.
        -24    2    1    2    0    0  0.25506936080E+03  0.40743101541E+03  0.77694557246E+02  0.49377144791E+03  0.81935263534E+02 0.  0.
    5000000    2    1    2    0    0 -0.25506936080E+03 -0.40743101541E+03 -0.42689004475E+03  0.87934632726E+03  0.59996203364E+03 0.  0.
        -24    2    4    4    0    0 -0.22000557870E+03 -0.15927085867E+03  0.91194719656E+02  0.29793652158E+03  0.81731468341E+02 0.  0.
         24    2    4    4    0    0 -0.35063782098E+02 -0.24816015674E+03 -0.51808476441E+03  0.58140980567E+03  0.82538517165E+02 0.  0.
         11    1    3    3    0    0  0.17093694404E+03  0.20097283199E+03  0.27647048808E+02  0.26528075193E+03  0.00000000000E+00 0. -1.
        -12    1    3    3    0    0  0.84132416767E+02  0.20645818342E+03  0.50047508438E+02  0.22849069599E+03  0.00000000000E+00 0.  1.
         13    1    5    5    0    0 -0.67836053012E+02 -0.98673530944E+02  0.42484445918E+02  0.12705559390E+03  0.00000000000E+00 0. -1.
        -14    1    5    5    0    0 -0.15216952569E+03 -0.60597327729E+02  0.48710273737E+02  0.17088092768E+03  0.00000000000E+00 0.  1.
          4    1    6    6  502    0  0.89730310667E+01 -0.19058840192E+03 -0.39222091427E+03  0.43616705495E+03  0.00000000000E+00 0. -1.
         -3    1    6    6    0  502 -0.44036813165E+02 -0.57571754816E+02 -0.12586385014E+03  0.14524275073E+03  0.00000000000E+00 0.  1.
<mgrwt>
<rscale>  0 0.51679710E+03</rscale>
<asrwt>0</asrwt>
<pdfrwt beam="1">  1        1 0.13248563E+00 0.51679710E+03</pdfrwt>
<pdfrwt beam="2">  1       -2 0.78763253E-01 0.51679710E+03</pdfrwt>
<totfact> 0.25797465E+01</totfact>
</mgrwt>
</event>
<event>
12    3  0.2212098E-007  0.9817802E+03  0.7818608E-02  0.9328757E-01
         -2   -1    0    0    0  501 -0.00000000000E+00  0.00000000000E+00  0.10903280568E+04  0.10903280568E+04  0.00000000000E+00 0.  1.
          1   -1    0    0  501    0  0.00000000000E+00 -0.00000000000E+00 -0.91859362351E+03  0.91859362351E+03  0.00000000000E+00 0. -1.
        -24    2    1    2    0    0  0.54395493811E+03  0.72297812923E+03  0.16516043551E+03  0.92326637092E+03  0.80984394691E+02 0.  0.
    5000000    2    1    2    0    0 -0.54395493811E+03 -0.72297812923E+03  0.65739977413E+01  0.10856553093E+04  0.60001656912E+03 0.  0.
        -24    2    4    4    0    0 -0.49933758395E+03 -0.22402901549E+03  0.12028860866E+03  0.56599752894E+03  0.79729736452E+02 0.  0.
         24    2    4    4    0    0 -0.44617354165E+02 -0.49894911374E+03 -0.11371461092E+03  0.51965778040E+03  0.78563793189E+02 0.  0.
         13    1    3    3    0    0  0.15387994196E+03  0.18809502192E+03  0.95237415017E+01  0.24320665176E+03  0.00000000000E+00 0. -1.
        -14    1    3    3    0    0  0.39007499615E+03  0.53488310731E+03  0.15563669401E+03  0.68005971917E+03  0.00000000000E+00 0.  1.
         13    1    5    5    0    0 -0.49568247422E+03 -0.21226758374E+03  0.12368023582E+03  0.55322277890E+03  0.00000000000E+00 0. -1.
        -14    1    5    5    0    0 -0.36551097221E+01 -0.11761431748E+02 -0.33916271652E+01  0.12774750043E+02  0.00000000000E+00 0.  1.
          4    1    6    6  502    0 -0.56391378921E+02 -0.48686901762E+03 -0.10835945599E+03  0.50195936054E+03  0.00000000000E+00 0. -1.
         -3    1    6    6    0  502  0.11774024755E+02 -0.12080096127E+02 -0.53551549305E+01  0.17698419865E+02  0.00000000000E+00 0.  1.
<mgrwt>
<rscale>  0 0.98178020E+03</rscale>
<asrwt>0</asrwt>
<pdfrwt beam="1">  1        1 0.14132210E+00 0.98178020E+03</pdfrwt>
<pdfrwt beam="2">  1       -2 0.16774278E+00 0.98178020E+03</pdfrwt>
<totfact> 0.33990592E+00</totfact>
</mgrwt>
</event>
<event>
12    3  0.2212098E-007  0.8521986E+03  0.7818608E-02  0.9487391E-01
          1   -1    0    0  501    0  0.00000000000E+00  0.00000000000E+00  0.14283109087E+04  0.14283109087E+04  0.00000000000E+00 0. -1.
         -2   -1    0    0    0  501 -0.00000000000E+00 -0.00000000000E+00 -0.57095331450E+03  0.57095331450E+03  0.00000000000E+00 0.  1.
        -24    2    1    2    0    0 -0.68145838212E+03  0.32902392831E+03  0.67335423318E+03  0.10161229787E+04  0.80359893446E+02 0.  0.
    5000000    2    1    2    0    0  0.68145838212E+03 -0.32902392831E+03  0.18400336100E+03  0.98314124452E+03  0.60005599561E+03 0.  0.
        -24    2    4    4    0    0  0.49935680633E+03  0.66791847134E+02  0.19513430516E+02  0.51026712347E+03  0.78570939021E+02 0.  0.
         24    2    4    4    0    0  0.18210157579E+03 -0.39581577544E+03  0.16448993048E+03  0.47287412105E+03  0.81987103465E+02 0.  0.
         11    1    3    3    0    0 -0.49279244492E+03  0.27684154919E+03  0.49835475449E+03  0.75355364670E+03  0.00000000000E+00 0. -1.
        -12    1    3    3    0    0 -0.18866593720E+03  0.52182379121E+02  0.17499947869E+03  0.26256933197E+03  0.00000000000E+00 0.  1.
         13    1    5    5    0    0  0.26042669704E+03  0.41316413850E+02  0.48942024048E+02  0.26818730824E+03  0.00000000000E+00 0. -1.
        -14    1    5    5    0    0  0.23893010929E+03  0.25475433284E+02 -0.29428593531E+02  0.24207981523E+03  0.00000000000E+00 0.  1.
          4    1    6    6  502    0  0.16939404063E+03 -0.31516718163E+03  0.15748697052E+03  0.39093073461E+03  0.00000000000E+00 0. -1.
         -3    1    6    6    0  502  0.12707535162E+02 -0.80648593811E+02  0.70029599679E+01  0.81943386444E+02  0.00000000000E+00 0.  1.
<mgrwt>
<rscale>  0 0.85219857E+03</rscale>
<asrwt>0</asrwt>
<pdfrwt beam="1">  1        1 0.21974014E+00 0.85219857E+03</pdfrwt>
<pdfrwt beam="2">  1       -2 0.87838972E-01 0.85219857E+03</pdfrwt>
<totfact> 0.73250602E+00</totfact>
</mgrwt>
</event>
<event>
12    3  0.2212098E-007  0.8941831E+03  0.7818608E-02  0.9432882E-01
         -2   -1    0    0    0  501 -0.00000000000E+00  0.00000000000E+00  0.12258425857E+04  0.12258425857E+04  0.00000000000E+00 0.  1.
          1   -1    0    0  501    0  0.00000000000E+00 -0.00000000000E+00 -0.66682722989E+03  0.66682722989E+03  0.00000000000E+00 0. -1.
        -24    2    1    2    0    0 -0.31537058117E+03 -0.73745434365E+03  0.22510123110E+03  0.83682561837E+03  0.79429458481E+02 0.  0.
    5000000    2    1    2    0    0  0.31537058117E+03  0.73745434365E+03  0.33391412474E+03  0.10558441972E+04  0.60000901137E+03 0.  0.
        -24    2    4    4    0    0 -0.16879149286E+03  0.18423991052E+03  0.72392395537E+02  0.27148569223E+03  0.77646052470E+02 0.  0.
         24    2    4    4    0    0  0.48416207403E+03  0.55321443314E+03  0.26152172920E+03  0.78435850502E+03  0.79784250252E+02 0.  0.
         13    1    5    5    0    0 -0.59898156949E+02  0.79055044863E+02 -0.90063854714E+01  0.99592189972E+02  0.00000000000E+00 0. -1.
        -14    1    5    5    0    0 -0.10889333591E+03  0.10518486565E+03  0.81398781009E+02  0.17189350226E+03  0.00000000000E+00 0.  1.
         13    1    3    3    0    0 -0.18175892880E+02 -0.54066273323E+02  0.37820032337E+02  0.68438876664E+02  0.00000000000E+00 0. -1.
        -14    1    3    3    0    0 -0.29719468829E+03 -0.68338807033E+03  0.18728119876E+03  0.76838674171E+03  0.00000000000E+00 0.  1.
          4    1    6    6  502    0  0.70296967937E+02  0.68289143381E+02  0.81954638314E+01  0.98347528857E+02  0.00000000000E+00 0. -1.
         -1    1    6    6    0  502  0.41386510610E+03  0.48492528976E+03  0.25332626537E+03  0.68601097616E+03  0.00000000000E+00 0.  1.
<mgrwt>
<rscale>  0 0.89418308E+03</rscale>
<asrwt>0</asrwt>
<pdfrwt beam="1">  1        1 0.10258880E+00 0.89418308E+03</pdfrwt>
<pdfrwt beam="2">  1       -2 0.18859117E+00 0.89418308E+03</pdfrwt>
<totfact> 0.41002944E+00</totfact>
</mgrwt>
</event>
<event>
12    3  0.2212098E-007  0.4942132E+03  0.7818608E-02  0.1015300E+00
         -2   -1    0    0    0  501 -0.00000000000E+00  0.00000000000E+00  0.54670472341E+03  0.54670472341E+03  0.00000000000E+00 0.  1.
          1   -1    0    0  501    0  0.00000000000E+00 -0.00000000000E+00 -0.58399101723E+03  0.58399101723E+03  0.00000000000E+00 0. -1.
        -24    2    1    2    0    0  0.77219991525E+02 -0.39065830285E+03  0.30802049625E+02  0.40729117129E+03  0.79752713263E+02 0.  0.
    5000000    2    1    2    0    0 -0.77219991525E+02  0.39065830285E+03 -0.68088343443E+02  0.72340456935E+03  0.60008442053E+03 0.  0.
        -24    2    4    4    0    0 -0.20641633600E+03  0.58031105813E+02  0.17187111430E+03  0.28616666395E+03  0.79852154726E+02 0.  0.
         24    2    4    4    0    0  0.12919634448E+03  0.33262719703E+03 -0.23995945774E+03  0.43723790540E+03  0.79144784577E+02 0.  0.
         11    1    3    3    0    0 -0.68802488030E+01 -0.12129617315E+03 -0.11159434928E+02  0.12200259190E+03  0.00000000000E+00 0. -1.
        -12    1    3    3    0    0  0.84100240328E+02 -0.26936212970E+03  0.41961484553E+02  0.28528857938E+03  0.00000000000E+00 0.  1.
         13    1    5    5    0    0 -0.10751149489E+03 -0.19650710323E+01  0.51517828986E+02  0.11923367704E+03  0.00000000000E+00 0. -1.
        -14    1    5    5    0    0 -0.98904841109E+02  0.59996176845E+02  0.12035328531E+03  0.16693298690E+03  0.00000000000E+00 0.  1.
          4    1    6    6  502    0  0.47064965800E+02  0.20063773380E+03 -0.10460234038E+03  0.23111092757E+03  0.00000000000E+00 0. -1.
         -3    1    6    6    0  502  0.82131378675E+02  0.13198946324E+03 -0.13535711736E+03  0.20612697783E+03  0.00000000000E+00 0.  1.
<mgrwt>
<rscale>  0 0.49421319E+03</rscale>
<asrwt>0</asrwt>
<pdfrwt beam="1">  1        1 0.89844772E-01 0.49421319E+03</pdfrwt>
<pdfrwt beam="2">  1       -2 0.84108419E-01 0.49421319E+03</pdfrwt>
<totfact> 0.40109685E+01</totfact>
</mgrwt>
</event>
<event>
12    3  0.2212098E-007  0.5898929E+03  0.7818608E-02  0.9926600E-01
          1   -1    0    0  501    0  0.00000000000E+00  0.00000000000E+00  0.11017166322E+04  0.11017166322E+04  0.00000000000E+00 0. -1.
         -2   -1    0    0    0  501 -0.00000000000E+00 -0.00000000000E+00 -0.34990282134E+03  0.34990282134E+03  0.00000000000E+00 0.  1.
        -24    2    1    2    0    0 -0.29318220661E+03  0.36087232719E+03  0.19684796018E+03  0.51132437425E+03  0.80739417086E+02 0.  0.
    5000000    2    1    2    0    0  0.29318220661E+03 -0.36087232719E+03  0.55496585066E+03  0.94029507926E+03  0.59998591473E+03 0.  0.
        -24    2    4    4    0    0  0.44764433320E+03 -0.31896340832E+03  0.51442903333E+03  0.75708157834E+03  0.80076095241E+02 0.  0.
         24    2    4    4    0    0 -0.15446212659E+03 -0.41908918866E+02  0.40536817327E+02  0.18321350092E+03  0.79429511714E+02 0.  0.
         11    1    3    3    0    0 -0.24496601617E+03  0.33453300875E+03  0.18953167495E+03  0.45589794783E+03  0.00000000000E+00 0. -1.
        -12    1    3    3    0    0 -0.48216190443E+02  0.26339318437E+02  0.73162852266E+01  0.55426426424E+02  0.00000000000E+00 0.  1.
         13    1    5    5    0    0  0.12065188604E+03 -0.73631432802E+02  0.18036805583E+03  0.22915300798E+03  0.00000000000E+00 0. -1.
        -14    1    5    5    0    0  0.32699244716E+03 -0.24533197552E+03  0.33406097750E+03  0.52792857036E+03  0.00000000000E+00 0.  1.
          4    1    6    6  502    0 -0.12969820477E+03 -0.34084181577E+02  0.63655805245E+02  0.14844331341E+03  0.00000000000E+00 0. -1.
         -3    1    6    6    0  502 -0.24763921819E+02 -0.78247372891E+01 -0.23118987919E+02  0.34770187516E+02  0.00000000000E+00 0.  1.
<mgrwt>
<rscale>  0 0.58989286E+03</rscale>
<asrwt>0</asrwt>
<pdfrwt beam="1">  1        1 0.16949486E+00 0.58989286E+03</pdfrwt>
<pdfrwt beam="2">  1       -2 0.53831204E-01 0.58989286E+03</pdfrwt>
<totfact> 0.37527041E+01</totfact>
</mgrwt>
</event>
<event>
12    3  0.2212098E-007  0.9653958E+03  0.7818608E-02  0.9347334E-01
          1   -1    0    0  501    0  0.00000000000E+00  0.00000000000E+00  0.41919249485E+04  0.41919249485E+04  0.00000000000E+00 0. -1.
         -2   -1    0    0    0  501 -0.00000000000E+00 -0.00000000000E+00 -0.22840319072E+03  0.22840319072E+03  0.00000000000E+00 0.  1.
        -24    2    1    2    0    0  0.17234819004E+03 -0.86572343752E+03  0.16737916259E+04  0.18940036071E+04  0.80562322501E+02 0.  0.
    5000000    2    1    2    0    0 -0.17234819004E+03  0.86572343752E+03  0.22897301319E+04  0.25263245322E+04  0.60022545433E+03 0.  0.
        -24    2    4    4    0    0  0.30190395264E+02 -0.67002086070E+02  0.30831693728E+03  0.32550645801E+03  0.74124091161E+02 0.  0.
         24    2    4    4    0    0 -0.20253858531E+03  0.93272552359E+03  0.19814131946E+04  0.22008180742E+04  0.81259872207E+02 0.  0.
         13    1    3    3    0    0  0.13416951187E+03 -0.58485248748E+03  0.12061137976E+04  0.13471319099E+04  0.00000000000E+00 0. -1.
        -14    1    3    3    0    0  0.38178678171E+02 -0.28087095004E+03  0.46767782831E+03  0.54687169715E+03  0.00000000000E+00 0.  1.
         13    1    5    5    0    0  0.42009986128E+02 -0.32912076052E+02  0.93311120523E+02  0.10749422728E+03  0.00000000000E+00 0. -1.
        -14    1    5    5    0    0 -0.11819590865E+02 -0.34090010017E+02  0.21500581675E+03  0.21801223073E+03  0.00000000000E+00 0.  1.
          4    1    6    6  502    0 -0.18381812196E+03  0.67937429783E+03  0.14440353137E+04  0.16064172950E+04  0.00000000000E+00 0. -1.
         -3    1    6    6    0  502 -0.18720463343E+02  0.25335122576E+03  0.53737788097E+03  0.59440077918E+03  0.00000000000E+00 0.  1.
<mgrwt>
<rscale>  0 0.96539580E+03</rscale>
<asrwt>0</asrwt>
<pdfrwt beam="1">  1        1 0.64491147E+00 0.96539580E+03</pdfrwt>
<pdfrwt beam="2">  1       -2 0.35138955E-01 0.96539580E+03</pdfrwt>
<totfact> 0.45760089E-01</totfact>
</mgrwt>
</event>
<event>
12    3  0.2212098E-007  0.5969186E+03  0.7818608E-02  0.9911820E-01
         -2   -1    0    0    0  501 -0.00000000000E+00  0.00000000000E+00  0.36226499529E+03  0.36226499529E+03  0.00000000000E+00 0.  1.
          1   -1    0    0  501    0  0.00000000000E+00 -0.00000000000E+00 -0.14024878268E+04  0.14024878268E+04  0.00000000000E+00 0. -1.
        -24    2    1    2    0    0  0.81620268543E+02  0.44762252572E+03  0.22810826862E+02  0.46204999340E+03  0.77084815676E+02 0.  0.
    5000000    2    1    2    0    0 -0.81620268543E+02 -0.44762252572E+03 -0.10630336584E+04  0.13027028287E+04  0.59997192205E+03 0.  0.
        -24    2    4    4    0    0  0.18550828536E+03 -0.42589761795E+03 -0.61822684707E+03  0.77736997397E+03  0.79357022884E+02 0.  0.
         24    2    4    4    0    0 -0.26712855390E+03 -0.21724907778E+02 -0.44480681128E+03  0.52533285470E+03  0.79321327122E+02 0.  0.
         13    1    3    3    0    0 -0.59803217641E+01  0.10707370314E+03  0.26215074230E+02  0.11039824396E+03  0.00000000000E+00 0. -1.
        -14    1    3    3    0    0  0.87600590307E+02  0.34054882258E+03 -0.34042473672E+01  0.35165174944E+03  0.00000000000E+00 0.  1.
         13    1    5    5    0    0  0.78363791644E+02 -0.15742737213E+03 -0.17408131956E+03  0.24744406874E+03  0.00000000000E+00 0. -1.
        -14    1    5    5    0    0  0.10714449371E+03 -0.26847024582E+03 -0.44414552751E+03  0.52992590523E+03  0.00000000000E+00 0.  1.
          4    1    6    6  502    0 -0.20946862883E+03 -0.30656072735E+02 -0.28366636454E+03  0.35395410385E+03  0.00000000000E+00 0. -1.
         -3    1    6    6    0  502 -0.57659925067E+02  0.89311649577E+01 -0.16114044674E+03  0.17137875085E+03  0.00000000000E+00 0.  1.
<mgrwt>
<rscale>  0 0.59691863E+03</rscale>
<asrwt>0</asrwt>
<pdfrwt beam="1">  1        1 0.21576736E+00 0.59691863E+03</pdfrwt>
<pdfrwt beam="2">  1       -2 0.55733076E-01 0.59691863E+03</pdfrwt>
<totfact> 0.21318736E+01</totfact>
</mgrwt>
</event>
<event>
12    3  0.2212098E-007  0.4335520E+03  0.7818608E-02  0.1032744E+00
         -2   -1    0    0    0  501 -0.00000000000E+00  0.00000000000E+00  0.21518508669E+03  0.21518508669E+03  0.00000000000E+00 0.  1.
          1   -1    0    0  501    0  0.00000000000E+00 -0.00000000000E+00 -0.21505428055E+04  0.21505428055E+04  0.00000000000E+00 0. -1.
        -24    2    1    2    0    0  0.24007030963E+03 -0.72268032861E+02  0.62686577747E+02  0.26450999658E+03  0.56387136146E+02 0.  0.
    5000000    2    1    2    0    0 -0.24007030963E+03  0.72268032861E+02 -0.19980442965E+04  0.21012178956E+04  0.60006600609E+03 0.  0.
        -24    2    4    4    0    0 -0.38729590896E+02  0.30137599420E+03 -0.72947992658E+03  0.79414436089E+03  0.78719956543E+02 0.  0.
         24    2    4    4    0    0 -0.20134071873E+03 -0.22910796134E+03 -0.12685643700E+04  0.13070735347E+04  0.78467327001E+02 0.  0.
         11    1    3    3    0    0  0.23032333747E+03 -0.79749599819E+02  0.54538167510E+02  0.24976639119E+03  0.00000000000E+00 0. -1.
        -12    1    3    3    0    0  0.97469721598E+01  0.74815669588E+01  0.81484102370E+01  0.14743605388E+02  0.00000000000E+00 0.  1.
         13    1    5    5    0    0 -0.97486157519E+01  0.12116353261E+03 -0.19951746555E+03  0.23362974170E+03  0.00000000000E+00 0. -1.
        -14    1    5    5    0    0 -0.28980975144E+02  0.18021246159E+03 -0.52996246103E+03  0.56051461920E+03  0.00000000000E+00 0.  1.
          2    1    6    6  502    0 -0.77902006696E+02 -0.63853274248E+02 -0.28966818927E+03  0.30668163159E+03  0.00000000000E+00 0. -1.
         -1    1    6    6    0  502 -0.12343871204E+03 -0.16525468709E+03 -0.97889618068E+03  0.10003919031E+04  0.00000000000E+00 0.  1.
<mgrwt>
<rscale>  0 0.43355203E+03</rscale>
<asrwt>0</asrwt>
<pdfrwt beam="1">  1        1 0.33085276E+00 0.43355203E+03</pdfrwt>
<pdfrwt beam="2">  1       -2 0.33105396E-01 0.43355203E+03</pdfrwt>
<totfact> 0.19410620E+01</totfact>
</mgrwt>
</event>
<event>
12    3  0.2212098E-007  0.5704859E+03  0.7818608E-02  0.9968604E-01
          1   -1    0    0  501    0  0.00000000000E+00  0.00000000000E+00  0.15098267715E+04  0.15098267715E+04  0.00000000000E+00 0. -1.
         -2   -1    0    0    0  501 -0.00000000000E+00 -0.00000000000E+00 -0.28152483503E+03  0.28152483503E+03  0.00000000000E+00 0.  1.
        -24    2    1    2    0    0 -0.38338335715E+03  0.31945437766E+03  0.32899963404E+03  0.60050634292E+03  0.57733965227E+02 0.  0.
    5000000    2    1    2    0    0  0.38338335715E+03 -0.31945437766E+03  0.89930230239E+03  0.11908452636E+04  0.60027819611E+03 0.  0.
        -24    2    4    4    0    0  0.29063993612E+03 -0.40164441963E+03  0.91387940662E+03  0.10427713410E+04  0.80041785405E+02 0.  0.
         24    2    4    4    0    0  0.92743421025E+02  0.82190041968E+02 -0.14577104229E+02  0.14807392260E+03  0.79729852897E+02 0.  0.
         11    1    5    5    0    0  0.29910039587E+02 -0.11043821623E+02  0.45873740788E+02  0.55865701088E+02  0.00000000000E+00 0. -1.
        -12    1    5    5    0    0  0.26072989653E+03 -0.39060059801E+03  0.86800566584E+03  0.98690563988E+03  0.00000000000E+00 0.  1.
         13    1    3    3    0    0 -0.13391806410E+03  0.79340082255E+02  0.90299724875E+02  0.17995259614E+03  0.00000000000E+00 0. -1.
        -14    1    3    3    0    0 -0.24946529304E+03  0.24011429541E+03  0.23869990916E+03  0.42055374678E+03  0.00000000000E+00 0.  1.
          2    1    6    6  502    0  0.14121803121E+02 -0.93132670926E+01  0.16356046560E+02  0.23530459544E+02  0.00000000000E+00 0. -1.
         -1    1    6    6    0  502  0.78621617905E+02  0.91503309061E+02 -0.30933150789E+02  0.12454346305E+03  0.00000000000E+00 0.  1.
<mgrwt>
<rscale>  0 0.57048593E+03</rscale>
<asrwt>0</asrwt>
<pdfrwt beam="1">  1        1 0.23228104E+00 0.57048593E+03</pdfrwt>
<pdfrwt beam="2">  1       -2 0.43311514E-01 0.57048593E+03</pdfrwt>
<totfact> 0.30091278E+01</totfact>
</mgrwt>
</event>
<event>
12    3  0.2212098E-007  0.1192440E+04  0.7818608E-02  0.9119499E-01
         -2   -1    0    0    0  501 -0.00000000000E+00  0.00000000000E+00  0.46675401610E+03  0.46675401610E+03  0.00000000000E+00 0.  1.
          1   -1    0    0  501    0  0.00000000000E+00 -0.00000000000E+00 -0.30757804974E+04  0.30757804974E+04  0.00000000000E+00 0. -1.
        -24    2    1    2    0    0  0.12860815131E+03  0.11111843579E+04 -0.11016878147E+04  0.15720242029E+04  0.79204290043E+02 0.  0.
    5000000    2    1    2    0    0 -0.12860815131E+03 -0.11111843579E+04 -0.15073386666E+04  0.19705103106E+04  0.59964180535E+03 0.  0.
        -24    2    4    4    0    0 -0.25639099782E+03 -0.10803089608E+04 -0.13620389595E+04  0.17591399704E+04  0.81360394945E+02 0.  0.
         24    2    4    4    0    0  0.12778284651E+03 -0.30875397091E+02 -0.14529970705E+03  0.21137034017E+03  0.79269602152E+02 0.  0.
         11    1    5    5    0    0 -0.12069371112E+03 -0.57367127944E+03 -0.77831591415E+03  0.97439282170E+03  0.00000000000E+00 0. -1.
        -12    1    5    5    0    0 -0.13569728670E+03 -0.50663768134E+03 -0.58372304537E+03  0.78474714875E+03  0.00000000000E+00 0.  1.
         11    1    3    3    0    0  0.58105225233E+02  0.25214245282E+03 -0.27851461016E+03  0.38016104718E+03  0.00000000000E+00 0. -1.
        -12    1    3    3    0    0  0.70502926079E+02  0.85904190504E+03 -0.82317320453E+03  0.11918631557E+04  0.00000000000E+00 0.  1.
          4    1    6    6  502    0  0.91113393435E+02 -0.57871985466E+02 -0.10426837017E+03  0.15007568152E+03  0.00000000000E+00 0. -1.
         -3    1    6    6    0  502  0.36669453075E+02  0.26996588375E+02 -0.41031336882E+02  0.61294658650E+02  0.00000000000E+00 0.  1.
<mgrwt>
<rscale>  0 0.11924405E+04</rscale>
<asrwt>0</asrwt>
<pdfrwt beam="1">  1        1 0.47319700E+00 0.11924405E+04</pdfrwt>
<pdfrwt beam="2">  1       -2 0.71808310E-01 0.11924405E+04</pdfrwt>
<totfact> 0.81037408E-01</totfact>
</mgrwt>
</event>
<event>
12    3  0.2212098E-007  0.4938899E+03  0.7818608E-02  0.1015386E+00
          1   -1    0    0  501    0  0.00000000000E+00  0.00000000000E+00  0.21333617415E+03  0.21333617415E+03  0.00000000000E+00 0. -1.
         -2   -1    0    0    0  501 -0.00000000000E+00 -0.00000000000E+00 -0.18134616054E+04  0.18134616054E+04  0.00000000000E+00 0.  1.
        -24    2    1    2    0    0 -0.24363909047E+03  0.39965063474E+03 -0.72908653862E+03  0.87017119148E+03  0.80932598022E+02 0.  0.
    5000000    2    1    2    0    0  0.24363909047E+03 -0.39965063474E+03 -0.87103889264E+03  0.11566265881E+04  0.59999639625E+03 0.  0.
        -24    2    4    4    0    0  0.24530997670E+03 -0.29559270437E+03 -0.14482047215E+03  0.41865517051E+03  0.82141043902E+02 0.  0.
         24    2    4    4    0    0 -0.16708862265E+01 -0.10405793037E+03 -0.72621842049E+03  0.73797141758E+03  0.79860967760E+02 0.  0.
         11    1    5    5    0    0  0.13846819896E+03 -0.22661558010E+03 -0.10148193336E+03  0.28430027447E+03  0.00000000000E+00 0. -1.
        -12    1    5    5    0    0  0.10684177774E+03 -0.68977124267E+02 -0.43338538794E+02  0.13435489603E+03  0.00000000000E+00 0.  1.
         11    1    3    3    0    0 -0.18154416633E+03  0.24557042831E+03 -0.52099819417E+03  0.60390581875E+03  0.00000000000E+00 0. -1.
        -12    1    3    3    0    0 -0.62094924140E+02  0.15408020643E+03 -0.20808834445E+03  0.26626537273E+03  0.00000000000E+00 0.  1.
          2    1    6    6  502    0  0.30251931664E+02 -0.72845006548E+02 -0.57225076698E+03  0.57766124559E+03  0.00000000000E+00 0. -1.
         -1    1    6    6    0  502 -0.31922817891E+02 -0.31212923821E+02 -0.15396765351E+03  0.16031017198E+03  0.00000000000E+00 0.  1.
<mgrwt>
<rscale>  0 0.49388993E+03</rscale>
<asrwt>0</asrwt>
<pdfrwt beam="1">  1        1 0.32820949E-01 0.49388993E+03</pdfrwt>
<pdfrwt beam="2">  1       -2 0.27899410E+00 0.49388993E+03</pdfrwt>
<totfact> 0.54895277E+00</totfact>
</mgrwt>
</event>
<event>
12    3  0.2212098E-007  0.1490339E+04  0.7818608E-02  0.8890903E-01
         -2   -1    0    0    0  501 -0.00000000000E+00  0.00000000000E+00  0.11589014455E+04  0.11589014455E+04  0.00000000000E+00 0.  1.
          1   -1    0    0  501    0  0.00000000000E+00 -0.00000000000E+00 -0.20949684606E+04  0.20949684606E+04  0.00000000000E+00 0. -1.
        -24    2    1    2    0    0  0.13982113231E+04  0.44620176256E+03 -0.13127914549E+03  0.14757169278E+04  0.80095691065E+02 0.  0.
    5000000    2    1    2    0    0 -0.13982113231E+04 -0.44620176256E+03 -0.80478786957E+03  0.17781529783E+04  0.60004465027E+03 0.  0.
        -24    2    4    4    0    0 -0.25983665992E+03 -0.22168776178E+03 -0.43243291086E+03  0.55685162671E+03  0.80155837054E+02 0.  0.
         24    2    4    4    0    0 -0.11383746632E+04 -0.22451400078E+03 -0.37235495870E+03  0.12213013516E+04  0.81396350145E+02 0.  0.
         11    1    5    5    0    0 -0.27211123770E+02 -0.60781123841E+02 -0.63978977922E+02  0.92347711873E+02  0.00000000000E+00 0. -1.
        -12    1    5    5    0    0 -0.23262553615E+03 -0.16090663794E+03 -0.36845393294E+03  0.46450391484E+03  0.00000000000E+00 0.  1.
         11    1    3    3    0    0  0.15263873878E+03  0.33203540064E+02 -0.33951968571E+02  0.15985554673E+03  0.00000000000E+00 0. -1.
        -12    1    3    3    0    0  0.12455725844E+04  0.41299822250E+03 -0.97327176924E+02  0.13158613810E+04  0.00000000000E+00 0.  1.
          4    1    6    6  502    0 -0.53670318852E+03 -0.14436551865E+03 -0.16222575284E+03  0.57897228813E+03  0.00000000000E+00 0. -1.
         -3    1    6    6    0  502 -0.60167147471E+03 -0.80148482128E+02 -0.21012920586E+03  0.64232906350E+03  0.00000000000E+00 0.  1.
<mgrwt>
<rscale>  0 0.14903394E+04</rscale>
<asrwt>0</asrwt>
<pdfrwt beam="1">  1        1 0.32230284E+00 0.14903394E+04</pdfrwt>
<pdfrwt beam="2">  1       -2 0.17829253E+00 0.14903394E+04</pdfrwt>
<totfact> 0.39639922E-01</totfact>
</mgrwt>
</event>
<event>
12    3  0.2212098E-007  0.5241957E+03  0.7818608E-02  0.1007650E+00
          1   -1    0    0  501    0  0.00000000000E+00  0.00000000000E+00  0.18341905156E+04  0.18341905156E+04  0.00000000000E+00 0. -1.
         -2   -1    0    0    0  501 -0.00000000000E+00 -0.00000000000E+00 -0.18625186727E+03  0.18625186727E+03  0.00000000000E+00 0.  1.
        -24    2    1    2    0    0  0.23116648954E+03 -0.27299208134E+03  0.21120112341E+03  0.42289961851E+03  0.79218371907E+02 0.  0.
    5000000    2    1    2    0    0 -0.23116648954E+03  0.27299208134E+03  0.14367375249E+04  0.15975427644E+04  0.59997128774E+03 0.  0.
        -24    2    4    4    0    0 -0.29461294206E+03  0.42331801783E+03  0.10656580798E+04  0.11865351498E+04  0.79016382714E+02 0.  0.
         24    2    4    4    0    0  0.63446452519E+02 -0.15032593649E+03  0.37107944510E+03  0.41100761458E+03  0.67852525028E+02 0.  0.
         13    1    3    3    0    0  0.19228677761E+03 -0.19443504518E+03  0.12756797360E+03  0.30174953111E+03  0.00000000000E+00 0. -1.
        -14    1    3    3    0    0  0.38879711932E+02 -0.78557036161E+02  0.83633149814E+02  0.12115008740E+03  0.00000000000E+00 0.  1.
         13    1    5    5    0    0 -0.72671605828E+02  0.16664493113E+03  0.34411513535E+03  0.38918751488E+03  0.00000000000E+00 0. -1.
        -14    1    5    5    0    0 -0.22194133623E+03  0.25667308670E+03  0.72154294450E+03  0.79734763492E+03  0.00000000000E+00 0.  1.
          2    1    6    6  502    0  0.28138460798E+02 -0.31685965128E+02  0.43082198375E+02  0.60430531844E+02  0.00000000000E+00 0. -1.
         -1    1    6    6    0  502  0.35307991722E+02 -0.11863997136E+03  0.32799724672E+03  0.35057708274E+03  0.00000000000E+00 0.  1.
<mgrwt>
<rscale>  0 0.52419568E+03</rscale>
<asrwt>0</asrwt>
<pdfrwt beam="1">  1        1 0.28218315E+00 0.52419568E+03</pdfrwt>
<pdfrwt beam="2">  1       -2 0.28654135E-01 0.52419568E+03</pdfrwt>
<totfact> 0.40288509E+01</totfact>
</mgrwt>
</event>
<event>
12    3  0.2212098E-007  0.6479148E+03  0.7818608E-02  0.9810700E-01
          1   -1    0    0  501    0  0.00000000000E+00  0.00000000000E+00  0.45769024734E+03  0.45769024734E+03  0.00000000000E+00 0. -1.
         -2   -1    0    0    0  501 -0.00000000000E+00 -0.00000000000E+00 -0.13805340504E+04  0.13805340504E+04  0.00000000000E+00 0.  1.
        -24    2    1    2    0    0 -0.58248545391E+03 -0.10360689058E+02 -0.79988072663E+03  0.99271047377E+03  0.79172343815E+02 0.  0.
    5000000    2    1    2    0    0  0.58248545391E+03  0.10360689058E+02 -0.12296307644E+03  0.84551382397E+03  0.60031413482E+03 0.  0.
        -24    2    4    4    0    0  0.48001465776E+03  0.17458929795E+03  0.11299659904E+03  0.52990793183E+03  0.84490769895E+02 0.  0.
         24    2    4    4    0    0  0.10247079615E+03 -0.16422860890E+03 -0.23595967548E+03  0.31560589214E+03  0.80366726055E+02 0.  0.
         11    1    5    5    0    0  0.88417340319E+02 -0.96853002040E+00  0.24101241448E+02  0.91648425839E+02  0.00000000000E+00 0. -1.
        -12    1    5    5    0    0  0.39159731744E+03  0.17555782797E+03  0.88895357597E+02  0.43825950599E+03  0.00000000000E+00 0.  1.
         11    1    3    3    0    0 -0.40475483983E+03 -0.21797660545E+02 -0.60982843092E+03  0.73225155072E+03  0.00000000000E+00 0. -1.
        -12    1    3    3    0    0 -0.17773061408E+03  0.11436971488E+02 -0.19005229570E+03  0.26045892305E+03  0.00000000000E+00 0.  1.
          4    1    6    6  502    0  0.64090556935E+02 -0.82010986650E+02 -0.66880397343E+02  0.12371899195E+03  0.00000000000E+00 0. -1.
         -3    1    6    6    0  502  0.38380239213E+02 -0.82217622246E+02 -0.16907927814E+03  0.19188690019E+03  0.00000000000E+00 0.  1.
<mgrwt>
<rscale>  0 0.64791484E+03</rscale>
<asrwt>0</asrwt>
<pdfrwt beam="1">  1        1 0.70413885E-01 0.64791484E+03</pdfrwt>
<pdfrwt beam="2">  1       -2 0.21238985E+00 0.64791484E+03</pdfrwt>
<totfact> 0.50344392E+00</totfact>
</mgrwt>
</event>
<event>
12    3  0.2212098E-007  0.9494998E+03  0.7818608E-02  0.9365735E-01
          1   -1    0    0  501    0  0.00000000000E+00  0.00000000000E+00  0.94607345229E+03  0.94607345229E+03  0.00000000000E+00 0. -1.
         -2   -1    0    0    0  501 -0.00000000000E+00 -0.00000000000E+00 -0.12968066315E+04  0.12968066315E+04  0.00000000000E+00 0.  1.
        -24    2    1    2    0    0  0.45720718382E+03  0.72934314094E+03 -0.72555141049E+03  0.11285849174E+04  0.79367753185E+02 0.  0.
    5000000    2    1    2    0    0 -0.45720718382E+03 -0.72934314094E+03  0.37481823128E+03  0.11142951664E+04  0.60015430122E+03 0.  0.
        -24    2    4    4    0    0  0.68906895698E+02 -0.41272796290E+03  0.20508618397E+03  0.47212050022E+03  0.75795067349E+02 0.  0.
         24    2    4    4    0    0 -0.52611407952E+03 -0.31661517803E+03  0.16973204731E+03  0.64217466622E+03  0.80858755978E+02 0.  0.
         11    1    3    3    0    0  0.29952646263E+03  0.50920334844E+03 -0.53952440104E+03  0.80005670499E+03  0.00000000000E+00 0. -1.
        -12    1    3    3    0    0  0.15768072119E+03  0.22013979249E+03 -0.18602700945E+03  0.32852821237E+03  0.00000000000E+00 0.  1.
         13    1    5    5    0    0  0.26315991440E+02 -0.22961156093E+03  0.15252278369E+03  0.27690648216E+03  0.00000000000E+00 0. -1.
        -14    1    5    5    0    0  0.42590904258E+02 -0.18311640197E+03  0.52563400277E+02  0.19521401805E+03  0.00000000000E+00 0.  1.
          2    1    6    6  502    0 -0.39743293288E+03 -0.20114024821E+03  0.13859579923E+03  0.46649665717E+03  0.00000000000E+00 0. -1.
         -1    1    6    6    0  502 -0.12868114664E+03 -0.11547492982E+03  0.31136248075E+02  0.17567800905E+03  0.00000000000E+00 0.  1.
<mgrwt>
<rscale>  0 0.94949981E+03</rscale>
<asrwt>0</asrwt>
<pdfrwt beam="1">  1        1 0.14554976E+00 0.94949981E+03</pdfrwt>
<pdfrwt beam="2">  1       -2 0.19950871E+00 0.94949981E+03</pdfrwt>
<totfact> 0.19665240E+00</totfact>
</mgrwt>
</event>
<event>
12    3  0.2212098E-007  0.9219075E+03  0.7818608E-02  0.9398603E-01
         -2   -1    0    0    0  501 -0.00000000000E+00  0.00000000000E+00  0.13313233060E+04  0.13313233060E+04  0.00000000000E+00 0.  1.
          1   -1    0    0  501    0  0.00000000000E+00 -0.00000000000E+00 -0.18160769503E+04  0.18160769503E+04  0.00000000000E+00 0. -1.
        -24    2    1    2    0    0 -0.81795862345E+03 -0.33708653275E+03 -0.14540227893E+04  0.17044201193E+04  0.90454579339E+02 0.  0.
    5000000    2    1    2    0    0  0.81795862345E+03  0.33708653275E+03  0.96926914493E+03  0.14429801370E+04  0.60002113324E+03 0.  0.
        -24    2    4    4    0    0  0.27791697818E+03 -0.60717379079E+02  0.46921680713E+02  0.29979290179E+03  0.82156515016E+02 0.  0.
         24    2    4    4    0    0  0.54004164528E+03  0.39780391183E+03  0.92234746421E+03  0.11431872352E+04  0.79115606542E+02 0.  0.
         11    1    5    5    0    0  0.21001497113E+03 -0.42121581108E+02 -0.17495099188E+01  0.21420452021E+03  0.00000000000E+00 0. -1.
        -12    1    5    5    0    0  0.67902007044E+02 -0.18595797971E+02  0.48671190632E+02  0.85588381573E+02  0.00000000000E+00 0.  1.
         13    1    3    3    0    0 -0.19360068451E+03 -0.44904696839E+02 -0.36376828178E+03  0.41451781587E+03  0.00000000000E+00 0. -1.
        -14    1    3    3    0    0 -0.62435793894E+03 -0.29218183591E+03 -0.10902545075E+04  0.12899023034E+04  0.00000000000E+00 0.  1.
          4    1    6    6  502    0  0.13847268382E+03  0.11461364911E+03  0.19287541165E+03  0.26365108979E+03  0.00000000000E+00 0. -1.
         -3    1    6    6    0  502  0.40156896145E+03  0.28319026272E+03  0.72947205256E+03  0.87953614546E+03  0.00000000000E+00 0.  1.
<mgrwt>
<rscale>  0 0.92190747E+03</rscale>
<asrwt>0</asrwt>
<pdfrwt beam="1">  1        1 0.27939645E+00 0.92190747E+03</pdfrwt>
<pdfrwt beam="2">  1       -2 0.20481897E+00 0.92190747E+03</pdfrwt>
<totfact> 0.43778172E-01</totfact>
</mgrwt>
</event>
<event>
12    3  0.2212098E-007  0.1093186E+04  0.7818608E-02  0.9211859E-01
         -2   -1    0    0    0  501 -0.00000000000E+00  0.00000000000E+00  0.12584182692E+04  0.12584182692E+04  0.00000000000E+00 0.  1.
          1   -1    0    0  501    0  0.00000000000E+00 -0.00000000000E+00 -0.17676770916E+04  0.17676770916E+04  0.00000000000E+00 0. -1.
        -24    2    1    2    0    0 -0.60285533869E+03  0.85535614144E+03 -0.12331502391E+04  0.16192995453E+04  0.80017604072E+02 0.  0.
    5000000    2    1    2    0    0  0.60285533869E+03 -0.85535614144E+03  0.72389141668E+03  0.14067958155E+04  0.59998916268E+03 0.  0.
        -24    2    4    4    0    0  0.46082823584E+02 -0.42504132915E+03  0.50242473984E+03  0.66431173919E+03  0.78075024854E+02 0.  0.
         24    2    4    4    0    0  0.55677251511E+03 -0.43031481229E+03  0.22146667683E+03  0.74248407633E+03  0.84075224620E+02 0.  0.
         13    1    5    5    0    0  0.32640606401E+00 -0.28825125429E+03  0.36490332157E+03  0.46501970521E+03  0.00000000000E+00 0. -1.
        -14    1    5    5    0    0  0.45756417520E+02 -0.13679007486E+03  0.13752141827E+03  0.19929203398E+03  0.00000000000E+00 0.  1.
         13    1    3    3    0    0 -0.31260810667E+03  0.50354273256E+03 -0.66674730982E+03  0.89209365372E+03  0.00000000000E+00 0. -1.
        -14    1    3    3    0    0 -0.29024723202E+03  0.35181340888E+03 -0.56640292933E+03  0.72720589156E+03  0.00000000000E+00 0.  1.
          2    1    6    6  502    0  0.27956685494E+03 -0.18779175102E+03  0.68596416056E+02  0.34369875826E+03  0.00000000000E+00 0. -1.
         -1    1    6    6    0  502  0.27720566016E+03 -0.24252306127E+03  0.15287026078E+03  0.39878531807E+03  0.00000000000E+00 0.  1.
<mgrwt>
<rscale>  0 0.10931861E+04</rscale>
<asrwt>0</asrwt>
<pdfrwt beam="1">  1        1 0.27195032E+00 0.10931861E+04</pdfrwt>
<pdfrwt beam="2">  1       -2 0.19360281E+00 0.10931861E+04</pdfrwt>
<totfact> 0.54468846E-01</totfact>
</mgrwt>
</event>
<event>
12    3  0.2212098E-007  0.5499033E+03  0.7818608E-02  0.1001516E+00
          1   -1    0    0  501    0  0.00000000000E+00  0.00000000000E+00  0.35147563070E+03  0.35147563070E+03  0.00000000000E+00 0. -1.
         -2   -1    0    0    0  501 -0.00000000000E+00 -0.00000000000E+00 -0.89702224701E+03  0.89702224701E+03  0.00000000000E+00 0.  1.
        -24    2    1    2    0    0 -0.14300487326E+03  0.35782100886E+03 -0.29722648307E+03  0.49333962828E+03  0.80957633567E+02 0.  0.
    5000000    2    1    2    0    0  0.14300487326E+03 -0.35782100886E+03 -0.24832013323E+03  0.75515824943E+03  0.60009567984E+03 0.  0.
        -24    2    4    4    0    0 -0.21197818744E+03 -0.23884194858E+03 -0.90673632014E+02  0.34130451496E+03  0.79289570803E+02 0.  0.
         24    2    4    4    0    0  0.35498306070E+03 -0.11897906028E+03 -0.15764650122E+03  0.41385373447E+03  0.79079099791E+02 0.  0.
         11    1    3    3    0    0 -0.13558857992E+03  0.24653602645E+03 -0.19788503978E+03  0.34398076154E+03  0.00000000000E+00 0. -1.
        -12    1    3    3    0    0 -0.74162933346E+01  0.11128498241E+03 -0.99341443288E+02  0.14935886673E+03  0.00000000000E+00 0.  1.
         13    1    5    5    0    0 -0.19620320697E+03 -0.18119935186E+03 -0.58402024941E+02  0.27338562518E+03  0.00000000000E+00 0. -1.
        -14    1    5    5    0    0 -0.15774980470E+02 -0.57642596723E+02 -0.32271607073E+02  0.67918889779E+02  0.00000000000E+00 0.  1.
          4    1    6    6  502    0  0.81684848873E+02 -0.57655135975E+02 -0.63118176350E+02  0.11823888288E+03  0.00000000000E+00 0. -1.
         -3    1    6    6    0  502  0.27329821182E+03 -0.61323924309E+02 -0.94528324871E+02  0.29561485159E+03  0.00000000000E+00 0.  1.
<mgrwt>
<rscale>  0 0.54990332E+03</rscale>
<asrwt>0</asrwt>
<pdfrwt beam="1">  1        1 0.54073174E-01 0.54990332E+03</pdfrwt>
<pdfrwt beam="2">  1       -2 0.13800342E+00 0.54990332E+03</pdfrwt>
<totfact> 0.24016875E+01</totfact>
</mgrwt>
</event>
<event>
12    3  0.2212098E-007  0.7917253E+03  0.7818608E-02  0.9572072E-01
          1   -1    0    0  501    0  0.00000000000E+00  0.00000000000E+00  0.19748689718E+04  0.19748689718E+04  0.00000000000E+00 0. -1.
         -2   -1    0    0    0  501 -0.00000000000E+00 -0.00000000000E+00 -0.44571804363E+04  0.44571804363E+04  0.00000000000E+00 0.  1.
        -24    2    1    2    0    0 -0.77831722945E+03  0.28285003805E+02 -0.42971964826E+04  0.43679847245E+04  0.82554177682E+02 0.  0.
    5000000    2    1    2    0    0  0.77831722945E+03 -0.28285003805E+02  0.18148850181E+04  0.20640646837E+04  0.59998136508E+03 0.  0.
        -24    2    4    4    0    0  0.25207420197E+03  0.33498871089E+02  0.12779802894E+04  0.13055529624E+04  0.81063800748E+02 0.  0.
         24    2    4    4    0    0  0.52624302748E+03 -0.61783874894E+02  0.53690472866E+03  0.75851172129E+03  0.79525923472E+02 0.  0.
         11    1    3    3    0    0 -0.33118296406E+03  0.51817805286E+02 -0.17877152349E+04  0.18188713538E+04  0.00000000000E+00 0. -1.
        -12    1    3    3    0    0 -0.44713426538E+03 -0.23532801481E+02 -0.25094812477E+04  0.25491133706E+04  0.00000000000E+00 0.  1.
         13    1    5    5    0    0  0.18068124780E+03  0.60527983174E+02  0.91761050737E+03  0.93718642398E+03  0.00000000000E+00 0. -1.
        -14    1    5    5    0    0  0.71392954166E+02 -0.27029112085E+02  0.36036978204E+03  0.36836653839E+03  0.00000000000E+00 0.  1.
          4    1    6    6  502    0  0.12378809876E+03 -0.41767456324E+02  0.16211139275E+03  0.20820210725E+03  0.00000000000E+00 0. -1.
         -3    1    6    6    0  502  0.40245492872E+03 -0.20016418570E+02  0.37479333591E+03  0.55030961404E+03  0.00000000000E+00 0.  1.
<mgrwt>
<rscale>  0 0.79172535E+03</rscale>
<asrwt>0</asrwt>
<pdfrwt beam="1">  1        1 0.30382600E+00 0.79172535E+03</pdfrwt>
<pdfrwt beam="2">  1       -2 0.68572007E+00 0.79172535E+03</pdfrwt>
<totfact> 0.74345995E-04</totfact>
</mgrwt>
</event>
<event>
12    3  0.2212098E-007  0.5546535E+03  0.7818608E-02  0.1000423E+00
         -2   -1    0    0    0  501 -0.00000000000E+00  0.00000000000E+00  0.29991666422E+03  0.29991666422E+03  0.00000000000E+00 0.  1.
          1   -1    0    0  501    0  0.00000000000E+00 -0.00000000000E+00 -0.11618768541E+04  0.11618768541E+04  0.00000000000E+00 0. -1.
        -24    2    1    2    0    0  0.23404662835E+03  0.36319750249E+03 -0.30336437766E+03  0.53507733207E+03  0.87106576141E+02 0.  0.
    5000000    2    1    2    0    0 -0.23404662835E+03 -0.36319750249E+03 -0.55859581222E+03  0.92671618625E+03  0.60006946129E+03 0.  0.
        -24    2    4    4    0    0  0.39091225533E+02 -0.39342961089E+03 -0.15559077466E+03  0.43225505506E+03  0.79504470531E+02 0.  0.
         24    2    4    4    0    0 -0.27313785389E+03  0.30232108396E+02 -0.40300503757E+03  0.49446113119E+03  0.80996804572E+02 0.  0.
         11    1    3    3    0    0  0.14470212952E+03  0.27382334271E+03 -0.24949972532E+03  0.39770346018E+03  0.00000000000E+00 0. -1.
        -12    1    3    3    0    0  0.89344498836E+02  0.89374159775E+02 -0.53864652339E+02  0.13737387189E+03  0.00000000000E+00 0.  1.
         11    1    5    5    0    0  0.21281531617E+02 -0.10589005255E+03 -0.80012323784E+02  0.13441569393E+03  0.00000000000E+00 0. -1.
        -12    1    5    5    0    0  0.17809693916E+02 -0.28753955833E+03 -0.75578450874E+02  0.29783936113E+03  0.00000000000E+00 0.  1.
          2    1    6    6  502    0 -0.14366526127E+03 -0.21020652692E+01 -0.14581092819E+03  0.20470699243E+03  0.00000000000E+00 0. -1.
         -1    1    6    6    0  502 -0.12947259262E+03  0.32334173665E+02 -0.25719410938E+03  0.28975413876E+03  0.00000000000E+00 0.  1.
<mgrwt>
<rscale>  0 0.55465355E+03</rscale>
<asrwt>0</asrwt>
<pdfrwt beam="1">  1        1 0.17875029E+00 0.55465355E+03</pdfrwt>
<pdfrwt beam="2">  1       -2 0.46141024E-01 0.55465355E+03</pdfrwt>
<totfact> 0.46541259E+01</totfact>
</mgrwt>
</event>
<event>
12    3  0.2212098E-007  0.5053346E+03  0.7818608E-02  0.1012396E+00
         -2   -1    0    0    0  501 -0.00000000000E+00  0.00000000000E+00  0.63851895664E+03  0.63851895664E+03  0.00000000000E+00 0.  1.
          1   -1    0    0  501    0  0.00000000000E+00 -0.00000000000E+00 -0.60289493190E+03  0.60289493190E+03  0.00000000000E+00 0. -1.
        -24    2    1    2    0    0 -0.11916899006E+03  0.30283128584E+03 -0.32714441557E+03  0.46827937095E+03  0.79712387675E+02 0.  0.
    5000000    2    1    2    0    0  0.11916899006E+03 -0.30283128584E+03  0.36276844031E+03  0.77313451759E+03  0.60018997420E+03 0.  0.
        -24    2    4    4    0    0 -0.20979456304E+03  0.57009388179E+01  0.11076311836E+03  0.25025620549E+03  0.79457162144E+02 0.  0.
         24    2    4    4    0    0  0.32896355309E+03 -0.30853222466E+03  0.25200532194E+03  0.52287831209E+03  0.80535048623E+02 0.  0.
         11    1    5    5    0    0 -0.16154559773E+03  0.30149284947E+02  0.10686625857E+03  0.19602641849E+03  0.00000000000E+00 0. -1.
        -12    1    5    5    0    0 -0.48248965309E+02 -0.24448346129E+02  0.38968597986E+01  0.54229787001E+02  0.00000000000E+00 0.  1.
         13    1    3    3    0    0 -0.96410577336E+02  0.14096870674E+03 -0.18347531255E+03  0.25065986120E+03  0.00000000000E+00 0. -1.
        -14    1    3    3    0    0 -0.22758412720E+02  0.16186257910E+03 -0.14366910302E+03  0.21761950975E+03  0.00000000000E+00 0.  1.
          2    1    6    6  502    0  0.20788561893E+03 -0.14056389623E+03  0.13170489063E+03  0.28340927596E+03  0.00000000000E+00 0. -1.
         -1    1    6    6    0  502  0.12107793416E+03 -0.16796832842E+03  0.12030043132E+03  0.23946903614E+03  0.00000000000E+00 0.  1.
<mgrwt>
<rscale>  0 0.50533460E+03</rscale>
<asrwt>0</asrwt>
<pdfrwt beam="1">  1        1 0.92753067E-01 0.50533460E+03</pdfrwt>
<pdfrwt beam="2">  1       -2 0.98233685E-01 0.50533460E+03</pdfrwt>
<totfact> 0.26794966E+01</totfact>
</mgrwt>
</event>
<event>
12    3  0.2212098E-007  0.9999819E+03  0.7818608E-02  0.9308565E-01
          1   -1    0    0  501    0  0.00000000000E+00  0.00000000000E+00  0.15881793156E+04  0.15881793156E+04  0.00000000000E+00 0. -1.
         -2   -1    0    0    0  501 -0.00000000000E+00 -0.00000000000E+00 -0.78434428471E+03  0.78434428471E+03  0.00000000000E+00 0.  1.
        -24    2    1    2    0    0 -0.55613042951E+03  0.81593642319E+03  0.47915219845E+02  0.99173697395E+03  0.78822940045E+02 0.  0.
    5000000    2    1    2    0    0  0.55613042951E+03 -0.81593642319E+03  0.75591981110E+03  0.13807866264E+04  0.60010302911E+03 0.  0.
        -24    2    4    4    0    0  0.30512761248E+03 -0.26593260838E+03  0.41166764148E+01  0.41274567230E+03  0.80740515747E+02 0.  0.
         24    2    4    4    0    0  0.25100281703E+03 -0.55000381481E+03  0.75180313468E+03  0.96804095411E+03  0.79929500501E+02 0.  0.
         11    1    3    3    0    0 -0.38069181554E+03  0.51372047552E+03  0.29494937644E+01  0.63940885582E+03  0.00000000000E+00 0. -1.
        -12    1    3    3    0    0 -0.17543861397E+03  0.30221594767E+03  0.44965726081E+02  0.35232811812E+03  0.00000000000E+00 0.  1.
         13    1    5    5    0    0  0.13545919176E+03 -0.13545330977E+03 -0.36171312582E+02  0.19494911032E+03  0.00000000000E+00 0. -1.
        -14    1    5    5    0    0  0.16966842071E+03 -0.13047929861E+03  0.40287988997E+02  0.21779656198E+03  0.00000000000E+00 0.  1.
          4    1    6    6  502    0  0.43777630422E+02 -0.12992803624E+03  0.22141201379E+03  0.26042475953E+03  0.00000000000E+00 0. -1.
         -3    1    6    6    0  502  0.20722518661E+03 -0.42007577857E+03  0.53039112089E+03  0.70761619458E+03  0.00000000000E+00 0.  1.
<mgrwt>
<rscale>  0 0.99998192E+03</rscale>
<asrwt>0</asrwt>
<pdfrwt beam="1">  1        1 0.24433528E+00 0.99998192E+03</pdfrwt>
<pdfrwt beam="2">  1       -2 0.12066835E+00 0.99998192E+03</pdfrwt>
<totfact> 0.26128246E+00</totfact>
</mgrwt>
</event>
<event>
12    3  0.2212098E-007  0.5559807E+03  0.7818608E-02  0.1000119E+00
         -2   -1    0    0    0  501 -0.00000000000E+00  0.00000000000E+00  0.28892482666E+03  0.28892482666E+03  0.00000000000E+00 0.  1.
          1   -1    0    0  501    0  0.00000000000E+00 -0.00000000000E+00 -0.15225416501E+04  0.15225416501E+04  0.00000000000E+00 0. -1.
        -24    2    1    2    0    0  0.25196870476E+03  0.33116984753E+03 -0.92735822060E+03  0.10195883716E+04  0.80034255383E+02 0.  0.
    5000000    2    1    2    0    0 -0.25196870476E+03 -0.33116984753E+03 -0.30625860282E+03  0.79187810517E+03  0.60009574699E+03 0.  0.
        -24    2    4    4    0    0  0.13796319364E+03 -0.25586570162E+03 -0.23110963756E+03  0.37928016347E+03  0.77075792320E+02 0.  0.
         24    2    4    4    0    0 -0.38993189841E+03 -0.75304145915E+02 -0.75148965263E+02  0.41259794171E+03  0.82898098493E+02 0.  0.
         11    1    3    3    0    0  0.27732421896E+02  0.35501222383E+02 -0.17483321894E+03  0.18054384083E+03  0.00000000000E+00 0. -1.
        -12    1    3    3    0    0  0.22423628287E+03  0.29566862515E+03 -0.75252500166E+03  0.83904453074E+03  0.00000000000E+00 0.  1.
         13    1    5    5    0    0  0.72354568486E+02 -0.76957567290E+02 -0.51900112580E+02  0.11769142887E+03  0.00000000000E+00 0. -1.
        -14    1    5    5    0    0  0.65608625156E+02 -0.17890813433E+03 -0.17920952498E+03  0.26158873460E+03  0.00000000000E+00 0.  1.
          4    1    6    6  502    0 -0.32154451588E+03 -0.79162152849E+02 -0.88599863199E+02  0.34279360830E+03  0.00000000000E+00 0. -1.
         -3    1    6    6    0  502 -0.68387382526E+02  0.38580069342E+01  0.13450897936E+02  0.69804333401E+02  0.00000000000E+00 0.  1.
<mgrwt>
<rscale>  0 0.55598074E+03</rscale>
<asrwt>0</asrwt>
<pdfrwt beam="1">  1        1 0.23423717E+00 0.55598074E+03</pdfrwt>
<pdfrwt beam="2">  1       -2 0.44449974E-01 0.55598074E+03</pdfrwt>
<totfact> 0.28088748E+01</totfact>
</mgrwt>
</event>
<event>
12    3  0.2212098E-007  0.5931356E+03  0.7818608E-02  0.9919751E-01
          1   -1    0    0  501    0  0.00000000000E+00  0.00000000000E+00  0.20365763210E+04  0.20365763210E+04  0.00000000000E+00 0. -1.
         -2   -1    0    0    0  501 -0.00000000000E+00 -0.00000000000E+00 -0.32124655538E+03  0.32124655538E+03  0.00000000000E+00 0.  1.
        -24    2    1    2    0    0 -0.34973255162E+03  0.32676465888E+03  0.74460006700E+01  0.48536282175E+03  0.80209886231E+02 0.  0.
    5000000    2    1    2    0    0  0.34973255162E+03 -0.32676465888E+03  0.17078837650E+04  0.18724600547E+04  0.60012640475E+03 0.  0.
        -24    2    4    4    0    0 -0.61523087538E+02 -0.26866536156E+03  0.10651810182E+04  0.11029796417E+04  0.77377784509E+02 0.  0.
         24    2    4    4    0    0  0.41125563916E+03 -0.58099297323E+02  0.64270274675E+03  0.76948041300E+03  0.80787104282E+02 0.  0.
         11    1    3    3    0    0 -0.66218851770E+02  0.10497926301E+03 -0.13171874469E+02  0.12481618593E+03  0.00000000000E+00 0. -1.
        -12    1    3    3    0    0 -0.28351369985E+03  0.22178539587E+03  0.20617875139E+02  0.36054663582E+03  0.00000000000E+00 0.  1.
         13    1    5    5    0    0 -0.68291865785E+02 -0.12682010669E+03  0.51426923460E+03  0.53405988807E+03  0.00000000000E+00 0. -1.
        -14    1    5    5    0    0  0.67687782470E+01 -0.14184525487E+03  0.55091178363E+03  0.56891975360E+03  0.00000000000E+00 0.  1.
          4    1    6    6  502    0  0.28749798913E+03 -0.28538648882E+02  0.37783018180E+03  0.47563136410E+03  0.00000000000E+00 0. -1.
         -3    1    6    6    0  502  0.12375765003E+03 -0.29560648441E+02  0.26487256495E+03  0.29384904890E+03  0.00000000000E+00 0.  1.
<mgrwt>
<rscale>  0 0.59313560E+03</rscale>
<asrwt>0</asrwt>
<pdfrwt beam="1">  1        1 0.31331943E+00 0.59313560E+03</pdfrwt>
<pdfrwt beam="2">  1       -2 0.49422548E-01 0.59313560E+03</pdfrwt>
<totfact> 0.10243378E+01</totfact>
</mgrwt>
</event>
<event>
12    3  0.2212098E-007  0.9939312E+03  0.7818608E-02  0.9315226E-01
          3   -1    0    0  501    0  0.00000000000E+00  0.00000000000E+00  0.12316542379E+04  0.12316542379E+04  0.00000000000E+00 0. -1.
         -4   -1    0    0    0  501 -0.00000000000E+00 -0.00000000000E+00 -0.88359417279E+03  0.88359417279E+03  0.00000000000E+00 0.  1.
        -24    2    1    2    0    0 -0.80374317327E+03 -0.43908120466E+03  0.43513850721E+03  0.10169189492E+04  0.77351380040E+02 0.  0.
    5000000    2    1    2    0    0  0.80374317327E+03  0.43908120466E+03 -0.87078442070E+02  0.10983294615E+04  0.59995796355E+03 0.  0.
        -24    2    4    4    0    0  0.47218211910E+03 -0.48448031693E+02 -0.13858316632E+03  0.50120560186E+03  0.81844950849E+02 0.  0.
         24    2    4    4    0    0  0.33156105417E+03  0.48752923636E+03  0.51504724250E+02  0.59712385962E+03  0.79288575249E+02 0.  0.
         11    1    3    3    0    0 -0.32595787660E+03 -0.20463594261E+03  0.14932597847E+03  0.41282278785E+03  0.00000000000E+00 0. -1.
        -12    1    3    3    0    0 -0.47778529667E+03 -0.23444526206E+03  0.28581252875E+03  0.60409616139E+03  0.00000000000E+00 0.  1.
         13    1    5    5    0    0  0.16538027895E+03 -0.41116172932E+02 -0.17567294666E+02  0.17131779296E+03  0.00000000000E+00 0. -1.
        -14    1    5    5    0    0  0.30680184014E+03 -0.73318587613E+01 -0.12101587165E+03  0.32988780890E+03  0.00000000000E+00 0.  1.
          4    1    6    6  502    0  0.38145796155E+02  0.10269722168E+03 -0.64130871121E+01  0.10974036992E+03  0.00000000000E+00 0. -1.
         -3    1    6    6    0  502  0.29341525802E+03  0.38483201468E+03  0.57917811362E+02  0.48738348970E+03  0.00000000000E+00 0.  1.
<mgrwt>
<rscale>  0 0.99393120E+03</rscale>
<asrwt>0</asrwt>
<pdfrwt beam="1">  1        3 0.18948527E+00 0.99393120E+03</pdfrwt>
<pdfrwt beam="2">  1       -4 0.13593756E+00 0.99393120E+03</pdfrwt>
<totfact> 0.14675010E-01</totfact>
</mgrwt>
</event>
<event>
12    3  0.2212098E-007  0.2264413E+04  0.7818608E-02  0.8492086E-01
         -2   -1    0    0    0  501 -0.00000000000E+00  0.00000000000E+00  0.22025480090E+04  0.22025480090E+04  0.00000000000E+00 0.  1.
          1   -1    0    0  501    0  0.00000000000E+00 -0.00000000000E+00 -0.24190945342E+04  0.24190945342E+04  0.00000000000E+00 0. -1.
        -24    2    1    2    0    0  0.21271271255E+04  0.76040251020E+03  0.10284614978E+03  0.22625957391E+04  0.76683521489E+02 0.  0.
    5000000    2    1    2    0    0 -0.21271271255E+04 -0.76040251020E+03 -0.31939267498E+03  0.23590468040E+04  0.60017360597E+03 0.  0.
        -24    2    4    4    0    0 -0.93737679121E+03 -0.25336624977E+03 -0.41573940118E+03  0.10593377393E+04  0.80544962818E+02 0.  0.
         24    2    4    4    0    0 -0.11897503343E+04 -0.50703626044E+03  0.96346726206E+02  0.12997090647E+04  0.85844824795E+02 0.  0.
         11    1    5    5    0    0 -0.56040472280E+03 -0.11322278849E+03 -0.22830825224E+03  0.61562773752E+03  0.00000000000E+00 0. -1.
        -12    1    5    5    0    0 -0.37697206841E+03 -0.14014346128E+03 -0.18743114894E+03  0.44371000180E+03  0.00000000000E+00 0.  1.
         13    1    3    3    0    0  0.67722148665E+03  0.25564726547E+03 -0.49406452247E+00  0.72386788189E+03  0.00000000000E+00 0. -1.
        -14    1    3    3    0    0  0.14499056388E+04  0.50475524473E+03  0.10334021430E+03  0.15387278572E+04  0.00000000000E+00 0.  1.
          2    1    6    6  502    0 -0.97380690924E+03 -0.38044989745E+03  0.66045396868E+02  0.10475705300E+04  0.00000000000E+00 0. -1.
         -1    1    6    6    0  502 -0.21594342505E+03 -0.12658636299E+03  0.30301329338E+02  0.25213853469E+03  0.00000000000E+00 0.  1.
<mgrwt>
<rscale>  0 0.22644132E+04</rscale>
<asrwt>0</asrwt>
<pdfrwt beam="1">  1        1 0.37216839E+00 0.22644132E+04</pdfrwt>
<pdfrwt beam="2">  1       -2 0.33885354E+00 0.22644132E+04</pdfrwt>
<totfact> 0.21310329E-02</totfact>
</mgrwt>
</event>
<event>
12    3  0.2212098E-007  0.1088210E+04  0.7818608E-02  0.9216760E-01
          1   -1    0    0  501    0  0.00000000000E+00  0.00000000000E+00  0.17617936527E+04  0.17617936527E+04  0.00000000000E+00 0. -1.
         -2   -1    0    0    0  501 -0.00000000000E+00 -0.00000000000E+00 -0.10806388292E+04  0.10806388292E+04  0.00000000000E+00 0.  1.
        -24    2    1    2    0    0 -0.96403346512E+03  0.35570945569E+03  0.11670594431E+04  0.15570357370E+04  0.80267077925E+02 0.  0.
    5000000    2    1    2    0    0  0.96403346512E+03 -0.35570945569E+03 -0.48590461959E+03  0.12853967448E+04  0.60020975797E+03 0.  0.
        -24    2    4    4    0    0  0.97510160254E+03 -0.22721791032E+03 -0.30557201130E+03  0.10497029559E+04  0.77787707127E+02 0.  0.
         24    2    4    4    0    0 -0.11068137426E+02 -0.12849154537E+03 -0.18033260829E+03  0.23569378899E+03  0.79994572664E+02 0.  0.
         13    1    3    3    0    0 -0.81606329370E+03  0.27700467111E+03  0.10049520432E+04  0.13238653619E+04  0.00000000000E+00 0. -1.
        -14    1    3    3    0    0 -0.14797017142E+03  0.78704784580E+02  0.16210739987E+03  0.23317037513E+03  0.00000000000E+00 0.  1.
         13    1    5    5    0    0  0.59209394875E+02 -0.73323187647E+01 -0.37161493818E+02  0.70288633240E+02  0.00000000000E+00 0. -1.
        -14    1    5    5    0    0  0.91589220767E+03 -0.21988559155E+03 -0.26841051748E+03  0.97941432261E+03  0.00000000000E+00 0.  1.
          4    1    6    6  502    0 -0.12773819367E+01  0.82533069021E+01 -0.34672284331E+02  0.35663932483E+02  0.00000000000E+00 0. -1.
         -3    1    6    6    0  502 -0.97907554889E+01 -0.13674485228E+03 -0.14566032396E+03  0.20002985650E+03  0.00000000000E+00 0.  1.
<mgrwt>
<rscale>  0 0.10882101E+04</rscale>
<asrwt>0</asrwt>
<pdfrwt beam="1">  1        1 0.27104518E+00 0.10882101E+04</pdfrwt>
<pdfrwt beam="2">  1       -2 0.16625213E+00 0.10882101E+04</pdfrwt>
<totfact> 0.85065814E-01</totfact>
</mgrwt>
</event>
<event>
12    3  0.2714769E-007  0.9970694E+03  0.7818608E-02  0.9311765E-01
         -2   -1    0    0    0  501 -0.00000000000E+00  0.00000000000E+00  0.82452758164E+03  0.82452758164E+03  0.00000000000E+00 0.  1.
          1   -1    0    0  501    0  0.00000000000E+00 -0.00000000000E+00 -0.12734032582E+04  0.12734032582E+04  0.00000000000E+00 0. -1.
        -24    2    1    2    0    0  0.53688100438E+03  0.75309541168E+03 -0.34431285152E+03  0.99081516048E+03  0.88144373343E+02 0.  0.
    5000000    2    1    2    0    0 -0.53688100438E+03 -0.75309541168E+03 -0.10456282508E+03  0.11071156794E+04  0.59948130182E+03 0.  0.
        -24    2    4    4    0    0 -0.38180101474E+02  0.64381915178E+02 -0.99766665504E+02  0.14618489005E+03  0.76248825455E+02 0.  0.
         24    2    4    4    0    0 -0.49870090290E+03 -0.81747732686E+03 -0.47961595746E+01  0.96093078935E+03  0.79957540523E+02 0.  0.
         11    1    3    3    0    0  0.20266898881E+03  0.33629707851E+03 -0.17945966511E+03  0.43171311706E+03  0.00000000000E+00 0. -1.
        -12    1    3    3    0    0  0.33421201557E+03  0.41679833316E+03 -0.16485318641E+03  0.55910204341E+03  0.00000000000E+00 0.  1.
         11    1    5    5    0    0  0.62147654290E+01  0.62069059141E+02 -0.57077124283E+02  0.84551697371E+02  0.00000000000E+00 0. -1.
        -12    1    5    5    0    0 -0.44394866903E+02  0.23128560376E+01 -0.42689541221E+02  0.61633192681E+02  0.00000000000E+00 0.  1.
          4    1    6    6  502    0 -0.15183756904E+03 -0.31698197333E+03  0.13261282016E+02  0.35172159500E+03  0.00000000000E+00 0. -1.
         -3    1    6    6    0  502 -0.34686333386E+03 -0.50049535352E+03 -0.18057441590E+02  0.60920919435E+03  0.00000000000E+00 0.  1.
<mgrwt>
<rscale>  0 0.99706935E+03</rscale>
<asrwt>0</asrwt>
<pdfrwt beam="1">  1        1 0.19590819E+00 0.99706935E+03</pdfrwt>
<pdfrwt beam="2">  1       -2 0.12685040E+00 0.99706935E+03</pdfrwt>
<totfact> 0.38228439E+00</totfact>
</mgrwt>
</event>
<event>
12    3  0.2212098E-007  0.6779791E+03  0.7818608E-02  0.9755650E-01
          3   -1    0    0  501    0  0.00000000000E+00  0.00000000000E+00  0.67012121531E+03  0.67012121531E+03  0.00000000000E+00 0. -1.
         -4   -1    0    0    0  501 -0.00000000000E+00 -0.00000000000E+00 -0.89295074858E+03  0.89295074858E+03  0.00000000000E+00 0.  1.
        -24    2    1    2    0    0  0.44559741679E+03 -0.40135712619E+03 -0.35948312373E+03  0.70379497955E+03  0.80340876199E+02 0.  0.
    5000000    2    1    2    0    0 -0.44559741679E+03  0.40135712619E+03  0.13665359045E+03  0.85927698434E+03  0.60003177536E+03 0.  0.
        -24    2    4    4    0    0 -0.47918965562E+03  0.45760726819E+03  0.24756607285E+03  0.71533236876E+03  0.10669723250E+03 0.  0.
         24    2    4    4    0    0  0.33592238824E+02 -0.56250141999E+02 -0.11091248240E+03  0.14394461558E+03  0.64233609734E+02 0.  0.
         11    1    3    3    0    0  0.16508452875E+03 -0.20187916776E+03 -0.14965893829E+03  0.30067573533E+03  0.00000000000E+00 0. -1.
        -12    1    3    3    0    0  0.28051288805E+03 -0.19947795844E+03 -0.20982418544E+03  0.40311924422E+03  0.00000000000E+00 0.  1.
         13    1    5    5    0    0 -0.33906575435E+03  0.25300805927E+03  0.15056386315E+03  0.44905249216E+03  0.00000000000E+00 0. -1.
        -14    1    5    5    0    0 -0.14012390127E+03  0.20459920892E+03  0.97002209698E+02  0.26627987661E+03  0.00000000000E+00 0.  1.
          4    1    6    6  502    0  0.40644907529E+02 -0.59582025668E+02 -0.64118433125E+02  0.96504920896E+02  0.00000000000E+00 0. -1.
         -3    1    6    6    0  502 -0.70526687051E+01  0.33318836689E+01 -0.46794049271E+02  0.47439694685E+02  0.00000000000E+00 0.  1.
<mgrwt>
<rscale>  0 0.67797907E+03</rscale>
<asrwt>0</asrwt>
<pdfrwt beam="1">  1        3 0.10309557E+00 0.67797907E+03</pdfrwt>
<pdfrwt beam="2">  1       -4 0.13737704E+00 0.67797907E+03</pdfrwt>
<totfact> 0.68998510E-01</totfact>
</mgrwt>
</event>
<event>
12    3  0.2212098E-007  0.1168504E+04  0.7818608E-02  0.9140881E-01
         -2   -1    0    0    0  501 -0.00000000000E+00  0.00000000000E+00  0.15511521690E+04  0.15511521690E+04  0.00000000000E+00 0.  1.
          1   -1    0    0  501    0  0.00000000000E+00 -0.00000000000E+00 -0.91173829025E+03  0.91173829025E+03  0.00000000000E+00 0. -1.
        -24    2    1    2    0    0  0.40561028036E+03 -0.10225988490E+04  0.13080700015E+03  0.11106040236E+04  0.78119910912E+02 0.  0.
    5000000    2    1    2    0    0 -0.40561028036E+03  0.10225988490E+04  0.50860687857E+03  0.13522864356E+04  0.59980792063E+03 0.  0.
        -24    2    4    4    0    0  0.20425791031E+02 -0.44384518312E+02 -0.31002460057E+01  0.93169749993E+02  0.79270375194E+02 0.  0.
         24    2    4    4    0    0 -0.42603607139E+03  0.10669833673E+04  0.51170712457E+03  0.12591166856E+04  0.59752879113E+02 0.  0.
         11    1    3    3    0    0  0.32006150506E+03 -0.79266115670E+03  0.69110287660E+02  0.85762888724E+03  0.00000000000E+00 0. -1.
        -12    1    3    3    0    0  0.85548775303E+02 -0.22993769226E+03  0.61696712488E+02  0.25297513634E+03  0.00000000000E+00 0.  1.
         13    1    5    5    0    0  0.45563098905E+02 -0.42546252367E+02 -0.16690418691E+02  0.64534871568E+02  0.00000000000E+00 0. -1.
        -14    1    5    5    0    0 -0.25137307873E+02 -0.18382659451E+01  0.13590172685E+02  0.28634878425E+02  0.00000000000E+00 0.  1.
          4    1    6    6  502    0 -0.22619779541E+03  0.60668205060E+03  0.26017971868E+03  0.69779799310E+03  0.00000000000E+00 0. -1.
         -3    1    6    6    0  502 -0.19983827598E+03  0.46030131667E+03  0.25152740589E+03  0.56131869254E+03  0.00000000000E+00 0.  1.
<mgrwt>
<rscale>  0 0.11685039E+04</rscale>
<asrwt>0</asrwt>
<pdfrwt beam="1">  1        1 0.14026743E+00 0.11685039E+04</pdfrwt>
<pdfrwt beam="2">  1       -2 0.23863880E+00 0.11685039E+04</pdfrwt>
<totfact> 0.11554619E+00</totfact>
</mgrwt>
</event>
<event>
12    3  0.2212098E-007  0.6267750E+03  0.7818608E-02  0.9851362E-01
          1   -1    0    0  501    0  0.00000000000E+00  0.00000000000E+00  0.70450660658E+03  0.70450660658E+03  0.00000000000E+00 0. -1.
         -2   -1    0    0    0  501 -0.00000000000E+00 -0.00000000000E+00 -0.58231054629E+03  0.58231054629E+03  0.00000000000E+00 0.  1.
        -24    2    1    2    0    0  0.41781991772E+03 -0.26292275805E+03  0.97622343958E+02  0.50937674429E+03  0.78947357351E+02 0.  0.
    5000000    2    1    2    0    0 -0.41781991772E+03  0.26292275805E+03  0.24573716325E+02  0.77744040858E+03  0.60008987745E+03 0.  0.
        -24    2    4    4    0    0 -0.44808841787E+03 -0.38287370974E+02  0.29623337024E+02  0.45675456632E+03  0.74148760963E+02 0.  0.
         24    2    4    4    0    0  0.30268500144E+02  0.30121012902E+03 -0.50496206995E+01  0.32068584227E+03  0.10568910462E+03 0.  0.
         11    1    3    3    0    0  0.64734945639E+02 -0.29939590859E+02  0.41840170272E+02  0.82689734164E+02  0.00000000000E+00 0. -1.
        -12    1    3    3    0    0  0.35308497208E+03 -0.23298316719E+03  0.55782173686E+02  0.42668701012E+03  0.00000000000E+00 0.  1.
         11    1    5    5    0    0 -0.76783708629E+02 -0.14444917074E+02 -0.21882308221E+02  0.81137099734E+02  0.00000000000E+00 0. -1.
        -12    1    5    5    0    0 -0.37130470924E+03 -0.23842453900E+02  0.51505645245E+02  0.37561746658E+03  0.00000000000E+00 0.  1.
          2    1    6    6  502    0 -0.18728310593E+02  0.11175511608E+03 -0.43280958327E+02  0.12129796759E+03  0.00000000000E+00 0. -1.
         -1    1    6    6    0  502  0.48996810737E+02  0.18945501295E+03  0.38231337627E+02  0.19938787468E+03  0.00000000000E+00 0.  1.
<mgrwt>
<rscale>  0 0.62677498E+03</rscale>
<asrwt>0</asrwt>
<pdfrwt beam="1">  1        1 0.10838563E+00 0.62677498E+03</pdfrwt>
<pdfrwt beam="2">  1       -2 0.89586237E-01 0.62677498E+03</pdfrwt>
<totfact> 0.26048155E+01</totfact>
</mgrwt>
</event>
<event>
12    3  0.2212098E-007  0.5183464E+03  0.7818608E-02  0.1009098E+00
         -2   -1    0    0    0  501 -0.00000000000E+00  0.00000000000E+00  0.22034491426E+03  0.22034491426E+03  0.00000000000E+00 0.  1.
          1   -1    0    0  501    0  0.00000000000E+00 -0.00000000000E+00 -0.13761177763E+04  0.13761177763E+04  0.00000000000E+00 0. -1.
        -24    2    1    2    0    0  0.28294756237E+03 -0.22940133506E+03 -0.57960887392E+03  0.68830234474E+03  0.71619658404E+02 0.  0.
    5000000    2    1    2    0    0 -0.28294756237E+03  0.22940133506E+03 -0.57616398808E+03  0.90816034578E+03  0.60008830759E+03 0.  0.
        -24    2    4    4    0    0 -0.44604364129E+02 -0.17205316942E+03 -0.58721371137E+02  0.20643814322E+03  0.87044041398E+02 0.  0.
         24    2    4    4    0    0 -0.23834319824E+03  0.40145450448E+03 -0.51744261695E+03  0.70172220256E+03  0.81816797937E+02 0.  0.
         11    1    5    5    0    0  0.15552107123E+02 -0.70292605496E+00  0.29796311321E-01  0.15568013002E+02  0.00000000000E+00 0. -1.
        -12    1    5    5    0    0 -0.60156471252E+02 -0.17135024336E+03 -0.58751167448E+02  0.19087013022E+03  0.00000000000E+00 0.  1.
         13    1    3    3    0    0  0.33605487196E+02 -0.46816354144E+01 -0.36478283504E+02  0.49818788095E+02  0.00000000000E+00 0. -1.
        -14    1    3    3    0    0  0.24934207517E+03 -0.22471969965E+03 -0.54313059041E+03  0.63848355664E+03  0.00000000000E+00 0.  1.
          2    1    6    6  502    0 -0.10151161492E+03  0.22329620874E+03 -0.31569347849E+03  0.39978516376E+03  0.00000000000E+00 0. -1.
         -1    1    6    6    0  502 -0.13683158331E+03  0.17815829574E+03 -0.20174913846E+03  0.30193703880E+03  0.00000000000E+00 0.  1.
<mgrwt>
<rscale>  0 0.51834639E+03</rscale>
<asrwt>0</asrwt>
<pdfrwt beam="1">  1        1 0.21171043E+00 0.51834639E+03</pdfrwt>
<pdfrwt beam="2">  1       -2 0.33899218E-01 0.51834639E+03</pdfrwt>
<totfact> 0.59988873E+01</totfact>
</mgrwt>
</event>
<event>
12    3  0.2212098E-007  0.3553140E+03  0.7818608E-02  0.1060455E+00
         -2   -1    0    0    0  501 -0.00000000000E+00  0.00000000000E+00  0.13887083171E+04  0.13887083171E+04  0.00000000000E+00 0.  1.
          1   -1    0    0  501    0  0.00000000000E+00 -0.00000000000E+00 -0.15870865155E+03  0.15870865155E+03  0.00000000000E+00 0. -1.
        -24    2    1    2    0    0  0.15458659700E+03 -0.20183728792E+03  0.22076177501E+03  0.34601086027E+03  0.79702241821E+02 0.  0.
    5000000    2    1    2    0    0 -0.15458659700E+03  0.20183728792E+03  0.10092378905E+04  0.12014061083E+04  0.60015015685E+03 0.  0.
        -24    2    4    4    0    0 -0.13872845739E+03  0.30870213446E+03  0.24904753530E+03  0.42754114865E+03  0.78893385305E+02 0.  0.
         24    2    4    4    0    0 -0.15858139613E+02 -0.10686484654E+03  0.76019035521E+03  0.77386495970E+03  0.96467733858E+02 0.  0.
         13    1    3    3    0    0  0.45921626841E+02 -0.10037809226E+03  0.54931784960E+02  0.12329662695E+03  0.00000000000E+00 0. -1.
        -14    1    3    3    0    0  0.10866497016E+03 -0.10145919565E+03  0.16582999005E+03  0.22271423332E+03  0.00000000000E+00 0.  1.
         13    1    5    5    0    0 -0.57831996007E+02  0.13463354371E+03  0.60651462994E+02  0.15858540544E+03  0.00000000000E+00 0. -1.
        -14    1    5    5    0    0 -0.80896461380E+02  0.17406859074E+03  0.18839607231E+03  0.26895574321E+03  0.00000000000E+00 0.  1.
          4    1    6    6  502    0  0.77026896498E+01 -0.61507285970E+02  0.64341074885E+03  0.64638987414E+03  0.00000000000E+00 0. -1.
         -3    1    6    6    0  502 -0.23560829263E+02 -0.45357560568E+02  0.11677960636E+03  0.12747508556E+03  0.00000000000E+00 0.  1.
<mgrwt>
<rscale>  0 0.35531398E+03</rscale>
<asrwt>0</asrwt>
<pdfrwt beam="1">  1        1 0.24416717E-01 0.35531398E+03</pdfrwt>
<pdfrwt beam="2">  1       -2 0.21364743E+00 0.35531398E+03</pdfrwt>
<totfact> 0.20329817E+01</totfact>
</mgrwt>
</event>
<event>
12    3  0.2212098E-007  0.4056216E+03  0.7818608E-02  0.1041850E+00
         -2   -1    0    0    0  501 -0.00000000000E+00  0.00000000000E+00  0.82223504576E+03  0.82223504576E+03  0.00000000000E+00 0.  1.
          1   -1    0    0  501    0  0.00000000000E+00 -0.00000000000E+00 -0.12190709065E+04  0.12190709065E+04  0.00000000000E+00 0. -1.
        -24    2    1    2    0    0  0.51822396857E+02  0.18691397089E+03  0.72481965995E+03  0.75455615458E+03  0.79806375876E+02 0.  0.
    5000000    2    1    2    0    0 -0.51822396857E+02 -0.18691397089E+03 -0.11216555206E+04  0.12867497976E+04  0.59999295111E+03 0.  0.
        -24    2    4    4    0    0  0.19734452092E+03 -0.27714367063E+03 -0.54683602263E+03  0.64894615954E+03  0.79674388767E+02 0.  0.
         24    2    4    4    0    0 -0.24916691778E+03  0.90229699735E+02 -0.57481949802E+03  0.63780363810E+03  0.78424956708E+02 0.  0.
         11    1    3    3    0    0  0.43155986765E+02  0.12156511237E+03  0.59655802573E+03  0.61034579855E+03  0.00000000000E+00 0. -1.
        -12    1    3    3    0    0  0.86664100920E+01  0.65348858524E+02  0.12826163422E+03  0.14421035603E+03  0.00000000000E+00 0.  1.
         13    1    5    5    0    0  0.10013026894E+03 -0.12607851970E+03 -0.33139857257E+03  0.36843843147E+03  0.00000000000E+00 0. -1.
        -14    1    5    5    0    0  0.97214251981E+02 -0.15106515093E+03 -0.21543745006E+03  0.28050772806E+03  0.00000000000E+00 0.  1.
          4    1    6    6  502    0 -0.20038990022E+03  0.37535901957E+02 -0.44410166982E+03  0.48866281747E+03  0.00000000000E+00 0. -1.
         -3    1    6    6    0  502 -0.48777017565E+02  0.52693797778E+02 -0.13071782820E+03  0.14914082063E+03  0.00000000000E+00 0.  1.
<mgrwt>
<rscale>  0 0.40562159E+03</rscale>
<asrwt>0</asrwt>
<pdfrwt beam="1">  1        1 0.18754937E+00 0.40562159E+03</pdfrwt>
<pdfrwt beam="2">  1       -2 0.12649770E+00 0.40562159E+03</pdfrwt>
<totfact> 0.46434907E+00</totfact>
</mgrwt>
</event>
<event>
12    3  0.2212098E-007  0.6785396E+03  0.7818608E-02  0.9754653E-01
          1   -1    0    0  501    0  0.00000000000E+00  0.00000000000E+00  0.14468396385E+04  0.14468396385E+04  0.00000000000E+00 0. -1.
         -2   -1    0    0    0  501 -0.00000000000E+00 -0.00000000000E+00 -0.48195375260E+03  0.48195375260E+03  0.00000000000E+00 0.  1.
        -24    2    1    2    0    0  0.59680558856E+03 -0.19856822749E+03  0.83724504748E+03  0.10502755166E+04  0.80580020692E+02 0.  0.
    5000000    2    1    2    0    0 -0.59680558856E+03  0.19856822749E+03  0.12764083841E+03  0.87851787449E+03  0.59991267753E+03 0.  0.
        -24    2    4    4    0    0 -0.59206624222E+03  0.23760991961E+03 -0.84492340226E+02  0.64841066111E+03  0.79350619487E+02 0.  0.
         24    2    4    4    0    0 -0.47393463468E+01 -0.39041692122E+02  0.21213317864E+03  0.23010721338E+03  0.80013305405E+02 0.  0.
         11    1    3    3    0    0  0.37662608114E+03 -0.92489915256E+02  0.55254665901E+03  0.67506251548E+03  0.00000000000E+00 0. -1.
        -12    1    3    3    0    0  0.22017950743E+03 -0.10607831224E+03  0.28469838847E+03  0.37521300113E+03  0.00000000000E+00 0.  1.
         11    1    5    5    0    0 -0.36735444578E+03  0.14164597979E+03 -0.90531265628E+02  0.40399106732E+03  0.00000000000E+00 0. -1.
        -12    1    5    5    0    0 -0.22471179644E+03  0.95963939829E+02  0.60389254016E+01  0.24441959379E+03  0.00000000000E+00 0.  1.
          2    1    6    6  502    0  0.31362883599E+02  0.28578110225E+01  0.10380234317E+03  0.10847453157E+03  0.00000000000E+00 0. -1.
         -1    1    6    6    0  502 -0.36102229946E+02 -0.41899503144E+02  0.10833083547E+03  0.12163268181E+03  0.00000000000E+00 0.  1.
<mgrwt>
<rscale>  0 0.67853960E+03</rscale>
<asrwt>0</asrwt>
<pdfrwt beam="1">  1        1 0.22259071E+00 0.67853960E+03</pdfrwt>
<pdfrwt beam="2">  1       -2 0.74146732E-01 0.67853960E+03</pdfrwt>
<totfact> 0.10662149E+01</totfact>
</mgrwt>
</event>
<event>
12    3  0.2212098E-007  0.5199524E+03  0.7818608E-02  0.1008698E+00
         -2   -1    0    0    0  501 -0.00000000000E+00  0.00000000000E+00  0.17185603390E+04  0.17185603390E+04  0.00000000000E+00 0.  1.
          1   -1    0    0  501    0  0.00000000000E+00 -0.00000000000E+00 -0.26826540006E+03  0.26826540006E+03  0.00000000000E+00 0. -1.
        -24    2    1    2    0    0  0.45976935744E+02  0.50359582655E+03  0.29681955066E+03  0.59175400885E+03  0.79676384198E+02 0.  0.
    5000000    2    1    2    0    0 -0.45976935744E+02 -0.50359582655E+03  0.11534753883E+04  0.13950717302E+04  0.59999752161E+03 0.  0.
        -24    2    4    4    0    0  0.30087097091E+02 -0.12005867768E+03  0.92100708299E+03  0.93326018015E+03  0.86030212308E+02 0.  0.
         24    2    4    4    0    0 -0.76064032835E+02 -0.38353714886E+03  0.23246830527E+03  0.46181155005E+03  0.79636129713E+02 0.  0.
         11    1    5    5    0    0 -0.80060919730E+01 -0.74111661639E+02  0.28964709443E+03  0.29908539786E+03  0.00000000000E+00 0. -1.
        -12    1    5    5    0    0  0.38093189064E+02 -0.45947016043E+02  0.63135998856E+03  0.63417478229E+03  0.00000000000E+00 0.  1.
         13    1    3    3    0    0  0.15650355452E+02  0.33400077948E+03  0.15472295765E+03  0.36842997698E+03  0.00000000000E+00 0. -1.
        -14    1    3    3    0    0  0.30326580292E+02  0.16959504707E+03  0.14209659301E+03  0.22332403186E+03  0.00000000000E+00 0.  1.
          4    1    6    6  502    0 -0.76560014024E+02 -0.18148713696E+03  0.11320084247E+03  0.22718593127E+03  0.00000000000E+00 0. -1.
         -3    1    6    6    0  502  0.49598118869E+00 -0.20205001190E+03  0.11926746280E+03  0.23462561878E+03  0.00000000000E+00 0.  1.
<mgrwt>
<rscale>  0 0.51995244E+03</rscale>
<asrwt>0</asrwt>
<pdfrwt beam="1">  1        1 0.41271601E-01 0.51995244E+03</pdfrwt>
<pdfrwt beam="2">  1       -2 0.26439389E+00 0.51995244E+03</pdfrwt>
<totfact> 0.49729137E+00</totfact>
</mgrwt>
</event>
<event>
12    3  0.2212098E-007  0.4135562E+03  0.7818608E-02  0.1039184E+00
          1   -1    0    0  501    0  0.00000000000E+00  0.00000000000E+00  0.42811202688E+03  0.42811202688E+03  0.00000000000E+00 0. -1.
         -2   -1    0    0    0  501 -0.00000000000E+00 -0.00000000000E+00 -0.75219908812E+03  0.75219908812E+03  0.00000000000E+00 0.  1.
        -24    2    1    2    0    0 -0.25279889843E+03 -0.25049050395E+03 -0.31621287527E+03  0.48260149160E+03  0.79125480039E+02 0.  0.
    5000000    2    1    2    0    0  0.25279889843E+03  0.25049050395E+03 -0.78741859705E+01  0.69770962341E+03  0.60006994607E+03 0.  0.
        -24    2    4    4    0    0  0.10242469646E+03 -0.53212450750E+02  0.23503971969E+03  0.27296147633E+03  0.77083813905E+02 0.  0.
         24    2    4    4    0    0  0.15037420197E+03  0.30370295470E+03 -0.24291390566E+03  0.42474814708E+03  0.80968744405E+02 0.  0.
         11    1    5    5    0    0  0.24800060808E+02 -0.21942777521E+02  0.15014691729E+03  0.15375508211E+03  0.00000000000E+00 0. -1.
        -12    1    5    5    0    0  0.77624635649E+02 -0.31269673229E+02  0.84892802400E+02  0.11920639422E+03  0.00000000000E+00 0.  1.
         13    1    3    3    0    0 -0.90698878643E+02 -0.44597933046E+02 -0.69240692228E+02  0.12251341020E+03  0.00000000000E+00 0. -1.
        -14    1    3    3    0    0 -0.16210001979E+03 -0.20589257090E+03 -0.24697218304E+03  0.36008808140E+03  0.00000000000E+00 0.  1.
          2    1    6    6  502    0  0.14191546103E+03  0.21207391240E+03 -0.16234561020E+03  0.30244245660E+03  0.00000000000E+00 0. -1.
         -1    1    6    6    0  502  0.84587409431E+01  0.91629042300E+02 -0.80568295461E+02  0.12230569048E+03  0.00000000000E+00 0.  1.
<mgrwt>
<rscale>  0 0.41355624E+03</rscale>
<asrwt>0</asrwt>
<pdfrwt beam="1">  1        1 0.65863389E-01 0.41355624E+03</pdfrwt>
<pdfrwt beam="2">  1       -2 0.11572294E+00 0.41355624E+03</pdfrwt>
<totfact> 0.29252745E+01</totfact>
</mgrwt>
</event>
<event>
12    3  0.2212098E-007  0.8183576E+03  0.7818608E-02  0.9533819E-01
          1   -1    0    0  501    0  0.00000000000E+00  0.00000000000E+00  0.24111395044E+04  0.24111395044E+04  0.00000000000E+00 0. -1.
         -2   -1    0    0    0  501 -0.00000000000E+00 -0.00000000000E+00 -0.56915169981E+03  0.56915169981E+03  0.00000000000E+00 0.  1.
        -24    2    1    2    0    0 -0.63482261544E+03 -0.32473255292E+03 -0.19222739896E+03  0.74278373463E+03  0.79531877388E+02 0.  0.
    5000000    2    1    2    0    0  0.63482261544E+03  0.32473255292E+03  0.20342152035E+04  0.22375074696E+04  0.59996433068E+03 0.  0.
        -24    2    4    4    0    0  0.11746619084E+03  0.37710944053E+03  0.96775158756E+03  0.10483183010E+04  0.80114224064E+02 0.  0.
         24    2    4    4    0    0  0.51735642460E+03 -0.52376887615E+02  0.10664636160E+04  0.11891891685E+04  0.80157507244E+02 0.  0.
         11    1    5    5    0    0  0.51645863472E+02  0.71175666174E+02  0.17031995121E+03  0.19168243647E+03  0.00000000000E+00 0. -1.
        -12    1    5    5    0    0  0.65820327367E+02  0.30593377436E+03  0.79743163635E+03  0.85663586455E+03  0.00000000000E+00 0.  1.
         11    1    3    3    0    0 -0.12523825713E+03 -0.67858001863E+02 -0.71942607126E+02  0.15957778099E+03  0.00000000000E+00 0. -1.
        -12    1    3    3    0    0 -0.50958435831E+03 -0.25687455105E+03 -0.12028479184E+03  0.58320595364E+03  0.00000000000E+00 0.  1.
          2    1    6    6  502    0  0.11236686099E+03  0.10647697141E+02  0.17841032868E+03  0.21111591670E+03  0.00000000000E+00 0. -1.
         -3    1    6    6    0  502  0.40498956361E+03 -0.63024584756E+02  0.88805328727E+03  0.97807325183E+03  0.00000000000E+00 0.  1.
<mgrwt>
<rscale>  0 0.81835756E+03</rscale>
<asrwt>0</asrwt>
<pdfrwt beam="1">  1        1 0.37094453E+00 0.81835756E+03</pdfrwt>
<pdfrwt beam="2">  1       -2 0.87561801E-01 0.81835756E+03</pdfrwt>
<totfact> 0.16072306E+00</totfact>
</mgrwt>
</event>
<event>
12    3  0.2212098E-007  0.1336094E+04  0.7818608E-02  0.9001422E-01
          1   -1    0    0  501    0  0.00000000000E+00  0.00000000000E+00  0.15544851893E+04  0.15544851893E+04  0.00000000000E+00 0. -1.
         -2   -1    0    0    0  501 -0.00000000000E+00 -0.00000000000E+00 -0.17426470203E+04  0.17426470203E+04  0.00000000000E+00 0.  1.
        -24    2    1    2    0    0  0.13145945116E+04  0.16673786535E+03 -0.97156145343E+03  0.16450079554E+04  0.78481015835E+02 0.  0.
    5000000    2    1    2    0    0 -0.13145945116E+04 -0.16673786535E+03  0.78339962251E+03  0.16521242542E+04  0.59986609916E+03 0.  0.
        -24    2    4    4    0    0 -0.11104697260E+04 -0.17004487279E+03  0.86288187856E+03  0.14188284509E+04  0.80316658321E+02 0.  0.
         24    2    4    4    0    0 -0.20412478565E+03  0.33070074400E+01 -0.79482256044E+02  0.23329580329E+03  0.80197496184E+02 0.  0.
         13    1    3    3    0    0  0.87167858419E+03  0.76001177001E+02 -0.62263165597E+03  0.10739040516E+04  0.00000000000E+00 0. -1.
        -14    1    3    3    0    0  0.44291592745E+03  0.90736688351E+02 -0.34892979746E+03  0.57110390382E+03  0.00000000000E+00 0.  1.
         13    1    5    5    0    0 -0.10989558814E+04 -0.16011838619E+03  0.84582763479E+03  0.13959822043E+04  0.00000000000E+00 0. -1.
        -14    1    5    5    0    0 -0.11513844537E+02 -0.99264865998E+01  0.17054243764E+02  0.22846246576E+02  0.00000000000E+00 0.  1.
          4    1    6    6  502    0 -0.13020202624E+03 -0.36694857170E+02 -0.50245851401E+02  0.14430428185E+03  0.00000000000E+00 0. -1.
         -3    1    6    6    0  502 -0.73922759412E+02  0.40001864610E+02 -0.29236404643E+02  0.88991521438E+02  0.00000000000E+00 0.  1.
<mgrwt>
<rscale>  0 0.13360938E+04</rscale>
<asrwt>0</asrwt>
<pdfrwt beam="1">  1        1 0.23915157E+00 0.13360938E+04</pdfrwt>
<pdfrwt beam="2">  1       -2 0.26809954E+00 0.13360938E+04</pdfrwt>
<totfact> 0.25131563E-01</totfact>
</mgrwt>
</event>
<event>
12    3  0.2212098E-007  0.3271270E+03  0.7818608E-02  0.1072415E+00
         -2   -1    0    0    0  501 -0.00000000000E+00  0.00000000000E+00  0.22897015987E+03  0.22897015987E+03  0.00000000000E+00 0.  1.
          1   -1    0    0  501    0  0.00000000000E+00 -0.00000000000E+00 -0.82706215021E+03  0.82706215021E+03  0.00000000000E+00 0. -1.
        -24    2    1    2    0    0 -0.41559036540E+02 -0.15988276436E+03 -0.33026170468E+03  0.37818368536E+03  0.81611607275E+02 0.  0.
    5000000    2    1    2    0    0  0.41559036540E+02  0.15988276436E+03 -0.26783028566E+03  0.67784862472E+03  0.60037991661E+03 0.  0.
        -24    2    4    4    0    0 -0.36192648087E+02  0.30692646422E+03  0.36707371239E+02  0.32161033161E+03  0.81067947334E+02 0.  0.
         24    2    4    4    0    0  0.77751684628E+02 -0.14704369986E+03 -0.30453765690E+03  0.35623829311E+03  0.80593814144E+02 0.  0.
         11    1    3    3    0    0  0.16142247905E+02 -0.37187736028E+02 -0.13129602236E+03  0.13741231883E+03  0.00000000000E+00 0. -1.
        -12    1    3    3    0    0 -0.57701284446E+02 -0.12269502833E+03 -0.19896568232E+03  0.24077136654E+03  0.00000000000E+00 0.  1.
         13    1    5    5    0    0 -0.27019054245E+02  0.88126809288E+02  0.44763825374E+02  0.10247030726E+03  0.00000000000E+00 0. -1.
        -14    1    5    5    0    0 -0.91735938427E+01  0.21879965493E+03 -0.80564541356E+01  0.21914002435E+03  0.00000000000E+00 0.  1.
          4    1    6    6  502    0  0.44162125788E+01 -0.18002623172E+02 -0.10997157486E+03  0.11152284363E+03  0.00000000000E+00 0. -1.
         -3    1    6    6    0  502  0.73335472049E+02 -0.12904107669E+03 -0.19456608203E+03  0.24471544948E+03  0.00000000000E+00 0.  1.
<mgrwt>
<rscale>  0 0.32712695E+03</rscale>
<asrwt>0</asrwt>
<pdfrwt beam="1">  1        1 0.12724033E+00 0.32712695E+03</pdfrwt>
<pdfrwt beam="2">  1       -2 0.35226178E-01 0.32712695E+03</pdfrwt>
<totfact> 0.14627245E+02</totfact>
</mgrwt>
</event>
<event>
12    3  0.2212098E-007  0.8728192E+03  0.7818608E-02  0.9460211E-01
          1   -1    0    0  501    0  0.00000000000E+00  0.00000000000E+00  0.24413629345E+04  0.24413629345E+04  0.00000000000E+00 0. -1.
         -2   -1    0    0    0  501 -0.00000000000E+00 -0.00000000000E+00 -0.41519525370E+03  0.41519525370E+03  0.00000000000E+00 0.  1.
        -24    2    1    2    0    0 -0.80088196655E+03  0.32860452627E+02  0.29735462972E+03  0.85871164186E+03  0.80462254197E+02 0.  0.
    5000000    2    1    2    0    0  0.80088196655E+03 -0.32860452627E+02  0.17288130511E+04  0.19978465464E+04  0.60008709657E+03 0.  0.
        -24    2    4    4    0    0  0.81419051664E+03 -0.13318380773E+03  0.12400242332E+04  0.14914914289E+04  0.79009238606E+02 0.  0.
         24    2    4    4    0    0 -0.13308550083E+02  0.10032335510E+03  0.48878881797E+03  0.50635511744E+03  0.85082920152E+02 0.  0.
         11    1    3    3    0    0 -0.32929390435E+03 -0.10414826600E+02  0.88539721323E+02  0.34114839338E+03  0.00000000000E+00 0. -1.
        -12    1    3    3    0    0 -0.47158806221E+03  0.43275279227E+02  0.20881490840E+03  0.51756324848E+03  0.00000000000E+00 0.  1.
         11    1    5    5    0    0  0.62248680912E+03 -0.67549945497E+02  0.94093685533E+03  0.11302278480E+04  0.00000000000E+00 0. -1.
        -12    1    5    5    0    0  0.19170370752E+03 -0.65633862233E+02  0.29908737782E+03  0.36126358095E+03  0.00000000000E+00 0.  1.
          4    1    6    6  502    0  0.11575370066E+02  0.82314040442E+02  0.44601303972E+03  0.45369287194E+03  0.00000000000E+00 0. -1.
         -3    1    6    6    0  502 -0.24883920149E+02  0.18009314662E+02  0.42775778246E+02  0.52662245501E+02  0.00000000000E+00 0.  1.
<mgrwt>
<rscale>  0 0.87281920E+03</rscale>
<asrwt>0</asrwt>
<pdfrwt beam="1">  1        1 0.37559429E+00 0.87281920E+03</pdfrwt>
<pdfrwt beam="2">  1       -2 0.63876194E-01 0.87281920E+03</pdfrwt>
<totfact> 0.30591408E+00</totfact>
</mgrwt>
</event>
<event>
12    3  0.2212098E-007  0.1244024E+04  0.7818608E-02  0.9075171E-01
          1   -1    0    0  501    0  0.00000000000E+00  0.00000000000E+00  0.13033189333E+04  0.13033189333E+04  0.00000000000E+00 0. -1.
         -2   -1    0    0    0  501 -0.00000000000E+00 -0.00000000000E+00 -0.13026537068E+04  0.13026537068E+04  0.00000000000E+00 0.  1.
        -24    2    1    2    0    0  0.34526701350E+03 -0.11802542896E+04  0.90930535947E+02  0.12348548701E+04  0.66247183120E+02 0.  0.
    5000000    2    1    2    0    0 -0.34526701350E+03  0.11802542896E+04 -0.90265309407E+02  0.13711177699E+04  0.59967208903E+03 0.  0.
        -24    2    4    4    0    0 -0.99220360490E+01  0.43946622228E+03 -0.28702697972E+03  0.53081117320E+03  0.78402851900E+02 0.  0.
         24    2    4    4    0    0 -0.33534497745E+03  0.74078806728E+03  0.19676167031E+03  0.84030659675E+03  0.78592665741E+02 0.  0.
         11    1    3    3    0    0  0.25203396313E+03 -0.75015025282E+03  0.52995777546E+02  0.79312992177E+03  0.00000000000E+00 0. -1.
        -12    1    3    3    0    0  0.93233050371E+02 -0.43010403674E+03  0.37934758401E+02  0.44172494835E+03  0.00000000000E+00 0.  1.
         13    1    5    5    0    0 -0.33743094035E+02  0.21231007564E+03 -0.17062849264E+03  0.27445991896E+03  0.00000000000E+00 0. -1.
        -14    1    5    5    0    0  0.23821057986E+02  0.22715614663E+03 -0.11639848708E+03  0.25635125424E+03  0.00000000000E+00 0.  1.
          2    1    6    6  502    0 -0.31908287195E+03  0.70993305612E+03  0.17089622111E+03  0.79688414575E+03  0.00000000000E+00 0. -1.
         -1    1    6    6    0  502 -0.16262105499E+02  0.30855011155E+02  0.25865449200E+02  0.43422451002E+02  0.00000000000E+00 0.  1.
<mgrwt>
<rscale>  0 0.12440244E+04</rscale>
<asrwt>0</asrwt>
<pdfrwt beam="1">  1        1 0.20051060E+00 0.12440244E+04</pdfrwt>
<pdfrwt beam="2">  1       -2 0.20040826E+00 0.12440244E+04</pdfrwt>
<totfact> 0.10109339E+00</totfact>
</mgrwt>
</event>
<event>
12    3  0.2212098E-007  0.5597102E+03  0.7818608E-02  0.9992711E-01
         -2   -1    0    0    0  501 -0.00000000000E+00  0.00000000000E+00  0.64634032565E+03  0.64634032565E+03  0.00000000000E+00 0.  1.
          1   -1    0    0  501    0  0.00000000000E+00 -0.00000000000E+00 -0.51292626325E+03  0.51292626325E+03  0.00000000000E+00 0. -1.
        -24    2    1    2    0    0  0.32575307077E+03 -0.25197521066E+03  0.10032787813E+03  0.43114607327E+03  0.78833263685E+02 0.  0.
    5000000    2    1    2    0    0 -0.32575307077E+03  0.25197521066E+03  0.33086184279E+02  0.72812051563E+03  0.59954834650E+03 0.  0.
        -24    2    4    4    0    0 -0.45977557858E+03  0.70581450707E+02  0.89493362213E+02  0.48148747794E+03  0.86289082112E+02 0.  0.
         24    2    4    4    0    0  0.13402250781E+03  0.18139375995E+03 -0.56407177934E+02  0.24663303769E+03  0.82342922009E+02 0.  0.
         11    1    5    5    0    0 -0.19805806131E+03  0.59953141727E+01  0.73855528040E+02  0.21146531267E+03  0.00000000000E+00 0. -1.
        -12    1    5    5    0    0 -0.26171751727E+03  0.64586136534E+02  0.15637834173E+02  0.27002216527E+03  0.00000000000E+00 0.  1.
         11    1    3    3    0    0  0.24932717791E+03 -0.20765950459E+03  0.46763388030E+02  0.32783124614E+03  0.00000000000E+00 0. -1.
        -12    1    3    3    0    0  0.76425892863E+02 -0.44315706075E+02  0.53564490098E+02  0.10331482713E+03  0.00000000000E+00 0.  1.
          2    1    6    6  502    0  0.99358854207E+02  0.17825177975E+03 -0.56780867264E+02  0.21182527182E+03  0.00000000000E+00 0. -1.
         -1    1    6    6    0  502  0.34663653605E+02  0.31419802009E+01  0.37368932951E+00  0.34807765865E+02  0.00000000000E+00 0.  1.
<mgrwt>
<rscale>  0 0.55971017E+03</rscale>
<asrwt>0</asrwt>
<pdfrwt beam="1">  1        1 0.78911733E-01 0.55971017E+03</pdfrwt>
<pdfrwt beam="2">  1       -2 0.99436973E-01 0.55971017E+03</pdfrwt>
<totfact> 0.32432098E+01</totfact>
</mgrwt>
</event>
<event>
12    3  0.2212098E-007  0.9922201E+03  0.7818608E-02  0.9317119E-01
          1   -1    0    0  501    0  0.00000000000E+00  0.00000000000E+00  0.11484265041E+04  0.11484265041E+04  0.00000000000E+00 0. -1.
         -2   -1    0    0    0  501 -0.00000000000E+00 -0.00000000000E+00 -0.11853177504E+04  0.11853177504E+04  0.00000000000E+00 0.  1.
        -24    2    1    2    0    0 -0.65547139257E+03  0.65452161800E+03  0.55356241214E+03  0.10820130835E+04  0.79244392671E+02 0.  0.
    5000000    2    1    2    0    0  0.65547139257E+03 -0.65452161800E+03 -0.59045365850E+03  0.12517311710E+04  0.60012840851E+03 0.  0.
        -24    2    4    4    0    0  0.63575434877E+03 -0.30666507303E+03 -0.53686483168E+03  0.89042180650E+03  0.80000543721E+02 0.  0.
         24    2    4    4    0    0  0.19717043794E+02 -0.34785654498E+03 -0.53588826820E+02  0.36130936450E+03  0.79244916654E+02 0.  0.
         13    1    5    5    0    0  0.55120041071E+03 -0.28632530900E+03 -0.49309889766E+03  0.79306405681E+03  0.00000000000E+00 0. -1.
        -14    1    5    5    0    0  0.84553938066E+02 -0.20339764030E+02 -0.43765934022E+02  0.97357749687E+02  0.00000000000E+00 0.  1.
         13    1    3    3    0    0 -0.23432132610E+03  0.27156837236E+03  0.18167933329E+03  0.40207368091E+03  0.00000000000E+00 0. -1.
        -14    1    3    3    0    0 -0.42115006646E+03  0.38295324565E+03  0.37188307885E+03  0.67993940257E+03  0.00000000000E+00 0.  1.
          2    1    6    6  502    0  0.12992428898E+02 -0.25351716056E+03 -0.74278730307E+02  0.26449401446E+03  0.00000000000E+00 0. -1.
         -1    1    6    6    0  502  0.67246148962E+01 -0.94339384414E+02  0.20689903487E+02  0.96815350040E+02  0.00000000000E+00 0.  1.
<mgrwt>
<rscale>  0 0.99222009E+03</rscale>
<asrwt>0</asrwt>
<pdfrwt beam="1">  1        1 0.17668100E+00 0.99222009E+03</pdfrwt>
<pdfrwt beam="2">  1       -2 0.18235658E+00 0.99222009E+03</pdfrwt>
<totfact> 0.17817283E+00</totfact>
</mgrwt>
</event>
<event>
12    3  0.2212098E-007  0.1052896E+04  0.7818608E-02  0.9252359E-01
         -2   -1    0    0    0  501 -0.00000000000E+00  0.00000000000E+00  0.11462713089E+04  0.11462713089E+04  0.00000000000E+00 0.  1.
          1   -1    0    0  501    0  0.00000000000E+00 -0.00000000000E+00 -0.12166942502E+04  0.12166942502E+04  0.00000000000E+00 0. -1.
        -24    2    1    2    0    0 -0.66492529336E+03 -0.74372509622E+03 -0.50435465398E+03  0.11205776317E+04  0.77897029183E+02 0.  0.
    5000000    2    1    2    0    0  0.66492529336E+03  0.74372509622E+03  0.43393171266E+03  0.12423879275E+04  0.59998197186E+03 0.  0.
        -24    2    4    4    0    0 -0.49476931479E+02  0.20220640927E+03  0.22877232870E+03  0.31925084002E+03  0.79050121927E+02 0.  0.
         24    2    4    4    0    0  0.71440222484E+03  0.54151868695E+03  0.20515938396E+03  0.92313708745E+03  0.80490261648E+02 0.  0.
         11    1    3    3    0    0 -0.38431873410E+03 -0.45601696928E+03 -0.26299881031E+03  0.65178273978E+03  0.00000000000E+00 0. -1.
        -12    1    3    3    0    0 -0.28060655926E+03 -0.28770812694E+03 -0.24135584367E+03  0.46879489191E+03  0.00000000000E+00 0.  1.
         11    1    5    5    0    0 -0.28959497274E+02  0.16547883181E+03  0.13173169844E+03  0.21348334042E+03  0.00000000000E+00 0. -1.
        -12    1    5    5    0    0 -0.20517434206E+02  0.36727577458E+02  0.97040630252E+02  0.10576749960E+03  0.00000000000E+00 0.  1.
          4    1    6    6  502    0  0.47735192245E+03  0.38686753379E+03  0.10778178369E+03  0.62381748891E+03  0.00000000000E+00 0. -1.
         -1    1    6    6    0  502  0.23705030238E+03  0.15465115316E+03  0.97377600273E+02  0.29931959854E+03  0.00000000000E+00 0.  1.
<mgrwt>
<rscale>  0 0.10528964E+04</rscale>
<asrwt>0</asrwt>
<pdfrwt beam="1">  1        1 0.18718373E+00 0.10528964E+04</pdfrwt>
<pdfrwt beam="2">  1       -2 0.17634943E+00 0.10528964E+04</pdfrwt>
<totfact> 0.17344854E+00</totfact>
</mgrwt>
</event>
<event>
12    3  0.2212098E-007  0.3232731E+03  0.7818608E-02  0.1074153E+00
          1   -1    0    0  501    0  0.00000000000E+00  0.00000000000E+00  0.94442914682E+03  0.94442914682E+03  0.00000000000E+00 0. -1.
         -2   -1    0    0    0  501 -0.00000000000E+00 -0.00000000000E+00 -0.25793627470E+03  0.25793627470E+03  0.00000000000E+00 0.  1.
        -24    2    1    2    0    0  0.25465017925E+02  0.14015662865E+03 -0.10814465310E+03  0.19650309641E+03  0.81399344051E+02 0.  0.
    5000000    2    1    2    0    0 -0.25465017925E+02 -0.14015662865E+03  0.79463752522E+03  0.10058623251E+04  0.60001489390E+03 0.  0.
        -24    2    4    4    0    0 -0.21868826236E+03 -0.24222962947E+00  0.69933252682E+03  0.73698725147E+03  0.79117703461E+02 0.  0.
         24    2    4    4    0    0  0.19322324444E+03 -0.13991439902E+03  0.95304998408E+02  0.26887507364E+03  0.79369397520E+02 0.  0.
         13    1    5    5    0    0 -0.77333474922E+02  0.36350469264E+02  0.29351977242E+03  0.30570521710E+03  0.00000000000E+00 0. -1.
        -14    1    5    5    0    0 -0.14135478744E+03 -0.36592698894E+02  0.40581275439E+03  0.43128203437E+03  0.00000000000E+00 0.  1.
         13    1    3    3    0    0  0.55364351496E+02  0.89169330821E+02 -0.68792885334E+02  0.12549439051E+03  0.00000000000E+00 0. -1.
        -14    1    3    3    0    0 -0.29899333571E+02  0.50987297825E+02 -0.39351767766E+02  0.71008705901E+02  0.00000000000E+00 0.  1.
          2    1    6    6  502    0  0.10062006397E+03 -0.25462407627E+02  0.31941832497E+02  0.10859563591E+03  0.00000000000E+00 0. -1.
         -1    1    6    6    0  502  0.92603180463E+02 -0.11445199139E+03  0.63363165911E+02  0.16027943773E+03  0.00000000000E+00 0.  1.
<mgrwt>
<rscale>  0 0.32327306E+03</rscale>
<asrwt>0</asrwt>
<pdfrwt beam="1">  1        1 0.14529679E+00 0.32327306E+03</pdfrwt>
<pdfrwt beam="2">  1       -2 0.39682504E-01 0.32327306E+03</pdfrwt>
<totfact> 0.94017007E+01</totfact>
</mgrwt>
</event>
<event>
12    3  0.2212098E-007  0.5751609E+03  0.7818608E-02  0.9958323E-01
         -2   -1    0    0    0  501 -0.00000000000E+00  0.00000000000E+00  0.25318842616E+03  0.25318842616E+03  0.00000000000E+00 0.  1.
          1   -1    0    0  501    0  0.00000000000E+00 -0.00000000000E+00 -0.14906120101E+04  0.14906120101E+04  0.00000000000E+00 0. -1.
        -24    2    1    2    0    0 -0.29932150595E+03 -0.32073059024E+03 -0.26164392216E+03  0.51718272641E+03  0.80987375931E+02 0.  0.
    5000000    2    1    2    0    0  0.29932150595E+03  0.32073059024E+03 -0.97577966180E+03  0.12266177099E+04  0.59998631845E+03 0.  0.
        -24    2    4    4    0    0  0.41332087887E+03  0.66882612177E+02 -0.73670283639E+03  0.85128330649E+03  0.81515434326E+02 0.  0.
         24    2    4    4    0    0 -0.11399937292E+03  0.25384797806E+03 -0.23907682541E+03  0.37533440337E+03  0.79268738577E+02 0.  0.
         11    1    3    3    0    0 -0.85516484476E+02 -0.93077361657E+02 -0.11986698758E+03  0.17419689745E+03  0.00000000000E+00 0. -1.
        -12    1    3    3    0    0 -0.21380502147E+03 -0.22765322858E+03 -0.14177693458E+03  0.34298582896E+03  0.00000000000E+00 0.  1.
         13    1    5    5    0    0  0.16312791236E+03 -0.85996782306E+01 -0.32289137722E+03  0.36186117745E+03  0.00000000000E+00 0. -1.
        -14    1    5    5    0    0  0.25019296652E+03  0.75482290408E+02 -0.41381145916E+03  0.48942212904E+03  0.00000000000E+00 0.  1.
          4    1    6    6  502    0 -0.26856677966E+02  0.11188572616E+02 -0.40642970202E+02  0.49983160518E+02  0.00000000000E+00 0. -1.
         -3    1    6    6    0  502 -0.87142694959E+02  0.24265940544E+03 -0.19843385521E+03  0.32535124286E+03  0.00000000000E+00 0.  1.
<mgrwt>
<rscale>  0 0.57516090E+03</rscale>
<asrwt>0</asrwt>
<pdfrwt beam="1">  1        1 0.22932492E+00 0.57516090E+03</pdfrwt>
<pdfrwt beam="2">  1       -2 0.38952066E-01 0.57516090E+03</pdfrwt>
<totfact> 0.38117060E+01</totfact>
</mgrwt>
</event>
<event>
12    3  0.2212098E-007  0.6876728E+03  0.7818608E-02  0.9738549E-01
          1   -1    0    0  501    0  0.00000000000E+00  0.00000000000E+00  0.14500936654E+04  0.14500936654E+04  0.00000000000E+00 0. -1.
         -2   -1    0    0    0  501 -0.00000000000E+00 -0.00000000000E+00 -0.52759438397E+03  0.52759438397E+03  0.00000000000E+00 0.  1.
        -24    2    1    2    0    0  0.31382373424E+03  0.47955474697E+03 -0.17489121229E+03  0.60192332248E+03  0.57154689133E+02 0.  0.
    5000000    2    1    2    0    0 -0.31382373424E+03 -0.47955474697E+03  0.10973904937E+04  0.13757647269E+04  0.60000383043E+03 0.  0.
        -24    2    4    4    0    0 -0.14316872198E+03  0.96353679126E+02  0.41899119776E+03  0.46424892800E+03  0.10095607416E+03 0.  0.
         24    2    4    4    0    0 -0.17065501226E+03 -0.57590842610E+03  0.67839929596E+03  0.91151579889E+03  0.99205838628E+02 0.  0.
         13    1    3    3    0    0  0.15073539308E+03  0.19092959684E+03 -0.55039979260E+02  0.24940863858E+03  0.00000000000E+00 0. -1.
        -14    1    3    3    0    0  0.16308834116E+03  0.28862515013E+03 -0.11985123303E+03  0.35251468390E+03  0.00000000000E+00 0.  1.
         13    1    5    5    0    0 -0.79753620905E+02  0.10916073946E+03  0.28804626799E+03  0.31819390250E+03  0.00000000000E+00 0. -1.
        -14    1    5    5    0    0 -0.63415101078E+02 -0.12807060336E+02  0.13094492977E+03  0.14605502549E+03  0.00000000000E+00 0.  1.
          4    1    6    6  502    0 -0.11037315982E+03 -0.38124714550E+03  0.51569777127E+03  0.65075019143E+03  0.00000000000E+00 0. -1.
         -3    1    6    6    0  502 -0.60281852441E+02 -0.19466128060E+03  0.16270152469E+03  0.26076560746E+03  0.00000000000E+00 0.  1.
<mgrwt>
<rscale>  0 0.68767283E+03</rscale>
<asrwt>0</asrwt>
<pdfrwt beam="1">  1        1 0.22309133E+00 0.68767283E+03</pdfrwt>
<pdfrwt beam="2">  1       -2 0.81168367E-01 0.68767283E+03</pdfrwt>
<totfact> 0.86572335E+00</totfact>
</mgrwt>
</event>
<event>
12    3  0.2212098E-007  0.3765947E+03  0.7818608E-02  0.1052200E+00
          1   -1    0    0  501    0  0.00000000000E+00  0.00000000000E+00  0.47056737060E+03  0.47056737060E+03  0.00000000000E+00 0. -1.
         -2   -1    0    0    0  501 -0.00000000000E+00 -0.00000000000E+00 -0.34455199153E+03  0.34455199153E+03  0.00000000000E+00 0.  1.
        -24    2    1    2    0    0  0.12385105244E+03  0.93891562088E+02  0.86518922853E+02  0.19473151494E+03  0.79247272995E+02 0.  0.
    5000000    2    1    2    0    0 -0.12385105244E+03 -0.93891562088E+02  0.39496456221E+02  0.62038784719E+03  0.59930493262E+03 0.  0.
        -24    2    4    4    0    0 -0.66387202065E+02  0.23762722815E+03  0.79336045639E+02  0.27098744552E+03  0.79158242389E+02 0.  0.
         24    2    4    4    0    0 -0.57463850375E+02 -0.33151879024E+03 -0.39839589418E+02  0.34940040167E+03  0.85361849922E+02 0.  0.
         11    1    5    5    0    0 -0.58788018421E+02  0.71360904096E+02  0.23046179712E+02  0.95286600016E+02  0.00000000000E+00 0. -1.
        -12    1    5    5    0    0 -0.75991836440E+01  0.16626632405E+03  0.56289865927E+02  0.17570084551E+03  0.00000000000E+00 0.  1.
         11    1    3    3    0    0  0.84419421968E+02  0.73989169374E+02  0.98088491941E+02  0.14907175534E+03  0.00000000000E+00 0. -1.
        -12    1    3    3    0    0  0.39431630472E+02  0.19902392714E+02 -0.11569569088E+02  0.45659759595E+02  0.00000000000E+00 0.  1.
          2    1    6    6  502    0 -0.61182299015E+02 -0.30367469787E+03 -0.12238392601E+02  0.31001834477E+03  0.00000000000E+00 0. -1.
         -1    1    6    6    0  502  0.37184486401E+01 -0.27844092362E+02 -0.27601196816E+02  0.39382056897E+02  0.00000000000E+00 0.  1.
<mgrwt>
<rscale>  0 0.37659474E+03</rscale>
<asrwt>0</asrwt>
<pdfrwt beam="1">  1        1 0.72394980E-01 0.37659474E+03</pdfrwt>
<pdfrwt beam="2">  1       -2 0.53007999E-01 0.37659474E+03</pdfrwt>
<totfact> 0.14684562E+02</totfact>
</mgrwt>
</event>
<event>
12    3  0.2212098E-007  0.3931546E+03  0.7818608E-02  0.1046176E+00
          1   -1    0    0  501    0  0.00000000000E+00  0.00000000000E+00  0.18275530052E+03  0.18275530052E+03  0.00000000000E+00 0. -1.
         -2   -1    0    0    0  501 -0.00000000000E+00 -0.00000000000E+00 -0.12414998615E+04  0.12414998615E+04  0.00000000000E+00 0.  1.
        -24    2    1    2    0    0 -0.15753200276E+03  0.20576292145E+02 -0.66820584977E+03  0.69110218356E+03  0.76703681507E+02 0.  0.
    5000000    2    1    2    0    0  0.15753200276E+03 -0.20576292145E+02 -0.39053871123E+03  0.73315297848E+03  0.59979420570E+03 0.  0.
        -24    2    4    4    0    0 -0.14627115634E+03  0.18063802788E+03 -0.13093793789E+03  0.27825498886E+03  0.79093280070E+02 0.  0.
         24    2    4    4    0    0  0.30380315910E+03 -0.20121432002E+03 -0.25960077333E+03  0.45489798962E+03  0.82195239429E+02 0.  0.
         11    1    3    3    0    0 -0.50493390238E+02  0.31978779705E+02 -0.14316156031E+03  0.15513689812E+03  0.00000000000E+00 0. -1.
        -12    1    3    3    0    0 -0.10703861252E+03 -0.11402487560E+02 -0.52504428946E+03  0.53596528544E+03  0.00000000000E+00 0.  1.
         11    1    5    5    0    0 -0.13538284605E+03  0.11125353536E+03 -0.96183372433E+02  0.19989273440E+03  0.00000000000E+00 0. -1.
        -12    1    5    5    0    0 -0.10888310291E+02  0.69384492520E+02 -0.34754565462E+02  0.78362254458E+02  0.00000000000E+00 0.  1.
          2    1    6    6  502    0  0.57854140550E+02 -0.81363964801E+02 -0.64387295338E+02  0.11879781205E+03  0.00000000000E+00 0. -1.
         -1    1    6    6    0  502  0.24594901855E+03 -0.11985035522E+03 -0.19521347799E+03  0.33610017757E+03  0.00000000000E+00 0.  1.
<mgrwt>
<rscale>  0 0.39315458E+03</rscale>
<asrwt>0</asrwt>
<pdfrwt beam="1">  1        1 0.28116199E-01 0.39315458E+03</pdfrwt>
<pdfrwt beam="2">  1       -2 0.19099999E+00 0.39315458E+03</pdfrwt>
<totfact> 0.23502342E+01</totfact>
</mgrwt>
</event>
<event>
12    3  0.2212098E-007  0.7849892E+03  0.7818608E-02  0.9582002E-01
          1   -1    0    0  501    0  0.00000000000E+00  0.00000000000E+00  0.93565587032E+03  0.93565587032E+03  0.00000000000E+00 0. -1.
         -2   -1    0    0    0  501 -0.00000000000E+00 -0.00000000000E+00 -0.10311645923E+04  0.10311645923E+04  0.00000000000E+00 0.  1.
        -24    2    1    2    0    0  0.58380499980E+03 -0.47518492442E+03  0.42954227715E+03  0.87037716142E+03  0.80130175826E+02 0.  0.
    5000000    2    1    2    0    0 -0.58380499980E+03  0.47518492442E+03 -0.52505099908E+03  0.10964433012E+04  0.59990030074E+03 0.  0.
        -24    2    4    4    0    0 -0.42762951788E+03  0.49803952614E+03 -0.14442950819E+03  0.67683374328E+03  0.79584288977E+02 0.  0.
         24    2    4    4    0    0 -0.15617548192E+03 -0.22854601717E+02 -0.38062149089E+03  0.41960955787E+03  0.79286491648E+02 0.  0.
         11    1    3    3    0    0  0.45833263245E+03 -0.37130355975E+03  0.29722077207E+03  0.66051141005E+03  0.00000000000E+00 0. -1.
        -12    1    3    3    0    0  0.12547236735E+03 -0.10388136467E+03  0.13232150507E+03  0.20986575137E+03  0.00000000000E+00 0.  1.
         13    1    5    5    0    0 -0.34760250383E+03  0.43048608994E+03 -0.14544573935E+03  0.57210159710E+03  0.00000000000E+00 0. -1.
        -14    1    5    5    0    0 -0.80027014044E+02  0.67553436192E+02  0.10162311593E+01  0.10473214618E+03  0.00000000000E+00 0.  1.
          4    1    6    6  502    0 -0.84095063932E+02 -0.18579346074E+01 -0.10830092605E+03  0.13712958208E+03  0.00000000000E+00 0. -1.
         -3    1    6    6    0  502 -0.72080417986E+02 -0.20996667110E+02 -0.27232056484E+03  0.28247997579E+03  0.00000000000E+00 0.  1.
<mgrwt>
<rscale>  0 0.78498918E+03</rscale>
<asrwt>0</asrwt>
<pdfrwt beam="1">  1        1 0.14394706E+00 0.78498918E+03</pdfrwt>
<pdfrwt beam="2">  1       -2 0.15864071E+00 0.78498918E+03</pdfrwt>
<totfact> 0.39268145E+00</totfact>
</mgrwt>
</event>
<event>
12    3  0.2212098E-007  0.8542921E+03  0.7818608E-02  0.9484594E-01
          1   -1    0    0  501    0  0.00000000000E+00  0.00000000000E+00  0.40501827341E+04  0.40501827341E+04  0.00000000000E+00 0. -1.
         -2   -1    0    0    0  501 -0.00000000000E+00 -0.00000000000E+00 -0.22467339078E+03  0.22467339078E+03  0.00000000000E+00 0.  1.
        -24    2    1    2    0    0  0.72977060840E+03  0.37133636361E+03  0.22972654731E+04  0.24401864663E+04  0.81397179273E+02 0.  0.
    5000000    2    1    2    0    0 -0.72977060840E+03 -0.37133636361E+03  0.15282438702E+04  0.18346696585E+04  0.60002299394E+03 0.  0.
        -24    2    4    4    0    0 -0.27887773468E+03 -0.33183211051E+03  0.32405861835E+03  0.54562561436E+03  0.69339616766E+02 0.  0.
         24    2    4    4    0    0 -0.45089287372E+03 -0.39504253100E+02  0.12041852519E+04  0.12890440442E+04  0.81899068410E+02 0.  0.
         13    1    3    3    0    0  0.63681054586E+03  0.32725597660E+03  0.19202754165E+04  0.20494101153E+04  0.00000000000E+00 0. -1.
        -14    1    3    3    0    0  0.92960062545E+02  0.44080387008E+02  0.37699005660E+03  0.39077635103E+03  0.00000000000E+00 0.  1.
         13    1    5    5    0    0 -0.12294342276E+03 -0.13216514198E+03  0.17642496081E+03  0.25240538178E+03  0.00000000000E+00 0. -1.
        -14    1    5    5    0    0 -0.15593431192E+03 -0.19966696853E+03  0.14763365754E+03  0.29322023259E+03  0.00000000000E+00 0.  1.
          2    1    6    6  502    0 -0.25999990994E+03 -0.49711937989E+02  0.78220734975E+03  0.82578421392E+03  0.00000000000E+00 0. -1.
         -1    1    6    6    0  502 -0.19089296378E+03  0.10207684889E+02  0.42197790213E+03  0.46325983027E+03  0.00000000000E+00 0.  1.
<mgrwt>
<rscale>  0 0.85429209E+03</rscale>
<asrwt>0</asrwt>
<pdfrwt beam="1">  1        1 0.62310499E+00 0.85429209E+03</pdfrwt>
<pdfrwt beam="2">  1       -2 0.34565140E-01 0.85429209E+03</pdfrwt>
<totfact> 0.64589386E-01</totfact>
</mgrwt>
</event>
<event>
12    3  0.2212098E-007  0.8908534E+03  0.7818608E-02  0.9437088E-01
          1   -1    0    0  501    0  0.00000000000E+00  0.00000000000E+00  0.14780997772E+04  0.14780997772E+04  0.00000000000E+00 0. -1.
         -2   -1    0    0    0  501 -0.00000000000E+00 -0.00000000000E+00 -0.91324104903E+03  0.91324104903E+03  0.00000000000E+00 0.  1.
        -24    2    1    2    0    0  0.47013579372E+03  0.64746748799E+03 -0.48678516114E+03  0.94003226612E+03  0.80368250590E+02 0.  0.
    5000000    2    1    2    0    0 -0.47013579372E+03 -0.64746748799E+03  0.10516438893E+04  0.14513085602E+04  0.60008320611E+03 0.  0.
        -24    2    4    4    0    0 -0.28237066733E+03 -0.72228426468E+03  0.86795362148E+03  0.11667511645E+04  0.80851951598E+02 0.  0.
         24    2    4    4    0    0 -0.18776512639E+03  0.74816776698E+02  0.18369026787E+03  0.28455739564E+03  0.79859277129E+02 0.  0.
         11    1    3    3    0    0  0.20328531916E+03  0.28841540282E+03 -0.26121707571E+03  0.43902474442E+03  0.00000000000E+00 0. -1.
        -12    1    3    3    0    0  0.26685047456E+03  0.35905208516E+03 -0.22556808543E+03  0.50100752169E+03  0.00000000000E+00 0.  1.
         11    1    5    5    0    0 -0.12771676033E+03 -0.37956955589E+03  0.39439214128E+03  0.56207631130E+03  0.00000000000E+00 0. -1.
        -12    1    5    5    0    0 -0.15465390700E+03 -0.34271470880E+03  0.47356148020E+03  0.60467485321E+03  0.00000000000E+00 0.  1.
          4    1    6    6  502    0 -0.78464230473E+01 -0.37472097043E+01 -0.67763345984E+01  0.11023912454E+02  0.00000000000E+00 0. -1.
         -3    1    6    6    0  502 -0.17991870334E+03  0.78563986403E+02  0.19046660247E+03  0.27353348319E+03  0.00000000000E+00 0.  1.
<mgrwt>
<rscale>  0 0.89085342E+03</rscale>
<asrwt>0</asrwt>
<pdfrwt beam="1">  1        1 0.22739997E+00 0.89085342E+03</pdfrwt>
<pdfrwt beam="2">  1       -2 0.14049862E+00 0.89085342E+03</pdfrwt>
<totfact> 0.21413707E+00</totfact>
</mgrwt>
</event>
<event>
12    3  0.2212098E-007  0.1252200E+04  0.7818608E-02  0.9068354E-01
         -2   -1    0    0    0  501 -0.00000000000E+00  0.00000000000E+00  0.77057222251E+03  0.77057222251E+03  0.00000000000E+00 0.  1.
          1   -1    0    0  501    0  0.00000000000E+00 -0.00000000000E+00 -0.22630061167E+04  0.22630061167E+04  0.00000000000E+00 0. -1.
        -24    2    1    2    0    0 -0.84043677945E+03  0.90981968021E+03 -0.50596733593E+03  0.13402720145E+04  0.78868859833E+02 0.  0.
    5000000    2    1    2    0    0  0.84043677945E+03 -0.90981968021E+03 -0.98646655822E+03  0.16933063247E+04  0.60005350426E+03 0.  0.
        -24    2    4    4    0    0  0.59153428674E+03 -0.78953995421E+03 -0.45528841891E+03  0.10892011011E+04  0.76061439797E+02 0.  0.
         24    2    4    4    0    0  0.24890249271E+03 -0.12027972600E+03 -0.53117813931E+03  0.60410522355E+03  0.79832587832E+02 0.  0.
         13    1    3    3    0    0 -0.48221735529E+03  0.49463300050E+03 -0.24473301630E+03  0.73286399297E+03  0.00000000000E+00 0. -1.
        -14    1    3    3    0    0 -0.35821942416E+03  0.41518667971E+03 -0.26123431964E+03  0.60740802153E+03  0.00000000000E+00 0.  1.
         13    1    5    5    0    0  0.45545739352E+03 -0.65155644272E+03 -0.34932838544E+03  0.86833032668E+03  0.00000000000E+00 0. -1.
        -14    1    5    5    0    0  0.13607689323E+03 -0.13798351149E+03 -0.10596003347E+03  0.22087077445E+03  0.00000000000E+00 0.  1.
          2    1    6    6  502    0  0.19070425906E+03 -0.94471550562E+02 -0.46940858107E+03  0.51540023697E+03  0.00000000000E+00 0. -1.
         -3    1    6    6    0  502  0.58198233646E+02 -0.25808175434E+02 -0.61769558240E+02  0.88704986578E+02  0.00000000000E+00 0.  1.
<mgrwt>
<rscale>  0 0.12521996E+04</rscale>
<asrwt>0</asrwt>
<pdfrwt beam="1">  1        1 0.34815479E+00 0.12521996E+04</pdfrwt>
<pdfrwt beam="2">  1       -2 0.11854957E+00 0.12521996E+04</pdfrwt>
<totfact> 0.92490785E-01</totfact>
</mgrwt>
</event>
<event>
12    3  0.2212098E-007  0.4159917E+03  0.7818608E-02  0.1038379E+00
          1   -1    0    0  501    0  0.00000000000E+00  0.00000000000E+00  0.43274119306E+03  0.43274119306E+03  0.00000000000E+00 0. -1.
         -2   -1    0    0    0  501 -0.00000000000E+00 -0.00000000000E+00 -0.44377242334E+03  0.44377242334E+03  0.00000000000E+00 0.  1.
        -24    2    1    2    0    0  0.32370095338E+02 -0.20371184662E+03 -0.89285532399E+02  0.23784480546E+03  0.77793995033E+02 0.  0.
    5000000    2    1    2    0    0 -0.32370095338E+02  0.20371184662E+03  0.78254302120E+02  0.63866881094E+03  0.59935613348E+03 0.  0.
        -24    2    4    4    0    0 -0.97637919602E+02  0.38553791875E+03  0.12040422715E+03  0.42544083802E+03  0.91269264270E+02 0.  0.
         24    2    4    4    0    0  0.65267824264E+02 -0.18182607212E+03 -0.42149925035E+02  0.21322797292E+03  0.79805656863E+02 0.  0.
         11    1    5    5    0    0 -0.53433747408E+02  0.63809025295E+02  0.27724772182E+02  0.87723543383E+02  0.00000000000E+00 0. -1.
        -12    1    5    5    0    0 -0.44204172194E+02  0.32172889345E+03  0.92679454973E+02  0.33771729463E+03  0.00000000000E+00 0.  1.
         11    1    3    3    0    0 -0.18129885785E+02 -0.60238847128E+02 -0.51039436385E+02  0.81008860801E+02  0.00000000000E+00 0. -1.
        -12    1    3    3    0    0  0.50499981123E+02 -0.14347299949E+03 -0.38246096014E+02  0.15683594466E+03  0.00000000000E+00 0.  1.
          4    1    6    6  502    0  0.79720601466E+01 -0.13434961084E+03 -0.25571172903E+02  0.13699363693E+03  0.00000000000E+00 0. -1.
         -3    1    6    6    0  502  0.57295764117E+02 -0.47476461288E+02 -0.16578752132E+02  0.76234335994E+02  0.00000000000E+00 0.  1.
<mgrwt>
<rscale>  0 0.41599169E+03</rscale>
<asrwt>0</asrwt>
<pdfrwt beam="1">  1        1 0.66575569E-01 0.41599169E+03</pdfrwt>
<pdfrwt beam="2">  1       -2 0.68272680E-01 0.41599169E+03</pdfrwt>
<totfact> 0.96280346E+01</totfact>
</mgrwt>
</event>
<event>
12    3  0.2212098E-007  0.1127495E+04  0.7818608E-02  0.9178800E-01
          1   -1    0    0  501    0  0.00000000000E+00  0.00000000000E+00  0.16952929726E+04  0.16952929726E+04  0.00000000000E+00 0. -1.
         -2   -1    0    0    0  501 -0.00000000000E+00 -0.00000000000E+00 -0.79489464686E+03  0.79489464686E+03  0.00000000000E+00 0.  1.
        -24    2    1    2    0    0 -0.10457949182E+03 -0.10546825612E+04  0.18812775578E+03  0.10793453161E+04  0.79385664753E+02 0.  0.
    5000000    2    1    2    0    0  0.10457949182E+03  0.10546825612E+04  0.71227056997E+03  0.14108423034E+04  0.59987870868E+03 0.  0.
        -24    2    4    4    0    0 -0.19008300571E+03  0.16413504730E+03  0.75991735921E+02  0.27457465401E+03  0.80898911534E+02 0.  0.
         24    2    4    4    0    0  0.29466249753E+03  0.89054751394E+03  0.63627883405E+03  0.11362676494E+04  0.79702913062E+02 0.  0.
         13    1    3    3    0    0 -0.28315859448E+02 -0.12567627143E+03  0.21646327970E+01  0.12884486304E+03  0.00000000000E+00 0. -1.
        -14    1    3    3    0    0 -0.76263632373E+02 -0.92900628980E+03  0.18596312299E+03  0.95050045304E+03  0.00000000000E+00 0.  1.
         13    1    5    5    0    0 -0.11081790660E+03  0.11357300945E+03  0.85199058664E+02  0.18010640326E+03  0.00000000000E+00 0. -1.
        -14    1    5    5    0    0 -0.79265099105E+02  0.50562037850E+02 -0.92073227430E+01  0.94468250750E+02  0.00000000000E+00 0.  1.
          4    1    6    6  502    0  0.11143737763E+03  0.46218460772E+03  0.32864740606E+03  0.57796368247E+03  0.00000000000E+00 0. -1.
         -3    1    6    6    0  502  0.18322511990E+03  0.42836290621E+03  0.30763142799E+03  0.55830396691E+03  0.00000000000E+00 0.  1.
<mgrwt>
<rscale>  0 0.11274948E+04</rscale>
<asrwt>0</asrwt>
<pdfrwt beam="1">  1        1 0.26081430E+00 0.11274948E+04</pdfrwt>
<pdfrwt beam="2">  1       -2 0.12229148E+00 0.11274948E+04</pdfrwt>
<totfact> 0.21045207E+00</totfact>
</mgrwt>
</event>
<event>
12    3  0.2212098E-007  0.4988846E+03  0.7818608E-02  0.1014070E+00
         -2   -1    0    0    0  501 -0.00000000000E+00  0.00000000000E+00  0.13433440880E+03  0.13433440880E+03  0.00000000000E+00 0.  1.
          1   -1    0    0  501    0  0.00000000000E+00 -0.00000000000E+00 -0.23840948736E+04  0.23840948736E+04  0.00000000000E+00 0. -1.
        -24    2    1    2    0    0  0.28776837518E+03  0.21066481520E+03 -0.40048317445E+03  0.54184554640E+03  0.77585572188E+02 0.  0.
    5000000    2    1    2    0    0 -0.28776837518E+03 -0.21066481520E+03 -0.18492772903E+04  0.19765837360E+04  0.59988871195E+03 0.  0.
        -24    2    4    4    0    0 -0.75951627991E+00  0.15344880778E+03 -0.21949835628E+03  0.28030303586E+03  0.82723334246E+02 0.  0.
         24    2    4    4    0    0 -0.28700885890E+03 -0.36411362298E+03 -0.16297789340E+04  0.16962807001E+04  0.78968501509E+02 0.  0.
         11    1    3    3    0    0  0.11164525008E+03  0.92492378577E+02 -0.21933767892E+03  0.26292302934E+03  0.00000000000E+00 0. -1.
        -12    1    3    3    0    0  0.17612312510E+03  0.11817243662E+03 -0.18114549553E+03  0.27892251706E+03  0.00000000000E+00 0.  1.
         11    1    5    5    0    0  0.28471406554E+02  0.13297366430E+03 -0.15201415805E+03  0.20396303743E+03  0.00000000000E+00 0. -1.
        -12    1    5    5    0    0 -0.29230922834E+02  0.20475143481E+02 -0.67484198227E+02  0.76339998432E+02  0.00000000000E+00 0.  1.
          2    1    6    6  502    0 -0.16540088353E+03 -0.26384694979E+03 -0.10213120706E+04  0.10677317129E+04  0.00000000000E+00 0. -1.
         -1    1    6    6    0  502 -0.12160797537E+03 -0.10026667319E+03 -0.60846686340E+03  0.62854898718E+03  0.00000000000E+00 0.  1.
<mgrwt>
<rscale>  0 0.49888462E+03</rscale>
<asrwt>0</asrwt>
<pdfrwt beam="1">  1        1 0.36678379E+00 0.49888462E+03</pdfrwt>
<pdfrwt beam="2">  1       -2 0.20666834E-01 0.49888462E+03</pdfrwt>
<totfact> 0.31292504E+01</totfact>
</mgrwt>
</event>
<event>
12    3  0.2212098E-007  0.5677260E+03  0.7818608E-02  0.9974723E-01
         -4   -1    0    0    0  501 -0.00000000000E+00  0.00000000000E+00  0.70789508654E+03  0.70789508654E+03  0.00000000000E+00 0.  1.
          3   -1    0    0  501    0  0.00000000000E+00 -0.00000000000E+00 -0.12319439666E+04  0.12319439666E+04  0.00000000000E+00 0. -1.
        -24    2    1    2    0    0 -0.54726814872E+03 -0.10931032108E+03 -0.88101308362E+03  0.10460360079E+04  0.80969768190E+02 0.  0.
    5000000    2    1    2    0    0  0.54726814872E+03  0.10931032108E+03  0.35696420357E+03  0.89380304527E+03  0.60000772345E+03 0.  0.
        -24    2    4    4    0    0  0.44910886622E+03  0.10172800137E+03  0.51179685351E+03  0.69355455229E+03  0.83872151309E+02 0.  0.
         24    2    4    4    0    0  0.98159282498E+02  0.75823197103E+01 -0.15483264994E+03  0.20024849297E+03  0.80209557647E+02 0.  0.
         13    1    3    3    0    0 -0.41176596809E+03 -0.10648420307E+03 -0.71244687897E+03  0.82974131712E+03  0.00000000000E+00 0. -1.
        -14    1    3    3    0    0 -0.13550218063E+03 -0.28261180116E+01 -0.16856620465E+03  0.21629469076E+03  0.00000000000E+00 0.  1.
         13    1    5    5    0    0  0.13959100956E+03  0.56946516803E+02  0.21351396534E+03  0.26137476757E+03  0.00000000000E+00 0. -1.
        -14    1    5    5    0    0  0.30951785666E+03  0.44781484569E+02  0.29828288817E+03  0.43217978472E+03  0.00000000000E+00 0.  1.
          4    1    6    6  502    0  0.82287955702E+02  0.26466950267E+02 -0.68003324017E+02  0.10998299499E+03  0.00000000000E+00 0. -1.
         -3    1    6    6    0  502  0.15871326796E+02 -0.18884630557E+02 -0.86829325924E+02  0.90265497982E+02  0.00000000000E+00 0.  1.
<mgrwt>
<rscale>  0 0.56772596E+03</rscale>
<asrwt>0</asrwt>
<pdfrwt beam="1">  1        3 0.18952984E+00 0.56772596E+03</pdfrwt>
<pdfrwt beam="2">  1       -4 0.10890694E+00 0.56772596E+03</pdfrwt>
<totfact> 0.26317903E-01</totfact>
</mgrwt>
</event>
<event>
12    3  0.2212098E-007  0.8439713E+03  0.7818608E-02  0.9498464E-01
          1   -1    0    0  501    0  0.00000000000E+00  0.00000000000E+00  0.15635053227E+04  0.15635053227E+04  0.00000000000E+00 0. -1.
         -2   -1    0    0    0  501 -0.00000000000E+00 -0.00000000000E+00 -0.58070256776E+03  0.58070256776E+03  0.00000000000E+00 0.  1.
        -24    2    1    2    0    0  0.62448388826E+03 -0.43521858995E+03  0.88507939556E+03  0.11700454889E+04  0.79028866882E+02 0.  0.
    5000000    2    1    2    0    0 -0.62448388826E+03  0.43521858995E+03  0.97723359336E+02  0.97416240157E+03  0.60003931700E+03 0.  0.
        -24    2    4    4    0    0 -0.62344123370E+03  0.53315285241E+03  0.13391470167E+02  0.82433840648E+03  0.80146996242E+02 0.  0.
         24    2    4    4    0    0 -0.10426545530E+01 -0.97934262458E+02  0.84331889169E+02  0.14982399509E+03  0.75783606955E+02 0.  0.
         11    1    5    5    0    0 -0.28710979409E+03  0.25785253702E+03  0.45198389438E+02  0.38853939198E+03  0.00000000000E+00 0. -1.
        -12    1    5    5    0    0 -0.33633143962E+03  0.27530031539E+03 -0.31806919271E+02  0.43579901450E+03  0.00000000000E+00 0.  1.
         11    1    3    3    0    0  0.49269001985E+03 -0.33125168320E+03  0.63976125546E+03  0.87279184074E+03  0.00000000000E+00 0. -1.
        -12    1    3    3    0    0  0.13179386840E+03 -0.10396690675E+03  0.24531814011E+03  0.29725364811E+03  0.00000000000E+00 0.  1.
          4    1    6    6  502    0 -0.19896075001E+02 -0.64062013260E+02  0.12551670206E+02  0.68244705057E+02  0.00000000000E+00 0. -1.
         -3    1    6    6    0  502  0.18853420448E+02 -0.33872249198E+02  0.71780218963E+02  0.81579290036E+02  0.00000000000E+00 0.  1.
<mgrwt>
<rscale>  0 0.84397126E+03</rscale>
<asrwt>0</asrwt>
<pdfrwt beam="1">  1        1 0.24053928E+00 0.84397126E+03</pdfrwt>
<pdfrwt beam="2">  1       -2 0.89338857E-01 0.84397126E+03</pdfrwt>
<totfact> 0.56932400E+00</totfact>
</mgrwt>
</event>
<event>
12    3  0.2212098E-007  0.5523659E+03  0.7818608E-02  0.1000948E+00
          1   -1    0    0  501    0  0.00000000000E+00  0.00000000000E+00  0.39166689278E+03  0.39166689278E+03  0.00000000000E+00 0. -1.
         -2   -1    0    0    0  501 -0.00000000000E+00 -0.00000000000E+00 -0.10660699630E+04  0.10660699630E+04  0.00000000000E+00 0.  1.
        -24    2    1    2    0    0 -0.46450928624E+03 -0.14520770091E+03 -0.13498127976E+03  0.51566353531E+03  0.10409026059E+03 0.  0.
    5000000    2    1    2    0    0  0.46450928624E+03  0.14520770091E+03 -0.53942179042E+03  0.94207332044E+03  0.59972670417E+03 0.  0.
        -24    2    4    4    0    0  0.29845454951E+03  0.26275315774E+03 -0.59111696463E+03  0.71688023157E+03  0.79897813026E+02 0.  0.
         24    2    4    4    0    0  0.16605473674E+03 -0.11754545683E+03  0.51695174210E+02  0.22519308887E+03  0.81537882130E+02 0.  0.
         11    1    5    5    0    0  0.62584089359E+02  0.17822372779E+02 -0.82695623261E+02  0.10522818690E+03  0.00000000000E+00 0. -1.
        -12    1    5    5    0    0  0.23587046015E+03  0.24493078497E+03 -0.50842134137E+03  0.61165204467E+03  0.00000000000E+00 0.  1.
         13    1    3    3    0    0 -0.11166273874E+03 -0.79968122655E+02 -0.55531817920E+02  0.14814604506E+03  0.00000000000E+00 0. -1.
        -14    1    3    3    0    0 -0.35284654750E+03 -0.65239578258E+02 -0.79449461843E+02  0.36751749025E+03  0.00000000000E+00 0.  1.
          4    1    6    6  502    0  0.48158963274E+02 -0.34572560300E+02 -0.22060819917E+02  0.63255256262E+02  0.00000000000E+00 0. -1.
         -3    1    6    6    0  502  0.11789577346E+03 -0.82972896531E+02  0.73755994126E+02  0.16193783261E+03  0.00000000000E+00 0.  1.
<mgrwt>
<rscale>  0 0.55236591E+03</rscale>
<asrwt>0</asrwt>
<pdfrwt beam="1">  1        1 0.60256445E-01 0.55236591E+03</pdfrwt>
<pdfrwt beam="2">  1       -2 0.16401076E+00 0.55236591E+03</pdfrwt>
<totfact> 0.13221546E+01</totfact>
</mgrwt>
</event>
<event>
12    3  0.2212098E-007  0.7958618E+03  0.7818608E-02  0.9566026E-01
          1   -1    0    0  501    0  0.00000000000E+00  0.00000000000E+00  0.90480382879E+03  0.90480382879E+03  0.00000000000E+00 0. -1.
         -2   -1    0    0    0  501 -0.00000000000E+00 -0.00000000000E+00 -0.10036734172E+04  0.10036734172E+04  0.00000000000E+00 0.  1.
        -24    2    1    2    0    0  0.64093471040E+03 -0.31793959898E+03  0.42677506340E+03  0.83685492254E+03  0.79412310399E+02 0.  0.
    5000000    2    1    2    0    0 -0.64093471040E+03  0.31793959898E+03 -0.52564465183E+03  0.10716223235E+04  0.60015765642E+03 0.  0.
        -24    2    4    4    0    0  0.67003783904E+02 -0.38020438286E+02 -0.16391143528E+03  0.19682296557E+03  0.77053620144E+02 0.  0.
         24    2    4    4    0    0 -0.70793849430E+03  0.35596003727E+03 -0.36173321655E+03  0.87479935789E+03  0.80861219192E+02 0.  0.
         11    1    5    5    0    0  0.52752065984E+02 -0.18644575528E+02 -0.16345533743E+03  0.17276587625E+03  0.00000000000E+00 0. -1.
        -12    1    5    5    0    0  0.14251717920E+02 -0.19375862758E+02 -0.45609784389E+00  0.24057089319E+02  0.00000000000E+00 0.  1.
         13    1    3    3    0    0  0.47429751309E+03 -0.23734364593E+03  0.27466520921E+03  0.59726971658E+03  0.00000000000E+00 0. -1.
        -14    1    3    3    0    0  0.16663719730E+03 -0.80595953049E+02  0.15210985419E+03  0.23958520596E+03  0.00000000000E+00 0.  1.
          2    1    6    6  502    0 -0.57450506666E+03  0.32188352811E+03 -0.30751929977E+03  0.72679653069E+03  0.00000000000E+00 0. -1.
         -1    1    6    6    0  502 -0.13343342764E+03  0.34076509155E+02 -0.54213916783E+02  0.14800282721E+03  0.00000000000E+00 0.  1.
<mgrwt>
<rscale>  0 0.79586181E+03</rscale>
<asrwt>0</asrwt>
<pdfrwt beam="1">  1        1 0.13920059E+00 0.79586181E+03</pdfrwt>
<pdfrwt beam="2">  1       -2 0.15441129E+00 0.79586181E+03</pdfrwt>
<totfact> 0.44659099E+00</totfact>
</mgrwt>
</event>
<event>
12    3  0.2212098E-007  0.4745188E+03  0.7818608E-02  0.1020653E+00
         -2   -1    0    0    0  501 -0.00000000000E+00  0.00000000000E+00  0.26652589655E+03  0.26652589655E+03  0.00000000000E+00 0.  1.
          1   -1    0    0  501    0  0.00000000000E+00 -0.00000000000E+00 -0.98827974557E+03  0.98827974557E+03  0.00000000000E+00 0. -1.
        -24    2    1    2    0    0  0.24476933230E+03  0.16720348519E+03 -0.61448084229E+02  0.31453366487E+03  0.85361160902E+02 0.  0.
    5000000    2    1    2    0    0 -0.24476933230E+03 -0.16720348519E+03 -0.66030576479E+03  0.94027197724E+03  0.60019884761E+03 0.  0.
        -24    2    4    4    0    0 -0.51241057372E+02  0.21423016322E+03 -0.24044801930E+03  0.33570288272E+03  0.79755668687E+02 0.  0.
         24    2    4    4    0    0 -0.19352827493E+03 -0.38143364841E+03 -0.41985774549E+03  0.60456909452E+03  0.79236622020E+02 0.  0.
         11    1    3    3    0    0  0.18171006588E+03  0.96687544670E+02 -0.74788820234E+02  0.21899862321E+03  0.00000000000E+00 0. -1.
        -12    1    3    3    0    0  0.63059266420E+02  0.70515940516E+02  0.13340736005E+02  0.95535041663E+02  0.00000000000E+00 0.  1.
         11    1    5    5    0    0 -0.39955911218E+02  0.16186358845E+03 -0.12482347139E+03  0.20827192590E+03  0.00000000000E+00 0. -1.
        -12    1    5    5    0    0 -0.11285146154E+02  0.52366574767E+02 -0.11562454792E+03  0.12743095683E+03  0.00000000000E+00 0.  1.
          4    1    6    6  502    0 -0.12124140984E+03 -0.21430922165E+03 -0.18820097093E+03  0.30991535523E+03  0.00000000000E+00 0. -1.
         -3    1    6    6    0  502 -0.72286865086E+02 -0.16712442675E+03 -0.23165677455E+03  0.29465373929E+03  0.00000000000E+00 0.  1.
<mgrwt>
<rscale>  0 0.47451883E+03</rscale>
<asrwt>0</asrwt>
<pdfrwt beam="1">  1        1 0.15204304E+00 0.47451883E+03</pdfrwt>
<pdfrwt beam="2">  1       -2 0.41003984E-01 0.47451883E+03</pdfrwt>
<totfact> 0.79897423E+01</totfact>
</mgrwt>
</event>
<event>
12    3  0.2212098E-007  0.1110248E+04  0.7818608E-02  0.9195261E-01
          1   -1    0    0  501    0  0.00000000000E+00  0.00000000000E+00  0.19628203932E+04  0.19628203932E+04  0.00000000000E+00 0. -1.
         -2   -1    0    0    0  501 -0.00000000000E+00 -0.00000000000E+00 -0.76458825109E+03  0.76458825109E+03  0.00000000000E+00 0.  1.
        -24    2    1    2    0    0  0.46319810347E+03 -0.95013364988E+03  0.59954521495E+02  0.10622087832E+04  0.85944859314E+02 0.  0.
    5000000    2    1    2    0    0 -0.46319810347E+03  0.95013364988E+03  0.11382776207E+04  0.16651998611E+04  0.59992349511E+03 0.  0.
        -24    2    4    4    0    0 -0.37894436856E+03  0.25067229474E+03  0.67691404857E+03  0.81926162310E+03  0.80879812780E+02 0.  0.
         24    2    4    4    0    0 -0.84253734907E+02  0.69946135515E+03  0.46136357209E+03  0.84593823799E+03  0.80064209590E+02 0.  0.
         11    1    5    5    0    0 -0.71991203781E+02  0.32968186192E+02  0.73013282353E+02  0.10770596141E+03  0.00000000000E+00 0. -1.
        -12    1    5    5    0    0 -0.30695316478E+03  0.21770410855E+03  0.60390076622E+03  0.71155566170E+03  0.00000000000E+00 0.  1.
         11    1    3    3    0    0  0.20023874119E+03 -0.50731768411E+03  0.23476892394E+02  0.54591020375E+03  0.00000000000E+00 0. -1.
        -12    1    3    3    0    0  0.26295936228E+03 -0.44281596577E+03  0.36477629101E+02  0.51629857949E+03  0.00000000000E+00 0.  1.
          4    1    6    6  502    0 -0.52542481047E+02  0.39647313620E+03  0.21450345918E+03  0.45383190064E+03  0.00000000000E+00 0. -1.
         -3    1    6    6    0  502 -0.31711253860E+02  0.30298821894E+03  0.24686011291E+03  0.39210633735E+03  0.00000000000E+00 0.  1.
<mgrwt>
<rscale>  0 0.11102477E+04</rscale>
<asrwt>0</asrwt>
<pdfrwt beam="1">  1        1 0.30197237E+00 0.11102477E+04</pdfrwt>
<pdfrwt beam="2">  1       -2 0.11762896E+00 0.11102477E+04</pdfrwt>
<totfact> 0.15313722E+00</totfact>
</mgrwt>
</event>
<event>
12    3  0.2212098E-007  0.8557021E+03  0.7818608E-02  0.9482716E-01
         -2   -1    0    0    0  501 -0.00000000000E+00  0.00000000000E+00  0.27558269068E+03  0.27558269068E+03  0.00000000000E+00 0.  1.
          1   -1    0    0  501    0  0.00000000000E+00 -0.00000000000E+00 -0.28001395997E+04  0.28001395997E+04  0.00000000000E+00 0. -1.
        -24    2    1    2    0    0 -0.13376315046E+03 -0.76003686068E+03 -0.12153829791E+04  0.14418136672E+04  0.78244840906E+02 0.  0.
    5000000    2    1    2    0    0  0.13376315046E+03  0.76003686068E+03 -0.13091739299E+04  0.16339086231E+04  0.60014364946E+03 0.  0.
        -24    2    4    4    0    0  0.28569705618E+03  0.71801323490E+03 -0.11897914325E+04  0.14210360123E+04  0.81079480912E+02 0.  0.
         24    2    4    4    0    0 -0.15193390572E+03  0.42023625779E+02 -0.11938249746E+03  0.21287261080E+03  0.78820497948E+02 0.  0.
         11    1    5    5    0    0  0.21938240706E+03  0.59267037030E+03 -0.91838693994E+03  0.11148189897E+04  0.00000000000E+00 0. -1.
        -12    1    5    5    0    0  0.66314649116E+02  0.12534286461E+03 -0.27140449251E+03  0.30621702263E+03  0.00000000000E+00 0.  1.
         13    1    3    3    0    0 -0.10545051629E+03 -0.71234785059E+03 -0.11344054904E+04  0.13436647976E+04  0.00000000000E+00 0. -1.
        -14    1    3    3    0    0 -0.28312634170E+02 -0.47689010088E+02 -0.80977488683E+02  0.98148869633E+02  0.00000000000E+00 0.  1.
          4    1    6    6  502    0 -0.11434529616E+03  0.47974686792E+02 -0.12298282313E+03  0.17464590494E+03  0.00000000000E+00 0. -1.
         -3    1    6    6    0  502 -0.37588609562E+02 -0.59510610132E+01  0.36003256692E+01  0.38226705860E+02  0.00000000000E+00 0.  1.
<mgrwt>
<rscale>  0 0.85570214E+03</rscale>
<asrwt>0</asrwt>
<pdfrwt beam="1">  1        1 0.43079070E+00 0.85570214E+03</pdfrwt>
<pdfrwt beam="2">  1       -2 0.42397337E-01 0.85570214E+03</pdfrwt>
<totfact> 0.40248029E+00</totfact>
</mgrwt>
</event>
<event>
12    3  0.2212098E-007  0.4873119E+03  0.7818608E-02  0.1017145E+00
          1   -1    0    0  501    0  0.00000000000E+00  0.00000000000E+00  0.29555078450E+03  0.29555078450E+03  0.00000000000E+00 0. -1.
         -2   -1    0    0    0  501 -0.00000000000E+00 -0.00000000000E+00 -0.13293847843E+04  0.13293847843E+04  0.00000000000E+00 0.  1.
        -24    2    1    2    0    0 -0.29740033212E+03 -0.36603051231E+03 -0.51105129693E+03  0.69987822691E+03  0.78935485782E+02 0.  0.
    5000000    2    1    2    0    0  0.29740033212E+03  0.36603051231E+03 -0.52278270289E+03  0.92505734192E+03  0.60000336492E+03 0.  0.
        -24    2    4    4    0    0  0.43770943208E+02  0.42214970527E+02  0.12044906684E+03  0.15733514164E+03  0.80921998768E+02 0.  0.
         24    2    4    4    0    0  0.25362938891E+03  0.32381554179E+03 -0.64323176973E+03  0.76772220028E+03  0.80410790253E+02 0.  0.
         11    1    3    3    0    0 -0.19052134652E+03 -0.19413144930E+03 -0.33575511380E+03  0.43210750923E+03  0.00000000000E+00 0. -1.
        -12    1    3    3    0    0 -0.10687898560E+03 -0.17189906301E+03 -0.17529618313E+03  0.26777071768E+03  0.00000000000E+00 0.  1.
         11    1    5    5    0    0  0.26443622555E+01 -0.16730499646E+02  0.63248446458E+02  0.65477234590E+02  0.00000000000E+00 0. -1.
        -12    1    5    5    0    0  0.41126580952E+02  0.58945470173E+02  0.57200620387E+02  0.91857907049E+02  0.00000000000E+00 0.  1.
          2    1    6    6  502    0  0.20758387636E+03  0.26973702376E+03 -0.58066709815E+03  0.67307013497E+03  0.00000000000E+00 0. -1.
         -1    1    6    6    0  502  0.46045512546E+02  0.54078518024E+02 -0.62564671582E+02  0.94652065310E+02  0.00000000000E+00 0.  1.
<mgrwt>
<rscale>  0 0.48731194E+03</rscale>
<asrwt>0</asrwt>
<pdfrwt beam="1">  1        1 0.45469351E-01 0.48731194E+03</pdfrwt>
<pdfrwt beam="2">  1       -2 0.20452074E+00 0.48731194E+03</pdfrwt>
<totfact> 0.10247434E+01</totfact>
</mgrwt>
</event>
<event>
12    3  0.2212098E-007  0.1135394E+04  0.7818608E-02  0.9171365E-01
          1   -1    0    0  501    0  0.00000000000E+00  0.00000000000E+00  0.18892672182E+04  0.18892672182E+04  0.00000000000E+00 0. -1.
         -2   -1    0    0    0  501 -0.00000000000E+00 -0.00000000000E+00 -0.68470840131E+03  0.68470840131E+03  0.00000000000E+00 0.  1.
        -24    2    1    2    0    0  0.32625872049E+03  0.10039774853E+04  0.61293826361E+03  0.12232968479E+04  0.79663790339E+02 0.  0.
    5000000    2    1    2    0    0 -0.32625872049E+03 -0.10039774853E+04  0.59162055331E+03  0.13506787716E+04  0.59991892899E+03 0.  0.
        -24    2    4    4    0    0 -0.44030165116E+03 -0.97412480875E+03  0.51658961687E+03  0.11897099849E+04  0.75896830292E+02 0.  0.
         24    2    4    4    0    0  0.11404293067E+03 -0.29852676531E+02  0.75030936439E+02  0.16096878673E+03  0.79902043446E+02 0.  0.
         13    1    5    5    0    0 -0.66976944634E+02 -0.91704769428E+02  0.54350589633E+02  0.12589544250E+03  0.00000000000E+00 0. -1.
        -14    1    5    5    0    0 -0.37332470652E+03 -0.88242003932E+03  0.46223902724E+03  0.10638145424E+04  0.00000000000E+00 0.  1.
         13    1    3    3    0    0  0.81314460483E+02  0.33973041593E+03  0.17357674138E+03  0.39007394445E+03  0.00000000000E+00 0. -1.
        -14    1    3    3    0    0  0.24494426000E+03  0.66424706935E+03  0.43936152223E+03  0.83322290347E+03  0.00000000000E+00 0.  1.
          2    1    6    6  502    0  0.97014601309E+02  0.10898239134E+02  0.44571894998E+02  0.10731849005E+03  0.00000000000E+00 0. -1.
         -1    1    6    6    0  502  0.17028329363E+02 -0.40750915664E+02  0.30459041441E+02  0.53650296680E+02  0.00000000000E+00 0.  1.
<mgrwt>
<rscale>  0 0.11353941E+04</rscale>
<asrwt>0</asrwt>
<pdfrwt beam="1">  1        1 0.29065649E+00 0.11353941E+04</pdfrwt>
<pdfrwt beam="2">  1       -2 0.10533975E+00 0.11353941E+04</pdfrwt>
<totfact> 0.22413134E+00</totfact>
</mgrwt>
</event>
<event>
12    3  0.2212098E-007  0.1727018E+04  0.7818608E-02  0.8746103E-01
         -2   -1    0    0    0  501 -0.00000000000E+00  0.00000000000E+00  0.18802115348E+04  0.18802115348E+04  0.00000000000E+00 0.  1.
          1   -1    0    0  501    0  0.00000000000E+00 -0.00000000000E+00 -0.41446915370E+04  0.41446915370E+04  0.00000000000E+00 0. -1.
        -24    2    1    2    0    0 -0.15873768041E+04 -0.53889308470E+03  0.12449125996E+04  0.20896153262E+04  0.80709082117E+02 0.  0.
    5000000    2    1    2    0    0  0.15873768041E+04  0.53889308470E+03 -0.35093926018E+04  0.39352877455E+04  0.60040180868E+03 0.  0.
        -24    2    4    4    0    0  0.97233564584E+03  0.62073218504E+03 -0.22020805805E+04  0.24873352956E+04  0.83264253445E+02 0.  0.
         24    2    4    4    0    0  0.61504115827E+03 -0.81839100333E+02 -0.13073120212E+04  0.14479524499E+04  0.50282319791E+02 0.  0.
         11    1    3    3    0    0 -0.45582334014E+03 -0.14387290376E+03  0.31197688094E+03  0.57079234761E+03  0.00000000000E+00 0. -1.
        -12    1    3    3    0    0 -0.11315534640E+04 -0.39502018094E+03  0.93293571862E+03  0.15188229786E+04  0.00000000000E+00 0.  1.
         13    1    5    5    0    0  0.84917550288E+03  0.57104733656E+03 -0.19263098964E+04  0.21812528309E+04  0.00000000000E+00 0. -1.
        -14    1    5    5    0    0  0.12316014296E+03  0.49684848476E+02 -0.27577068413E+03  0.30608246472E+03  0.00000000000E+00 0.  1.
          2    1    6    6  502    0  0.36692533444E+03 -0.65638963775E+02 -0.74154926652E+03  0.82996264331E+03  0.00000000000E+00 0. -1.
         -1    1    6    6    0  502  0.24811582383E+03 -0.16200136558E+02 -0.56576275473E+03  0.61798980663E+03  0.00000000000E+00 0.  1.
<mgrwt>
<rscale>  0 0.17270176E+04</rscale>
<asrwt>0</asrwt>
<pdfrwt beam="1">  1        1 0.63764484E+00 0.17270176E+04</pdfrwt>
<pdfrwt beam="2">  1       -2 0.28926332E+00 0.17270176E+04</pdfrwt>
<totfact> 0.21234426E-03</totfact>
</mgrwt>
</event>
<event>
12    3  0.2212098E-007  0.6194180E+03  0.7818608E-02  0.9865919E-01
         -2   -1    0    0    0  501 -0.00000000000E+00  0.00000000000E+00  0.20639116231E+03  0.20639116231E+03  0.00000000000E+00 0.  1.
          1   -1    0    0  501    0  0.00000000000E+00 -0.00000000000E+00 -0.37128983348E+04  0.37128983348E+04  0.00000000000E+00 0. -1.
        -24    2    1    2    0    0 -0.61168249603E+03 -0.87104273902E+02 -0.52143105626E+03  0.81237699226E+03  0.79519812931E+02 0.  0.
    5000000    2    1    2    0    0  0.61168249603E+03  0.87104273902E+02 -0.29850761163E+04  0.31069125049E+04  0.60040258382E+03 0.  0.
        -24    2    4    4    0    0  0.23472446763E+03  0.43000350865E+02 -0.28809912975E+03  0.38221661209E+03  0.78382549803E+02 0.  0.
         24    2    4    4    0    0  0.37695802839E+03  0.44103923037E+02 -0.26969769865E+04  0.27246958928E+04  0.78995767353E+02 0.  0.
         11    1    3    3    0    0 -0.17011619137E+03 -0.22081322442E+01 -0.10777608385E+03  0.20139532931E+03  0.00000000000E+00 0. -1.
        -12    1    3    3    0    0 -0.44156630465E+03 -0.84896141658E+02 -0.41365497240E+03  0.61098166296E+03  0.00000000000E+00 0.  1.
         13    1    5    5    0    0  0.10054022004E+03  0.28093381847E+02 -0.69921241383E+02  0.12564455398E+03  0.00000000000E+00 0. -1.
        -14    1    5    5    0    0  0.13418424759E+03  0.14906969019E+02 -0.21817788837E+03  0.25657205811E+03  0.00000000000E+00 0.  1.
          2    1    6    6  502    0  0.72181633957E+02  0.46464435716E+01 -0.76712785666E+03  0.77053028894E+03  0.00000000000E+00 0. -1.
         -1    1    6    6    0  502  0.30477639444E+03  0.39457479465E+02 -0.19298491299E+04  0.19541656039E+04  0.00000000000E+00 0.  1.
<mgrwt>
<rscale>  0 0.61941802E+03</rscale>
<asrwt>0</asrwt>
<pdfrwt beam="1">  1        1 0.57121516E+00 0.61941802E+03</pdfrwt>
<pdfrwt beam="2">  1       -2 0.31752485E-01 0.61941802E+03</pdfrwt>
<totfact> 0.15333403E+00</totfact>
</mgrwt>
</event>
<event>
12    3  0.2212098E-007  0.6375869E+03  0.7818608E-02  0.9830354E-01
         -2   -1    0    0    0  501 -0.00000000000E+00  0.00000000000E+00  0.48808112462E+03  0.48808112462E+03  0.00000000000E+00 0.  1.
          1   -1    0    0  501    0  0.00000000000E+00 -0.00000000000E+00 -0.11644358484E+04  0.11644358484E+04  0.00000000000E+00 0. -1.
        -24    2    1    2    0    0  0.58330649326E+03 -0.33416432284E+02 -0.54864275493E+03  0.80539662144E+03  0.79320377412E+02 0.  0.
    5000000    2    1    2    0    0 -0.58330649326E+03  0.33416432284E+02 -0.12771196881E+03  0.84712035154E+03  0.59994951453E+03 0.  0.
        -24    2    4    4    0    0 -0.23780066327E+03 -0.15051037397E+03  0.17831445410E+03  0.34255860738E+03  0.79673250371E+02 0.  0.
         24    2    4    4    0    0 -0.34550582999E+03  0.18392680625E+03 -0.30602642291E+03  0.50456174416E+03  0.87903546765E+02 0.  0.
         13    1    5    5    0    0 -0.17501938494E+03 -0.82169455305E+02  0.85832867795E+02  0.21154405140E+03  0.00000000000E+00 0. -1.
        -14    1    5    5    0    0 -0.62781278334E+02 -0.68340918666E+02  0.92481586307E+02  0.13101455598E+03  0.00000000000E+00 0.  1.
         13    1    3    3    0    0  0.94704520131E+02 -0.30359511177E+02 -0.71756248575E+02  0.12263606836E+03  0.00000000000E+00 0. -1.
        -14    1    3    3    0    0  0.48860197313E+03 -0.30569211075E+01 -0.47688650636E+03  0.68276055309E+03  0.00000000000E+00 0.  1.
          4    1    6    6  502    0 -0.20682712919E+03  0.60978291666E+02 -0.15662161497E+03  0.26650730515E+03  0.00000000000E+00 0. -1.
         -3    1    6    6    0  502 -0.13867870079E+03  0.12294851459E+03 -0.14940480794E+03  0.23805443900E+03  0.00000000000E+00 0.  1.
<mgrwt>
<rscale>  0 0.63758685E+03</rscale>
<asrwt>0</asrwt>
<pdfrwt beam="1">  1        1 0.17914397E+00 0.63758685E+03</pdfrwt>
<pdfrwt beam="2">  1       -2 0.75089405E-01 0.63758685E+03</pdfrwt>
<totfact> 0.16493958E+01</totfact>
</mgrwt>
</event>
<event>
12    3  0.2212098E-007  0.4789066E+03  0.7818608E-02  0.1019436E+00
         -2   -1    0    0    0  501 -0.00000000000E+00  0.00000000000E+00  0.56149596208E+03  0.56149596208E+03  0.00000000000E+00 0.  1.
          1   -1    0    0  501    0  0.00000000000E+00 -0.00000000000E+00 -0.88169380488E+03  0.88169380488E+03  0.00000000000E+00 0. -1.
        -24    2    1    2    0    0 -0.41549206303E+03 -0.42279114229E+02 -0.53403752570E+03  0.68154013271E+03  0.69854818684E+02 0.  0.
    5000000    2    1    2    0    0  0.41549206303E+03  0.42279114229E+02  0.21383968290E+03  0.76164963425E+03  0.59996798034E+03 0.  0.
        -24    2    4    4    0    0  0.73389552584E+02  0.15486830474E+03 -0.15160396645E+03  0.24241631387E+03  0.80073018838E+02 0.  0.
         24    2    4    4    0    0  0.34210251045E+03 -0.11258919051E+03  0.36544364935E+03  0.51923332038E+03  0.79647515134E+02 0.  0.
         11    1    5    5    0    0  0.28166616911E+02  0.40607338199E+02 -0.95076610571E+02  0.10715351651E+03  0.00000000000E+00 0. -1.
        -12    1    5    5    0    0  0.45222935673E+02  0.11426096654E+03 -0.56527355879E+02  0.13526279736E+03  0.00000000000E+00 0.  1.
         13    1    3    3    0    0 -0.11862762993E+03 -0.43531351594E+02 -0.16936861417E+03  0.21131308672E+03  0.00000000000E+00 0. -1.
        -14    1    3    3    0    0 -0.29686443310E+03  0.12522373651E+01 -0.36466891153E+03  0.47022704599E+03  0.00000000000E+00 0.  1.
          2    1    6    6  502    0  0.22822041963E+03 -0.94310459991E+02  0.20115772350E+03  0.31850188779E+03  0.00000000000E+00 0. -1.
         -1    1    6    6    0  502  0.11388209082E+03 -0.18278730522E+02  0.16428592585E+03  0.20073143259E+03  0.00000000000E+00 0.  1.
<mgrwt>
<rscale>  0 0.47890661E+03</rscale>
<asrwt>0</asrwt>
<pdfrwt beam="1">  1        1 0.13564520E+00 0.47890661E+03</pdfrwt>
<pdfrwt beam="2">  1       -2 0.86383995E-01 0.47890661E+03</pdfrwt>
<totfact> 0.20278051E+01</totfact>
</mgrwt>
</event>
<event>
12    3  0.2212098E-007  0.3316012E+03  0.7818608E-02  0.1070431E+00
         -2   -1    0    0    0  501 -0.00000000000E+00  0.00000000000E+00  0.23275988158E+03  0.23275988158E+03  0.00000000000E+00 0.  1.
          1   -1    0    0  501    0  0.00000000000E+00 -0.00000000000E+00 -0.70869952917E+03  0.70869952917E+03  0.00000000000E+00 0. -1.
        -24    2    1    2    0    0 -0.12783039283E+03  0.98616821944E+02 -0.43890134047E+02  0.18470941883E+03  0.78264542649E+02 0.  0.
    5000000    2    1    2    0    0  0.12783039283E+03 -0.98616821944E+02 -0.43204951354E+03  0.75674999192E+03  0.59994823211E+03 0.  0.
        -24    2    4    4    0    0 -0.12836104374E+03  0.10126415187E+03  0.34900920528E+02  0.18353458890E+03  0.75735626146E+02 0.  0.
         24    2    4    4    0    0  0.25619143656E+03 -0.19988097381E+03 -0.46695043407E+03  0.57321540302E+03  0.70333025767E+02 0.  0.
         11    1    5    5    0    0 -0.63058853240E+02  0.75266969810E+02  0.52123796512E+02  0.11116845721E+03  0.00000000000E+00 0. -1.
        -12    1    5    5    0    0 -0.65302190498E+02  0.25997182059E+02 -0.17222875985E+02  0.72366131691E+02  0.00000000000E+00 0.  1.
         13    1    3    3    0    0 -0.92655900771E+02  0.61346993935E+02 -0.65612182740E+02  0.12904854953E+03  0.00000000000E+00 0. -1.
        -14    1    3    3    0    0 -0.35174492056E+02  0.37269828009E+02  0.21722048693E+02  0.55660869294E+02  0.00000000000E+00 0.  1.
          2    1    6    6  502    0  0.14138377490E+03 -0.15305471129E+03 -0.28549626490E+03  0.35344481001E+03  0.00000000000E+00 0. -1.
         -1    1    6    6    0  502  0.11480766167E+03 -0.46826262519E+02 -0.18145416917E+03  0.21977059300E+03  0.00000000000E+00 0.  1.
<mgrwt>
<rscale>  0 0.33160118E+03</rscale>
<asrwt>0</asrwt>
<pdfrwt beam="1">  1        1 0.10903069E+00 0.33160118E+03</pdfrwt>
<pdfrwt beam="2">  1       -2 0.35809213E-01 0.33160118E+03</pdfrwt>
<totfact> 0.17945988E+02</totfact>
</mgrwt>
</event>
<event>
12    3  0.2212098E-007  0.8664666E+03  0.7818608E-02  0.9468499E-01
          1   -1    0    0  501    0  0.00000000000E+00  0.00000000000E+00  0.22071512102E+04  0.22071512102E+04  0.00000000000E+00 0. -1.
         -2   -1    0    0    0  501 -0.00000000000E+00 -0.00000000000E+00 -0.81996156227E+03  0.81996156227E+03  0.00000000000E+00 0.  1.
        -24    2    1    2    0    0 -0.73324241064E+02  0.75988403456E+03 -0.49165449794E+03  0.91220243551E+03  0.87114566508E+02 0.  0.
    5000000    2    1    2    0    0  0.73324241064E+02 -0.75988403456E+03  0.18788441459E+04  0.21149103370E+04  0.59999184877E+03 0.  0.
        -24    2    4    4    0    0  0.11784045242E+03 -0.83763153693E+03  0.15967970827E+04  0.18089395870E+04  0.83597500955E+02 0.  0.
         24    2    4    4    0    0 -0.44516211352E+02  0.77747502371E+02  0.28204706314E+03  0.30597074994E+03  0.77725071864E+02 0.  0.
         11    1    3    3    0    0 -0.72898157726E+02  0.31236780749E+03 -0.21216934780E+03  0.38458239781E+03  0.00000000000E+00 0. -1.
        -12    1    3    3    0    0 -0.42608333851E+00  0.44751622707E+03 -0.27948515014E+03  0.52762003770E+03  0.00000000000E+00 0.  1.
         13    1    5    5    0    0  0.67435301466E+02 -0.41388476429E+03  0.70467935936E+03  0.82001287643E+03  0.00000000000E+00 0. -1.
        -14    1    5    5    0    0  0.50405150950E+02 -0.42374677264E+03  0.89211772338E+03  0.98892671060E+03  0.00000000000E+00 0.  1.
          2    1    6    6  502    0 -0.31401092552E+01  0.77134347824E+02  0.18676029834E+03  0.20208655803E+03  0.00000000000E+00 0. -1.
         -1    1    6    6    0  502 -0.41376102096E+02  0.61315454675E+00  0.95286764798E+02  0.10388419191E+03  0.00000000000E+00 0.  1.
<mgrwt>
<rscale>  0 0.86646659E+03</rscale>
<asrwt>0</asrwt>
<pdfrwt beam="1">  1        1 0.33956172E+00 0.86646659E+03</pdfrwt>
<pdfrwt beam="2">  1       -2 0.12614793E+00 0.86646659E+03</pdfrwt>
<totfact> 0.91107511E-01</totfact>
</mgrwt>
</event>
<event>
12    3  0.2212098E-007  0.7524116E+03  0.7818608E-02  0.9631575E-01
         -2   -1    0    0    0  501 -0.00000000000E+00  0.00000000000E+00  0.49171137492E+03  0.49171137492E+03  0.00000000000E+00 0.  1.
          1   -1    0    0  501    0  0.00000000000E+00 -0.00000000000E+00 -0.14920418728E+04  0.14920418728E+04  0.00000000000E+00 0. -1.
        -24    2    1    2    0    0  0.14423804416E+03 -0.62124415779E+03 -0.89502218727E+03  0.11017714538E+04  0.78017329654E+02 0.  0.
    5000000    2    1    2    0    0 -0.14423804416E+03  0.62124415779E+03 -0.10530831058E+03  0.88198179389E+03  0.60004427129E+03 0.  0.
        -24    2    4    4    0    0  0.22340359508E+03  0.27253127384E+03 -0.61857103892E+02  0.36702977784E+03  0.81866324018E+02 0.  0.
         24    2    4    4    0    0 -0.36764163924E+03  0.34871288396E+03 -0.43451206690E+02  0.51495201605E+03  0.80786887107E+02 0.  0.
         11    1    5    5    0    0  0.71516560343E+02  0.96195311193E+02 -0.60554428904E+02  0.13429443458E+03  0.00000000000E+00 0. -1.
        -12    1    5    5    0    0  0.15188703474E+03  0.17633596264E+03 -0.13026749882E+01  0.23273534327E+03  0.00000000000E+00 0.  1.
         13    1    3    3    0    0  0.37575406579E+02 -0.32576774227E+03 -0.43635388173E+03  0.54583994283E+03  0.00000000000E+00 0. -1.
        -14    1    3    3    0    0  0.10666263758E+03 -0.29547641552E+03 -0.45866830553E+03  0.55593151097E+03  0.00000000000E+00 0.  1.
          2    1    6    6  502    0 -0.30127305013E+03  0.31439340390E+03 -0.17277719498E+02  0.43578341265E+03  0.00000000000E+00 0. -1.
         -1    1    6    6    0  502 -0.66368589115E+02  0.34319480054E+02 -0.26173487192E+02  0.79168603399E+02  0.00000000000E+00 0.  1.
<mgrwt>
<rscale>  0 0.75241156E+03</rscale>
<asrwt>0</asrwt>
<pdfrwt beam="1">  1        1 0.22954490E+00 0.75241156E+03</pdfrwt>
<pdfrwt beam="2">  1       -2 0.75647905E-01 0.75241156E+03</pdfrwt>
<totfact> 0.93978443E+00</totfact>
</mgrwt>
</event>
<event>
12    3  0.2212098E-007  0.3953303E+03  0.7818608E-02  0.1045409E+00
         -2   -1    0    0    0  501 -0.00000000000E+00  0.00000000000E+00  0.10099934767E+04  0.10099934767E+04  0.00000000000E+00 0.  1.
          1   -1    0    0  501    0  0.00000000000E+00 -0.00000000000E+00 -0.26731113558E+03  0.26731113558E+03  0.00000000000E+00 0. -1.
        -24    2    1    2    0    0 -0.26568362322E+03  0.10988351065E+01  0.51074833466E+03  0.58124847193E+03  0.79980808229E+02 0.  0.
    5000000    2    1    2    0    0  0.26568362322E+03 -0.10988351065E+01  0.23193400650E+03  0.69605614039E+03  0.60009313621E+03 0.  0.
        -24    2    4    4    0    0  0.32369738427E+03 -0.13008824303E+03 -0.58965800906E+02  0.36289374242E+03  0.80696685501E+02 0.  0.
         24    2    4    4    0    0 -0.58013761055E+02  0.12898940792E+03  0.29089980741E+03  0.33316239797E+03  0.79816174086E+02 0.  0.
         11    1    5    5    0    0  0.22656979153E+03 -0.12368133769E+03 -0.62137829397E+02  0.26550339653E+03  0.00000000000E+00 0. -1.
        -12    1    5    5    0    0  0.97127592740E+02 -0.64069053440E+01  0.31720284915E+01  0.97390345889E+02  0.00000000000E+00 0.  1.
         11    1    3    3    0    0 -0.19655958118E+03 -0.31542740820E+02  0.33663291369E+03  0.39109120679E+03  0.00000000000E+00 0. -1.
        -12    1    3    3    0    0 -0.69124042035E+02  0.32641575926E+02  0.17411542097E+03  0.19015726514E+03  0.00000000000E+00 0.  1.
          4    1    6    6  502    0 -0.32413096652E+02  0.46717948087E+01  0.37749554420E+02  0.49974627165E+02  0.00000000000E+00 0. -1.
         -3    1    6    6    0  502 -0.25600664403E+02  0.12431761312E+03  0.25315025299E+03  0.28318777081E+03  0.00000000000E+00 0.  1.
<mgrwt>
<rscale>  0 0.39533025E+03</rscale>
<asrwt>0</asrwt>
<pdfrwt beam="1">  1        1 0.41124791E-01 0.39533025E+03</pdfrwt>
<pdfrwt beam="2">  1       -2 0.15538361E+00 0.39533025E+03</pdfrwt>
<totfact> 0.25528876E+01</totfact>
</mgrwt>
</event>
<event>
12    3  0.2212098E-007  0.1137936E+04  0.7818608E-02  0.9168986E-01
         -2   -1    0    0    0  501 -0.00000000000E+00  0.00000000000E+00  0.37028190029E+03  0.37028190029E+03  0.00000000000E+00 0.  1.
          1   -1    0    0  501    0  0.00000000000E+00 -0.00000000000E+00 -0.39918202839E+04  0.39918202839E+04  0.00000000000E+00 0. -1.
        -24    2    1    2    0    0 -0.97098211729E+03  0.58305581927E+03 -0.14547629161E+04  0.18446136422E+04  0.59194479571E+02 0.  0.
    5000000    2    1    2    0    0  0.97098211729E+03 -0.58305581927E+03 -0.21667754674E+04  0.25174885419E+04  0.60006022365E+03 0.  0.
        -24    2    4    4    0    0  0.72706102030E+03 -0.39043076990E+03 -0.95718789759E+03  0.12662743521E+04  0.78664796010E+02 0.  0.
         24    2    4    4    0    0  0.24392109699E+03 -0.19262504937E+03 -0.12095875698E+04  0.12512141898E+04  0.76373742607E+02 0.  0.
         11    1    5    5    0    0  0.50145641080E+03 -0.30570227217E+03 -0.65441224640E+03  0.87929960729E+03  0.00000000000E+00 0. -1.
        -12    1    5    5    0    0  0.22560460950E+03 -0.84728497728E+02 -0.30277565119E+03  0.38697474480E+03  0.00000000000E+00 0.  1.
         13    1    3    3    0    0 -0.62670972137E+03  0.37208510363E+03 -0.88984941046E+03  0.11502366593E+04  0.00000000000E+00 0. -1.
        -14    1    3    3    0    0 -0.34427239592E+03  0.21097071565E+03 -0.56491350569E+03  0.69437698289E+03  0.00000000000E+00 0.  1.
          4    1    6    6  502    0  0.15643176210E+03 -0.15339524415E+03 -0.93639761260E+03  0.96168679205E+03  0.00000000000E+00 0. -1.
         -3    1    6    6    0  502  0.87489334897E+02 -0.39229805227E+02 -0.27318995723E+03  0.28952739779E+03  0.00000000000E+00 0.  1.
<mgrwt>
<rscale>  0 0.11379358E+04</rscale>
<asrwt>0</asrwt>
<pdfrwt beam="1">  1        1 0.61412617E+00 0.11379358E+04</pdfrwt>
<pdfrwt beam="2">  1       -2 0.56966449E-01 0.11379358E+04</pdfrwt>
<totfact> 0.25418903E-01</totfact>
</mgrwt>
</event>
<event>
12    3  0.2212098E-007  0.8303758E+03  0.7818608E-02  0.9517061E-01
          1   -1    0    0  501    0  0.00000000000E+00  0.00000000000E+00  0.11192846214E+04  0.11192846214E+04  0.00000000000E+00 0. -1.
         -2   -1    0    0    0  501 -0.00000000000E+00 -0.00000000000E+00 -0.62755607080E+03  0.62755607080E+03  0.00000000000E+00 0.  1.
        -24    2    1    2    0    0  0.23385792640E+03 -0.68490914743E+03  0.29975132903E+03  0.78732584794E+03  0.79000389927E+02 0.  0.
    5000000    2    1    2    0    0 -0.23385792640E+03  0.68490914743E+03  0.19197722157E+03  0.95951484426E+03  0.60001951033E+03 0.  0.
        -24    2    4    4    0    0  0.31257305721E+02 -0.84348079491E+02  0.45382328493E+02  0.12838615275E+03  0.79572801916E+02 0.  0.
         24    2    4    4    0    0 -0.26511523212E+03  0.76925722692E+03  0.14659489308E+03  0.83112869151E+03  0.85100362477E+02 0.  0.
         11    1    5    5    0    0  0.48485092308E+02 -0.88053274222E+02  0.29749093712E+02  0.10482934634E+03  0.00000000000E+00 0. -1.
        -12    1    5    5    0    0 -0.17227786587E+02  0.37051947313E+01  0.15633234782E+02  0.23556806414E+02  0.00000000000E+00 0.  1.
         11    1    3    3    0    0  0.64736732301E+02 -0.10430256490E+03  0.62053790716E+02  0.13755196290E+03  0.00000000000E+00 0. -1.
        -12    1    3    3    0    0  0.16912119410E+03 -0.58060658253E+03  0.23769753831E+03  0.64977388505E+03  0.00000000000E+00 0.  1.
          2    1    6    6  502    0 -0.14606659205E+03  0.49577002227E+03  0.58637433235E+02  0.52015546990E+03  0.00000000000E+00 0. -1.
         -1    1    6    6    0  502 -0.11904864008E+03  0.27348720465E+03  0.87957459846E+02  0.31097322161E+03  0.00000000000E+00 0.  1.
<mgrwt>
<rscale>  0 0.83037576E+03</rscale>
<asrwt>0</asrwt>
<pdfrwt beam="1">  1        1 0.17219763E+00 0.83037576E+03</pdfrwt>
<pdfrwt beam="2">  1       -2 0.96547088E-01 0.83037576E+03</pdfrwt>
<totfact> 0.98070240E+00</totfact>
</mgrwt>
</event>
<event>
12    3  0.2212098E-007  0.6968257E+03  0.7818608E-02  0.9722676E-01
         -2   -1    0    0    0  501 -0.00000000000E+00  0.00000000000E+00  0.12786165609E+04  0.12786165609E+04  0.00000000000E+00 0.  1.
          1   -1    0    0  501    0  0.00000000000E+00 -0.00000000000E+00 -0.42388420234E+03  0.42388420234E+03  0.00000000000E+00 0. -1.
        -24    2    1    2    0    0  0.60356009987E+03 -0.26401178534E+02  0.45256392935E+03  0.76095704501E+03  0.96227323675E+02 0.  0.
    5000000    2    1    2    0    0 -0.60356009987E+03  0.26401178534E+02  0.40216842919E+03  0.94154371821E+03  0.59981939906E+03 0.  0.
        -24    2    4    4    0    0 -0.39918810256E+03 -0.22251310445E+03  0.39596046799E+03  0.60995000281E+03  0.79944298379E+02 0.  0.
         24    2    4    4    0    0 -0.20437199731E+03  0.24891428299E+03  0.62079612025E+01  0.33159371540E+03  0.78674136491E+02 0.  0.
         11    1    3    3    0    0  0.94748983744E+02 -0.35281316297E+02  0.97376276579E+02  0.14037193609E+03  0.00000000000E+00 0. -1.
        -12    1    3    3    0    0  0.50881111612E+03  0.88801377625E+01  0.35518765278E+03  0.62058510893E+03  0.00000000000E+00 0.  1.
         13    1    5    5    0    0 -0.21430256881E+03 -0.10123886307E+03  0.25285410771E+03  0.34656903811E+03  0.00000000000E+00 0. -1.
        -14    1    5    5    0    0 -0.18488553375E+03 -0.12127424139E+03  0.14310636028E+03  0.26338096470E+03  0.00000000000E+00 0.  1.
          4    1    6    6  502    0 -0.57496467133E+02  0.10607498006E+03  0.32701762731E+02  0.12500860136E+03  0.00000000000E+00 0. -1.
         -3    1    6    6    0  502 -0.14687553018E+03  0.14283930292E+03 -0.26493801528E+02  0.20658511404E+03  0.00000000000E+00 0.  1.
<mgrwt>
<rscale>  0 0.69682570E+03</rscale>
<asrwt>0</asrwt>
<pdfrwt beam="1">  1        1 0.65212955E-01 0.69682570E+03</pdfrwt>
<pdfrwt beam="2">  1       -2 0.19671024E+00 0.69682570E+03</pdfrwt>
<totfact> 0.69914100E+00</totfact>
</mgrwt>
</event>
<event>
12    3  0.2212098E-007  0.4777596E+03  0.7818608E-02  0.1019753E+00
          1   -1    0    0  501    0  0.00000000000E+00  0.00000000000E+00  0.14724337293E+04  0.14724337293E+04  0.00000000000E+00 0. -1.
         -2   -1    0    0    0  501 -0.00000000000E+00 -0.00000000000E+00 -0.22009710774E+03  0.22009710774E+03  0.00000000000E+00 0.  1.
        -24    2    1    2    0    0  0.21880306808E+03 -0.24512872818E+03  0.99662739775E+02  0.35220555987E+03  0.78442454875E+02 0.  0.
    5000000    2    1    2    0    0 -0.21880306808E+03  0.24512872818E+03  0.11526738818E+04  0.13403252772E+04  0.59987656639E+03 0.  0.
        -24    2    4    4    0    0 -0.11111248582E+03 -0.16446647412E+03  0.61599438719E+03  0.65195519468E+03  0.78748239335E+02 0.  0.
         24    2    4    4    0    0 -0.10769058226E+03  0.40959520230E+03  0.53667949464E+03  0.68837008254E+03  0.80392781449E+02 0.  0.
         13    1    3    3    0    0  0.10697643711E+03 -0.15927312152E+03  0.86958877917E+02  0.21065073411E+03  0.00000000000E+00 0. -1.
        -14    1    3    3    0    0  0.11182663097E+03 -0.85855606664E+02  0.12703861858E+02  0.14155482576E+03  0.00000000000E+00 0.  1.
         13    1    5    5    0    0 -0.93574715816E+02 -0.13604714996E+03  0.39012246932E+03  0.42362789747E+03  0.00000000000E+00 0. -1.
        -14    1    5    5    0    0 -0.17537770000E+02 -0.28419324157E+02  0.22587191788E+03  0.22832729720E+03  0.00000000000E+00 0.  1.
          2    1    6    6  502    0 -0.41992036409E+02  0.20548545898E+03  0.20403249680E+03  0.29260359657E+03  0.00000000000E+00 0. -1.
         -1    1    6    6    0  502 -0.65698545854E+02  0.20410974333E+03  0.33264699783E+03  0.39576648597E+03  0.00000000000E+00 0.  1.
<mgrwt>
<rscale>  0 0.47775959E+03</rscale>
<asrwt>0</asrwt>
<pdfrwt beam="1">  1        1 0.22652826E+00 0.47775959E+03</pdfrwt>
<pdfrwt beam="2">  1       -2 0.33861095E-01 0.47775959E+03</pdfrwt>
<totfact> 0.51972672E+01</totfact>
</mgrwt>
</event>
<event>
12    3  0.2212098E-007  0.5014368E+03  0.7818608E-02  0.1013405E+00
         -2   -1    0    0    0  501 -0.00000000000E+00  0.00000000000E+00  0.46996541704E+03  0.46996541704E+03  0.00000000000E+00 0.  1.
          1   -1    0    0  501    0  0.00000000000E+00 -0.00000000000E+00 -0.10736346931E+04  0.10736346931E+04  0.00000000000E+00 0. -1.
        -24    2    1    2    0    0 -0.19694583465E+03  0.32160896062E+03 -0.72847400825E+03  0.82407855922E+03  0.78810568663E+02 0.  0.
    5000000    2    1    2    0    0  0.19694583465E+03 -0.32160896062E+03  0.12480473218E+03  0.71952155093E+03  0.59992920895E+03 0.  0.
        -24    2    4    4    0    0  0.94896440287E+02 -0.44475642843E+03  0.22651346173E+03  0.51413387135E+03  0.78814175819E+02 0.  0.
         24    2    4    4    0    0  0.10204939436E+03  0.12314746781E+03 -0.10170872955E+03  0.20538767959E+03  0.79120512767E+02 0.  0.
         11    1    5    5    0    0  0.66977952544E+02 -0.40831585345E+03  0.18920689209E+03  0.45498036257E+03  0.00000000000E+00 0. -1.
        -12    1    5    5    0    0  0.27918487743E+02 -0.36440574982E+02  0.37306569637E+02  0.59153508780E+02  0.00000000000E+00 0.  1.
         13    1    3    3    0    0 -0.92991558451E+02  0.14930321973E+03 -0.42484146542E+03  0.45981425827E+03  0.00000000000E+00 0. -1.
        -14    1    3    3    0    0 -0.10395427620E+03  0.17230574089E+03 -0.30363254283E+03  0.36426430095E+03  0.00000000000E+00 0.  1.
          2    1    6    6  502    0  0.35259106167E+02  0.77564099693E+02 -0.89566146544E+02  0.12361831877E+03  0.00000000000E+00 0. -1.
         -1    1    6    6    0  502  0.66790288193E+02  0.45583368117E+02 -0.12142583009E+02  0.81769360814E+02  0.00000000000E+00 0.  1.
<mgrwt>
<rscale>  0 0.50143682E+03</rscale>
<asrwt>0</asrwt>
<pdfrwt beam="1">  1        1 0.16517457E+00 0.50143682E+03</pdfrwt>
<pdfrwt beam="2">  1       -2 0.72302373E-01 0.50143682E+03</pdfrwt>
<totfact> 0.21328965E+01</totfact>
</mgrwt>
</event>
<event>
12    3  0.2212098E-007  0.6635396E+03  0.7818608E-02  0.9781700E-01
          1   -1    0    0  501    0  0.00000000000E+00  0.00000000000E+00  0.13818164937E+04  0.13818164937E+04  0.00000000000E+00 0. -1.
         -2   -1    0    0    0  501 -0.00000000000E+00 -0.00000000000E+00 -0.36510555536E+03  0.36510555536E+03  0.00000000000E+00 0.  1.
        -24    2    1    2    0    0 -0.10388219938E+03  0.51742178839E+03  0.71562291413E+03  0.89286682897E+03  0.81106107097E+02 0.  0.
    5000000    2    1    2    0    0  0.10388219938E+03 -0.51742178839E+03  0.30108802426E+03  0.85405522013E+03  0.60019955201E+03 0.  0.
        -24    2    4    4    0    0  0.16363641954E+03  0.74923911366E+02  0.50644139559E+02  0.20328148076E+03  0.79800133181E+02 0.  0.
         24    2    4    4    0    0 -0.59754220155E+02 -0.59234569975E+03  0.25044388470E+03  0.65077373937E+03  0.79626161653E+02 0.  0.
         11    1    3    3    0    0  0.63922151005E+01  0.15040392398E+03  0.21226865628E+03  0.26023101891E+03  0.00000000000E+00 0. -1.
        -12    1    3    3    0    0 -0.11027441448E+03  0.36701786441E+03  0.50335425784E+03  0.63263581006E+03  0.00000000000E+00 0.  1.
         13    1    5    5    0    0 -0.90559773969E+01  0.44673751290E+01  0.49872805356E+01  0.11262376938E+02  0.00000000000E+00 0. -1.
        -14    1    5    5    0    0  0.17269239693E+03  0.70456536237E+02  0.45656859023E+02  0.19201910382E+03  0.00000000000E+00 0.  1.
          2    1    6    6  502    0 -0.93319451971E+01 -0.19243544033E+02 -0.39063705894E+01  0.21740720303E+02  0.00000000000E+00 0. -1.
         -1    1    6    6    0  502 -0.50422274958E+02 -0.57310215572E+03  0.25435025529E+03  0.62903301906E+03  0.00000000000E+00 0.  1.
<mgrwt>
<rscale>  0 0.66353959E+03</rscale>
<asrwt>0</asrwt>
<pdfrwt beam="1">  1        1 0.21258715E+00 0.66353959E+03</pdfrwt>
<pdfrwt beam="2">  1       -2 0.56170086E-01 0.66353959E+03</pdfrwt>
<totfact> 0.21477172E+01</totfact>
</mgrwt>
</event>
<event>
12    3  0.2212098E-007  0.4139932E+03  0.7818608E-02  0.1039039E+00
         -2   -1    0    0    0  501 -0.00000000000E+00  0.00000000000E+00  0.76151718805E+02  0.76151718805E+02  0.00000000000E+00 0.  1.
          1   -1    0    0  501    0  0.00000000000E+00 -0.00000000000E+00 -0.35058267264E+04  0.35058267264E+04  0.00000000000E+00 0. -1.
        -24    2    1    2    0    0  0.27815415054E+03  0.65311966472E+02 -0.53753305017E+03  0.61452910694E+03  0.84076505779E+02 0.  0.
    5000000    2    1    2    0    0 -0.27815415054E+03 -0.65311966472E+02 -0.28921419575E+04  0.29674493383E+04  0.59969583028E+03 0.  0.
        -24    2    4    4    0    0 -0.17482312791E+03  0.18265732013E+03 -0.22667466664E+04  0.22822205142E+04  0.80394051922E+02 0.  0.
         24    2    4    4    0    0 -0.10333102263E+03 -0.24796928660E+03 -0.62539529112E+03  0.68522882406E+03  0.79077201780E+02 0.  0.
         13    1    3    3    0    0  0.13476855010E+03  0.69641172716E+02 -0.23500730852E+03  0.27971573086E+03  0.00000000000E+00 0. -1.
        -14    1    3    3    0    0  0.14338560044E+03 -0.43292062441E+01 -0.30252574165E+03  0.33481337608E+03  0.00000000000E+00 0.  1.
         13    1    5    5    0    0 -0.70813200191E+02  0.24658916670E+02 -0.55125919701E+03  0.55633557659E+03  0.00000000000E+00 0. -1.
        -14    1    5    5    0    0 -0.10400992771E+03  0.15799840346E+03 -0.17154874693E+04  0.17258849377E+04  0.00000000000E+00 0.  1.
          2    1    6    6  502    0 -0.46209659523E+02 -0.11797344376E+03 -0.19993998118E+03  0.23670458834E+03  0.00000000000E+00 0. -1.
         -1    1    6    6    0  502 -0.57121363109E+02 -0.12999584283E+03 -0.42545530994E+03  0.44852423573E+03  0.00000000000E+00 0.  1.
<mgrwt>
<rscale>  0 0.41399315E+03</rscale>
<asrwt>0</asrwt>
<pdfrwt beam="1">  1        1 0.53935803E+00 0.41399315E+03</pdfrwt>
<pdfrwt beam="2">  1       -2 0.11715647E-01 0.41399315E+03</pdfrwt>
<totfact> 0.13333906E+01</totfact>
</mgrwt>
</event>
<event>
12    3  0.2212098E-007  0.3205676E+03  0.7818608E-02  0.1075388E+00
          1   -1    0    0  501    0  0.00000000000E+00  0.00000000000E+00  0.23376118247E+03  0.23376118247E+03  0.00000000000E+00 0. -1.
         -2   -1    0    0    0  501 -0.00000000000E+00 -0.00000000000E+00 -0.82272217033E+03  0.82272217033E+03  0.00000000000E+00 0.  1.
        -24    2    1    2    0    0  0.94105375784E+02  0.18350727805E+03 -0.56482140559E+02  0.22824165818E+03  0.79832822056E+02 0.  0.
    5000000    2    1    2    0    0 -0.94105375784E+02 -0.18350727805E+03 -0.53247884729E+03  0.82824169462E+03  0.59993319548E+03 0.  0.
        -24    2    4    4    0    0  0.10999470614E+03  0.62988349205E+01  0.74086069474E+02  0.15568819520E+03  0.81311485883E+02 0.  0.
         24    2    4    4    0    0 -0.20410008192E+03 -0.18980611298E+03 -0.60656491677E+03  0.67255349941E+03  0.82000044864E+02 0.  0.
         11    1    3    3    0    0  0.41177145434E+02  0.15417218302E+03 -0.50772678422E+02  0.16745890301E+03  0.00000000000E+00 0. -1.
        -12    1    3    3    0    0  0.52928230349E+02  0.29335095037E+02 -0.57094621377E+01  0.60782755175E+02  0.00000000000E+00 0.  1.
         13    1    5    5    0    0  0.89526940127E+02  0.35741795155E+02  0.34772866407E+02  0.10247780817E+03  0.00000000000E+00 0. -1.
        -14    1    5    5    0    0  0.20467766008E+02 -0.29442960234E+02  0.39313203068E+02  0.53210387033E+02  0.00000000000E+00 0.  1.
          2    1    6    6  502    0 -0.34111600894E+02 -0.16394189577E+00 -0.98337014813E+02  0.10408552577E+03  0.00000000000E+00 0. -1.
         -1    1    6    6    0  502 -0.16998848103E+03 -0.18964217108E+03 -0.50822790195E+03  0.56846797364E+03  0.00000000000E+00 0.  1.
<mgrwt>
<rscale>  0 0.32056764E+03</rscale>
<asrwt>0</asrwt>
<pdfrwt beam="1">  1        1 0.35963259E-01 0.32056764E+03</pdfrwt>
<pdfrwt beam="2">  1       -2 0.12657264E+00 0.32056764E+03</pdfrwt>
<totfact> 0.51607639E+01</totfact>
</mgrwt>
</event>
<event>
12    3  0.2212098E-007  0.1275414E+04  0.7818608E-02  0.9049293E-01
          1   -1    0    0  501    0  0.00000000000E+00  0.00000000000E+00  0.13024387249E+04  0.13024387249E+04  0.00000000000E+00 0. -1.
         -2   -1    0    0    0  501 -0.00000000000E+00 -0.00000000000E+00 -0.18532350484E+04  0.18532350484E+04  0.00000000000E+00 0.  1.
        -24    2    1    2    0    0 -0.11283458481E+04  0.49409263344E+03  0.59427672814E+03  0.13699551109E+04  0.79500269449E+02 0.  0.
    5000000    2    1    2    0    0  0.11283458481E+04 -0.49409263344E+03 -0.11450730516E+04  0.17857186625E+04  0.60025574926E+03 0.  0.
        -24    2    4    4    0    0  0.68013086342E+03 -0.53900079730E+03 -0.53369772936E+03  0.10221016191E+04  0.82210721056E+02 0.  0.
         24    2    4    4    0    0  0.44821498471E+03  0.44908163862E+02 -0.61137532229E+03  0.76361704334E+03  0.80111100854E+02 0.  0.
         11    1    5    5    0    0  0.17221194229E+02 -0.13108323961E+02 -0.31193345079E+02  0.37966069917E+02  0.00000000000E+00 0. -1.
        -12    1    5    5    0    0  0.66290966919E+03 -0.52589247334E+03 -0.50250438428E+03  0.98413554922E+03  0.00000000000E+00 0.  1.
         13    1    3    3    0    0 -0.29062294569E+03  0.13713127057E+03  0.19300767987E+03  0.37485816841E+03  0.00000000000E+00 0. -1.
        -14    1    3    3    0    0 -0.83772290244E+03  0.35696136287E+03  0.40126904827E+03  0.99509694249E+03  0.00000000000E+00 0.  1.
          2    1    6    6  502    0  0.10550402495E+03  0.72694890310E+00 -0.20206377541E+03  0.22795042678E+03  0.00000000000E+00 0. -1.
         -1    1    6    6    0  502  0.34271095976E+03  0.44181214959E+02 -0.40931154688E+03  0.53566661657E+03  0.00000000000E+00 0.  1.
<mgrwt>
<rscale>  0 0.12754136E+04</rscale>
<asrwt>0</asrwt>
<pdfrwt beam="1">  1        1 0.20037519E+00 0.12754136E+04</pdfrwt>
<pdfrwt beam="2">  1       -2 0.28511309E+00 0.12754136E+04</pdfrwt>
<totfact> 0.29999130E-01</totfact>
</mgrwt>
</event>
<event>
12    3  0.2212098E-007  0.2743888E+04  0.7818608E-02  0.8320904E-01
          1   -1    0    0  501    0  0.00000000000E+00  0.00000000000E+00  0.36168893270E+04  0.36168893270E+04  0.00000000000E+00 0. -1.
         -2   -1    0    0    0  501 -0.00000000000E+00 -0.00000000000E+00 -0.22411412022E+04  0.22411412022E+04  0.00000000000E+00 0.  1.
        -24    2    1    2    0    0  0.10268402073E+04  0.25108746786E+04  0.14533126946E+04  0.30786528027E+04  0.84218932551E+02 0.  0.
    5000000    2    1    2    0    0 -0.10268402073E+04 -0.25108746786E+04 -0.77564569847E+02  0.27793777265E+04  0.60002651717E+03 0.  0.
        -24    2    4    4    0    0 -0.81631182634E+03 -0.12499914057E+04 -0.97258486792E+02  0.14983003790E+04  0.81248387928E+02 0.  0.
         24    2    4    4    0    0 -0.21052838093E+03 -0.12608832729E+04  0.19693916945E+02  0.12810773474E+04  0.81378699407E+02 0.  0.
         11    1    3    3    0    0  0.54518145772E+03  0.14399478376E+04  0.83613709129E+03  0.17520838543E+04  0.00000000000E+00 0. -1.
        -12    1    3    3    0    0  0.48165874954E+03  0.10709268409E+04  0.61717560332E+03  0.13265689484E+04  0.00000000000E+00 0.  1.
         13    1    5    5    0    0 -0.21312577045E+03 -0.34157819360E+03  0.88804302222E+01  0.40271220296E+03  0.00000000000E+00 0. -1.
        -14    1    5    5    0    0 -0.60318605589E+03 -0.90841321207E+03 -0.10613891701E+03  0.10955881761E+04  0.00000000000E+00 0.  1.
          4    1    6    6  502    0 -0.21296307113E+03 -0.11315577002E+04  0.11717009377E+02  0.11514831248E+04  0.00000000000E+00 0. -1.
         -3    1    6    6    0  502  0.24346902085E+01 -0.12932557273E+03  0.79769075683E+01  0.12959422261E+03  0.00000000000E+00 0.  1.
<mgrwt>
<rscale>  0 0.27438884E+04</rscale>
<asrwt>0</asrwt>
<pdfrwt beam="1">  1        1 0.55644451E+00 0.27438884E+04</pdfrwt>
<pdfrwt beam="2">  1       -2 0.34479095E+00 0.27438884E+04</pdfrwt>
<totfact> 0.24183412E-03</totfact>
</mgrwt>
</event>
<event>
12    3  0.2212098E-007  0.4082251E+03  0.7818608E-02  0.1040968E+00
         -2   -1    0    0    0  501 -0.00000000000E+00  0.00000000000E+00  0.16512760358E+03  0.16512760358E+03  0.00000000000E+00 0.  1.
          1   -1    0    0  501    0  0.00000000000E+00 -0.00000000000E+00 -0.10212410259E+04  0.10212410259E+04  0.00000000000E+00 0. -1.
        -24    2    1    2    0    0  0.10005070537E+03 -0.14688379678E+03 -0.22669064739E+03  0.29881478039E+03  0.79477229220E+02 0.  0.
    5000000    2    1    2    0    0 -0.10005070537E+03  0.14688379678E+03 -0.62942277489E+03  0.88755384904E+03  0.59999484331E+03 0.  0.
        -24    2    4    4    0    0 -0.20796391094E+03  0.32934818767E+03 -0.42728128493E+03  0.58379229435E+03  0.80777035831E+02 0.  0.
         24    2    4    4    0    0  0.10791320557E+03 -0.18246439089E+03 -0.20214148996E+03  0.30376155469E+03  0.80444926903E+02 0.  0.
         11    1    5    5    0    0 -0.70287534226E+02  0.18637001197E+03 -0.20662852402E+03  0.28700081144E+03  0.00000000000E+00 0. -1.
        -12    1    5    5    0    0 -0.13767637671E+03  0.14297817571E+03 -0.22065276090E+03  0.29679148291E+03  0.00000000000E+00 0.  1.
         13    1    3    3    0    0  0.82082452275E+02 -0.55878214802E+02 -0.92665223171E+02  0.13581880373E+03  0.00000000000E+00 0. -1.
        -14    1    3    3    0    0  0.17968253090E+02 -0.91005581981E+02 -0.13402542422E+03  0.16299597667E+03  0.00000000000E+00 0.  1.
          2    1    6    6  502    0  0.31068261203E+02 -0.13002788373E+03 -0.11727495362E+03  0.17783672890E+03  0.00000000000E+00 0. -1.
         -1    1    6    6    0  502  0.76844944371E+02 -0.52436507163E+02 -0.84866536341E+02  0.12592482579E+03  0.00000000000E+00 0.  1.
<mgrwt>
<rscale>  0 0.40822506E+03</rscale>
<asrwt>0</asrwt>
<pdfrwt beam="1">  1        1 0.15711400E+00 0.40822506E+03</pdfrwt>
<pdfrwt beam="2">  1       -2 0.25404247E-01 0.40822506E+03</pdfrwt>
<totfact> 0.18547080E+02</totfact>
</mgrwt>
</event>
<event>
12    3  0.2212098E-007  0.9332814E+03  0.7818608E-02  0.9384908E-01
          1   -1    0    0  501    0  0.00000000000E+00  0.00000000000E+00  0.23769742030E+04  0.23769742030E+04  0.00000000000E+00 0. -1.
         -2   -1    0    0    0  501 -0.00000000000E+00 -0.00000000000E+00 -0.38576565638E+03  0.38576565638E+03  0.00000000000E+00 0.  1.
        -24    2    1    2    0    0 -0.80343723257E+03  0.30925947794E+03  0.85404959489E+03  0.12153570700E+04  0.80865849270E+02 0.  0.
    5000000    2    1    2    0    0  0.80343723257E+03 -0.30925947794E+03  0.11371589517E+04  0.15473827894E+04  0.60009182974E+03 0.  0.
        -24    2    4    4    0    0  0.81641909663E+02  0.11448827176E+03  0.39122933961E+03  0.42341452409E+03  0.80290081934E+02 0.  0.
         24    2    4    4    0    0  0.72179532291E+03 -0.42374774969E+03  0.74592961208E+03  0.11239682653E+04  0.79643152092E+02 0.  0.
         11    1    3    3    0    0 -0.44850118450E+03  0.21427786732E+03  0.50418333335E+03  0.70800363738E+03  0.00000000000E+00 0. -1.
        -12    1    3    3    0    0 -0.35493604807E+03  0.94981610613E+02  0.34986626154E+03  0.50735343257E+03  0.00000000000E+00 0.  1.
         13    1    5    5    0    0  0.77825429688E+02  0.12693648223E+03  0.35851548063E+03  0.38820486586E+03  0.00000000000E+00 0. -1.
        -14    1    5    5    0    0  0.38164799749E+01 -0.12448210472E+02  0.32713858976E+02  0.35209658227E+02  0.00000000000E+00 0.  1.
          2    1    6    6  502    0  0.57997696528E+03 -0.30551606483E+03  0.56401879058E+03  0.86477195968E+03  0.00000000000E+00 0. -1.
         -1    1    6    6    0  502  0.14181835763E+03 -0.11823168486E+03  0.18191082149E+03  0.25919630561E+03  0.00000000000E+00 0.  1.
<mgrwt>
<rscale>  0 0.93328139E+03</rscale>
<asrwt>0</asrwt>
<pdfrwt beam="1">  1        1 0.36568833E+00 0.93328139E+03</pdfrwt>
<pdfrwt beam="2">  1       -2 0.59348564E-01 0.93328139E+03</pdfrwt>
<totfact> 0.39237270E+00</totfact>
</mgrwt>
</event>
<event>
12    3  0.2849630E-007  0.1286328E+04  0.7818608E-02  0.9040478E-01
         -2   -1    0    0    0  501 -0.00000000000E+00  0.00000000000E+00  0.13848443021E+04  0.13848443021E+04  0.00000000000E+00 0.  1.
          1   -1    0    0  501    0  0.00000000000E+00 -0.00000000000E+00 -0.16456102883E+04  0.16456102883E+04  0.00000000000E+00 0. -1.
        -24    2    1    2    0    0 -0.10421190047E+04  0.64022574955E+03  0.65486202685E+03  0.13890177186E+04  0.68006748978E+02 0.  0.
    5000000    2    1    2    0    0  0.10421190047E+04 -0.64022574955E+03 -0.91562801309E+03  0.16414368719E+04  0.60003276202E+03 0.  0.
        -24    2    4    4    0    0  0.10840004370E+04 -0.65567203636E+03 -0.87220680167E+03  0.15401605617E+04  0.79919235648E+02 0.  0.
         24    2    4    4    0    0 -0.41881432295E+02  0.15446286818E+02 -0.43421211420E+02  0.10127631013E+03  0.79867685866E+02 0.  0.
         11    1    3    3    0    0 -0.52880541305E+03  0.28583430208E+03  0.32935305668E+03  0.68542676419E+03  0.00000000000E+00 0. -1.
        -12    1    3    3    0    0 -0.51331359170E+03  0.35439144746E+03  0.32550897017E+03  0.70359095440E+03  0.00000000000E+00 0.  1.
         11    1    5    5    0    0  0.19847452298E+03 -0.12524056296E+03 -0.12530321240E+03  0.26604178228E+03  0.00000000000E+00 0. -1.
        -12    1    5    5    0    0  0.88552591406E+03 -0.53043147341E+03 -0.74690358928E+03  0.12741187794E+04  0.00000000000E+00 0.  1.
          4    1    6    6  502    0 -0.15583328776E+02 -0.26852973384E+02  0.54210660791E+01  0.31516825233E+02  0.00000000000E+00 0. -1.
         -3    1    6    6    0  502 -0.26298103520E+02  0.42299260202E+02 -0.48842277499E+02  0.69759484901E+02  0.00000000000E+00 0.  1.
<mgrwt>
<rscale>  0 0.12863282E+04</rscale>
<asrwt>0</asrwt>
<pdfrwt beam="1">  1        1 0.25317081E+00 0.12863282E+04</pdfrwt>
<pdfrwt beam="2">  1       -2 0.21305297E+00 0.12863282E+04</pdfrwt>
<totfact> 0.48052252E-01</totfact>
</mgrwt>
</event>
<event>
12    3  0.2212098E-007  0.9524708E+03  0.7818608E-02  0.9362267E-01
          1   -1    0    0  501    0  0.00000000000E+00  0.00000000000E+00  0.18459166971E+04  0.18459166971E+04  0.00000000000E+00 0. -1.
         -2   -1    0    0    0  501 -0.00000000000E+00 -0.00000000000E+00 -0.57295281400E+03  0.57295281400E+03  0.00000000000E+00 0.  1.
        -24    2    1    2    0    0  0.88154790017E+03  0.32316084503E+03  0.57261602807E+03  0.11027527904E+04  0.81332459545E+02 0.  0.
    5000000    2    1    2    0    0 -0.88154790017E+03 -0.32316084503E+03  0.70034785507E+03  0.13161167208E+04  0.60009705263E+03 0.  0.
        -24    2    4    4    0    0 -0.13159246231E+03  0.12678022226E+02 -0.86948152689E+02  0.17531028757E+03  0.75474547269E+02 0.  0.
         24    2    4    4    0    0 -0.74995543786E+03 -0.33583886725E+03  0.78729600776E+03  0.11408064332E+04  0.79896249645E+02 0.  0.
         11    1    5    5    0    0 -0.13311388726E+03  0.24151666191E+01 -0.93814456963E+02  0.16286894224E+03  0.00000000000E+00 0. -1.
        -12    1    5    5    0    0  0.15214249493E+01  0.10262855607E+02  0.68663042746E+01  0.12441345324E+02  0.00000000000E+00 0.  1.
         13    1    3    3    0    0  0.63368190036E+03  0.21629256098E+03  0.36800819939E+03  0.76404532431E+03  0.00000000000E+00 0. -1.
        -14    1    3    3    0    0  0.24786599981E+03  0.10686828405E+03  0.20460782868E+03  0.33870746605E+03  0.00000000000E+00 0.  1.
          4    1    6    6  502    0 -0.61903164394E+03 -0.26939261937E+03  0.60317124182E+03  0.90531105512E+03  0.00000000000E+00 0. -1.
         -3    1    6    6    0  502 -0.13092379392E+03 -0.66446247881E+02  0.18412476594E+03  0.23549537810E+03  0.00000000000E+00 0.  1.
<mgrwt>
<rscale>  0 0.95247076E+03</rscale>
<asrwt>0</asrwt>
<pdfrwt beam="1">  1        1 0.28398718E+00 0.95247076E+03</pdfrwt>
<pdfrwt beam="2">  1       -2 0.88146588E-01 0.95247076E+03</pdfrwt>
<totfact> 0.37298959E+00</totfact>
</mgrwt>
</event>
<event>
12    3  0.2212098E-007  0.8954912E+03  0.7818608E-02  0.9431235E-01
         -2   -1    0    0    0  501 -0.00000000000E+00  0.00000000000E+00  0.32582399909E+03  0.32582399909E+03  0.00000000000E+00 0.  1.
          1   -1    0    0  501    0  0.00000000000E+00 -0.00000000000E+00 -0.40131570319E+04  0.40131570319E+04  0.00000000000E+00 0. -1.
        -24    2    1    2    0    0  0.51228835723E+03 -0.67891171407E+03 -0.29291506821E+04  0.30512337776E+04  0.82118029209E+02 0.  0.
    5000000    2    1    2    0    0 -0.51228835723E+03  0.67891171407E+03 -0.75818235062E+03  0.12877472533E+04  0.60007669105E+03 0.  0.
        -24    2    4    4    0    0 -0.31826810346E+03  0.12791115695E+03 -0.33297401303E+02  0.35338078994E+03  0.78188336807E+02 0.  0.
         24    2    4    4    0    0 -0.19402025376E+03  0.55100055713E+03 -0.72488494932E+03  0.93436646336E+03  0.79605435013E+02 0.  0.
         11    1    3    3    0    0  0.40582000924E+03 -0.57667268711E+03 -0.23454555364E+04  0.24491637228E+04  0.00000000000E+00 0. -1.
        -12    1    3    3    0    0  0.10646834798E+03 -0.10223902696E+03 -0.58369514574E+03  0.60207005483E+03  0.00000000000E+00 0.  1.
         11    1    5    5    0    0 -0.22795306341E+03  0.58023797719E+02 -0.41639583602E+02  0.23887908059E+03  0.00000000000E+00 0. -1.
        -12    1    5    5    0    0 -0.90315040055E+02  0.69887359226E+02  0.83421822991E+01  0.11450170936E+03  0.00000000000E+00 0.  1.
          2    1    6    6  502    0 -0.46158176732E+02  0.24052510373E+03 -0.27829368207E+03  0.37071589699E+03  0.00000000000E+00 0. -1.
         -1    1    6    6    0  502 -0.14786207703E+03  0.31047545340E+03 -0.44659126725E+03  0.56365056637E+03  0.00000000000E+00 0.  1.
<mgrwt>
<rscale>  0 0.89549119E+03</rscale>
<asrwt>0</asrwt>
<pdfrwt beam="1">  1        1 0.61740875E+00 0.89549119E+03</pdfrwt>
<pdfrwt beam="2">  1       -2 0.50126771E-01 0.89549119E+03</pdfrwt>
<totfact> 0.33167048E-01</totfact>
</mgrwt>
</event>
<event>
12    3  0.2212098E-007  0.3718741E+03  0.7818608E-02  0.1053979E+00
         -2   -1    0    0    0  501 -0.00000000000E+00  0.00000000000E+00  0.53837564424E+03  0.53837564424E+03  0.00000000000E+00 0.  1.
          1   -1    0    0  501    0  0.00000000000E+00 -0.00000000000E+00 -0.50846570506E+03  0.50846570506E+03  0.00000000000E+00 0. -1.
        -24    2    1    2    0    0  0.29941701635E+03 -0.13444296956E+03  0.11816374850E+03  0.35733145433E+03  0.77444399705E+02 0.  0.
    5000000    2    1    2    0    0 -0.29941701635E+03  0.13444296956E+03 -0.88253809324E+02  0.68950989498E+03  0.59992474417E+03 0.  0.
        -24    2    4    4    0    0 -0.14487818057E+03 -0.50968444528E+02 -0.30707243252E+03  0.35246162558E+03  0.79675900672E+02 0.  0.
         24    2    4    4    0    0 -0.15453883578E+03  0.18541141408E+03  0.21881862320E+03  0.33704826940E+03  0.86373038673E+02 0.  0.
         11    1    3    3    0    0  0.15806773199E+03 -0.78201123283E+02  0.10354006385E+03  0.20450273446E+03  0.00000000000E+00 0. -1.
        -12    1    3    3    0    0  0.14134928437E+03 -0.56241846272E+02  0.14623684644E+02  0.15282871987E+03  0.00000000000E+00 0.  1.
         13    1    5    5    0    0 -0.43713832002E+02 -0.53071738319E+02 -0.15776863814E+03  0.17210012114E+03  0.00000000000E+00 0. -1.
        -14    1    5    5    0    0 -0.10116434857E+03  0.21032937912E+01 -0.14930379439E+03  0.18036150444E+03  0.00000000000E+00 0.  1.
          4    1    6    6  502    0 -0.45734913390E+02  0.88494799957E+02  0.13869992736E+03  0.17076498989E+03  0.00000000000E+00 0. -1.
         -3    1    6    6    0  502 -0.10880392239E+03  0.96916614126E+02  0.80118695834E+02  0.16628327951E+03  0.00000000000E+00 0.  1.
<mgrwt>
<rscale>  0 0.37187408E+03</rscale>
<asrwt>0</asrwt>
<pdfrwt beam="1">  1        1 0.78225493E-01 0.37187408E+03</pdfrwt>
<pdfrwt beam="2">  1       -2 0.82827022E-01 0.37187408E+03</pdfrwt>
<totfact> 0.51027936E+01</totfact>
</mgrwt>
</event>
<event>
12    3  0.2212098E-007  0.7932761E+03  0.7818608E-02  0.9569801E-01
         -2   -1    0    0    0  501 -0.00000000000E+00  0.00000000000E+00  0.67077656625E+03  0.67077656625E+03  0.00000000000E+00 0.  1.
          1   -1    0    0  501    0  0.00000000000E+00 -0.00000000000E+00 -0.12499161052E+04  0.12499161052E+04  0.00000000000E+00 0. -1.
        -24    2    1    2    0    0 -0.76749646644E+03  0.16359597891E+03 -0.27158215951E+02  0.78915065950E+03  0.78782767124E+02 0.  0.
    5000000    2    1    2    0    0  0.76749646644E+03 -0.16359597891E+03 -0.55198132301E+03  0.11315420120E+04  0.59990788756E+03 0.  0.
        -24    2    4    4    0    0  0.52067700995E+03 -0.99495460321E+02 -0.20540715068E+02  0.53679741064E+03  0.82010022465E+02 0.  0.
         24    2    4    4    0    0  0.24681945649E+03 -0.64100518586E+02 -0.53144060794E+03  0.59474460131E+03  0.79141016122E+02 0.  0.
         11    1    3    3    0    0 -0.11290912757E+03  0.52232169006E+02  0.34449598530E+01  0.12445295624E+03  0.00000000000E+00 0. -1.
        -12    1    3    3    0    0 -0.65458733887E+03  0.11136380990E+03 -0.30603175804E+02  0.66469770327E+03  0.00000000000E+00 0.  1.
         13    1    5    5    0    0  0.41191640732E+03 -0.11189960691E+03 -0.20388295131E+02  0.42733164079E+03  0.00000000000E+00 0. -1.
        -14    1    5    5    0    0  0.10876060263E+03  0.12404146589E+02 -0.15241993726E+00  0.10946576985E+03  0.00000000000E+00 0.  1.
          4    1    6    6  502    0  0.15475220906E+03 -0.10039383698E+02 -0.37010075946E+03  0.40127746957E+03  0.00000000000E+00 0. -1.
         -3    1    6    6    0  502  0.92067247427E+02 -0.54061134887E+02 -0.16133984849E+03  0.19346713174E+03  0.00000000000E+00 0.  1.
<mgrwt>
<rscale>  0 0.79327615E+03</rscale>
<asrwt>0</asrwt>
<pdfrwt beam="1">  1        1 0.19229478E+00 0.79327615E+03</pdfrwt>
<pdfrwt beam="2">  1       -2 0.10319640E+00 0.79327615E+03</pdfrwt>
<totfact> 0.67545383E+00</totfact>
</mgrwt>
</event>
<event>
12    3  0.2212098E-007  0.1408842E+04  0.7818608E-02  0.8947443E-01
         -2   -1    0    0    0  501 -0.00000000000E+00  0.00000000000E+00  0.13287490178E+04  0.13287490178E+04  0.00000000000E+00 0.  1.
          1   -1    0    0  501    0  0.00000000000E+00 -0.00000000000E+00 -0.17008094912E+04  0.17008094912E+04  0.00000000000E+00 0. -1.
        -24    2    1    2    0    0  0.11932992875E+04 -0.62731247976E+03  0.33738606007E+03  0.13923500527E+04  0.85587259433E+02 0.  0.
    5000000    2    1    2    0    0 -0.11932992875E+04  0.62731247976E+03 -0.70944653340E+03  0.16372084563E+04  0.59971077102E+03 0.  0.
        -24    2    4    4    0    0 -0.96040737514E+03  0.20450982470E+03 -0.49390313126E+03  0.11020766617E+04  0.80162776098E+02 0.  0.
         24    2    4    4    0    0 -0.23289191235E+03  0.42280265506E+03 -0.21554340214E+03  0.53513179456E+03  0.83104460683E+02 0.  0.
         11    1    5    5    0    0 -0.54512683488E+03  0.76537016249E+02 -0.26548943546E+03  0.61115122622E+03  0.00000000000E+00 0. -1.
        -12    1    5    5    0    0 -0.41528054026E+03  0.12797280845E+03 -0.22841369579E+03  0.49092543552E+03  0.00000000000E+00 0.  1.
         13    1    3    3    0    0  0.97438146079E+03 -0.49295143356E+03  0.24296147981E+03  0.11186825410E+04  0.00000000000E+00 0. -1.
        -14    1    3    3    0    0  0.21891782670E+03 -0.13436104620E+03  0.94424580260E+02  0.27366751166E+03  0.00000000000E+00 0.  1.
          2    1    6    6  502    0 -0.11209912855E+03  0.23742281181E+03 -0.15829998650E+03  0.30658553768E+03  0.00000000000E+00 0. -1.
         -1    1    6    6    0  502 -0.12079278380E+03  0.18537984325E+03 -0.57243415635E+02  0.22854625688E+03  0.00000000000E+00 0.  1.
<mgrwt>
<rscale>  0 0.14088422E+04</rscale>
<asrwt>0</asrwt>
<pdfrwt beam="1">  1        1 0.26166300E+00 0.14088422E+04</pdfrwt>
<pdfrwt beam="2">  1       -2 0.20442293E+00 0.14088422E+04</pdfrwt>
<totfact> 0.49415999E-01</totfact>
</mgrwt>
</event>
<event>
12    3  0.2212098E-007  0.1649638E+04  0.7818608E-02  0.8790620E-01
          1   -1    0    0  501    0  0.00000000000E+00  0.00000000000E+00  0.11293312210E+04  0.11293312210E+04  0.00000000000E+00 0. -1.
         -2   -1    0    0    0  501 -0.00000000000E+00 -0.00000000000E+00 -0.26011380750E+04  0.26011380750E+04  0.00000000000E+00 0.  1.
        -24    2    1    2    0    0 -0.10381862744E+04 -0.12325302346E+04 -0.11490042829E+04  0.19808125153E+04  0.80286108133E+02 0.  0.
    5000000    2    1    2    0    0  0.10381862744E+04  0.12325302346E+04 -0.32280257112E+03  0.17496567807E+04  0.60011318156E+03 0.  0.
        -24    2    4    4    0    0  0.17585118756E+03  0.80969655135E+00 -0.12527268307E+03  0.23102970177E+03  0.82202081471E+02 0.  0.
         24    2    4    4    0    0  0.86233508681E+03  0.12317205381E+04 -0.19752988805E+03  0.15186270789E+04  0.80329709795E+02 0.  0.
         13    1    5    5    0    0  0.73152090465E+02 -0.25532155140E+02 -0.91193730425E+02  0.11966376124E+03  0.00000000000E+00 0. -1.
        -14    1    5    5    0    0  0.10269909710E+03  0.26341851691E+02 -0.34078952644E+02  0.11136594052E+03  0.00000000000E+00 0.  1.
         13    1    3    3    0    0 -0.49298269935E+03 -0.61356402888E+03 -0.60496053784E+03  0.99270842231E+03  0.00000000000E+00 0. -1.
        -14    1    3    3    0    0 -0.54520357502E+03 -0.61896620573E+03 -0.54404374511E+03  0.98810409302E+03  0.00000000000E+00 0.  1.
          2    1    6    6  502    0  0.49175972755E+03  0.72690084804E+03 -0.77890454400E+02  0.88106719120E+03  0.00000000000E+00 0. -1.
         -1    1    6    6    0  502  0.37057535925E+03  0.50481969002E+03 -0.11963943365E+03  0.63755988770E+03  0.00000000000E+00 0.  1.
<mgrwt>
<rscale>  0 0.16496383E+04</rscale>
<asrwt>0</asrwt>
<pdfrwt beam="1">  1        1 0.17374326E+00 0.16496383E+04</pdfrwt>
<pdfrwt beam="2">  1       -2 0.40017509E+00 0.16496383E+04</pdfrwt>
<totfact> 0.72954870E-02</totfact>
</mgrwt>
</event>
<event>
12    3  0.2212098E-007  0.7377933E+03  0.7818608E-02  0.9654698E-01
          1   -1    0    0  501    0  0.00000000000E+00  0.00000000000E+00  0.39507728066E+03  0.39507728066E+03  0.00000000000E+00 0. -1.
         -2   -1    0    0    0  501 -0.00000000000E+00 -0.00000000000E+00 -0.14067318727E+04  0.14067318727E+04  0.00000000000E+00 0.  1.
        -24    2    1    2    0    0 -0.36499321355E+03  0.50327771668E+03 -0.40401752081E+03  0.74555806388E+03  0.78218689898E+02 0.  0.
    5000000    2    1    2    0    0  0.36499321355E+03 -0.50327771668E+03 -0.60763707119E+03  0.10562510894E+04  0.59994587057E+03 0.  0.
        -24    2    4    4    0    0  0.21787108076E+03 -0.61820669495E+03 -0.46714057073E+03  0.80888988551E+03  0.80219751516E+02 0.  0.
         24    2    4    4    0    0  0.14712213279E+03  0.11492897827E+03 -0.14049650046E+03  0.24736120393E+03  0.81207798692E+02 0.  0.
         13    1    5    5    0    0  0.19330343784E+03 -0.44187834830E+03 -0.34425535456E+03  0.59256598191E+03  0.00000000000E+00 0. -1.
        -14    1    5    5    0    0  0.24567642919E+02 -0.17632834665E+03 -0.12288521618E+03  0.21632390359E+03  0.00000000000E+00 0.  1.
         13    1    3    3    0    0 -0.26870349146E+03  0.39962844432E+03 -0.34435801460E+03  0.59201934263E+03  0.00000000000E+00 0. -1.
        -14    1    3    3    0    0 -0.96289722089E+02  0.10364927236E+03 -0.59659506215E+02  0.15353872125E+03  0.00000000000E+00 0.  1.
          4    1    6    6  502    0  0.10273049058E+03  0.10463805745E+03 -0.13856770244E+03  0.20175154255E+03  0.00000000000E+00 0. -1.
         -3    1    6    6    0  502  0.44391642212E+02  0.10290920818E+02 -0.19287980124E+01  0.45609661382E+02  0.00000000000E+00 0.  1.
<mgrwt>
<rscale>  0 0.73779334E+03</rscale>
<asrwt>0</asrwt>
<pdfrwt beam="1">  1        1 0.60781119E-01 0.73779334E+03</pdfrwt>
<pdfrwt beam="2">  1       -2 0.21642029E+00 0.73779334E+03</pdfrwt>
<totfact> 0.57109008E+00</totfact>
</mgrwt>
</event>
<event>
12    3  0.2212098E-007  0.5626094E+03  0.7818608E-02  0.9986168E-01
          1   -1    0    0  501    0  0.00000000000E+00  0.00000000000E+00  0.56034190130E+03  0.56034190130E+03  0.00000000000E+00 0. -1.
         -2   -1    0    0    0  501 -0.00000000000E+00 -0.00000000000E+00 -0.97081004174E+03  0.97081004174E+03  0.00000000000E+00 0.  1.
        -24    2    1    2    0    0  0.12641555788E+03  0.47644999497E+03 -0.54921967723E+03  0.74232343016E+03  0.80101998272E+02 0.  0.
    5000000    2    1    2    0    0 -0.12641555788E+03 -0.47644999497E+03  0.13875153679E+03  0.78882851288E+03  0.60001078556E+03 0.  0.
        -24    2    4    4    0    0  0.18896247662E+02 -0.45872814325E+03 -0.11906457156E+03  0.48164650773E+03  0.83775942956E+02 0.  0.
         24    2    4    4    0    0 -0.14531180554E+03 -0.17721851715E+02  0.25781610835E+03  0.30718200515E+03  0.80386900067E+02 0.  0.
         11    1    5    5    0    0 -0.17840121883E+02 -0.36705901834E+03 -0.85140562136E+02  0.37722607043E+03  0.00000000000E+00 0. -1.
        -12    1    5    5    0    0  0.36736369544E+02 -0.91669124917E+02 -0.33924009427E+02  0.10442043730E+03  0.00000000000E+00 0.  1.
         13    1    3    3    0    0  0.61294712324E+02  0.27105128352E+03 -0.36557837413E+03  0.45920952482E+03  0.00000000000E+00 0. -1.
        -14    1    3    3    0    0  0.65120845554E+02  0.20539871145E+03 -0.18364130310E+03  0.28311390534E+03  0.00000000000E+00 0.  1.
          4    1    6    6  502    0 -0.41703686683E+02  0.30156232628E+02  0.62496273531E+02  0.80959125826E+02  0.00000000000E+00 0. -1.
         -3    1    6    6    0  502 -0.10360811886E+03 -0.47878084343E+02  0.19531983482E+03  0.22622287932E+03  0.00000000000E+00 0.  1.
<mgrwt>
<rscale>  0 0.56260940E+03</rscale>
<asrwt>0</asrwt>
<pdfrwt beam="1">  1        1 0.86206447E-01 0.56260940E+03</pdfrwt>
<pdfrwt beam="2">  1       -2 0.14935539E+00 0.56260940E+03</pdfrwt>
<totfact> 0.10454987E+01</totfact>
</mgrwt>
</event>
<event>
12    3  0.2212098E-007  0.7392392E+03  0.7818608E-02  0.9652385E-01
         -2   -1    0    0    0  501 -0.00000000000E+00  0.00000000000E+00  0.73784250698E+03  0.73784250698E+03  0.00000000000E+00 0.  1.
          1   -1    0    0  501    0  0.00000000000E+00 -0.00000000000E+00 -0.75423248071E+03  0.75423248071E+03  0.00000000000E+00 0. -1.
        -24    2    1    2    0    0  0.60987324128E+03 -0.11853052052E+03  0.27048146374E+02  0.62748288067E+03  0.83715641221E+02 0.  0.
    5000000    2    1    2    0    0 -0.60987324128E+03  0.11853052052E+03 -0.43438120106E+02  0.86459210701E+03  0.59969807946E+03 0.  0.
        -24    2    4    4    0    0  0.47405701268E+02 -0.12846893866E+03 -0.41468835877E+02  0.15826914402E+03  0.67660098183E+02 0.  0.
         24    2    4    4    0    0 -0.65727894255E+03  0.24699945918E+03 -0.19692842287E+01  0.70632296299E+03  0.76576163497E+02 0.  0.
         11    1    3    3    0    0  0.10959848058E+03 -0.39093717253E+02  0.32840279957E+02  0.12090752525E+03  0.00000000000E+00 0. -1.
        -12    1    3    3    0    0  0.50027476070E+03 -0.79436803266E+02 -0.57921335829E+01  0.50657535542E+03  0.00000000000E+00 0.  1.
         11    1    5    5    0    0  0.45387673028E+01 -0.98353844939E+02 -0.38754047464E+02  0.10581094186E+03  0.00000000000E+00 0. -1.
        -12    1    5    5    0    0  0.42866933965E+02 -0.30115093723E+02 -0.27147884133E+01  0.52458202158E+02  0.00000000000E+00 0.  1.
          2    1    6    6  502    0 -0.16464459183E+03  0.34522593581E+02  0.19753478695E+02  0.16938078700E+03  0.00000000000E+00 0. -1.
         -1    1    6    6    0  502 -0.49263435072E+03  0.21247686560E+03 -0.21722762923E+02  0.53694217599E+03  0.00000000000E+00 0.  1.
<mgrwt>
<rscale>  0 0.73923919E+03</rscale>
<asrwt>0</asrwt>
<pdfrwt beam="1">  1        1 0.11603577E+00 0.73923919E+03</pdfrwt>
<pdfrwt beam="2">  1       -2 0.11351423E+00 0.73923919E+03</pdfrwt>
<totfact> 0.13230672E+01</totfact>
</mgrwt>
</event>
<event>
12    3  0.2212098E-007  0.5280133E+03  0.7818608E-02  0.1006715E+00
          1   -1    0    0  501    0  0.00000000000E+00  0.00000000000E+00  0.59033799359E+03  0.59033799359E+03  0.00000000000E+00 0. -1.
         -2   -1    0    0    0  501 -0.00000000000E+00 -0.00000000000E+00 -0.55565739781E+03  0.55565739781E+03  0.00000000000E+00 0.  1.
        -24    2    1    2    0    0 -0.34649108362E+03  0.20963197217E+03 -0.57640699817E+02  0.41632002606E+03  0.77448557396E+02 0.  0.
    5000000    2    1    2    0    0  0.34649108362E+03 -0.20963197217E+03  0.92321295592E+02  0.72967536534E+03  0.59991772968E+03 0.  0.
        -24    2    4    4    0    0  0.13636216688E+03  0.16081213890E+03  0.17993663329E+03  0.28784496569E+03  0.77603786653E+02 0.  0.
         24    2    4    4    0    0  0.21012891673E+03 -0.37044411107E+03 -0.87615337694E+02  0.44183039964E+03  0.78451600242E+02 0.  0.
         13    1    5    5    0    0  0.49942244925E+02  0.61123835527E+02  0.21775564760E+02  0.81881171940E+02  0.00000000000E+00 0. -1.
        -14    1    5    5    0    0  0.86419921959E+02  0.99688303370E+02  0.15816106852E+03  0.20596379375E+03  0.00000000000E+00 0.  1.
         13    1    3    3    0    0 -0.29520369614E+03  0.20773957479E+03 -0.51672374424E+02  0.36465187156E+03  0.00000000000E+00 0. -1.
        -14    1    3    3    0    0 -0.51287387474E+02  0.18923973740E+01 -0.59683253930E+01  0.51668154503E+02  0.00000000000E+00 0.  1.
          4    1    6    6  502    0  0.11597328860E+03 -0.12770233795E+03 -0.41315562456E+02  0.17738282467E+03  0.00000000000E+00 0. -1.
         -3    1    6    6    0  502  0.94155628137E+02 -0.24274177311E+03 -0.46299775238E+02  0.26444757497E+03  0.00000000000E+00 0.  1.
<mgrwt>
<rscale>  0 0.52801330E+03</rscale>
<asrwt>0</asrwt>
<pdfrwt beam="1">  1        1 0.90821230E-01 0.52801330E+03</pdfrwt>
<pdfrwt beam="2">  1       -2 0.85485753E-01 0.52801330E+03</pdfrwt>
<totfact> 0.37932420E+01</totfact>
</mgrwt>
</event>
<event>
12    3  0.2212098E-007  0.7757779E+03  0.7818608E-02  0.9595755E-01
          3   -1    0    0  501    0  0.00000000000E+00  0.00000000000E+00  0.21275070981E+04  0.21275070981E+04  0.00000000000E+00 0. -1.
         -4   -1    0    0    0  501 -0.00000000000E+00 -0.00000000000E+00 -0.40809165204E+03  0.40809165204E+03  0.00000000000E+00 0.  1.
        -24    2    1    2    0    0  0.20669046182E+03  0.63144867299E+03  0.14560812186E+04  0.16024780842E+04  0.79467738053E+02 0.  0.
    5000000    2    1    2    0    0 -0.20669046182E+03 -0.63144867299E+03  0.26333422743E+03  0.93312066595E+03  0.59993406993E+03 0.  0.
        -24    2    4    4    0    0  0.18065678916E+03 -0.90169982518E+02  0.11964621113E+03  0.24742984317E+03  0.78350559907E+02 0.  0.
         24    2    4    4    0    0 -0.38734725098E+03 -0.54127869047E+03  0.14368801630E+03  0.68569082278E+03  0.80654477953E+02 0.  0.
         13    1    3    3    0    0  0.13058074275E+03  0.32326009680E+03  0.68529178499E+03  0.76887791692E+03  0.00000000000E+00 0. -1.
        -14    1    3    3    0    0  0.76109719066E+02  0.30818857620E+03  0.77078943363E+03  0.83360016724E+03  0.00000000000E+00 0.  1.
         13    1    5    5    0    0  0.86221981982E+02 -0.84339488471E+02  0.53259801922E+02  0.13184834467E+03  0.00000000000E+00 0. -1.
        -14    1    5    5    0    0  0.94434807181E+02 -0.58304940464E+01  0.66386409207E+02  0.11558149850E+03  0.00000000000E+00 0.  1.
          2    1    6    6  502    0 -0.23705122982E+03 -0.39400604864E+03  0.90342985414E+02  0.46861061334E+03  0.00000000000E+00 0. -1.
         -1    1    6    6    0  502 -0.15029602116E+03 -0.14727264183E+03  0.53345030888E+02  0.21708020944E+03  0.00000000000E+00 0.  1.
<mgrwt>
<rscale>  0 0.77577791E+03</rscale>
<asrwt>0</asrwt>
<pdfrwt beam="1">  1        3 0.32730878E+00 0.77577791E+03</pdfrwt>
<pdfrwt beam="2">  1       -4 0.62783332E-01 0.77577791E+03</pdfrwt>
<totfact> 0.15005905E-01</totfact>
</mgrwt>
</event>
<event>
12    3  0.2212098E-007  0.9957918E+03  0.7818608E-02  0.9313172E-01
          1   -1    0    0  501    0  0.00000000000E+00  0.00000000000E+00  0.12250330477E+04  0.12250330477E+04  0.00000000000E+00 0. -1.
         -2   -1    0    0    0  501 -0.00000000000E+00 -0.00000000000E+00 -0.10216703171E+04  0.10216703171E+04  0.00000000000E+00 0.  1.
        -24    2    1    2    0    0 -0.76379984785E+03 -0.58714621588E+03  0.47975253623E+03  0.10787426563E+04  0.73432527714E+02 0.  0.
    5000000    2    1    2    0    0  0.76379984785E+03  0.58714621588E+03 -0.27638980564E+03  0.11679607085E+04  0.59967491659E+03 0.  0.
        -24    2    4    4    0    0  0.66963502016E+03  0.60224555867E+03 -0.47095559024E+02  0.90681521597E+03  0.94789614791E+02 0.  0.
         24    2    4    4    0    0  0.94164827695E+02 -0.15099342793E+02 -0.22929424662E+03  0.26114549255E+03  0.80784353813E+02 0.  0.
         13    1    5    5    0    0  0.21897387525E+03  0.16834736857E+03 -0.52751598679E+02  0.28119944116E+03  0.00000000000E+00 0. -1.
        -14    1    5    5    0    0  0.45066114491E+03  0.43389819011E+03  0.56560396542E+01  0.62561577481E+03  0.00000000000E+00 0.  1.
         13    1    3    3    0    0 -0.19799055646E+03 -0.12103929219E+03  0.13721761544E+03  0.26959125484E+03  0.00000000000E+00 0. -1.
        -14    1    3    3    0    0 -0.56580929139E+03 -0.46610692369E+03  0.34253492079E+03  0.80915140147E+03  0.00000000000E+00 0.  1.
          2    1    6    6  502    0  0.88517501352E+01  0.27791948302E+02 -0.61994206185E+02  0.68512973015E+02  0.00000000000E+00 0. -1.
         -1    1    6    6    0  502  0.85313077560E+02 -0.42891291095E+02 -0.16730004043E+03  0.19263251954E+03  0.00000000000E+00 0.  1.
<mgrwt>
<rscale>  0 0.99579180E+03</rscale>
<asrwt>0</asrwt>
<pdfrwt beam="1">  1        1 0.18846662E+00 0.99579180E+03</pdfrwt>
<pdfrwt beam="2">  1       -2 0.15718005E+00 0.99579180E+03</pdfrwt>
<totfact> 0.23679475E+00</totfact>
</mgrwt>
</event>
<event>
12    3  0.2212098E-007  0.2898849E+03  0.7818608E-02  0.1090409E+00
          1   -1    0    0  501    0  0.00000000000E+00  0.00000000000E+00  0.38762003546E+04  0.38762003546E+04  0.00000000000E+00 0. -1.
         -2   -1    0    0    0  501 -0.00000000000E+00 -0.00000000000E+00 -0.64267187987E+02  0.64267187987E+02  0.00000000000E+00 0.  1.
        -24    2    1    2    0    0 -0.88807574455E+02  0.27093651567E+03  0.73348386158E+03  0.79115031666E+03  0.81405574453E+02 0.  0.
    5000000    2    1    2    0    0  0.88807574455E+02 -0.27093651567E+03  0.30784493050E+04  0.31493172259E+04  0.60004623575E+03 0.  0.
        -24    2    4    4    0    0  0.16858199509E+02 -0.12719942323E+03  0.13660861723E+03  0.20249486120E+03  0.76670479005E+02 0.  0.
         24    2    4    4    0    0  0.71949374946E+02 -0.14373709245E+03  0.29418406878E+04  0.29468223647E+04  0.59146872520E+02 0.  0.
         11    1    5    5    0    0 -0.85727320692E+01 -0.32656588014E+02 -0.80358347625E+00  0.33772625339E+02  0.00000000000E+00 0. -1.
        -12    1    5    5    0    0  0.25430931578E+02 -0.94542835212E+02  0.13741220071E+03  0.16872223586E+03  0.00000000000E+00 0.  1.
         11    1    3    3    0    0 -0.75931245497E+02  0.18092717054E+03  0.40060772009E+03  0.44607929842E+03  0.00000000000E+00 0. -1.
        -12    1    3    3    0    0 -0.12876328958E+02  0.90009345131E+02  0.33287614149E+03  0.34507101824E+03  0.00000000000E+00 0.  1.
          4    1    6    6  502    0  0.51199874546E+02 -0.11041974999E+03  0.16951177531E+04  0.16994817284E+04  0.00000000000E+00 0. -1.
         -3    1    6    6    0  502  0.20749500400E+02 -0.33317342452E+02  0.12467229346E+04  0.12473406363E+04  0.00000000000E+00 0.  1.
<mgrwt>
<rscale>  0 0.28988486E+03</rscale>
<asrwt>0</asrwt>
<pdfrwt beam="1">  1        1 0.59633833E+00 0.28988486E+03</pdfrwt>
<pdfrwt beam="2">  1       -2 0.98872628E-02 0.28988486E+03</pdfrwt>
<totfact> 0.93698629E+00</totfact>
</mgrwt>
</event>
<event>
12    3  0.2212098E-007  0.1052233E+04  0.7818608E-02  0.9253042E-01
          1   -1    0    0  501    0  0.00000000000E+00  0.00000000000E+00  0.19693664805E+04  0.19693664805E+04  0.00000000000E+00 0. -1.
         -2   -1    0    0    0  501 -0.00000000000E+00 -0.00000000000E+00 -0.59830577995E+03  0.59830577995E+03  0.00000000000E+00 0.  1.
        -24    2    1    2    0    0 -0.17394405069E+03  0.96197763172E+03  0.37988323601E+03  0.10517495812E+04  0.78793476568E+02 0.  0.
    5000000    2    1    2    0    0  0.17394405069E+03 -0.96197763172E+03  0.99117746452E+03  0.15159226792E+04  0.59994275259E+03 0.  0.
        -24    2    4    4    0    0  0.37337978754E+03 -0.67078691585E+03  0.56334085287E+03  0.95556583936E+03  0.79909978244E+02 0.  0.
         24    2    4    4    0    0 -0.19943573685E+03 -0.29119071587E+03  0.42783661165E+03  0.56035683982E+03  0.79931067334E+02 0.  0.
         13    1    3    3    0    0 -0.60362964999E+02  0.54729002227E+03  0.22324037409E+03  0.59414335025E+03  0.00000000000E+00 0. -1.
        -14    1    3    3    0    0 -0.11358108569E+03  0.41468760945E+03  0.15664286192E+03  0.45760623100E+03  0.00000000000E+00 0.  1.
         13    1    5    5    0    0  0.24801445030E+02 -0.62724601451E+02  0.77569897075E+02  0.10279385310E+03  0.00000000000E+00 0. -1.
        -14    1    5    5    0    0  0.34857834251E+03 -0.60806231440E+03  0.48577095579E+03  0.85277198626E+03  0.00000000000E+00 0.  1.
          4    1    6    6  502    0 -0.35253086791E+02 -0.26591015839E+02  0.93861863600E+02  0.10372999417E+03  0.00000000000E+00 0. -1.
         -3    1    6    6    0  502 -0.16418265006E+03 -0.26459970003E+03  0.33397474805E+03  0.45662684565E+03  0.00000000000E+00 0.  1.
<mgrwt>
<rscale>  0 0.10522326E+04</rscale>
<asrwt>0</asrwt>
<pdfrwt beam="1">  1        1 0.30297946E+00 0.10522326E+04</pdfrwt>
<pdfrwt beam="2">  1       -2 0.92047043E-01 0.10522326E+04</pdfrwt>
<totfact> 0.27518855E+00</totfact>
</mgrwt>
</event>
<event>
12    3  0.2212098E-007  0.1271981E+04  0.7818608E-02  0.9052085E-01
          1   -1    0    0  501    0  0.00000000000E+00  0.00000000000E+00  0.22205700531E+04  0.22205700531E+04  0.00000000000E+00 0. -1.
         -2   -1    0    0    0  501 -0.00000000000E+00 -0.00000000000E+00 -0.18238031644E+04  0.18238031644E+04  0.00000000000E+00 0.  1.
        -24    2    1    2    0    0 -0.10783274143E+03 -0.12554501242E+04 -0.13235509639E+04  0.18290854628E+04  0.77353484922E+02 0.  0.
    5000000    2    1    2    0    0  0.10783274143E+03  0.12554501242E+04  0.17203178526E+04  0.22152877548E+04  0.60018614466E+03 0.  0.
        -24    2    4    4    0    0 -0.62733505719E+02  0.15455188254E+03  0.62166266197E+03  0.64862176063E+03  0.80149522340E+02 0.  0.
         24    2    4    4    0    0  0.17056624715E+03  0.11008982416E+04  0.10986551906E+04  0.15666659942E+04  0.79557063444E+02 0.  0.
         11    1    5    5    0    0 -0.32225496342E+02  0.49162421765E+02  0.10402978605E+03  0.11948900666E+03  0.00000000000E+00 0. -1.
        -12    1    5    5    0    0 -0.30508009377E+02  0.10538946078E+03  0.51763287593E+03  0.52913275396E+03  0.00000000000E+00 0.  1.
         11    1    3    3    0    0 -0.94299642508E+01 -0.29285230744E+03 -0.26709211798E+03  0.39647143363E+03  0.00000000000E+00 0. -1.
        -12    1    3    3    0    0 -0.98402777182E+02 -0.96259781675E+03 -0.10564588459E+04  0.14326140291E+04  0.00000000000E+00 0.  1.
          2    1    6    6  502    0  0.95173669305E+02  0.74445598192E+03  0.69466497675E+03  0.10226593598E+04  0.00000000000E+00 0. -1.
         -1    1    6    6    0  502  0.75392577847E+02  0.35644225973E+03  0.40399021386E+03  0.54400663434E+03  0.00000000000E+00 0.  1.
<mgrwt>
<rscale>  0 0.12719805E+04</rscale>
<asrwt>0</asrwt>
<pdfrwt beam="1">  1        1 0.34162616E+00 0.12719805E+04</pdfrwt>
<pdfrwt beam="2">  1       -2 0.28058510E+00 0.12719805E+04</pdfrwt>
<totfact> 0.74945959E-02</totfact>
</mgrwt>
</event>
<event>
12    3  0.2212098E-007  0.4800583E+03  0.7818608E-02  0.1019119E+00
          1   -1    0    0  501    0  0.00000000000E+00  0.00000000000E+00  0.11219444793E+04  0.11219444793E+04  0.00000000000E+00 0. -1.
         -2   -1    0    0    0  501 -0.00000000000E+00 -0.00000000000E+00 -0.36371403745E+03  0.36371403745E+03  0.00000000000E+00 0.  1.
        -24    2    1    2    0    0 -0.12042147008E+02 -0.47041772612E+03  0.47034240484E+03  0.67017345291E+03  0.80452649696E+02 0.  0.
    5000000    2    1    2    0    0  0.12042147008E+02  0.47041772612E+03  0.28788803699E+03  0.81548506381E+03  0.60058181550E+03 0.  0.
        -24    2    4    4    0    0  0.28066214569E+02  0.33781783622E+03  0.46469222830E+03  0.58080737728E+03  0.80558919993E+02 0.  0.
         24    2    4    4    0    0 -0.16024067561E+02  0.13259988990E+03 -0.17680419132E+03  0.23467768653E+03  0.77294197355E+02 0.  0.
         13    1    3    3    0    0  0.22254378646E+02 -0.27316101754E+03  0.23354049759E+03  0.36007410750E+03  0.00000000000E+00 0. -1.
        -14    1    3    3    0    0 -0.34296525654E+02 -0.19725670858E+03  0.23680190724E+03  0.31009934542E+03  0.00000000000E+00 0.  1.
         13    1    5    5    0    0  0.15666755376E-01  0.32776936587E+02  0.96124345050E+02  0.10155893623E+03  0.00000000000E+00 0. -1.
        -14    1    5    5    0    0  0.28050547814E+02  0.30504089963E+03  0.36856788325E+03  0.47924844105E+03  0.00000000000E+00 0.  1.
          4    1    6    6  502    0 -0.39393710081E+02  0.80077233017E+02 -0.14126276282E+03  0.16709098061E+03  0.00000000000E+00 0. -1.
         -3    1    6    6    0  502  0.23369642521E+02  0.52522656885E+02 -0.35541428503E+02  0.67586705925E+02  0.00000000000E+00 0.  1.
<mgrwt>
<rscale>  0 0.48005829E+03</rscale>
<asrwt>0</asrwt>
<pdfrwt beam="1">  1        1 0.17260684E+00 0.48005829E+03</pdfrwt>
<pdfrwt beam="2">  1       -2 0.55956006E-01 0.48005829E+03</pdfrwt>
<totfact> 0.33994156E+01</totfact>
</mgrwt>
</event>
<event>
12    3  0.2212098E-007  0.6000612E+03  0.7818608E-02  0.9905279E-01
          1   -1    0    0  501    0  0.00000000000E+00  0.00000000000E+00  0.17933070084E+04  0.17933070084E+04  0.00000000000E+00 0. -1.
         -2   -1    0    0    0  501 -0.00000000000E+00 -0.00000000000E+00 -0.29761238073E+03  0.29761238073E+03  0.00000000000E+00 0.  1.
        -24    2    1    2    0    0 -0.16367224720E+03 -0.50550322336E+03  0.20932011209E+03  0.57534712684E+03  0.69909181806E+02 0.  0.
    5000000    2    1    2    0    0  0.16367224720E+03  0.50550322336E+03  0.12863745156E+04  0.15155722623E+04  0.59989813684E+03 0.  0.
        -24    2    4    4    0    0  0.28906313518E+03  0.29835084783E+03  0.36349056523E+03  0.55683528923E+03  0.73276352246E+02 0.  0.
         24    2    4    4    0    0 -0.12539088798E+03  0.20715237553E+03  0.92288395035E+03  0.95873697306E+03  0.93951137476E+02 0.  0.
         11    1    5    5    0    0  0.11589737984E+03  0.16288823822E+03  0.20065871330E+03  0.28324671229E+03  0.00000000000E+00 0. -1.
        -12    1    5    5    0    0  0.17316575534E+03  0.13546260962E+03  0.16283185194E+03  0.27358857694E+03  0.00000000000E+00 0.  1.
         11    1    3    3    0    0 -0.13612116796E+03 -0.31114290044E+03  0.13282468561E+03  0.36466597588E+03  0.00000000000E+00 0. -1.
        -12    1    3    3    0    0 -0.27551079239E+02 -0.19436032292E+03  0.76495426487E+02  0.21068115095E+03  0.00000000000E+00 0.  1.
          4    1    6    6  502    0 -0.21953965667E+02  0.65186425683E+02  0.43049646446E+03  0.43595693895E+03  0.00000000000E+00 0. -1.
         -3    1    6    6    0  502 -0.10343692232E+03  0.14196594984E+03  0.49238748589E+03  0.52278003412E+03  0.00000000000E+00 0.  1.
<mgrwt>
<rscale>  0 0.60006123E+03</rscale>
<asrwt>0</asrwt>
<pdfrwt beam="1">  1        1 0.27589338E+00 0.60006123E+03</pdfrwt>
<pdfrwt beam="2">  1       -2 0.45786521E-01 0.60006123E+03</pdfrwt>
<totfact> 0.17309609E+01</totfact>
</mgrwt>
</event>
<event>
12    3  0.2212098E-007  0.5061975E+03  0.7818608E-02  0.1012174E+00
         -2   -1    0    0    0  501 -0.00000000000E+00  0.00000000000E+00  0.44414781635E+03  0.44414781635E+03  0.00000000000E+00 0.  1.
          1   -1    0    0  501    0  0.00000000000E+00 -0.00000000000E+00 -0.62154866454E+03  0.62154866454E+03  0.00000000000E+00 0. -1.
        -24    2    1    2    0    0  0.30756640212E+03 -0.16040573532E+03 -0.90803923848E+02  0.36720904111E+03  0.79183556687E+02 0.  0.
    5000000    2    1    2    0    0 -0.30756640212E+03  0.16040573532E+03 -0.86596924343E+02  0.69848743978E+03  0.60004881850E+03 0.  0.
        -24    2    4    4    0    0  0.14900094238E+03 -0.18163054443E+02  0.60779583702E+02  0.18044190212E+03  0.79586084628E+02 0.  0.
         24    2    4    4    0    0 -0.45656734450E+03  0.17856878976E+03 -0.14737650804E+03  0.51804553766E+03  0.79440488554E+02 0.  0.
         11    1    5    5    0    0  0.65636341786E+02  0.27214610215E+02  0.71234151710E+01  0.71410835424E+02  0.00000000000E+00 0. -1.
        -12    1    5    5    0    0  0.83364600597E+02 -0.45377664658E+02  0.53656168531E+02  0.10903106669E+03  0.00000000000E+00 0.  1.
         11    1    3    3    0    0  0.17514634349E+03 -0.12045697223E+03 -0.24989015027E+02  0.21403405025E+03  0.00000000000E+00 0. -1.
        -12    1    3    3    0    0  0.13242005863E+03 -0.39948763091E+02 -0.65814908821E+02  0.15317499086E+03  0.00000000000E+00 0.  1.
          2    1    6    6  502    0 -0.28569936610E+03  0.14870457282E+03 -0.11212676111E+03  0.34104191579E+03  0.00000000000E+00 0. -1.
         -1    1    6    6    0  502 -0.17086797840E+03  0.29864216946E+02 -0.35249746940E+02  0.17700362187E+03  0.00000000000E+00 0.  1.
<mgrwt>
<rscale>  0 0.50619754E+03</rscale>
<asrwt>0</asrwt>
<pdfrwt beam="1">  1        1 0.95622871E-01 0.50619754E+03</pdfrwt>
<pdfrwt beam="2">  1       -2 0.68330433E-01 0.50619754E+03</pdfrwt>
<totfact> 0.58001680E+01</totfact>
</mgrwt>
</event>
<event>
12    3  0.2212098E-007  0.1555144E+04  0.7818608E-02  0.8848589E-01
          1   -1    0    0  501    0  0.00000000000E+00  0.00000000000E+00  0.12724308543E+04  0.12724308543E+04  0.00000000000E+00 0. -1.
         -2   -1    0    0    0  501 -0.00000000000E+00 -0.00000000000E+00 -0.20417004065E+04  0.20417004065E+04  0.00000000000E+00 0.  1.
        -24    2    1    2    0    0 -0.13242592622E+04 -0.80027636200E+03 -0.52937427977E+03  0.16373600080E+04  0.81276188050E+02 0.  0.
    5000000    2    1    2    0    0  0.13242592622E+04  0.80027636200E+03 -0.23989527236E+03  0.16767712528E+04  0.59992269774E+03 0.  0.
        -24    2    4    4    0    0  0.84950429326E+03  0.41406779701E+03  0.13067751429E+03  0.95769067760E+03  0.83577128716E+02 0.  0.
         24    2    4    4    0    0  0.47475496895E+03  0.38620856499E+03 -0.37057278665E+03  0.71908057515E+03  0.72134230062E+02 0.  0.
         11    1    3    3    0    0 -0.32733886558E+03 -0.17079417632E+03 -0.15370227444E+03  0.39993221019E+03  0.00000000000E+00 0. -1.
        -12    1    3    3    0    0 -0.99692039663E+03 -0.62948218568E+03 -0.37567200534E+03  0.12374277979E+04  0.00000000000E+00 0.  1.
         11    1    5    5    0    0  0.58260436555E+03  0.32630296837E+03  0.94454836577E+02  0.67440580519E+03  0.00000000000E+00 0. -1.
        -12    1    5    5    0    0  0.26689992771E+03  0.87764828644E+02  0.36222677713E+02  0.28328487241E+03  0.00000000000E+00 0.  1.
          2    1    6    6  502    0  0.15639609965E+03  0.15207186186E+03 -0.16575123120E+03  0.27396908913E+03  0.00000000000E+00 0. -1.
         -1    1    6    6    0  502  0.31835886930E+03  0.23413670313E+03 -0.20482155545E+03  0.44511148602E+03  0.00000000000E+00 0.  1.
<mgrwt>
<rscale>  0 0.15551436E+04</rscale>
<asrwt>0</asrwt>
<pdfrwt beam="1">  1        1 0.19575859E+00 0.15551436E+04</pdfrwt>
<pdfrwt beam="2">  1       -2 0.31410775E+00 0.15551436E+04</pdfrwt>
<totfact> 0.20309068E-01</totfact>
</mgrwt>
</event>
<event>
12    3  0.2212098E-007  0.7820259E+03  0.7818608E-02  0.9586405E-01
          1   -1    0    0  501    0  0.00000000000E+00  0.00000000000E+00  0.42449356323E+04  0.42449356323E+04  0.00000000000E+00 0. -1.
         -2   -1    0    0    0  501 -0.00000000000E+00 -0.00000000000E+00 -0.27884709287E+03  0.27884709287E+03  0.00000000000E+00 0.  1.
        -24    2    1    2    0    0  0.67070232487E+03  0.51029730561E+02  0.33830774056E+04  0.34502389103E+04  0.80561554038E+02 0.  0.
    5000000    2    1    2    0    0 -0.67070232487E+03 -0.51029730561E+02  0.58301113385E+03  0.10735438149E+04  0.60012390243E+03 0.  0.
        -24    2    4    4    0    0 -0.55440021657E+03  0.21534448039E+03  0.37488518818E+03  0.70716689355E+03  0.76244774605E+02 0.  0.
         24    2    4    4    0    0 -0.11630210830E+03 -0.26637421095E+03  0.20812594567E+03  0.36637692132E+03  0.80213705562E+02 0.  0.
         11    1    3    3    0    0  0.12506187953E+03  0.34167003455E+02  0.55317980588E+03  0.56816877375E+03  0.00000000000E+00 0. -1.
        -12    1    3    3    0    0  0.54564044535E+03  0.16862727106E+02  0.28298975997E+04  0.28820701366E+04  0.00000000000E+00 0.  1.
         13    1    5    5    0    0 -0.30259471883E+03  0.90033503680E+02  0.16498731201E+03  0.35621680024E+03  0.00000000000E+00 0. -1.
        -14    1    5    5    0    0 -0.25180549774E+03  0.12531097671E+03  0.20989787618E+03  0.35095009332E+03  0.00000000000E+00 0.  1.
          2    1    6    6  502    0 -0.42904694371E+02 -0.12646692500E+03  0.14250271453E+03  0.19529905162E+03  0.00000000000E+00 0. -1.
         -1    1    6    6    0  502 -0.73397413932E+02 -0.13990728595E+03  0.65623231145E+02  0.17107786970E+03  0.00000000000E+00 0.  1.
<mgrwt>
<rscale>  0 0.78202589E+03</rscale>
<asrwt>0</asrwt>
<pdfrwt beam="1">  1        1 0.65306697E+00 0.78202589E+03</pdfrwt>
<pdfrwt beam="2">  1       -2 0.42899556E-01 0.78202589E+03</pdfrwt>
<totfact> 0.28850257E-01</totfact>
</mgrwt>
</event>
<event>
12    3  0.2212098E-007  0.5462153E+03  0.7818608E-02  0.1002374E+00
         -2   -1    0    0    0  501 -0.00000000000E+00  0.00000000000E+00  0.61846337504E+03  0.61846337504E+03  0.00000000000E+00 0.  1.
          1   -1    0    0  501    0  0.00000000000E+00 -0.00000000000E+00 -0.82439251433E+03  0.82439251433E+03  0.00000000000E+00 0. -1.
        -24    2    1    2    0    0  0.30839388609E+03  0.23172924907E+03 -0.52909481317E+03  0.65980955961E+03  0.81253306190E+02 0.  0.
    5000000    2    1    2    0    0 -0.30839388609E+03 -0.23172924907E+03  0.32316567388E+03  0.78304632976E+03  0.59993355292E+03 0.  0.
        -24    2    4    4    0    0  0.15458100561E+03 -0.16520551818E+03  0.10529822639E+03  0.26084674965E+03  0.75928649327E+02 0.  0.
         24    2    4    4    0    0 -0.46297489170E+03 -0.66523730888E+02  0.21786744750E+03  0.52219958011E+03  0.80343137026E+02 0.  0.
         11    1    3    3    0    0  0.14898767096E+03  0.87565490982E+02 -0.29596098154E+03  0.34272137941E+03  0.00000000000E+00 0. -1.
        -12    1    3    3    0    0  0.15940621513E+03  0.14416375809E+03 -0.23313383163E+03  0.31708818019E+03  0.00000000000E+00 0.  1.
         13    1    5    5    0    0  0.30857981143E+02 -0.11727005306E+02 -0.73150867972E+01  0.33811952746E+02  0.00000000000E+00 0. -1.
        -14    1    5    5    0    0  0.12372302447E+03 -0.15347851288E+03  0.11261331319E+03  0.22703479691E+03  0.00000000000E+00 0.  1.
          4    1    6    6  502    0 -0.33567570263E+03 -0.11539000026E+02  0.15726065069E+03  0.37086687384E+03  0.00000000000E+00 0. -1.
         -3    1    6    6    0  502 -0.12729918907E+03 -0.54984730862E+02  0.60606796808E+02  0.15133270627E+03  0.00000000000E+00 0.  1.
<mgrwt>
<rscale>  0 0.54621532E+03</rscale>
<asrwt>0</asrwt>
<pdfrwt beam="1">  1        1 0.12682962E+00 0.54621532E+03</pdfrwt>
<pdfrwt beam="2">  1       -2 0.95148212E-01 0.54621532E+03</pdfrwt>
<totfact> 0.17930913E+01</totfact>
</mgrwt>
</event>
<event>
12    3  0.2212098E-007  0.8211827E+03  0.7818608E-02  0.9529852E-01
          1   -1    0    0  501    0  0.00000000000E+00  0.00000000000E+00  0.23510951032E+04  0.23510951032E+04  0.00000000000E+00 0. -1.
         -2   -1    0    0    0  501 -0.00000000000E+00 -0.00000000000E+00 -0.31904477642E+03  0.31904477642E+03  0.00000000000E+00 0.  1.
        -24    2    1    2    0    0 -0.18684583952E+03  0.73322498968E+03  0.96573711342E+03  0.12315662856E+04  0.10759688776E+03 0.  0.
    5000000    2    1    2    0    0  0.18684583952E+03 -0.73322498968E+03  0.10663132133E+04  0.14385735940E+04  0.59994988398E+03 0.  0.
        -24    2    4    4    0    0 -0.13937254172E+03 -0.28691070399E+03  0.69212203758E+03  0.76628500672E+03  0.80108296536E+02 0.  0.
         24    2    4    4    0    0  0.32621838124E+03 -0.44631428570E+03  0.37419117576E+03  0.67228858732E+03  0.79611775204E+02 0.  0.
         11    1    5    5    0    0 -0.64009007177E+02 -0.70336305128E+02  0.26418047753E+03  0.28077691060E+03  0.00000000000E+00 0. -1.
        -12    1    5    5    0    0 -0.75363534540E+02 -0.21657439886E+03  0.42794156005E+03  0.48550809612E+03  0.00000000000E+00 0.  1.
         11    1    3    3    0    0 -0.11243104331E+03  0.55894199910E+03  0.66323161330E+03  0.87460452247E+03  0.00000000000E+00 0. -1.
        -12    1    3    3    0    0 -0.74414796211E+02  0.17428299059E+03  0.30250550013E+03  0.35696176309E+03  0.00000000000E+00 0.  1.
          4    1    6    6  502    0  0.17514189189E+03 -0.17392862586E+03  0.15610822991E+03  0.29205415360E+03  0.00000000000E+00 0. -1.
         -3    1    6    6    0  502  0.15107648935E+03 -0.27238565983E+03  0.21808294585E+03  0.38023443372E+03  0.00000000000E+00 0.  1.
<mgrwt>
<rscale>  0 0.82118274E+03</rscale>
<asrwt>0</asrwt>
<pdfrwt beam="1">  1        1 0.36170693E+00 0.82118274E+03</pdfrwt>
<pdfrwt beam="2">  1       -2 0.49083813E-01 0.82118274E+03</pdfrwt>
<totfact> 0.61531221E+00</totfact>
</mgrwt>
</event>
<event>
12    3  0.2212098E-007  0.4681777E+03  0.7818608E-02  0.1022436E+00
          1   -1    0    0  501    0  0.00000000000E+00  0.00000000000E+00  0.17808523889E+04  0.17808523889E+04  0.00000000000E+00 0. -1.
         -2   -1    0    0    0  501 -0.00000000000E+00 -0.00000000000E+00 -0.15867974700E+03  0.15867974700E+03  0.00000000000E+00 0.  1.
        -24    2    1    2    0    0 -0.23141988100E+03 -0.24310346665E+03  0.77673946735E+03  0.84991023908E+03  0.79804495748E+02 0.  0.
    5000000    2    1    2    0    0  0.23141988100E+03  0.24310346665E+03  0.84543317456E+03  0.10896218968E+04  0.59988679647E+03 0.  0.
        -24    2    4    4    0    0  0.34551701108E+03  0.30958618089E+03  0.38691068253E+03  0.60962103520E+03  0.81928761551E+02 0.  0.
         24    2    4    4    0    0 -0.11409713007E+03 -0.66482714238E+02  0.45852249204E+03  0.48000086163E+03  0.52152133944E+02 0.  0.
         13    1    3    3    0    0 -0.11866633179E+03 -0.13945633773E+03  0.51588624987E+03  0.54741975781E+03  0.00000000000E+00 0. -1.
        -14    1    3    3    0    0 -0.11275354922E+03 -0.10364712892E+03  0.26085321748E+03  0.30249048128E+03  0.00000000000E+00 0.  1.
         13    1    5    5    0    0  0.16891106491E+03  0.18912424627E+03  0.24792881245E+03  0.35463731391E+03  0.00000000000E+00 0. -1.
        -14    1    5    5    0    0  0.17660594617E+03  0.12046193461E+03  0.13898187008E+03  0.25498372129E+03  0.00000000000E+00 0.  1.
          4    1    6    6  502    0 -0.35312307924E+02 -0.13537496078E+02  0.22101824435E+03  0.22423043332E+03  0.00000000000E+00 0. -1.
         -3    1    6    6    0  502 -0.78784822150E+02 -0.52945218160E+02  0.23750424769E+03  0.25577042831E+03  0.00000000000E+00 0.  1.
<mgrwt>
<rscale>  0 0.46817770E+03</rscale>
<asrwt>0</asrwt>
<pdfrwt beam="1">  1        1 0.27397728E+00 0.46817770E+03</pdfrwt>
<pdfrwt beam="2">  1       -2 0.24412270E-01 0.46817770E+03</pdfrwt>
<totfact> 0.58932174E+01</totfact>
</mgrwt>
</event>
<event>
12    3  0.2212098E-007  0.3075389E+03  0.7818608E-02  0.1081532E+00
         -2   -1    0    0    0  501 -0.00000000000E+00  0.00000000000E+00  0.41562487744E+02  0.41562487744E+02  0.00000000000E+00 0.  1.
          1   -1    0    0  501    0  0.00000000000E+00 -0.00000000000E+00 -0.34243623132E+04  0.34243623132E+04  0.00000000000E+00 0. -1.
        -24    2    1    2    0    0  0.85681198401E+02  0.79080416674E+01 -0.10072949878E+04  0.10141825789E+04  0.80742220126E+02 0.  0.
    5000000    2    1    2    0    0 -0.85681198401E+02 -0.79080416674E+01 -0.23755048377E+04  0.24517422220E+04  0.60051051990E+03 0.  0.
        -24    2    4    4    0    0  0.17164560537E+02  0.23286737020E+03 -0.51426527413E+03  0.57053016136E+03  0.80709718104E+02 0.  0.
         24    2    4    4    0    0 -0.10284575894E+03 -0.24077541187E+03 -0.18612395636E+04  0.18812120607E+04  0.78715025086E+02 0.  0.
         11    1    5    5    0    0  0.30736386896E+01  0.11486307197E+03 -0.16090499656E+03  0.19772048572E+03  0.00000000000E+00 0. -1.
        -12    1    5    5    0    0  0.14090921847E+02  0.11800429824E+03 -0.35336027758E+03  0.37280967564E+03  0.00000000000E+00 0.  1.
         13    1    3    3    0    0  0.56079838947E+02  0.37105757773E+02 -0.41334078325E+03  0.41877486636E+03  0.00000000000E+00 0. -1.
        -14    1    3    3    0    0  0.29601359454E+02 -0.29197716106E+02 -0.59395420451E+03  0.59540771255E+03  0.00000000000E+00 0.  1.
          2    1    6    6  502    0  0.85990309062E+01 -0.56529193749E+02 -0.33222618938E+03  0.33711086306E+03  0.00000000000E+00 0. -1.
         -1    1    6    6    0  502 -0.11144478984E+03 -0.18424621812E+03 -0.15290133742E+04  0.15441011976E+04  0.00000000000E+00 0.  1.
<mgrwt>
<rscale>  0 0.30753890E+03</rscale>
<asrwt>0</asrwt>
<pdfrwt beam="1">  1        1 0.52682499E+00 0.30753890E+03</pdfrwt>
<pdfrwt beam="2">  1       -2 0.63942286E-02 0.30753890E+03</pdfrwt>
<totfact> 0.41620098E+01</totfact>
</mgrwt>
</event>
<event>
12    3  0.2212098E-007  0.7224979E+03  0.7818608E-02  0.9679513E-01
         -2   -1    0    0    0  501 -0.00000000000E+00  0.00000000000E+00  0.12296412887E+04  0.12296412887E+04  0.00000000000E+00 0.  1.
          1   -1    0    0  501    0  0.00000000000E+00 -0.00000000000E+00 -0.97600205286E+03  0.97600205286E+03  0.00000000000E+00 0. -1.
        -24    2    1    2    0    0  0.61797215906E+02  0.62294169817E+03  0.91753933956E+03  0.11135464381E+04  0.78942858255E+02 0.  0.
    5000000    2    1    2    0    0 -0.61797215906E+02 -0.62294169817E+03 -0.66390010373E+03  0.10920969035E+04  0.60003086890E+03 0.  0.
        -24    2    4    4    0    0  0.14339389828E+03  0.18510193060E+01 -0.28564119913E+03  0.32927697689E+03  0.79165627243E+02 0.  0.
         24    2    4    4    0    0 -0.20519111418E+03 -0.62479271748E+03 -0.37825890460E+03  0.76281992658E+03  0.79656188273E+02 0.  0.
         11    1    3    3    0    0  0.29626602285E+02  0.49187262386E+03  0.67122515193E+03  0.83268218322E+03  0.00000000000E+00 0. -1.
        -12    1    3    3    0    0  0.32170613621E+02  0.13106907431E+03  0.24631418763E+03  0.28086425484E+03  0.00000000000E+00 0.  1.
         13    1    5    5    0    0  0.12954803330E+03 -0.22361911483E+02 -0.20114136521E+03  0.24029273151E+03  0.00000000000E+00 0. -1.
        -14    1    5    5    0    0  0.13845864975E+02  0.24212930789E+02 -0.84499833919E+02  0.88984245385E+02  0.00000000000E+00 0.  1.
          2    1    6    6  502    0 -0.63514164320E+02 -0.16551788261E+03 -0.63594210812E+02  0.18834660120E+03  0.00000000000E+00 0. -1.
         -1    1    6    6    0  502 -0.14167694986E+03 -0.45927483487E+03 -0.31466469379E+03  0.57447332539E+03  0.00000000000E+00 0.  1.
<mgrwt>
<rscale>  0 0.72249790E+03</rscale>
<asrwt>0</asrwt>
<pdfrwt beam="1">  1        1 0.15015416E+00 0.72249790E+03</pdfrwt>
<pdfrwt beam="2">  1       -2 0.18917558E+00 0.72249790E+03</pdfrwt>
<totfact> 0.22494244E+00</totfact>
</mgrwt>
</event>
<event>
12    3  0.2212098E-007  0.1145905E+04  0.7818608E-02  0.9161569E-01
          1   -1    0    0  501    0  0.00000000000E+00  0.00000000000E+00  0.13487147934E+04  0.13487147934E+04  0.00000000000E+00 0. -1.
         -2   -1    0    0    0  501 -0.00000000000E+00 -0.00000000000E+00 -0.14511890003E+04  0.14511890003E+04  0.00000000000E+00 0.  1.
        -24    2    1    2    0    0 -0.43610773451E+03  0.10328270250E+04  0.67351414372E+03  0.13102403997E+04  0.78657380890E+02 0.  0.
    5000000    2    1    2    0    0  0.43610773451E+03 -0.10328270250E+04 -0.77598835062E+03  0.14896633941E+04  0.60001457300E+03 0.  0.
        -24    2    4    4    0    0  0.44803151887E+03 -0.69825188550E+03 -0.78627479313E+03  0.11457470000E+04  0.78868245205E+02 0.  0.
         24    2    4    4    0    0 -0.11923784362E+02 -0.33457513947E+03  0.10286442513E+02  0.34391639413E+03  0.78038289761E+02 0.  0.
         11    1    5    5    0    0  0.26103614357E+03 -0.37994443827E+03 -0.38622399371E+03  0.60138724441E+03  0.00000000000E+00 0. -1.
        -12    1    5    5    0    0  0.18699537530E+03 -0.31830744723E+03 -0.40005079942E+03  0.54435975555E+03  0.00000000000E+00 0.  1.
         13    1    3    3    0    0 -0.29558576486E+03  0.65721596602E+03  0.39289514348E+03  0.82077424676E+03  0.00000000000E+00 0. -1.
        -14    1    3    3    0    0 -0.14052196965E+03  0.37561105895E+03  0.28061900025E+03  0.48946615293E+03  0.00000000000E+00 0.  1.
          4    1    6    6  502    0 -0.25275636811E+02 -0.60058797069E+02  0.22142034129E+02  0.68819957839E+02  0.00000000000E+00 0. -1.
         -3    1    6    6    0  502  0.13351852449E+02 -0.27451634240E+03 -0.11855591616E+02  0.27509643629E+03  0.00000000000E+00 0.  1.
<mgrwt>
<rscale>  0 0.11459052E+04</rscale>
<asrwt>0</asrwt>
<pdfrwt beam="1">  1        1 0.20749458E+00 0.11459052E+04</pdfrwt>
<pdfrwt beam="2">  1       -2 0.22325985E+00 0.11459052E+04</pdfrwt>
<totfact> 0.67699921E-01</totfact>
</mgrwt>
</event>
<event>
12    3  0.2212098E-007  0.6160530E+03  0.7818608E-02  0.9872650E-01
         -2   -1    0    0    0  501 -0.00000000000E+00  0.00000000000E+00  0.32837646597E+03  0.32837646597E+03  0.00000000000E+00 0.  1.
          1   -1    0    0  501    0  0.00000000000E+00 -0.00000000000E+00 -0.22584596668E+04  0.22584596668E+04  0.00000000000E+00 0. -1.
        -24    2    1    2    0    0  0.45410750727E+03 -0.34708301755E+03 -0.11080426180E+03  0.58771320333E+03  0.80305514785E+02 0.  0.
    5000000    2    1    2    0    0 -0.45410750727E+03  0.34708301755E+03 -0.18192789390E+04  0.19991229294E+04  0.60003031571E+03 0.  0.
        -24    2    4    4    0    0 -0.42577732192E+02  0.21927925530E+03 -0.16833050692E+03  0.29102441965E+03  0.80397749873E+02 0.  0.
         24    2    4    4    0    0 -0.41152977508E+03  0.12780376225E+03 -0.16509484321E+04  0.17080985098E+04  0.79241632059E+02 0.  0.
         11    1    3    3    0    0  0.32027557943E+03 -0.28597413953E+03 -0.70012551178E+02  0.43503955290E+03  0.00000000000E+00 0. -1.
        -12    1    3    3    0    0  0.13383192784E+03 -0.61108878021E+02 -0.40791710624E+02  0.15267365044E+03  0.00000000000E+00 0.  1.
         13    1    5    5    0    0 -0.18296869760E+02  0.53347092499E+02 -0.89342758818E+02  0.10565422980E+03  0.00000000000E+00 0. -1.
        -14    1    5    5    0    0 -0.24280862433E+02  0.16593216281E+03 -0.78987748103E+02  0.18537018985E+03  0.00000000000E+00 0.  1.
          2    1    6    6  502    0 -0.20630826657E+03  0.75963734385E+02 -0.98860519658E+03  0.10127555601E+04  0.00000000000E+00 0. -1.
         -1    1    6    6    0  502 -0.20522150851E+03  0.51840027865E+02 -0.66234323549E+03  0.69534294966E+03  0.00000000000E+00 0.  1.
<mgrwt>
<rscale>  0 0.61605296E+03</rscale>
<asrwt>0</asrwt>
<pdfrwt beam="1">  1        1 0.34745533E+00 0.61605296E+03</pdfrwt>
<pdfrwt beam="2">  1       -2 0.50519456E-01 0.61605296E+03</pdfrwt>
<totfact> 0.69382233E+00</totfact>
</mgrwt>
</event>
<event>
12    3  0.2212098E-007  0.1798744E+04  0.7818608E-02  0.8706967E-01
          1   -1    0    0  501    0  0.00000000000E+00  0.00000000000E+00  0.35679756588E+04  0.35679756588E+04  0.00000000000E+00 0. -1.
         -2   -1    0    0    0  501 -0.00000000000E+00 -0.00000000000E+00 -0.10855094498E+04  0.10855094498E+04  0.00000000000E+00 0.  1.
        -24    2    1    2    0    0 -0.15032952614E+03 -0.17760078866E+04  0.20613102441E+04  0.27262676864E+04  0.82052396260E+02 0.  0.
    5000000    2    1    2    0    0  0.15032952614E+03  0.17760078866E+04  0.42115596489E+03  0.19272174222E+04  0.59999305515E+03 0.  0.
        -24    2    4    4    0    0 -0.64851661723E+02  0.11516448625E+04  0.49568964573E+03  0.12579085651E+04  0.78320533092E+02 0.  0.
         24    2    4    4    0    0  0.21518118787E+03  0.62436302406E+03 -0.74533680845E+02  0.66930885713E+03  0.79290271989E+02 0.  0.
         11    1    5    5    0    0 -0.34054686910E+02  0.65769881946E+03  0.32490666784E+03  0.73436489678E+03  0.00000000000E+00 0. -1.
        -12    1    5    5    0    0 -0.30796974814E+02  0.49394604306E+03  0.17078297789E+03  0.52354366833E+03  0.00000000000E+00 0.  1.
         11    1    3    3    0    0 -0.27899586367E+02 -0.71596481794E+03  0.86425363247E+03  0.11226390109E+04  0.00000000000E+00 0. -1.
        -12    1    3    3    0    0 -0.12242993978E+03 -0.10600430686E+04  0.11970566117E+04  0.16036286755E+04  0.00000000000E+00 0.  1.
          4    1    6    6  502    0  0.13667407855E+03  0.39936215210E+03 -0.91622788727E+01  0.42220123120E+03  0.00000000000E+00 0. -1.
         -3    1    6    6    0  502  0.78507109313E+02  0.22500087197E+03 -0.65371401972E+02  0.24710762593E+03  0.00000000000E+00 0.  1.
<mgrwt>
<rscale>  0 0.17987443E+04</rscale>
<asrwt>0</asrwt>
<pdfrwt beam="1">  1        1 0.54891933E+00 0.17987443E+04</pdfrwt>
<pdfrwt beam="2">  1       -2 0.16700146E+00 0.17987443E+04</pdfrwt>
<totfact> 0.39777975E-02</totfact>
</mgrwt>
</event>
<event>
12    3  0.2212098E-007  0.5965820E+03  0.7818608E-02  0.9912523E-01
          1   -1    0    0  501    0  0.00000000000E+00  0.00000000000E+00  0.26572171679E+04  0.26572171679E+04  0.00000000000E+00 0. -1.
         -2   -1    0    0    0  501 -0.00000000000E+00 -0.00000000000E+00 -0.20280756983E+03  0.20280756983E+03  0.00000000000E+00 0.  1.
        -24    2    1    2    0    0  0.14064593284E+03  0.57880766959E+03  0.12694869462E+04  0.14044233787E+04  0.77513375247E+02 0.  0.
    5000000    2    1    2    0    0 -0.14064593284E+03 -0.57880766959E+03  0.11849226519E+04  0.14556013590E+04  0.59994502134E+03 0.  0.
        -24    2    4    4    0    0 -0.13837141578E+03 -0.54430433071E+03  0.47574238801E+03  0.74083686405E+03  0.84229366932E+02 0.  0.
         24    2    4    4    0    0 -0.22745170600E+01 -0.34503338876E+02  0.70918026385E+03  0.71476449495E+03  0.82194785575E+02 0.  0.
         11    1    3    3    0    0  0.77422547972E+02  0.30178192490E+03  0.75350820296E+03  0.81537794491E+03  0.00000000000E+00 0. -1.
        -12    1    3    3    0    0  0.63223384867E+02  0.27702574469E+03  0.51597874322E+03  0.58904543379E+03  0.00000000000E+00 0.  1.
         11    1    5    5    0    0 -0.16312937981E+02 -0.28570227524E+02  0.77426870678E+01  0.33798210742E+02  0.00000000000E+00 0. -1.
        -12    1    5    5    0    0 -0.12205847780E+03 -0.51573410319E+03  0.46799970094E+03  0.70703865331E+03  0.00000000000E+00 0.  1.
          4    1    6    6  502    0 -0.16895265287E+01 -0.23331282832E+02  0.47094037932E+02  0.52583758588E+02  0.00000000000E+00 0. -1.
         -3    1    6    6    0  502 -0.58499053127E+00 -0.11172056045E+02  0.66208622592E+03  0.66218073636E+03  0.00000000000E+00 0.  1.
<mgrwt>
<rscale>  0 0.59658198E+03</rscale>
<asrwt>0</asrwt>
<pdfrwt beam="1">  1        1 0.40880262E+00 0.59658198E+03</pdfrwt>
<pdfrwt beam="2">  1       -2 0.31201166E-01 0.59658198E+03</pdfrwt>
<totfact> 0.95359786E+00</totfact>
</mgrwt>
</event>
<event>
12    3  0.2212098E-007  0.1367919E+04  0.7818608E-02  0.8977373E-01
         -2   -1    0    0    0  501 -0.00000000000E+00  0.00000000000E+00  0.17402077122E+04  0.17402077122E+04  0.00000000000E+00 0.  1.
          1   -1    0    0  501    0  0.00000000000E+00 -0.00000000000E+00 -0.12264971175E+04  0.12264971175E+04  0.00000000000E+00 0. -1.
        -24    2    1    2    0    0  0.93464515532E+03  0.99140074536E+03 -0.72119155819E+02  0.13668150377E+04  0.80902227170E+02 0.  0.
    5000000    2    1    2    0    0 -0.93464515532E+03 -0.99140074536E+03  0.58582975046E+03  0.15998897920E+04  0.60001153814E+03 0.  0.
        -24    2    4    4    0    0 -0.66262706888E+03 -0.79966461967E+03  0.16093467960E+03  0.10540970776E+04  0.81746814273E+02 0.  0.
         24    2    4    4    0    0 -0.27201808644E+03 -0.19173612569E+03  0.42489507086E+03  0.54579271440E+03  0.81223670218E+02 0.  0.
         13    1    5    5    0    0 -0.38869150559E+03 -0.50708445545E+03  0.13074305004E+03  0.65215755506E+03  0.00000000000E+00 0. -1.
        -14    1    5    5    0    0 -0.27393556328E+03 -0.29258016422E+03  0.30191629559E+02  0.40193952259E+03  0.00000000000E+00 0.  1.
         13    1    3    3    0    0  0.21497900483E+03  0.23598177683E+03  0.16937712520E+02  0.31967210955E+03  0.00000000000E+00 0. -1.
        -14    1    3    3    0    0  0.71966615048E+03  0.75541896853E+03 -0.89056868339E+02  0.10471429281E+04  0.00000000000E+00 0.  1.
          2    1    6    6  502    0 -0.21315319006E+03 -0.16110342978E+03  0.28329993028E+03  0.38941937293E+03  0.00000000000E+00 0. -1.
         -1    1    6    6    0  502 -0.58864896378E+02 -0.30632695909E+02  0.14159514058E+03  0.15637334146E+03  0.00000000000E+00 0.  1.
<mgrwt>
<rscale>  0 0.13679193E+04</rscale>
<asrwt>0</asrwt>
<pdfrwt beam="1">  1        1 0.18869186E+00 0.13679193E+04</pdfrwt>
<pdfrwt beam="2">  1       -2 0.26772427E+00 0.13679193E+04</pdfrwt>
<totfact> 0.42970888E-01</totfact>
</mgrwt>
</event>
<event>
12    3  0.2212098E-007  0.6487703E+03  0.7818608E-02  0.9809089E-01
         -2   -1    0    0    0  501 -0.00000000000E+00  0.00000000000E+00  0.12043962483E+03  0.12043962483E+03  0.00000000000E+00 0.  1.
          1   -1    0    0  501    0  0.00000000000E+00 -0.00000000000E+00 -0.38464056070E+04  0.38464056070E+04  0.00000000000E+00 0. -1.
        -24    2    1    2    0    0 -0.49446970072E+03  0.22705944233E+03 -0.15991957903E+04  0.16910757889E+04  0.79081430834E+02 0.  0.
    5000000    2    1    2    0    0  0.49446970072E+03 -0.22705944233E+03 -0.21267701919E+04  0.22757694430E+04  0.59993235718E+03 0.  0.
        -24    2    4    4    0    0  0.24455724297E+03 -0.38296079825E+03 -0.16176248595E+04  0.16821232862E+04  0.79758045341E+02 0.  0.
         24    2    4    4    0    0  0.24991245776E+03  0.15590135592E+03 -0.50914533239E+03  0.59364615678E+03  0.80158097834E+02 0.  0.
         11    1    3    3    0    0 -0.18013706726E+03  0.90027238030E+02 -0.48013663324E+03  0.52065867242E+03  0.00000000000E+00 0. -1.
        -12    1    3    3    0    0 -0.31433263346E+03  0.13703220430E+03 -0.11190591571E+04  0.11704171164E+04  0.00000000000E+00 0.  1.
         11    1    5    5    0    0  0.12724639283E+03 -0.14464342200E+03 -0.77720153648E+03  0.80072191948E+03  0.00000000000E+00 0. -1.
        -12    1    5    5    0    0  0.11731085014E+03 -0.23831737625E+03 -0.84042332304E+03  0.88140136674E+03  0.00000000000E+00 0.  1.
          4    1    6    6  502    0  0.20309000738E+03  0.13381682141E+03 -0.46834872265E+03  0.52773385224E+03  0.00000000000E+00 0. -1.
         -3    1    6    6    0  502  0.46822450381E+02  0.22084534508E+02 -0.40796609736E+02  0.65912304543E+02  0.00000000000E+00 0.  1.
<mgrwt>
<rscale>  0 0.64877032E+03</rscale>
<asrwt>0</asrwt>
<pdfrwt beam="1">  1        1 0.59175471E+00 0.64877032E+03</pdfrwt>
<pdfrwt beam="2">  1       -2 0.18529173E-01 0.64877032E+03</pdfrwt>
<totfact> 0.31139424E+00</totfact>
</mgrwt>
</event>
<event>
12    3  0.2212098E-007  0.6969756E+03  0.7818608E-02  0.9722418E-01
          1   -1    0    0  501    0  0.00000000000E+00  0.00000000000E+00  0.11609790818E+04  0.11609790818E+04  0.00000000000E+00 0. -1.
         -2   -1    0    0    0  501 -0.00000000000E+00 -0.00000000000E+00 -0.49918866540E+03  0.49918866540E+03  0.00000000000E+00 0.  1.
        -24    2    1    2    0    0 -0.37995186281E+03 -0.51487173893E+03  0.30254307236E+03  0.71228113852E+03  0.79723171484E+02 0.  0.
    5000000    2    1    2    0    0  0.37995186281E+03  0.51487173893E+03  0.35924734401E+03  0.94788660864E+03  0.59997836883E+03 0.  0.
        -24    2    4    4    0    0 -0.25399327265E+02 -0.24745210177E+02 -0.95819296899E+02  0.13007936302E+03  0.80509948282E+02 0.  0.
         24    2    4    4    0    0  0.40535119007E+03  0.53961694910E+03  0.45506664090E+03  0.81780724562E+03  0.78911369767E+02 0.  0.
         11    1    3    3    0    0 -0.29491354906E+03 -0.37457357324E+03  0.18935908682E+03  0.51296805646E+03  0.00000000000E+00 0. -1.
        -12    1    3    3    0    0 -0.85038313749E+02 -0.14029816569E+03  0.11318398553E+03  0.19931308206E+03  0.00000000000E+00 0.  1.
         13    1    5    5    0    0  0.22051704970E+02 -0.21160507640E+02 -0.68977210423E+02  0.75444683931E+02  0.00000000000E+00 0. -1.
        -14    1    5    5    0    0 -0.47451032235E+02 -0.35847025373E+01 -0.26842086476E+02  0.54634679085E+02  0.00000000000E+00 0.  1.
          4    1    6    6  502    0  0.26924244410E+03  0.34912670827E+03  0.34104350897E+03  0.55739718975E+03  0.00000000000E+00 0. -1.
         -3    1    6    6    0  502  0.13610874597E+03  0.19049024084E+03  0.11402313193E+03  0.26041005587E+03  0.00000000000E+00 0.  1.
<mgrwt>
<rscale>  0 0.69697564E+03</rscale>
<asrwt>0</asrwt>
<pdfrwt beam="1">  1        1 0.17861217E+00 0.69697564E+03</pdfrwt>
<pdfrwt beam="2">  1       -2 0.76798257E-01 0.69697564E+03</pdfrwt>
<totfact> 0.15660392E+01</totfact>
</mgrwt>
</event>
<event>
12    3  0.2212098E-007  0.1658082E+04  0.7818608E-02  0.8785640E-01
         -2   -1    0    0    0  501 -0.00000000000E+00  0.00000000000E+00  0.25931459183E+04  0.25931459183E+04  0.00000000000E+00 0.  1.
          1   -1    0    0  501    0  0.00000000000E+00 -0.00000000000E+00 -0.11293672541E+04  0.11293672541E+04  0.00000000000E+00 0. -1.
        -24    2    1    2    0    0 -0.16291313663E+04  0.17851154706E+03  0.97983396269E+03  0.19113243749E+04  0.84562938006E+02 0.  0.
    5000000    2    1    2    0    0  0.16291313663E+04 -0.17851154706E+03  0.48394470155E+03  0.18111887976E+04  0.60022246320E+03 0.  0.
        -24    2    4    4    0    0  0.59785758107E+03 -0.23826595493E+03  0.42134539289E+03  0.77339384761E+03  0.80010942302E+02 0.  0.
         24    2    4    4    0    0  0.10312737852E+04  0.59754407871E+02  0.62599308662E+02  0.10377949500E+04  0.77482097580E+02 0.  0.
         11    1    3    3    0    0 -0.53167025041E+03  0.69779666740E+02  0.36521947888E+03  0.64878943026E+03  0.00000000000E+00 0. -1.
        -12    1    3    3    0    0 -0.10974611159E+04  0.10873188032E+03  0.61461448380E+03  0.12625349446E+04  0.00000000000E+00 0.  1.
         11    1    5    5    0    0  0.53941068292E+03 -0.22202492663E+03  0.35214762590E+03  0.68137134026E+03  0.00000000000E+00 0. -1.
        -12    1    5    5    0    0  0.58446898149E+02 -0.16241028306E+02  0.69197766987E+02  0.92022507354E+02  0.00000000000E+00 0.  1.
          4    1    6    6  502    0  0.60461779827E+03  0.42722244285E+02 -0.74789077697E+00  0.60612575550E+03  0.00000000000E+00 0. -1.
         -3    1    6    6    0  502  0.42665598694E+03  0.17032163586E+02  0.63347199439E+02  0.43166919448E+03  0.00000000000E+00 0.  1.
<mgrwt>
<rscale>  0 0.16580820E+04</rscale>
<asrwt>0</asrwt>
<pdfrwt beam="1">  1        1 0.17374881E+00 0.16580820E+04</pdfrwt>
<pdfrwt beam="2">  1       -2 0.39894552E+00 0.16580820E+04</pdfrwt>
<totfact> 0.74248510E-02</totfact>
</mgrwt>
</event>
<event>
12    3  0.2212098E-007  0.8892425E+03  0.7818608E-02  0.9439130E-01
          1   -1    0    0  501    0  0.00000000000E+00  0.00000000000E+00  0.91001469298E+03  0.91001469298E+03  0.00000000000E+00 0. -1.
         -2   -1    0    0    0  501 -0.00000000000E+00 -0.00000000000E+00 -0.89390595156E+03  0.89390595156E+03  0.00000000000E+00 0.  1.
        -24    2    1    2    0    0  0.78060764428E+03  0.16099901816E+03  0.74364802955E+02  0.80460002652E+03  0.81130146072E+02 0.  0.
    5000000    2    1    2    0    0 -0.78060764428E+03 -0.16099901816E+03 -0.58256061540E+02  0.99932061803E+03  0.59998245870E+03 0.  0.
        -24    2    4    4    0    0 -0.17250006997E+03  0.19955403668E+03 -0.71502454329E+02  0.28577497734E+03  0.83526337177E+02 0.  0.
         24    2    4    4    0    0 -0.60810757431E+03 -0.36055305484E+03  0.13246392789E+02  0.71354564069E+03  0.95804943145E+02 0.  0.
         11    1    3    3    0    0  0.18429385848E+03  0.39348613102E+01  0.10174961937E+02  0.18461646530E+03  0.00000000000E+00 0. -1.
        -12    1    3    3    0    0  0.59631378580E+03  0.15706415685E+03  0.64189841017E+02  0.61998356122E+03  0.00000000000E+00 0.  1.
         13    1    5    5    0    0 -0.16364290804E+03  0.17054597465E+03 -0.36004378505E+02  0.23908418202E+03  0.00000000000E+00 0. -1.
        -14    1    5    5    0    0 -0.88571619325E+01  0.29008062029E+02 -0.35498075824E+02  0.46690795317E+02  0.00000000000E+00 0.  1.
          2    1    6    6  502    0 -0.36534149148E+03 -0.25807803437E+03  0.37801193334E+02  0.44889598733E+03  0.00000000000E+00 0. -1.
         -1    1    6    6    0  502 -0.24276608283E+03 -0.10247502047E+03 -0.24554800545E+02  0.26464965336E+03  0.00000000000E+00 0.  1.
<mgrwt>
<rscale>  0 0.88924246E+03</rscale>
<asrwt>0</asrwt>
<pdfrwt beam="1">  1        1 0.14000226E+00 0.88924246E+03</pdfrwt>
<pdfrwt beam="2">  1       -2 0.13752399E+00 0.88924246E+03</pdfrwt>
<totfact> 0.59313013E+00</totfact>
</mgrwt>
</event>
<event>
12    3  0.2212098E-007  0.1830194E+04  0.7818608E-02  0.8690405E-01
          1   -1    0    0  501    0  0.00000000000E+00  0.00000000000E+00  0.14490352416E+04  0.14490352416E+04  0.00000000000E+00 0. -1.
         -2   -1    0    0    0  501 -0.00000000000E+00 -0.00000000000E+00 -0.28675711199E+04  0.28675711199E+04  0.00000000000E+00 0.  1.
        -24    2    1    2    0    0  0.36710766905E+03 -0.17820397009E+04 -0.15569320100E+04  0.23959528024E+04  0.78224108789E+02 0.  0.
    5000000    2    1    2    0    0 -0.36710766905E+03  0.17820397009E+04  0.13839613177E+03  0.19206535592E+04  0.59943562515E+03 0.  0.
        -24    2    4    4    0    0  0.66118667660E+01  0.37389080997E+03 -0.18820290844E+03  0.42552247366E+03  0.76229825404E+02 0.  0.
         24    2    4    4    0    0 -0.37371953582E+03  0.14081488909E+04  0.32659904021E+03  0.14951310855E+04  0.78742867921E+02 0.  0.
         13    1    3    3    0    0  0.26675918492E+03 -0.12217487890E+04 -0.10258947547E+04  0.16174951665E+04  0.00000000000E+00 0. -1.
        -14    1    3    3    0    0  0.10034848414E+03 -0.56029091193E+03 -0.53103725537E+03  0.77845763587E+03  0.00000000000E+00 0.  1.
         13    1    5    5    0    0  0.40370150248E+02  0.15588411788E+03 -0.80794802168E+02  0.18015939414E+03  0.00000000000E+00 0. -1.
        -14    1    5    5    0    0 -0.33758283482E+02  0.21800669209E+03 -0.10740810627E+03  0.24536307952E+03  0.00000000000E+00 0.  1.
          4    1    6    6  502    0 -0.58904304442E+02  0.35388484128E+03  0.82119420329E+02  0.36803233168E+03  0.00000000000E+00 0. -1.
         -3    1    6    6    0  502 -0.31481523138E+03  0.10542640497E+04  0.24447961988E+03  0.11270987538E+04  0.00000000000E+00 0.  1.
<mgrwt>
<rscale>  0 0.18301939E+04</rscale>
<asrwt>0</asrwt>
<pdfrwt beam="1">  1        1 0.22292850E+00 0.18301939E+04</pdfrwt>
<pdfrwt beam="2">  1       -2 0.44116478E+00 0.18301939E+04</pdfrwt>
<totfact> 0.22417919E-02</totfact>
</mgrwt>
</event>
<event>
12    3  0.2212098E-007  0.9277535E+03  0.7818608E-02  0.9391538E-01
          1   -1    0    0  501    0  0.00000000000E+00  0.00000000000E+00  0.18476696809E+04  0.18476696809E+04  0.00000000000E+00 0. -1.
         -4   -1    0    0    0  501 -0.00000000000E+00 -0.00000000000E+00 -0.58054396494E+03  0.58054396494E+03  0.00000000000E+00 0.  1.
        -24    2    1    2    0    0  0.50974040796E+03  0.67364623742E+03  0.79745245204E+02  0.85227103831E+03  0.79825321195E+02 0.  0.
    5000000    2    1    2    0    0 -0.50974040796E+03 -0.67364623742E+03  0.11873804707E+04  0.15759426075E+04  0.60007348149E+03 0.  0.
        -24    2    4    4    0    0  0.30387008350E+02 -0.39180276529E+03  0.62601192721E+03  0.74353296188E+03  0.80731376944E+02 0.  0.
         24    2    4    4    0    0 -0.54012741631E+03 -0.28184347214E+03  0.56136854353E+03  0.83240964564E+03  0.81226891202E+02 0.  0.
         11    1    5    5    0    0  0.19221413833E+02 -0.35879377818E+03  0.60247256587E+03  0.70148102657E+03  0.00000000000E+00 0. -1.
        -12    1    5    5    0    0  0.11165594517E+02 -0.33008987106E+02  0.23539361340E+02  0.42051935306E+02  0.00000000000E+00 0.  1.
         11    1    3    3    0    0  0.11642578042E+03  0.11258133577E+03 -0.38212978887E+01  0.16200037601E+03  0.00000000000E+00 0. -1.
        -12    1    3    3    0    0  0.39331462754E+03  0.56106490165E+03  0.83566543093E+02  0.69027066229E+03  0.00000000000E+00 0.  1.
          4    1    6    6  502    0 -0.17049170376E+03 -0.49194240831E+02  0.17641559145E+03  0.25021981394E+03  0.00000000000E+00 0. -1.
         -1    1    6    6    0  502 -0.36963571255E+03 -0.23264923131E+03  0.38495295208E+03  0.58218983170E+03  0.00000000000E+00 0.  1.
<mgrwt>
<rscale>  0 0.92775354E+03</rscale>
<asrwt>0</asrwt>
<pdfrwt beam="1">  1        1 0.28425687E+00 0.92775354E+03</pdfrwt>
<pdfrwt beam="2">  1       -4 0.89314457E-01 0.92775354E+03</pdfrwt>
<totfact> 0.19804809E+00</totfact>
</mgrwt>
</event>
<event>
12    3  0.2212098E-007  0.9148339E+03  0.7818608E-02  0.9407226E-01
          1   -1    0    0  501    0  0.00000000000E+00  0.00000000000E+00  0.19435786219E+04  0.19435786219E+04  0.00000000000E+00 0. -1.
         -2   -1    0    0    0  501 -0.00000000000E+00 -0.00000000000E+00 -0.62628946284E+03  0.62628946284E+03  0.00000000000E+00 0.  1.
        -24    2    1    2    0    0 -0.29936595391E+02  0.89375416619E+03  0.39694531167E+02  0.89894962356E+03  0.82716749033E+02 0.  0.
    5000000    2    1    2    0    0  0.29936595391E+02 -0.89375416619E+03  0.12775946279E+04  0.16709184612E+04  0.60002313405E+03 0.  0.
        -24    2    4    4    0    0 -0.92518253547E+02 -0.28650892674E+03  0.82294206173E+02  0.32222319830E+03  0.80052862602E+02 0.  0.
         24    2    4    4    0    0  0.12245484894E+03 -0.60724523945E+03  0.11953004217E+04  0.13486952629E+04  0.80584385071E+02 0.  0.
         13    1    3    3    0    0  0.24984850593E+02  0.19082108328E+03  0.21411534891E+02  0.19363724437E+03  0.00000000000E+00 0. -1.
        -14    1    3    3    0    0 -0.54921445984E+02  0.70293308291E+03  0.18282996275E+02  0.70531237918E+03  0.00000000000E+00 0.  1.
         13    1    5    5    0    0  0.77344910073E+01 -0.50670661358E+02 -0.50000326987E+01  0.51500860192E+02  0.00000000000E+00 0. -1.
        -14    1    5    5    0    0 -0.10025274455E+03 -0.23583826538E+03  0.87294238872E+02  0.27072233810E+03  0.00000000000E+00 0.  1.
          2    1    6    6  502    0  0.77884555256E+02 -0.19504934158E+03  0.39271701247E+03  0.44535031321E+03  0.00000000000E+00 0. -1.
         -1    1    6    6    0  502  0.44570293682E+02 -0.41219589787E+03  0.80258340926E+03  0.90334494969E+03  0.00000000000E+00 0.  1.
<mgrwt>
<rscale>  0 0.91483394E+03</rscale>
<asrwt>0</asrwt>
<pdfrwt beam="1">  1        1 0.29901209E+00 0.91483394E+03</pdfrwt>
<pdfrwt beam="2">  1       -2 0.96352226E-01 0.91483394E+03</pdfrwt>
<totfact> 0.26193506E+00</totfact>
</mgrwt>
</event>
<event>
12    3  0.2212098E-007  0.1303046E+04  0.7818608E-02  0.9027153E-01
          1   -1    0    0  501    0  0.00000000000E+00  0.00000000000E+00  0.11647118252E+04  0.11647118252E+04  0.00000000000E+00 0. -1.
         -2   -1    0    0    0  501 -0.00000000000E+00 -0.00000000000E+00 -0.15303405510E+04  0.15303405510E+04  0.00000000000E+00 0.  1.
        -24    2    1    2    0    0  0.83309500475E+03 -0.91636032720E+03 -0.44028752860E+03  0.13170237938E+04  0.83276824364E+02 0.  0.
    5000000    2    1    2    0    0 -0.83309500475E+03  0.91636032720E+03  0.74658802785E+02  0.13780285824E+04  0.59968766954E+03 0.  0.
        -24    2    4    4    0    0 -0.86176839947E+02  0.49340934275E+03  0.93731776881E+02  0.51584938645E+03  0.80222915954E+02 0.  0.
         24    2    4    4    0    0 -0.74691816480E+03  0.42295098445E+03 -0.19072974096E+02  0.86217919599E+03  0.78834684684E+02 0.  0.
         13    1    3    3    0    0  0.56002830244E+03 -0.63023229276E+03 -0.25942244009E+03  0.88211362352E+03  0.00000000000E+00 0. -1.
        -14    1    3    3    0    0  0.27306670231E+03 -0.28612803444E+03 -0.18086508851E+03  0.43491017032E+03  0.00000000000E+00 0.  1.
         13    1    5    5    0    0  0.68908256123E+01  0.18467229467E+03  0.33476845082E+02  0.18780851699E+03  0.00000000000E+00 0. -1.
        -14    1    5    5    0    0 -0.93067665559E+02  0.30873704808E+03  0.60254931799E+02  0.32804086946E+03  0.00000000000E+00 0.  1.
          4    1    6    6  502    0 -0.15294770503E+03  0.61119414111E+02  0.18010173581E+02  0.16568931652E+03  0.00000000000E+00 0. -1.
         -3    1    6    6    0  502 -0.59397045977E+03  0.36183157034E+03 -0.37083147677E+02  0.69648987947E+03  0.00000000000E+00 0.  1.
<mgrwt>
<rscale>  0 0.13030461E+04</rscale>
<asrwt>0</asrwt>
<pdfrwt beam="1">  1        1 0.17918643E+00 0.13030461E+04</pdfrwt>
<pdfrwt beam="2">  1       -2 0.23543701E+00 0.13030461E+04</pdfrwt>
<totfact> 0.75850879E-01</totfact>
</mgrwt>
</event>
<event>
12    3  0.2212098E-007  0.1335962E+04  0.7818608E-02  0.9001523E-01
         -2   -1    0    0    0  501 -0.00000000000E+00  0.00000000000E+00  0.18235908639E+04  0.18235908639E+04  0.00000000000E+00 0.  1.
          1   -1    0    0  501    0  0.00000000000E+00 -0.00000000000E+00 -0.13135631449E+04  0.13135631449E+04  0.00000000000E+00 0. -1.
        -24    2    1    2    0    0  0.12162548322E+04  0.54845836304E+03  0.91428832890E+03  0.16194018994E+04  0.80355278242E+02 0.  0.
    5000000    2    1    2    0    0 -0.12162548322E+04 -0.54845836304E+03 -0.40426060984E+03  0.15177521094E+04  0.60005202446E+03 0.  0.
        -24    2    4    4    0    0 -0.63160369864E+03 -0.27530598394E+03 -0.50838314441E+03  0.85925700965E+03  0.71781405574E+02 0.  0.
         24    2    4    4    0    0 -0.58465113355E+03 -0.27315237911E+03  0.10412253457E+03  0.65849509973E+03  0.79656286583E+02 0.  0.
         11    1    3    3    0    0  0.28874339801E+03  0.11656712920E+03  0.17574919679E+03  0.35755898209E+03  0.00000000000E+00 0. -1.
        -12    1    3    3    0    0  0.92751143418E+03  0.43189123384E+03  0.73853913211E+03  0.12618429173E+04  0.00000000000E+00 0.  1.
         13    1    5    5    0    0 -0.36422997964E+03 -0.19313270434E+03 -0.28325038434E+03  0.50019446197E+03  0.00000000000E+00 0. -1.
        -14    1    5    5    0    0 -0.26737371900E+03 -0.82173279594E+02 -0.22513276007E+03  0.35906254768E+03  0.00000000000E+00 0.  1.
          2    1    6    6  502    0 -0.36629114919E+03 -0.17741733552E+03  0.26932181906E+02  0.40788657656E+03  0.00000000000E+00 0. -1.
         -1    1    6    6    0  502 -0.21835998436E+03 -0.95735043587E+02  0.77190352667E+02  0.25060852317E+03  0.00000000000E+00 0.  1.
<mgrwt>
<rscale>  0 0.13359625E+04</rscale>
<asrwt>0</asrwt>
<pdfrwt beam="1">  1        1 0.20208664E+00 0.13359625E+04</pdfrwt>
<pdfrwt beam="2">  1       -2 0.28055244E+00 0.13359625E+04</pdfrwt>
<totfact> 0.31166030E-01</totfact>
</mgrwt>
</event>
<event>
12    3  0.2212098E-007  0.6652361E+03  0.7818608E-02  0.9778602E-01
         -2   -1    0    0    0  501 -0.00000000000E+00  0.00000000000E+00  0.86792275134E+03  0.86792275134E+03  0.00000000000E+00 0.  1.
          1   -1    0    0  501    0  0.00000000000E+00 -0.00000000000E+00 -0.19694518531E+04  0.19694518531E+04  0.00000000000E+00 0. -1.
        -24    2    1    2    0    0  0.62443715878E+03  0.20165002263E+02 -0.16812305729E+04  0.17952370052E+04  0.77532399770E+02 0.  0.
    5000000    2    1    2    0    0 -0.62443715878E+03 -0.20165002263E+02  0.57970147113E+03  0.10421375993E+04  0.59972375938E+03 0.  0.
        -24    2    4    4    0    0 -0.32828396371E+03  0.14594877308E+03 -0.17646498431E+01  0.36391985676E+03  0.57992611291E+02 0.  0.
         24    2    4    4    0    0 -0.29615319507E+03 -0.16611377535E+03  0.58146612097E+03  0.67821774249E+03  0.81092262764E+02 0.  0.
         11    1    3    3    0    0  0.33625612678E+03  0.46924142656E+02 -0.86773767723E+03  0.93179328955E+03  0.00000000000E+00 0. -1.
        -12    1    3    3    0    0  0.28818103199E+03 -0.26759140393E+02 -0.81349289564E+03  0.86344371563E+03  0.00000000000E+00 0.  1.
         11    1    5    5    0    0 -0.29827308288E+03  0.13835144489E+03  0.14168063091E+02  0.32910285366E+03  0.00000000000E+00 0. -1.
        -12    1    5    5    0    0 -0.30010880833E+02  0.75973281925E+01 -0.15932712934E+02  0.34817003109E+02  0.00000000000E+00 0.  1.
          4    1    6    6  502    0 -0.23069095041E+03 -0.11006293851E+03  0.48928910632E+03  0.55202897985E+03  0.00000000000E+00 0. -1.
         -3    1    6    6    0  502 -0.65462244656E+02 -0.56050836833E+02  0.92177014654E+02  0.12618876264E+03  0.00000000000E+00 0.  1.
<mgrwt>
<rscale>  0 0.66523607E+03</rscale>
<asrwt>0</asrwt>
<pdfrwt beam="1">  1        1 0.30299259E+00 0.66523607E+03</pdfrwt>
<pdfrwt beam="2">  1       -2 0.13352658E+00 0.66523607E+03</pdfrwt>
<totfact> 0.11830925E+00</totfact>
</mgrwt>
</event>
<event>
12    3  0.2212098E-007  0.1173190E+04  0.7818608E-02  0.9136652E-01
         -2   -1    0    0    0  501 -0.00000000000E+00  0.00000000000E+00  0.13921531510E+04  0.13921531510E+04  0.00000000000E+00 0.  1.
          1   -1    0    0  501    0  0.00000000000E+00 -0.00000000000E+00 -0.15640641978E+04  0.15640641978E+04  0.00000000000E+00 0. -1.
        -24    2    1    2    0    0  0.47579912626E+03 -0.10113107636E+04 -0.94913463929E+03  0.14684291082E+04  0.79329774720E+02 0.  0.
    5000000    2    1    2    0    0 -0.47579912626E+03  0.10113107636E+04  0.77722359242E+03  0.14877882406E+04  0.60025250283E+03 0.  0.
        -24    2    4    4    0    0 -0.51615596352E+03  0.10380553759E+04  0.65232013175E+03  0.13323440966E+04  0.75121870171E+02 0.  0.
         24    2    4    4    0    0  0.40356837261E+02 -0.26744612268E+02  0.12490346067E+03  0.15544414402E+03  0.78854669007E+02 0.  0.
         11    1    3    3    0    0  0.21439128003E+03 -0.37821209165E+03 -0.39510065225E+03  0.58746279255E+03  0.00000000000E+00 0. -1.
        -12    1    3    3    0    0  0.26140784623E+03 -0.63309867195E+03 -0.55403398704E+03  0.88096631564E+03  0.00000000000E+00 0.  1.
         13    1    5    5    0    0 -0.26376943323E+03  0.61291707581E+03  0.38118632582E+03  0.76846904343E+03  0.00000000000E+00 0. -1.
        -14    1    5    5    0    0 -0.25238653030E+03  0.42513830006E+03  0.27113380594E+03  0.56387505316E+03  0.00000000000E+00 0.  1.
          2    1    6    6  502    0  0.49784811482E+02 -0.23382619130E+02  0.35459735266E+02  0.65442090101E+02  0.00000000000E+00 0. -1.
         -1    1    6    6    0  502 -0.94279742205E+01 -0.33619931379E+01  0.89443725404E+02  0.90002053921E+02  0.00000000000E+00 0.  1.
<mgrwt>
<rscale>  0 0.11731904E+04</rscale>
<asrwt>0</asrwt>
<pdfrwt beam="1">  1        1 0.24062526E+00 0.11731904E+04</pdfrwt>
<pdfrwt beam="2">  1       -2 0.21417741E+00 0.11731904E+04</pdfrwt>
<totfact> 0.54511122E-01</totfact>
</mgrwt>
</event>
<event>
12    3  0.2212098E-007  0.5627415E+03  0.7818608E-02  0.9985870E-01
         -2   -1    0    0    0  501 -0.00000000000E+00  0.00000000000E+00  0.26252221572E+03  0.26252221572E+03  0.00000000000E+00 0.  1.
          1   -1    0    0  501    0  0.00000000000E+00 -0.00000000000E+00 -0.17684984934E+04  0.17684984934E+04  0.00000000000E+00 0. -1.
        -24    2    1    2    0    0  0.52931681177E+03  0.99917752769E+02 -0.47731155411E+03  0.72413183023E+03  0.79879555070E+02 0.  0.
    5000000    2    1    2    0    0 -0.52931681177E+03 -0.99917752769E+02 -0.10286647236E+04  0.13068888789E+04  0.59970624784E+03 0.  0.
        -24    2    4    4    0    0 -0.27476383145E+03 -0.16345490505E+03 -0.11893154289E+03  0.35669258506E+03  0.10426993470E+03 0.  0.
         24    2    4    4    0    0 -0.25455298032E+03  0.63537152283E+02 -0.90973318068E+03  0.95019629383E+03  0.80152025977E+02 0.  0.
         11    1    5    5    0    0 -0.15779928074E+03 -0.77026326863E+02 -0.11744772127E+03  0.21125253907E+03  0.00000000000E+00 0. -1.
        -12    1    5    5    0    0 -0.11696455071E+03 -0.86428578188E+02 -0.14838216205E+01  0.14544004599E+03  0.00000000000E+00 0.  1.
         13    1    3    3    0    0  0.27056005629E+03  0.69139213773E+02 -0.19922800849E+03  0.34303756982E+03  0.00000000000E+00 0. -1.
        -14    1    3    3    0    0  0.25875675548E+03  0.30778538996E+02 -0.27808354562E+03  0.38109426041E+03  0.00000000000E+00 0.  1.
          4    1    6    6  502    0 -0.13788324094E+03  0.16663315428E+02 -0.35074731523E+03  0.37724412965E+03  0.00000000000E+00 0. -1.
         -3    1    6    6    0  502 -0.11666973939E+03  0.46873836855E+02 -0.55898586545E+03  0.57295216418E+03  0.00000000000E+00 0.  1.
<mgrwt>
<rscale>  0 0.56274154E+03</rscale>
<asrwt>0</asrwt>
<pdfrwt beam="1">  1        1 0.27207670E+00 0.56274154E+03</pdfrwt>
<pdfrwt beam="2">  1       -2 0.40388032E-01 0.56274154E+03</pdfrwt>
<totfact> 0.23164820E+01</totfact>
</mgrwt>
</event>
<event>
12    3  0.2212098E-007  0.3840471E+03  0.7818608E-02  0.1049448E+00
         -2   -1    0    0    0  501 -0.00000000000E+00  0.00000000000E+00  0.16712341067E+03  0.16712341067E+03  0.00000000000E+00 0.  1.
          1   -1    0    0  501    0  0.00000000000E+00 -0.00000000000E+00 -0.14231430733E+04  0.14231430733E+04  0.00000000000E+00 0. -1.
        -24    2    1    2    0    0  0.57336195511E+02  0.26497971399E+03 -0.20278150437E+03  0.34821519959E+03  0.81435855556E+02 0.  0.
    5000000    2    1    2    0    0 -0.57336195511E+02 -0.26497971399E+03 -0.10532381583E+04  0.12420512844E+04  0.59989923060E+03 0.  0.
        -24    2    4    4    0    0  0.68570181420E+01  0.98911560540E+02 -0.49919989711E+01  0.12772213330E+03  0.80358619797E+02 0.  0.
         24    2    4    4    0    0 -0.64193213653E+02 -0.36389127453E+03 -0.10482461593E+04  0.11143291511E+04  0.79823668872E+02 0.  0.
         11    1    5    5    0    0 -0.22501616877E+02  0.77124576131E+02 -0.27350145274E+02  0.84867858769E+02  0.00000000000E+00 0. -1.
        -12    1    5    5    0    0  0.29358635019E+02  0.21786984409E+02  0.22358146303E+02  0.42854274535E+02  0.00000000000E+00 0.  1.
         13    1    3    3    0    0 -0.15844884901E+02  0.98014930979E+02 -0.54743539080E+02  0.11337919625E+03  0.00000000000E+00 0. -1.
        -14    1    3    3    0    0  0.73181080412E+02  0.16696478301E+03 -0.14803796529E+03  0.23483600334E+03  0.00000000000E+00 0.  1.
          2    1    6    6  502    0 -0.33307404485E+02 -0.16431302787E+03 -0.59411807602E+03  0.61732037272E+03  0.00000000000E+00 0. -1.
         -1    1    6    6    0  502 -0.30885809167E+02 -0.19957824667E+03 -0.45412808329E+03  0.49700877837E+03  0.00000000000E+00 0.  1.
<mgrwt>
<rscale>  0 0.38404713E+03</rscale>
<asrwt>0</asrwt>
<pdfrwt beam="1">  1        1 0.21894509E+00 0.38404713E+03</pdfrwt>
<pdfrwt beam="2">  1       -2 0.25711293E-01 0.38404713E+03</pdfrwt>
<totfact> 0.94466396E+01</totfact>
</mgrwt>
</event>
<event>
12    3  0.2212098E-007  0.3448047E+03  0.7818608E-02  0.1064768E+00
          1   -1    0    0  501    0  0.00000000000E+00  0.00000000000E+00  0.29809345902E+03  0.29809345902E+03  0.00000000000E+00 0. -1.
         -2   -1    0    0    0  501 -0.00000000000E+00 -0.00000000000E+00 -0.81495513850E+03  0.81495513850E+03  0.00000000000E+00 0.  1.
        -24    2    1    2    0    0 -0.13537565817E+03  0.26662482021E+03 -0.10878314369E+03  0.32826080597E+03  0.80659908285E+02 0.  0.
    5000000    2    1    2    0    0  0.13537565817E+03 -0.26662482021E+03 -0.40807853579E+03  0.78478779155E+03  0.59995701748E+03 0.  0.
        -24    2    4    4    0    0 -0.50888079485E+02 -0.37030256110E+02  0.13048026148E+03  0.16524636231E+03  0.79501101368E+02 0.  0.
         24    2    4    4    0    0  0.18626373765E+03 -0.22959456410E+03 -0.53855879727E+03  0.61954142924E+03  0.79863387159E+02 0.  0.
         11    1    3    3    0    0 -0.91508150371E+02  0.15707873998E+03 -0.10555731971E+03  0.21021374808E+03  0.00000000000E+00 0. -1.
        -12    1    3    3    0    0 -0.43867507796E+02  0.10954608023E+03 -0.32258239784E+01  0.11804705788E+03  0.00000000000E+00 0.  1.
         11    1    5    5    0    0 -0.57418886746E+02 -0.30660089201E+01  0.44941555400E+02  0.72979944969E+02  0.00000000000E+00 0. -1.
        -12    1    5    5    0    0  0.65308072618E+01 -0.33964247190E+02  0.85538706079E+02  0.92266417338E+02  0.00000000000E+00 0.  1.
          2    1    6    6  502    0  0.64089354180E+02 -0.53955842580E+02 -0.22366105176E+03  0.23883664782E+03  0.00000000000E+00 0. -1.
         -1    1    6    6    0  502  0.12217438347E+03 -0.17563872152E+03 -0.31489774551E+03  0.38070478143E+03  0.00000000000E+00 0.  1.
<mgrwt>
<rscale>  0 0.34480474E+03</rscale>
<asrwt>0</asrwt>
<pdfrwt beam="1">  1        1 0.45860533E-01 0.34480474E+03</pdfrwt>
<pdfrwt beam="2">  1       -2 0.12537771E+00 0.34480474E+03</pdfrwt>
<totfact> 0.38693702E+01</totfact>
</mgrwt>
</event>
<event>
12    3  0.2212098E-007  0.5025525E+03  0.7818608E-02  0.1013115E+00
         -2   -1    0    0    0  501 -0.00000000000E+00  0.00000000000E+00  0.32280232617E+03  0.32280232617E+03  0.00000000000E+00 0.  1.
          1   -1    0    0  501    0  0.00000000000E+00 -0.00000000000E+00 -0.13899803030E+04  0.13899803030E+04  0.00000000000E+00 0. -1.
        -24    2    1    2    0    0 -0.19986658514E+03 -0.41130831429E+03 -0.81059997920E+02  0.47119271652E+03  0.79565517503E+02 0.  0.
    5000000    2    1    2    0    0  0.19986658514E+03  0.41130831429E+03 -0.98611797889E+03  0.12415899126E+04  0.59999638467E+03 0.  0.
        -24    2    4    4    0    0 -0.12890663114E+01  0.91570131285E+01  0.53011118188E+02  0.10662842011E+03  0.92053944743E+02 0.  0.
         24    2    4    4    0    0  0.20115565145E+03  0.40215130116E+03 -0.10391290971E+04  0.11349614925E+04  0.78479576877E+02 0.  0.
         11    1    3    3    0    0 -0.17929782101E+03 -0.30306718255E+03 -0.79539574048E+02  0.36100411300E+03  0.00000000000E+00 0. -1.
        -12    1    3    3    0    0 -0.20568764135E+02 -0.10824113173E+03 -0.15204238711E+01  0.11018860352E+03  0.00000000000E+00 0.  1.
         11    1    5    5    0    0 -0.45735726801E+02  0.67955544086E+00  0.16993223044E+02  0.48795369975E+02  0.00000000000E+00 0. -1.
        -12    1    5    5    0    0  0.44446660489E+02  0.84774576876E+01  0.36017895145E+02  0.57833050137E+02  0.00000000000E+00 0.  1.
          4    1    6    6  502    0  0.10798838086E+03  0.16703096605E+03 -0.53891122364E+03  0.57444420180E+03  0.00000000000E+00 0. -1.
         -3    1    6    6    0  502  0.93167270590E+02  0.23512033511E+03 -0.50021787344E+03  0.56051729073E+03  0.00000000000E+00 0.  1.
<mgrwt>
<rscale>  0 0.50255253E+03</rscale>
<asrwt>0</asrwt>
<pdfrwt beam="1">  1        1 0.21384312E+00 0.50255253E+03</pdfrwt>
<pdfrwt beam="2">  1       -2 0.49661896E-01 0.50255253E+03</pdfrwt>
<totfact> 0.27950579E+01</totfact>
</mgrwt>
</event>
<event>
12    3  0.2212098E-007  0.7142663E+03  0.7818608E-02  0.9693141E-01
          1   -1    0    0  501    0  0.00000000000E+00  0.00000000000E+00  0.27457408999E+04  0.27457408999E+04  0.00000000000E+00 0. -1.
         -2   -1    0    0    0  501 -0.00000000000E+00 -0.00000000000E+00 -0.37973943490E+03  0.37973943490E+03  0.00000000000E+00 0.  1.
        -24    2    1    2    0    0  0.49211366898E+03  0.47208426513E+03  0.20526857891E+04  0.21645967243E+04  0.83190223302E+02 0.  0.
    5000000    2    1    2    0    0 -0.49211366898E+03 -0.47208426513E+03  0.31331567581E+03  0.96088361048E+03  0.60007598152E+03 0.  0.
        -24    2    4    4    0    0 -0.20776811320E+03 -0.19109068359E+02  0.35389761549E+03  0.41825291019E+03  0.78480757356E+02 0.  0.
         24    2    4    4    0    0 -0.28434555578E+03 -0.45297519677E+03 -0.40581939682E+02  0.54263070028E+03  0.82232956193E+02 0.  0.
         13    1    3    3    0    0  0.22908838867E+03  0.21895266156E+03  0.10856597177E+04  0.11309636512E+04  0.00000000000E+00 0. -1.
        -14    1    3    3    0    0  0.26302528031E+03  0.25313160356E+03  0.96702607146E+03  0.10336330730E+04  0.00000000000E+00 0.  1.
         13    1    5    5    0    0 -0.96402423344E+02 -0.23564008438E+01  0.92482602178E+02  0.13361142001E+03  0.00000000000E+00 0. -1.
        -14    1    5    5    0    0 -0.11136568986E+03 -0.16752667516E+02  0.26141501332E+03  0.28464149018E+03  0.00000000000E+00 0.  1.
          2    1    6    6  502    0 -0.14847736196E+03 -0.18609710314E+03 -0.48905743323E+02  0.24304203452E+03  0.00000000000E+00 0. -1.
         -3    1    6    6    0  502 -0.13586819382E+03 -0.26687809362E+03  0.83238036404E+01  0.29958866576E+03  0.00000000000E+00 0.  1.
<mgrwt>
<rscale>  0 0.71426631E+03</rscale>
<asrwt>0</asrwt>
<pdfrwt beam="1">  1        1 0.42242166E+00 0.71426631E+03</pdfrwt>
<pdfrwt beam="2">  1       -2 0.58421453E-01 0.71426631E+03</pdfrwt>
<totfact> 0.23453374E+00</totfact>
</mgrwt>
</event>
<event>
12    3  0.2212098E-007  0.1117684E+04  0.7818608E-02  0.9188126E-01
          1   -1    0    0  501    0  0.00000000000E+00  0.00000000000E+00  0.86146201109E+03  0.86146201109E+03  0.00000000000E+00 0. -1.
         -2   -1    0    0    0  501 -0.00000000000E+00 -0.00000000000E+00 -0.15916180730E+04  0.15916180730E+04  0.00000000000E+00 0.  1.
        -24    2    1    2    0    0 -0.94939866689E+03 -0.51308758901E+03 -0.15700584926E+03  0.10917780548E+04  0.52074768181E+02 0.  0.
    5000000    2    1    2    0    0  0.94939866689E+03  0.51308758901E+03 -0.57315021267E+03  0.13613020293E+04  0.60002112141E+03 0.  0.
        -24    2    4    4    0    0  0.57885818526E+03  0.51740059468E+03 -0.15223497082E+03  0.79503096331E+03  0.78221303135E+02 0.  0.
         24    2    4    4    0    0  0.37054048163E+03 -0.43130056728E+01 -0.42091524185E+03  0.56627106603E+03  0.78577534095E+02 0.  0.
         11    1    3    3    0    0 -0.64244254991E+03 -0.32321143678E+03 -0.11722504118E+03  0.72865614187E+03  0.00000000000E+00 0. -1.
        -12    1    3    3    0    0 -0.30695611697E+03 -0.18987615223E+03 -0.39780808079E+02  0.36312191289E+03  0.00000000000E+00 0.  1.
         13    1    5    5    0    0  0.26264597795E+03  0.22744166050E+03 -0.10743531145E+03  0.36366875699E+03  0.00000000000E+00 0. -1.
        -14    1    5    5    0    0  0.31621220731E+03  0.28995893418E+03 -0.44799659374E+02  0.43136220632E+03  0.00000000000E+00 0.  1.
          2    1    6    6  502    0  0.36695288918E+03 -0.15269485216E+02 -0.40863385286E+03  0.54942625143E+03  0.00000000000E+00 0. -1.
         -1    1    6    6    0  502  0.35875924449E+01  0.10956479543E+02 -0.12281388986E+02  0.16844814602E+02  0.00000000000E+00 0.  1.
<mgrwt>
<rscale>  0 0.11176836E+04</rscale>
<asrwt>0</asrwt>
<pdfrwt beam="1">  1        1 0.13253262E+00 0.11176836E+04</pdfrwt>
<pdfrwt beam="2">  1       -2 0.24486432E+00 0.11176836E+04</pdfrwt>
<totfact> 0.11711175E+00</totfact>
</mgrwt>
</event>
<event>
12    3  0.2212098E-007  0.1894121E+04  0.7818608E-02  0.8657788E-01
          1   -1    0    0  501    0  0.00000000000E+00  0.00000000000E+00  0.26817876464E+04  0.26817876464E+04  0.00000000000E+00 0. -1.
         -2   -1    0    0    0  501 -0.00000000000E+00 -0.00000000000E+00 -0.15476760330E+04  0.15476760330E+04  0.00000000000E+00 0.  1.
        -24    2    1    2    0    0  0.15061769199E+04 -0.11088369083E+04  0.12674355289E+04  0.22607068043E+04  0.79462142162E+02 0.  0.
    5000000    2    1    2    0    0 -0.15061769199E+04  0.11088369083E+04 -0.13332391552E+03  0.19687568751E+04  0.60011679171E+03 0.  0.
        -24    2    4    4    0    0 -0.91771487339E+03  0.89856983080E+03 -0.29047498238E+03  0.13192093600E+04  0.79431042587E+02 0.  0.
         24    2    4    4    0    0 -0.58846204648E+03  0.21026707748E+03  0.15715106685E+03  0.64954751508E+03  0.81949328919E+02 0.  0.
         11    1    3    3    0    0  0.12061241592E+04 -0.84832758127E+03  0.99099337648E+03  0.17766437585E+04  0.00000000000E+00 0. -1.
        -12    1    3    3    0    0  0.30005276068E+03 -0.26050932701E+03  0.27644215241E+03  0.48406304577E+03  0.00000000000E+00 0.  1.
         13    1    5    5    0    0 -0.67751688969E+03  0.61752165854E+03 -0.22207816623E+03  0.94322894702E+03  0.00000000000E+00 0. -1.
        -14    1    5    5    0    0 -0.24019798370E+03  0.28104817226E+03 -0.68396816145E+02  0.37598041300E+03  0.00000000000E+00 0.  1.
          4    1    6    6  502    0 -0.40822576619E+03  0.10644118266E+03  0.94704650104E+02  0.43237364895E+03  0.00000000000E+00 0. -1.
         -3    1    6    6    0  502 -0.18023628029E+03  0.10382589482E+03  0.62446416746E+02  0.21717386613E+03  0.00000000000E+00 0.  1.
<mgrwt>
<rscale>  0 0.18941207E+04</rscale>
<asrwt>0</asrwt>
<pdfrwt beam="1">  1        1 0.41258272E+00 0.18941207E+04</pdfrwt>
<pdfrwt beam="2">  1       -2 0.23810400E+00 0.18941207E+04</pdfrwt>
<totfact> 0.60689646E-02</totfact>
</mgrwt>
</event>
<event>
12    3  0.2212098E-007  0.7457749E+03  0.7818608E-02  0.9642002E-01
          1   -1    0    0  501    0  0.00000000000E+00  0.00000000000E+00  0.45484239887E+03  0.45484239887E+03  0.00000000000E+00 0. -1.
         -2   -1    0    0    0  501 -0.00000000000E+00 -0.00000000000E+00 -0.20363333180E+04  0.20363333180E+04  0.00000000000E+00 0.  1.
        -24    2    1    2    0    0 -0.12347043050E+03  0.68770052455E+03 -0.51074099169E+02  0.70500647386E+03  0.79048123932E+02 0.  0.
    5000000    2    1    2    0    0  0.12347043050E+03 -0.68770052455E+03 -0.15304168200E+04  0.17861692430E+04  0.60003996795E+03 0.  0.
        -24    2    4    4    0    0  0.22453451733E+03 -0.62607550446E+03 -0.80713378713E+03  0.10489280290E+04  0.79992330878E+02 0.  0.
         24    2    4    4    0    0 -0.10106408683E+03 -0.61625020092E+02 -0.72328303283E+03  0.73724121397E+03  0.79841525797E+02 0.  0.
         11    1    3    3    0    0 -0.49567329526E+02  0.46355028957E+03 -0.51121422097E+02  0.46898741018E+03  0.00000000000E+00 0. -1.
        -12    1    3    3    0    0 -0.73903100976E+02  0.22415023499E+03  0.47322928097E-01  0.23601906368E+03  0.00000000000E+00 0.  1.
         13    1    5    5    0    0  0.16191489788E+03 -0.38038011189E+03 -0.54724651914E+03  0.68584562140E+03  0.00000000000E+00 0. -1.
        -14    1    5    5    0    0  0.62619619459E+02 -0.24569539257E+03 -0.25988726799E+03  0.36308240763E+03  0.00000000000E+00 0.  1.
          2    1    6    6  502    0 -0.26664019791E+02 -0.33561407020E+02 -0.46558445742E+03  0.46755344613E+03  0.00000000000E+00 0. -1.
         -1    1    6    6    0  502 -0.74400067042E+02 -0.28063613072E+02 -0.25769857541E+03  0.26968776784E+03  0.00000000000E+00 0.  1.
<mgrwt>
<rscale>  0 0.74577491E+03</rscale>
<asrwt>0</asrwt>
<pdfrwt beam="1">  1        1 0.69975753E-01 0.74577491E+03</pdfrwt>
<pdfrwt beam="2">  1       -2 0.31328205E+00 0.74577491E+03</pdfrwt>
<totfact> 0.12221958E+00</totfact>
</mgrwt>
</event>
<event>
12    3  0.2212098E-007  0.9784943E+03  0.7818608E-02  0.9332452E-01
         -2   -1    0    0    0  501 -0.00000000000E+00  0.00000000000E+00  0.11002730351E+04  0.11002730351E+04  0.00000000000E+00 0.  1.
          1   -1    0    0  501    0  0.00000000000E+00 -0.00000000000E+00 -0.16695913187E+04  0.16695913187E+04  0.00000000000E+00 0. -1.
        -24    2    1    2    0    0  0.76734663762E+03 -0.56311769808E+03 -0.11571710063E+04  0.15004429063E+04  0.79760723807E+02 0.  0.
    5000000    2    1    2    0    0 -0.76734663762E+03  0.56311769808E+03  0.58785272272E+03  0.12694214475E+04  0.59994798409E+03 0.  0.
        -24    2    4    4    0    0 -0.75745839592E+02  0.21483027791E+03 -0.69145550560E+02  0.25092291491E+03  0.79320372782E+02 0.  0.
         24    2    4    4    0    0 -0.69160079803E+03  0.34828742016E+03  0.65699827328E+03  0.10184985326E+04  0.77953440794E+02 0.  0.
         11    1    5    5    0    0 -0.64720345416E+02  0.16783584982E+03 -0.18295154137E+02  0.18081014425E+03  0.00000000000E+00 0. -1.
        -12    1    5    5    0    0 -0.11025494175E+02  0.46994428090E+02 -0.50850396423E+02  0.70112770661E+02  0.00000000000E+00 0.  1.
         13    1    3    3    0    0  0.43363530950E+03 -0.36028411683E+03 -0.71438921420E+03  0.91005284234E+03  0.00000000000E+00 0. -1.
        -14    1    3    3    0    0  0.33371132812E+03 -0.20283358125E+03 -0.44278179211E+03  0.59039006396E+03  0.00000000000E+00 0.  1.
          2    1    6    6  502    0 -0.18385865992E+03  0.10117173552E+03  0.22371842957E+03  0.30674038310E+03  0.00000000000E+00 0. -1.
         -1    1    6    6    0  502 -0.50774213811E+03  0.24711568465E+03  0.43327984371E+03  0.71175814950E+03  0.00000000000E+00 0.  1.
<mgrwt>
<rscale>  0 0.97849427E+03</rscale>
<asrwt>0</asrwt>
<pdfrwt beam="1">  1        1 0.25686020E+00 0.97849427E+03</pdfrwt>
<pdfrwt beam="2">  1       -2 0.16927278E+00 0.97849427E+03</pdfrwt>
<totfact> 0.94859665E-01</totfact>
</mgrwt>
</event>
<event>
12    3  0.2212098E-007  0.8254980E+03  0.7818608E-02  0.9523826E-01
          1   -1    0    0  501    0  0.00000000000E+00  0.00000000000E+00  0.17537565494E+04  0.17537565494E+04  0.00000000000E+00 0. -1.
         -2   -1    0    0    0  501 -0.00000000000E+00 -0.00000000000E+00 -0.51467662458E+03  0.51467662458E+03  0.00000000000E+00 0.  1.
        -24    2    1    2    0    0  0.28100174540E+03  0.69919362168E+03  0.10367072093E+04  0.12841849993E+04  0.80842891275E+02 0.  0.
    5000000    2    1    2    0    0 -0.28100174540E+03 -0.69919362168E+03  0.20237271553E+03  0.98424817471E+03  0.59996337547E+03 0.  0.
        -24    2    4    4    0    0  0.29658527310E+02 -0.54764375113E+03  0.28065209267E+03  0.62101768921E+03  0.78128527463E+02 0.  0.
         24    2    4    4    0    0 -0.31066027271E+03 -0.15154987055E+03 -0.78279377135E+02  0.36323048550E+03  0.79571077679E+02 0.  0.
         13    1    3    3    0    0  0.15214225977E+03  0.38682422348E+03  0.63917019111E+03  0.76244264065E+03  0.00000000000E+00 0. -1.
        -14    1    3    3    0    0  0.12885948563E+03  0.31236939819E+03  0.39753701822E+03  0.52174235866E+03  0.00000000000E+00 0.  1.
         13    1    5    5    0    0 -0.11701943782E+02 -0.63998594000E+02  0.11783852548E+02  0.66118187385E+02  0.00000000000E+00 0. -1.
        -14    1    5    5    0    0  0.41360471092E+02 -0.48364515713E+03  0.26886824012E+03  0.55489950183E+03  0.00000000000E+00 0.  1.
          2    1    6    6  502    0 -0.73005791589E+02 -0.50144676528E+02 -0.53942629370E+02  0.10370217670E+03  0.00000000000E+00 0. -1.
         -1    1    6    6    0  502 -0.23765448112E+03 -0.10140519402E+03 -0.24336747765E+02  0.25952830879E+03  0.00000000000E+00 0.  1.
<mgrwt>
<rscale>  0 0.82549797E+03</rscale>
<asrwt>0</asrwt>
<pdfrwt beam="1">  1        1 0.26980870E+00 0.82549797E+03</pdfrwt>
<pdfrwt beam="2">  1       -2 0.79181020E-01 0.82549797E+03</pdfrwt>
<totfact> 0.55840924E+00</totfact>
</mgrwt>
</event>
<event>
12    3  0.2212098E-007  0.8045332E+03  0.7818608E-02  0.9553479E-01
          1   -1    0    0  501    0  0.00000000000E+00  0.00000000000E+00  0.15066322317E+04  0.15066322317E+04  0.00000000000E+00 0. -1.
         -2   -1    0    0    0  501 -0.00000000000E+00 -0.00000000000E+00 -0.53433375144E+03  0.53433375144E+03  0.00000000000E+00 0.  1.
        -24    2    1    2    0    0 -0.32628325909E+03 -0.70309669637E+03  0.23271673746E+03  0.81315212349E+03  0.79079494473E+02 0.  0.
    5000000    2    1    2    0    0  0.32628325909E+03  0.70309669637E+03  0.73958174280E+03  0.12278138596E+04  0.59978328590E+03 0.  0.
        -24    2    4    4    0    0  0.26606011266E+03  0.23127746910E+03  0.64049059695E+03  0.73528153766E+03  0.78316560052E+02 0.  0.
         24    2    4    4    0    0  0.60223146437E+02  0.47181922726E+03  0.99091145855E+02  0.49253232199E+03  0.80801128904E+02 0.  0.
         11    1    3    3    0    0 -0.11203895124E+03 -0.16031076866E+03  0.55912882967E+02  0.20341710751E+03  0.00000000000E+00 0. -1.
        -12    1    3    3    0    0 -0.21424430785E+03 -0.54278592770E+03  0.17680385449E+03  0.60973501599E+03  0.00000000000E+00 0.  1.
         13    1    5    5    0    0  0.11751687725E+03  0.12086371004E+03  0.38018443383E+03  0.41588274378E+03  0.00000000000E+00 0. -1.
        -14    1    5    5    0    0  0.14854323541E+03  0.11041375906E+03  0.26030616312E+03  0.31939879388E+03  0.00000000000E+00 0.  1.
          4    1    6    6  502    0  0.31834247278E+02  0.33749121277E+03  0.10567692237E+03  0.35507935721E+03  0.00000000000E+00 0. -1.
         -3    1    6    6    0  502  0.28388899159E+02  0.13432801450E+03 -0.65857765113E+01  0.13745296478E+03  0.00000000000E+00 0.  1.
<mgrwt>
<rscale>  0 0.80453323E+03</rscale>
<asrwt>0</asrwt>
<pdfrwt beam="1">  1        1 0.23178957E+00 0.80453323E+03</pdfrwt>
<pdfrwt beam="2">  1       -2 0.82205193E-01 0.80453323E+03</pdfrwt>
<totfact> 0.75695242E+00</totfact>
</mgrwt>
</event>
<event>
12    3  0.2212098E-007  0.8973807E+03  0.7818608E-02  0.9428862E-01
          1   -1    0    0  501    0  0.00000000000E+00  0.00000000000E+00  0.22938790122E+04  0.22938790122E+04  0.00000000000E+00 0. -1.
         -2   -1    0    0    0  501 -0.00000000000E+00 -0.00000000000E+00 -0.38730665565E+03  0.38730665565E+03  0.00000000000E+00 0.  1.
        -24    2    1    2    0    0 -0.11936220026E+03 -0.83616672182E+03  0.89816472035E+03  0.12354745490E+04  0.79217262928E+02 0.  0.
    5000000    2    1    2    0    0  0.11936220026E+03  0.83616672182E+03  0.10084076362E+04  0.14457111189E+04  0.59981043417E+03 0.  0.
        -24    2    4    4    0    0  0.11105661399E+02  0.81318445514E+03  0.59494673139E+03  0.10095635112E+04  0.62165714899E+02 0.  0.
         24    2    4    4    0    0  0.10825653886E+03  0.22982266680E+02  0.41346090479E+03  0.43614760768E+03  0.83828116418E+02 0.  0.
         11    1    3    3    0    0 -0.79368797488E+01 -0.24701502381E+03  0.22824557444E+03  0.33641560353E+03  0.00000000000E+00 0. -1.
        -12    1    3    3    0    0 -0.11142532051E+03 -0.58915169801E+03  0.66991914591E+03  0.89905894544E+03  0.00000000000E+00 0.  1.
         13    1    5    5    0    0  0.26232644235E+01  0.25509232074E+03  0.22297067633E+03  0.33881395502E+03  0.00000000000E+00 0. -1.
        -14    1    5    5    0    0  0.84823969758E+01  0.55809213441E+03  0.37197605506E+03  0.67074955616E+03  0.00000000000E+00 0.  1.
          4    1    6    6  502    0  0.59548591881E+01  0.31544050438E+02  0.59588823676E+02  0.67685414774E+02  0.00000000000E+00 0. -1.
         -3    1    6    6    0  502  0.10230167967E+03 -0.85617837584E+01  0.35387208112E+03  0.36846219290E+03  0.00000000000E+00 0.  1.
<mgrwt>
<rscale>  0 0.89738070E+03</rscale>
<asrwt>0</asrwt>
<pdfrwt beam="1">  1        1 0.35290446E+00 0.89738070E+03</pdfrwt>
<pdfrwt beam="2">  1       -2 0.59585641E-01 0.89738070E+03</pdfrwt>
<totfact> 0.44522880E+00</totfact>
</mgrwt>
</event>
<event>
12    3  0.2212098E-007  0.1086834E+04  0.7818608E-02  0.9218120E-01
         -2   -1    0    0    0  501 -0.00000000000E+00  0.00000000000E+00  0.14080644297E+04  0.14080644297E+04  0.00000000000E+00 0.  1.
          1   -1    0    0  501    0  0.00000000000E+00 -0.00000000000E+00 -0.16688987744E+04  0.16688987744E+04  0.00000000000E+00 0. -1.
        -24    2    1    2    0    0  0.47185968661E+02  0.10287531487E+04  0.93159305057E+03  0.13910161473E+04  0.80627249509E+02 0.  0.
    5000000    2    1    2    0    0 -0.47185968661E+02 -0.10287531487E+04 -0.11924273953E+04  0.16859470569E+04  0.59997902352E+03 0.  0.
        -24    2    4    4    0    0 -0.25236088238E+03 -0.33637200933E+03 -0.65311969728E+03  0.78110494139E+03  0.82021014831E+02 0.  0.
         24    2    4    4    0    0  0.20517491372E+03 -0.69238113941E+03 -0.53930769806E+03  0.90484211546E+03  0.79987957168E+02 0.  0.
         11    1    3    3    0    0 -0.35581687538E+01  0.30521056721E+03  0.23321380205E+03  0.38412866122E+03  0.00000000000E+00 0. -1.
        -12    1    3    3    0    0  0.50744137415E+02  0.72354258153E+03  0.69837924853E+03  0.10068874860E+04  0.00000000000E+00 0.  1.
         11    1    5    5    0    0 -0.11171441355E+03 -0.13797848588E+03 -0.35032753067E+03  0.39274362058E+03  0.00000000000E+00 0. -1.
        -12    1    5    5    0    0 -0.14064646883E+03 -0.19839352346E+03 -0.30279216661E+03  0.38836132081E+03  0.00000000000E+00 0.  1.
          2    1    6    6  502    0  0.11814111152E+02 -0.26674029576E+02 -0.49843020341E+01  0.29595951461E+02  0.00000000000E+00 0. -1.
         -1    1    6    6    0  502  0.19336080257E+03 -0.66570710984E+03 -0.53432339603E+03  0.87524616400E+03  0.00000000000E+00 0.  1.
<mgrwt>
<rscale>  0 0.10868341E+04</rscale>
<asrwt>0</asrwt>
<pdfrwt beam="1">  1        1 0.25675366E+00 0.10868341E+04</pdfrwt>
<pdfrwt beam="2">  1       -2 0.21662530E+00 0.10868341E+04</pdfrwt>
<totfact> 0.45095857E-01</totfact>
</mgrwt>
</event>
<event>
12    3  0.2212098E-007  0.1356647E+04  0.7818608E-02  0.8985811E-01
         -2   -1    0    0    0  501 -0.00000000000E+00  0.00000000000E+00  0.14565267196E+04  0.14565267196E+04  0.00000000000E+00 0.  1.
          1   -1    0    0  501    0  0.00000000000E+00 -0.00000000000E+00 -0.12856339098E+04  0.12856339098E+04  0.00000000000E+00 0. -1.
        -24    2    1    2    0    0  0.11087539366E+04  0.68078914383E+03  0.75225944560E+02  0.13062327902E+04  0.88181683235E+02 0.  0.
    5000000    2    1    2    0    0 -0.11087539366E+04 -0.68078914383E+03  0.95666865255E+02  0.14359278392E+04  0.59993954702E+03 0.  0.
        -24    2    4    4    0    0 -0.88089534990E+03 -0.24774376270E+03 -0.47252046747E+02  0.91970637761E+03  0.79205275366E+02 0.  0.
         24    2    4    4    0    0 -0.22785858670E+03 -0.43304538113E+03  0.14291891200E+03  0.51622146162E+03  0.81307714165E+02 0.  0.
         11    1    3    3    0    0  0.61792658974E+03  0.32918718208E+03  0.30313695795E+02  0.70079696868E+03  0.00000000000E+00 0. -1.
        -12    1    3    3    0    0  0.49082734686E+03  0.35160196175E+03  0.44912248765E+02  0.60543582156E+03  0.00000000000E+00 0.  1.
         11    1    5    5    0    0 -0.18901349122E+03 -0.78156747312E+02 -0.33152511050E+02  0.20720440633E+03  0.00000000000E+00 0. -1.
        -12    1    5    5    0    0 -0.69188185868E+03 -0.16958701539E+03 -0.14099535697E+02  0.71250197127E+03  0.00000000000E+00 0.  1.
          4    1    6    6  502    0 -0.93938386278E+02 -0.23823610490E+03  0.43453946746E+02  0.25974816184E+03  0.00000000000E+00 0. -1.
         -3    1    6    6    0  502 -0.13392020042E+03 -0.19480927623E+03  0.99464965256E+02  0.25647329978E+03  0.00000000000E+00 0.  1.
<mgrwt>
<rscale>  0 0.13566472E+04</rscale>
<asrwt>0</asrwt>
<pdfrwt beam="1">  1        1 0.19778983E+00 0.13566472E+04</pdfrwt>
<pdfrwt beam="2">  1       -2 0.22408103E+00 0.13566472E+04</pdfrwt>
<totfact> 0.72481399E-01</totfact>
</mgrwt>
</event>
<event>
12    3  0.2251517E-007  0.7265139E+03  0.7818608E-02  0.9672934E-01
         -2   -1    0    0    0  501 -0.00000000000E+00  0.00000000000E+00  0.84358773427E+03  0.84358773427E+03  0.00000000000E+00 0.  1.
          1   -1    0    0  501    0  0.00000000000E+00 -0.00000000000E+00 -0.84553088792E+03  0.84553088792E+03  0.00000000000E+00 0. -1.
        -24    2    1    2    0    0  0.61818450184E+03  0.33972535173E+03  0.20840062670E+03  0.73949766222E+03  0.76554414023E+02 0.  0.
    5000000    2    1    2    0    0 -0.61818450184E+03 -0.33972535173E+03 -0.21034378035E+03  0.94962095997E+03  0.59997505678E+03 0.  0.
        -24    2    4    4    0    0 -0.36794539439E+03 -0.90030385496E+02 -0.38554345835E+03  0.54647315410E+03  0.80621748383E+02 0.  0.
         24    2    4    4    0    0 -0.25023910744E+03 -0.24969496623E+03  0.17519967800E+03  0.40314780587E+03  0.82861566180E+02 0.  0.
         11    1    5    5    0    0 -0.19122545629E+03 -0.71159524823E+01 -0.17418312515E+03  0.25876161423E+03  0.00000000000E+00 0. -1.
        -12    1    5    5    0    0 -0.17671993811E+03 -0.82914433014E+02 -0.21136033320E+03  0.28771153987E+03  0.00000000000E+00 0.  1.
         13    1    3    3    0    0  0.24227787609E+03  0.14928566225E+03  0.12046982968E+03  0.30902711541E+03  0.00000000000E+00 0. -1.
        -14    1    3    3    0    0  0.37590662575E+03  0.19043968948E+03  0.87930797026E+02  0.43047054682E+03  0.00000000000E+00 0.  1.
          2    1    6    6  502    0 -0.19441068980E+03 -0.14746069606E+03  0.14067216186E+03  0.28165374187E+03  0.00000000000E+00 0. -1.
         -1    1    6    6    0  502 -0.55828417644E+02 -0.10223427017E+03  0.34527516138E+02  0.12149406399E+03  0.00000000000E+00 0.  1.
<mgrwt>
<rscale>  0 0.72651387E+03</rscale>
<asrwt>0</asrwt>
<pdfrwt beam="1">  1        1 0.13008168E+00 0.72651387E+03</pdfrwt>
<pdfrwt beam="2">  1       -2 0.12978273E+00 0.72651387E+03</pdfrwt>
<totfact> 0.79186297E+00</totfact>
</mgrwt>
</event>
<event>
12    3  0.2212098E-007  0.1305677E+04  0.7818608E-02  0.9025075E-01
          1   -1    0    0  501    0  0.00000000000E+00  0.00000000000E+00  0.85665073632E+03  0.85665073632E+03  0.00000000000E+00 0. -1.
         -2   -1    0    0    0  501 -0.00000000000E+00 -0.00000000000E+00 -0.22922789866E+04  0.22922789866E+04  0.00000000000E+00 0.  1.
        -24    2    1    2    0    0 -0.91709859387E+03 -0.89205076341E+03 -0.25361443166E+03  0.13066841945E+04  0.79239565879E+02 0.  0.
    5000000    2    1    2    0    0  0.91709859387E+03  0.89205076341E+03 -0.11820138186E+04  0.18422455285E+04  0.59990626295E+03 0.  0.
        -24    2    4    4    0    0  0.62957933793E+03  0.37929750358E+03 -0.95322326534E+03  0.12062476647E+04  0.78499019038E+02 0.  0.
         24    2    4    4    0    0  0.28751925593E+03  0.51275325983E+03 -0.22879055331E+03  0.63599786379E+03  0.81024301697E+02 0.  0.
         13    1    5    5    0    0  0.29914639074E+03  0.22124914636E+03 -0.50886674535E+03  0.63038489225E+03  0.00000000000E+00 0. -1.
        -14    1    5    5    0    0  0.33043294720E+03  0.15804835722E+03 -0.44435651998E+03  0.57586277243E+03  0.00000000000E+00 0.  1.
         13    1    3    3    0    0 -0.23582344955E+03 -0.21143631650E+03 -0.95295283527E+02  0.33075550843E+03  0.00000000000E+00 0. -1.
        -14    1    3    3    0    0 -0.68127514431E+03 -0.68061444691E+03 -0.15831914813E+03  0.97592868605E+03  0.00000000000E+00 0.  1.
          4    1    6    6  502    0  0.20150199284E+03  0.42517051802E+03 -0.17544726836E+03  0.50215014337E+03  0.00000000000E+00 0. -1.
         -3    1    6    6    0  502  0.86017263091E+02  0.87582741810E+02 -0.53343284948E+02  0.13384772042E+03  0.00000000000E+00 0.  1.
<mgrwt>
<rscale>  0 0.13056770E+04</rscale>
<asrwt>0</asrwt>
<pdfrwt beam="1">  1        1 0.13179242E+00 0.13056770E+04</pdfrwt>
<pdfrwt beam="2">  1       -2 0.35265831E+00 0.13056770E+04</pdfrwt>
<totfact> 0.25266823E-01</totfact>
</mgrwt>
</event>
<event>
12    3  0.2212098E-007  0.1740623E+04  0.7818608E-02  0.8738529E-01
          1   -1    0    0  501    0  0.00000000000E+00  0.00000000000E+00  0.28070516447E+04  0.28070516447E+04  0.00000000000E+00 0. -1.
         -2   -1    0    0    0  501 -0.00000000000E+00 -0.00000000000E+00 -0.11552316600E+04  0.11552316600E+04  0.00000000000E+00 0.  1.
        -24    2    1    2    0    0 -0.50584772540E+03 -0.16344864265E+04  0.12070184742E+04  0.20954142051E+04  0.80245211034E+02 0.  0.
    5000000    2    1    2    0    0  0.50584772540E+03  0.16344864265E+04  0.44480151046E+03  0.18668690996E+04  0.59993670634E+03 0.  0.
        -24    2    4    4    0    0  0.58164667978E+03  0.12954876045E+04  0.49709246757E+03  0.15067729977E+04  0.81626906715E+02 0.  0.
         24    2    4    4    0    0 -0.75798954385E+02  0.33899882207E+03 -0.52290957109E+02  0.36009610192E+03  0.79178125552E+02 0.  0.
         13    1    5    5    0    0  0.40806225103E+03  0.92981842429E+03  0.39305419583E+03  0.10888382358E+04  0.00000000000E+00 0. -1.
        -14    1    5    5    0    0  0.17358442875E+03  0.36566918018E+03  0.10403827174E+03  0.41793476193E+03  0.00000000000E+00 0.  1.
         13    1    3    3    0    0 -0.41835121912E+03 -0.12765694877E+04  0.97660926897E+03  0.16608470922E+04  0.00000000000E+00 0. -1.
        -14    1    3    3    0    0 -0.87496506280E+02 -0.35791693888E+03  0.23040920527E+03  0.43456711291E+03  0.00000000000E+00 0.  1.
          4    1    6    6  502    0 -0.79593223441E+02  0.31374887981E+03 -0.28069813319E+02  0.32490207020E+03  0.00000000000E+00 0. -1.
         -3    1    6    6    0  502  0.37942690558E+01  0.25249942266E+02 -0.24221143790E+02  0.35194031718E+02  0.00000000000E+00 0.  1.
<mgrwt>
<rscale>  0 0.17406234E+04</rscale>
<asrwt>0</asrwt>
<pdfrwt beam="1">  1        1 0.43185410E+00 0.17406234E+04</pdfrwt>
<pdfrwt beam="2">  1       -2 0.17772795E+00 0.17406234E+04</pdfrwt>
<totfact> 0.12499516E-01</totfact>
</mgrwt>
</event>
<event>
12    3  0.2212098E-007  0.7011332E+03  0.7818608E-02  0.9715296E-01
          1   -1    0    0  501    0  0.00000000000E+00  0.00000000000E+00  0.16302544271E+04  0.16302544271E+04  0.00000000000E+00 0. -1.
         -2   -1    0    0    0  501 -0.00000000000E+00 -0.00000000000E+00 -0.48285005878E+03  0.48285005878E+03  0.00000000000E+00 0.  1.
        -24    2    1    2    0    0 -0.64072076419E+03 -0.20335508576E+03  0.98867607558E+03  0.11981935859E+04  0.79442420447E+02 0.  0.
    5000000    2    1    2    0    0  0.64072076419E+03  0.20335508576E+03  0.15872829278E+03  0.91491090007E+03  0.59999241292E+03 0.  0.
        -24    2    4    4    0    0  0.66566754660E+03  0.20523492463E+03  0.29319258243E+03  0.75984130604E+03  0.78500083422E+02 0.  0.
         24    2    4    4    0    0 -0.24946782405E+02 -0.18798388685E+01 -0.13446428965E+03  0.15506959402E+03  0.73075700828E+02 0.  0.
         11    1    5    5    0    0  0.38334682058E+03  0.15702495619E+03  0.16187134269E+03  0.44476280566E+03  0.00000000000E+00 0. -1.
        -12    1    5    5    0    0  0.28232072602E+03  0.48209968439E+02  0.13132123974E+03  0.31507850039E+03  0.00000000000E+00 0.  1.
         11    1    3    3    0    0 -0.13046753030E+03 -0.53005527664E+02  0.15652269266E+03  0.21054860661E+03  0.00000000000E+00 0. -1.
        -12    1    3    3    0    0 -0.51025323390E+03 -0.15034955810E+03  0.83215338292E+03  0.98764497924E+03  0.00000000000E+00 0.  1.
          4    1    6    6  502    0  0.78543756334E+00 -0.29743587769E+01 -0.12862329952E+03  0.12866008278E+03  0.00000000000E+00 0. -1.
         -3    1    6    6    0  502 -0.25732219969E+02  0.10945199083E+01 -0.58409901384E+01  0.26409511244E+02  0.00000000000E+00 0.  1.
<mgrwt>
<rscale>  0 0.70113320E+03</rscale>
<asrwt>0</asrwt>
<pdfrwt beam="1">  1        1 0.25080837E+00 0.70113320E+03</pdfrwt>
<pdfrwt beam="2">  1       -2 0.74284625E-01 0.70113320E+03</pdfrwt>
<totfact> 0.79388343E+00</totfact>
</mgrwt>
</event>
<event>
12    3  0.2212098E-007  0.9214513E+03  0.7818608E-02  0.9399156E-01
          1   -1    0    0  501    0  0.00000000000E+00  0.00000000000E+00  0.11996783323E+04  0.11996783323E+04  0.00000000000E+00 0. -1.
         -2   -1    0    0    0  501 -0.00000000000E+00 -0.00000000000E+00 -0.10446359052E+04  0.10446359052E+04  0.00000000000E+00 0.  1.
        -24    2    1    2    0    0  0.51073831865E+03 -0.75727261416E+03  0.56560100669E+03  0.10768483816E+04  0.73365494786E+02 0.  0.
    5000000    2    1    2    0    0 -0.51073831865E+03  0.75727261416E+03 -0.41055857958E+03  0.11674658560E+04  0.60008560664E+03 0.  0.
        -24    2    4    4    0    0 -0.42349789927E+03  0.51461383191E+03 -0.54629329700E+03  0.86543532659E+03  0.79775130688E+02 0.  0.
         24    2    4    4    0    0 -0.87240419387E+02  0.24265878224E+03  0.13573471742E+03  0.30203052938E+03  0.79399948311E+02 0.  0.
         13    1    3    3    0    0  0.27983370440E+03 -0.39146598795E+03  0.33795716865E+03  0.58802004191E+03  0.00000000000E+00 0. -1.
        -14    1    3    3    0    0  0.23090461425E+03 -0.36580662620E+03  0.22764383803E+03  0.48882833966E+03  0.00000000000E+00 0.  1.
         13    1    5    5    0    0 -0.28113147028E+03  0.39699172188E+03 -0.38926503600E+03  0.62302857004E+03  0.00000000000E+00 0. -1.
        -14    1    5    5    0    0 -0.14236642898E+03  0.11762211003E+03 -0.15702826100E+03  0.24240675655E+03  0.00000000000E+00 0.  1.
          2    1    6    6  502    0 -0.78093442105E+02  0.20901699259E+03  0.81481545154E+02  0.23754143026E+03  0.00000000000E+00 0. -1.
         -1    1    6    6    0  502 -0.91469772816E+01  0.33641789659E+02  0.54253172267E+02  0.64489099124E+02  0.00000000000E+00 0.  1.
<mgrwt>
<rscale>  0 0.92145131E+03</rscale>
<asrwt>0</asrwt>
<pdfrwt beam="1">  1        1 0.18456590E+00 0.92145131E+03</pdfrwt>
<pdfrwt beam="2">  1       -2 0.16071322E+00 0.92145131E+03</pdfrwt>
<totfact> 0.23468031E+00</totfact>
</mgrwt>
</event>
<event>
12    3  0.2212098E-007  0.4970188E+03  0.7818608E-02  0.1014560E+00
          1   -1    0    0  501    0  0.00000000000E+00  0.00000000000E+00  0.20166262460E+04  0.20166262460E+04  0.00000000000E+00 0. -1.
         -2   -1    0    0    0  501 -0.00000000000E+00 -0.00000000000E+00 -0.14738127117E+03  0.14738127117E+03  0.00000000000E+00 0.  1.
        -24    2    1    2    0    0  0.35795855104E+03  0.72326772000E+02  0.49093126792E+03  0.61704693356E+03  0.79799261775E+02 0.  0.
    5000000    2    1    2    0    0 -0.35795855104E+03 -0.72326772000E+02  0.13783137069E+04  0.15469605836E+04  0.59997740488E+03 0.  0.
        -24    2    4    4    0    0 -0.43683982238E+03  0.83931052294E+02  0.12133201853E+04  0.12938514039E+04  0.63499065147E+02 0.  0.
         24    2    4    4    0    0  0.78881271341E+02 -0.15625782429E+03  0.16499352162E+03  0.25310917975E+03  0.78756790654E+02 0.  0.
         11    1    3    3    0    0  0.30288195880E+03  0.82485665667E+02  0.44519798515E+03  0.54474086682E+03  0.00000000000E+00 0. -1.
        -12    1    3    3    0    0  0.55076592244E+02 -0.10158893667E+02  0.45733282771E+02  0.72306066735E+02  0.00000000000E+00 0.  1.
         13    1    5    5    0    0 -0.15019914450E+03 -0.71465269249E+00  0.38525360413E+03  0.41349804501E+03  0.00000000000E+00 0. -1.
        -14    1    5    5    0    0 -0.28664067788E+03  0.84645704986E+02  0.82806658120E+03  0.88035335888E+03  0.00000000000E+00 0.  1.
          2    1    6    6  502    0  0.58978228848E+02 -0.11619647218E+03  0.16251784170E+03  0.20830770628E+03  0.00000000000E+00 0. -1.
         -1    1    6    6    0  502  0.19903042493E+02 -0.40061352115E+02  0.24756799202E+01  0.44801473467E+02  0.00000000000E+00 0.  1.
<mgrwt>
<rscale>  0 0.49701878E+03</rscale>
<asrwt>0</asrwt>
<pdfrwt beam="1">  1        1 0.31025017E+00 0.49701878E+03</pdfrwt>
<pdfrwt beam="2">  1       -2 0.22674043E-01 0.49701878E+03</pdfrwt>
<totfact> 0.46693852E+01</totfact>
</mgrwt>
</event>
<event>
12    3  0.2212098E-007  0.9784303E+03  0.7818608E-02  0.9332524E-01
          1   -1    0    0  501    0  0.00000000000E+00  0.00000000000E+00  0.26704103461E+04  0.26704103461E+04  0.00000000000E+00 0. -1.
         -2   -1    0    0    0  501 -0.00000000000E+00 -0.00000000000E+00 -0.38276023146E+03  0.38276023146E+03  0.00000000000E+00 0.  1.
        -24    2    1    2    0    0  0.22531792704E+03 -0.88253551708E+03  0.84649726390E+03  0.12458320935E+04  0.76830203958E+02 0.  0.
    5000000    2    1    2    0    0 -0.22531792704E+03  0.88253551708E+03  0.14411528507E+04  0.18073384840E+04  0.59992812034E+03 0.  0.
        -24    2    4    4    0    0 -0.37330186597E+03  0.44415622938E+03  0.57011081478E+03  0.81780254436E+03  0.84531776249E+02 0.  0.
         24    2    4    4    0    0  0.14798393893E+03  0.43837928770E+03  0.87104203592E+03  0.98953593966E+03  0.79946866551E+02 0.  0.
         11    1    3    3    0    0  0.11930292112E+03 -0.60364651399E+03  0.58715814183E+03  0.85051571670E+03  0.00000000000E+00 0. -1.
        -12    1    3    3    0    0  0.10601500592E+03 -0.27888900309E+03  0.25933912207E+03  0.39531637679E+03  0.00000000000E+00 0.  1.
         13    1    5    5    0    0 -0.19090665354E+03  0.22987108510E+03  0.23455471143E+03  0.37987100282E+03  0.00000000000E+00 0. -1.
        -14    1    5    5    0    0 -0.18239521243E+03  0.21428514428E+03  0.33555610335E+03  0.43793154154E+03  0.00000000000E+00 0.  1.
          4    1    6    6  502    0  0.23850242795E+02  0.91173488810E+02  0.11757045669E+03  0.15067929994E+03  0.00000000000E+00 0. -1.
         -3    1    6    6    0  502  0.12413369613E+03  0.34720579889E+03  0.75347157922E+03  0.83885663972E+03  0.00000000000E+00 0.  1.
<mgrwt>
<rscale>  0 0.97843030E+03</rscale>
<asrwt>0</asrwt>
<pdfrwt beam="1">  1        1 0.41083235E+00 0.97843030E+03</pdfrwt>
<pdfrwt beam="2">  1       -2 0.58886191E-01 0.97843030E+03</pdfrwt>
<totfact> 0.24904674E+00</totfact>
</mgrwt>
</event>
<event>
12    3  0.2212098E-007  0.9016180E+03  0.7818608E-02  0.9423561E-01
          1   -1    0    0  501    0  0.00000000000E+00  0.00000000000E+00  0.14967578984E+04  0.14967578984E+04  0.00000000000E+00 0. -1.
         -2   -1    0    0    0  501 -0.00000000000E+00 -0.00000000000E+00 -0.67617695018E+03  0.67617695018E+03  0.00000000000E+00 0.  1.
        -24    2    1    2    0    0  0.80428410379E+03 -0.18895548498E+03  0.79808698680E+03  0.11515284377E+04  0.80608991576E+02 0.  0.
    5000000    2    1    2    0    0 -0.80428410379E+03  0.18895548498E+03  0.22493961397E+02  0.10214064108E+04  0.60015663191E+03 0.  0.
        -24    2    4    4    0    0 -0.69425613090E+03  0.34427036152E+03  0.12404774522E+03  0.78938120870E+03  0.84977599669E+02 0.  0.
         24    2    4    4    0    0 -0.11002797289E+03 -0.15531487653E+03 -0.10155378383E+03  0.23202520210E+03  0.85402913962E+02 0.  0.
         11    1    3    3    0    0  0.62154439370E+03 -0.12204852122E+03  0.57480937050E+03  0.85534734891E+03  0.00000000000E+00 0. -1.
        -12    1    3    3    0    0  0.18273971009E+03 -0.66906963762E+02  0.22327761630E+03  0.29618108883E+03  0.00000000000E+00 0.  1.
         13    1    5    5    0    0 -0.57898516293E+02  0.22730060845E+02  0.33578435788E+02  0.70685254508E+02  0.00000000000E+00 0. -1.
        -14    1    5    5    0    0 -0.63635761461E+03  0.32154030067E+03  0.90469309435E+02  0.71869595420E+03  0.00000000000E+00 0.  1.
          2    1    6    6  502    0 -0.36183249530E+01  0.58714926290E+01  0.75265937934E+01  0.10208639248E+02  0.00000000000E+00 0. -1.
         -1    1    6    6    0  502 -0.10640964793E+03 -0.16118636916E+03 -0.10908037762E+03  0.22181656286E+03  0.00000000000E+00 0.  1.
<mgrwt>
<rscale>  0 0.90161800E+03</rscale>
<asrwt>0</asrwt>
<pdfrwt beam="1">  1        1 0.23027045E+00 0.90161800E+03</pdfrwt>
<pdfrwt beam="2">  1       -2 0.10402722E+00 0.90161800E+03</pdfrwt>
<totfact> 0.43892109E+00</totfact>
</mgrwt>
</event>
<event>
12    3  0.2212098E-007  0.9985519E+03  0.7818608E-02  0.9310134E-01
          1   -1    0    0  501    0  0.00000000000E+00  0.00000000000E+00  0.10652671075E+04  0.10652671075E+04  0.00000000000E+00 0. -1.
         -2   -1    0    0    0  501 -0.00000000000E+00 -0.00000000000E+00 -0.10955301531E+04  0.10955301531E+04  0.00000000000E+00 0.  1.
        -24    2    1    2    0    0  0.71271509226E+03 -0.69351782487E+03  0.27671651939E+02  0.99808496108E+03  0.80486601852E+02 0.  0.
    5000000    2    1    2    0    0 -0.71271509226E+03  0.69351782487E+03 -0.57934697599E+02  0.11627122995E+04  0.59967798528E+03 0.  0.
        -24    2    4    4    0    0 -0.20675869010E+03  0.16715544089E+03  0.24368378802E+03  0.36891493508E+03  0.77629526783E+02 0.  0.
         24    2    4    4    0    0 -0.50595640216E+03  0.52636238397E+03 -0.30161848562E+03  0.79379736440E+03  0.78046811077E+02 0.  0.
         11    1    3    3    0    0  0.49002454009E+03 -0.52712150177E+03  0.20751379165E+02  0.72000815777E+03  0.00000000000E+00 0. -1.
        -12    1    3    3    0    0  0.22269055217E+03 -0.16639632310E+03  0.69202727733E+01  0.27807680332E+03  0.00000000000E+00 0.  1.
         13    1    5    5    0    0 -0.10863070763E+03  0.84331536129E+02  0.74147092459E+02  0.15623773535E+03  0.00000000000E+00 0. -1.
        -14    1    5    5    0    0 -0.98127982466E+02  0.82823904762E+02  0.16953669556E+03  0.21267719973E+03  0.00000000000E+00 0.  1.
          4    1    6    6  502    0 -0.24718185384E+03  0.30767556084E+03 -0.18061763688E+03  0.43403438845E+03  0.00000000000E+00 0. -1.
         -3    1    6    6    0  502 -0.25877454832E+03  0.21868682313E+03 -0.12100084873E+03  0.35976297595E+03  0.00000000000E+00 0.  1.
<mgrwt>
<rscale>  0 0.99855189E+03</rscale>
<asrwt>0</asrwt>
<pdfrwt beam="1">  1        1 0.16388725E+00 0.99855189E+03</pdfrwt>
<pdfrwt beam="2">  1       -2 0.16854310E+00 0.99855189E+03</pdfrwt>
<totfact> 0.25683651E+00</totfact>
</mgrwt>
</event>
<event>
12    3  0.2212098E-007  0.1014568E+04  0.7818608E-02  0.9292710E-01
         -4   -1    0    0    0  501 -0.00000000000E+00  0.00000000000E+00  0.11406972840E+04  0.11406972840E+04  0.00000000000E+00 0.  1.
          1   -1    0    0  501    0  0.00000000000E+00 -0.00000000000E+00 -0.12853683380E+04  0.12853683380E+04  0.00000000000E+00 0. -1.
        -24    2    1    2    0    0  0.54490709858E+03  0.83565743873E+03  0.47450419391E+03  0.11075692695E+04  0.79425158633E+02 0.  0.
    5000000    2    1    2    0    0 -0.54490709858E+03 -0.83565743873E+03 -0.61917524797E+03  0.13184963524E+04  0.59983959746E+03 0.  0.
        -24    2    4    4    0    0 -0.25523346841E+03 -0.20988502910E+03 -0.51725514136E+03  0.61895248055E+03  0.79708488167E+02 0.  0.
         24    2    4    4    0    0 -0.28967363017E+03 -0.62577240962E+03 -0.10192010661E+03  0.69954387187E+03  0.58923678432E+02 0.  0.
         11    1    3    3    0    0  0.32330852001E+03  0.42827123041E+03  0.27045515535E+03  0.60090817681E+03  0.00000000000E+00 0. -1.
        -12    1    3    3    0    0  0.22159857857E+03  0.40738620832E+03  0.20404903856E+03  0.50666109273E+03  0.00000000000E+00 0.  1.
         11    1    5    5    0    0 -0.23619868695E+03 -0.16026059564E+03 -0.41461678548E+03  0.50336900683E+03  0.00000000000E+00 0. -1.
        -12    1    5    5    0    0 -0.19034781458E+02 -0.49624433458E+02 -0.10263835588E+03  0.11558347373E+03  0.00000000000E+00 0.  1.
          2    1    6    6  502    0 -0.17884081338E+03 -0.35180032600E+03 -0.32674726355E+02  0.39599891875E+03  0.00000000000E+00 0. -1.
         -1    1    6    6    0  502 -0.11083281679E+03 -0.27397208362E+03 -0.69245380254E+02  0.30354495313E+03  0.00000000000E+00 0.  1.
<mgrwt>
<rscale>  0 0.10145677E+04</rscale>
<asrwt>0</asrwt>
<pdfrwt beam="1">  1        1 0.19774897E+00 0.10145677E+04</pdfrwt>
<pdfrwt beam="2">  1       -4 0.17549189E+00 0.10145677E+04</pdfrwt>
<totfact> 0.84816638E-01</totfact>
</mgrwt>
</event>
<event>
12    3  0.2212098E-007  0.6230774E+03  0.7818608E-02  0.9858652E-01
          1   -1    0    0  501    0  0.00000000000E+00  0.00000000000E+00  0.50780076874E+03  0.50780076874E+03  0.00000000000E+00 0. -1.
         -2   -1    0    0    0  501 -0.00000000000E+00 -0.00000000000E+00 -0.10707579821E+04  0.10707579821E+04  0.00000000000E+00 0.  1.
        -24    2    1    2    0    0  0.56970272269E+03  0.82383598179E+02 -0.45862712464E+03  0.74044779574E+03  0.81091610342E+02 0.  0.
    5000000    2    1    2    0    0 -0.56970272269E+03 -0.82383598179E+02 -0.10433008874E+03  0.83811095512E+03  0.60016410771E+03 0.  0.
        -24    2    4    4    0    0 -0.51479394768E+01  0.38975670476E+02 -0.22827038758E+03  0.24474888641E+03  0.79050891083E+02 0.  0.
         24    2    4    4    0    0 -0.56455478321E+03 -0.12135926865E+03  0.12394029884E+03  0.59336206871E+03  0.57159177474E+02 0.  0.
         11    1    3    3    0    0  0.27657885690E+03  0.80449282604E+02 -0.21916578418E+03  0.36194142083E+03  0.00000000000E+00 0. -1.
        -12    1    3    3    0    0  0.29312386580E+03  0.19343155744E+01 -0.23946134046E+03  0.37850637491E+03  0.00000000000E+00 0.  1.
         13    1    5    5    0    0 -0.39698740199E+02  0.27744636537E+02 -0.16306254299E+03  0.17010334435E+03  0.00000000000E+00 0. -1.
        -14    1    5    5    0    0  0.34550800722E+02  0.11231033938E+02 -0.65207844589E+02  0.74645542063E+02  0.00000000000E+00 0.  1.
          2    1    6    6  502    0 -0.38476485836E+03 -0.55501498898E+02  0.86839606000E+02  0.39832841949E+03  0.00000000000E+00 0. -1.
         -1    1    6    6    0  502 -0.17978992486E+03 -0.65857769757E+02  0.37100692839E+02  0.19503364922E+03  0.00000000000E+00 0.  1.
<mgrwt>
<rscale>  0 0.62307738E+03</rscale>
<asrwt>0</asrwt>
<pdfrwt beam="1">  1        1 0.78123195E-01 0.62307738E+03</pdfrwt>
<pdfrwt beam="2">  1       -2 0.16473200E+00 0.62307738E+03</pdfrwt>
<totfact> 0.91449482E+00</totfact>
</mgrwt>
</event>
<event>
12    3  0.2212098E-007  0.7375691E+03  0.7818608E-02  0.9655057E-01
         -2   -1    0    0    0  501 -0.00000000000E+00  0.00000000000E+00  0.12005525042E+04  0.12005525042E+04  0.00000000000E+00 0.  1.
          1   -1    0    0  501    0  0.00000000000E+00 -0.00000000000E+00 -0.51077991110E+03  0.51077991110E+03  0.00000000000E+00 0. -1.
        -24    2    1    2    0    0 -0.24481835560E+03  0.60877585104E+03  0.17463428635E+03  0.68372507113E+03  0.80241976998E+02 0.  0.
    5000000    2    1    2    0    0  0.24481835560E+03 -0.60877585104E+03  0.51513830673E+03  0.10276073442E+04  0.60005442641E+03 0.  0.
        -24    2    4    4    0    0 -0.49006385363E+02 -0.49782190225E+03  0.48615089767E+03  0.70209954104E+03  0.79829806803E+02 0.  0.
         24    2    4    4    0    0  0.29382474096E+03 -0.11095394879E+03  0.28987409065E+02  0.32550780312E+03  0.80444408483E+02 0.  0.
         11    1    5    5    0    0 -0.53507958074E+02 -0.40160166148E+03  0.42909807136E+03  0.59014587259E+03  0.00000000000E+00 0. -1.
        -12    1    5    5    0    0  0.45015727116E+01 -0.96220240764E+02  0.57052826304E+02  0.11195366845E+03  0.00000000000E+00 0.  1.
         11    1    3    3    0    0 -0.56222945953E+02  0.16521575561E+03  0.11585671112E+02  0.17490424045E+03  0.00000000000E+00 0. -1.
        -12    1    3    3    0    0 -0.18859540964E+03  0.44356009543E+03  0.16304861524E+03  0.50882083067E+03  0.00000000000E+00 0.  1.
          2    1    6    6  502    0  0.11969092429E+03 -0.22301677828E+02  0.44173967838E+02  0.12951687777E+03  0.00000000000E+00 0. -1.
         -1    1    6    6    0  502  0.17413381666E+03 -0.88652270962E+02 -0.15186558772E+02  0.19599092535E+03  0.00000000000E+00 0.  1.
<mgrwt>
<rscale>  0 0.73756907E+03</rscale>
<asrwt>0</asrwt>
<pdfrwt beam="1">  1        1 0.78581525E-01 0.73756907E+03</pdfrwt>
<pdfrwt beam="2">  1       -2 0.18470039E+00 0.73756907E+03</pdfrwt>
<totfact> 0.64946279E+00</totfact>
</mgrwt>
</event>
<event>
12    3  0.2212098E-007  0.8510356E+03  0.7818608E-02  0.9488948E-01
          1   -1    0    0  501    0  0.00000000000E+00  0.00000000000E+00  0.34415625265E+04  0.34415625265E+04  0.00000000000E+00 0. -1.
         -2   -1    0    0    0  501 -0.00000000000E+00 -0.00000000000E+00 -0.22517488741E+03  0.22517488741E+03  0.00000000000E+00 0.  1.
        -24    2    1    2    0    0  0.31026140889E+03  0.69512512099E+03  0.11106996560E+04  0.13486638351E+04  0.76021962320E+02 0.  0.
    5000000    2    1    2    0    0 -0.31026140889E+03 -0.69512512099E+03  0.21056879831E+04  0.23180735788E+04  0.60006846166E+03 0.  0.
        -24    2    4    4    0    0 -0.39101159576E+03 -0.21899310449E+03  0.12763604442E+04  0.13551260682E+04  0.80141308646E+02 0.  0.
         24    2    4    4    0    0  0.80750186877E+02 -0.47613201650E+03  0.82932753889E+03  0.96294751055E+03  0.79129333970E+02 0.  0.
         11    1    5    5    0    0 -0.22130001580E+03 -0.92186392598E+02  0.76279383300E+03  0.79957892646E+03  0.00000000000E+00 0. -1.
        -12    1    5    5    0    0 -0.16971157996E+03 -0.12680671189E+03  0.51356661121E+03  0.55554714175E+03  0.00000000000E+00 0.  1.
         13    1    3    3    0    0  0.15359463206E+03  0.37146833013E+03  0.64994020335E+03  0.76420043132E+03  0.00000000000E+00 0. -1.
        -14    1    3    3    0    0  0.15666677682E+03  0.32365679086E+03  0.46075945264E+03  0.58446340383E+03  0.00000000000E+00 0.  1.
          2    1    6    6  502    0  0.79797631635E+02 -0.24234321775E+03  0.45306658250E+03  0.51996848498E+03  0.00000000000E+00 0. -1.
         -1    1    6    6    0  502  0.95255524220E+00 -0.23378879875E+03  0.37626095640E+03  0.44297902557E+03  0.00000000000E+00 0.  1.
<mgrwt>
<rscale>  0 0.85103564E+03</rscale>
<asrwt>0</asrwt>
<pdfrwt beam="1">  1        1 0.52947112E+00 0.85103564E+03</pdfrwt>
<pdfrwt beam="2">  1       -2 0.34642293E-01 0.85103564E+03</pdfrwt>
<totfact> 0.20212921E+00</totfact>
</mgrwt>
</event>
<event>
12    3  0.2212098E-007  0.5439105E+03  0.7818608E-02  0.1002913E+00
         -2   -1    0    0    0  501 -0.00000000000E+00  0.00000000000E+00  0.41365911473E+03  0.41365911473E+03  0.00000000000E+00 0.  1.
          1   -1    0    0  501    0  0.00000000000E+00 -0.00000000000E+00 -0.11550095318E+04  0.11550095318E+04  0.00000000000E+00 0. -1.
        -24    2    1    2    0    0 -0.33096999546E+03  0.17626848726E+03 -0.77033696836E+03  0.86051527553E+03  0.80347850627E+02 0.  0.
    5000000    2    1    2    0    0  0.33096999546E+03 -0.17626848726E+03  0.28986551260E+02  0.70815337104E+03  0.60002438223E+03 0.  0.
        -24    2    4    4    0    0  0.14218804247E+03  0.21238238484E+03  0.66677644282E+01  0.26799322976E+03  0.80325558235E+02 0.  0.
         24    2    4    4    0    0  0.18878195299E+03 -0.38865087210E+03  0.22318786831E+02  0.44016014128E+03  0.80961074387E+02 0.  0.
         11    1    3    3    0    0 -0.11258902404E+03  0.21085504449E+02 -0.26064607573E+03  0.28470557357E+03  0.00000000000E+00 0. -1.
        -12    1    3    3    0    0 -0.21838097143E+03  0.15518298281E+03 -0.50969089263E+03  0.57580970196E+03  0.00000000000E+00 0.  1.
         13    1    5    5    0    0  0.12348582001E+03  0.21604372782E+03  0.67392877815E+01  0.24893585133E+03  0.00000000000E+00 0. -1.
        -14    1    5    5    0    0  0.18702222457E+02 -0.36613429852E+01 -0.71523353271E-01  0.19057378437E+02  0.00000000000E+00 0.  1.
          2    1    6    6  502    0  0.16137739420E+03 -0.37176654591E+03  0.32012611548E+02  0.40654376802E+03  0.00000000000E+00 0. -1.
         -1    1    6    6    0  502  0.27404558787E+02 -0.16884326182E+02 -0.96938247169E+01  0.33616373252E+02  0.00000000000E+00 0.  1.
<mgrwt>
<rscale>  0 0.54391052E+03</rscale>
<asrwt>0</asrwt>
<pdfrwt beam="1">  1        1 0.17769377E+00 0.54391052E+03</pdfrwt>
<pdfrwt beam="2">  1       -2 0.63639864E-01 0.54391052E+03</pdfrwt>
<totfact> 0.24313548E+01</totfact>
</mgrwt>
</event>
<event>
12    3  0.2212098E-007  0.2604255E+03  0.7818608E-02  0.1106888E+00
          1   -1    0    0  501    0  0.00000000000E+00  0.00000000000E+00  0.39955845663E+03  0.39955845663E+03  0.00000000000E+00 0. -1.
         -2   -1    0    0    0  501 -0.00000000000E+00 -0.00000000000E+00 -0.34651378807E+03  0.34651378807E+03  0.00000000000E+00 0.  1.
        -24    2    1    2    0    0  0.46507015909E+02  0.96768138949E+02 -0.64170094878E+01  0.13366024213E+03  0.79353053320E+02 0.  0.
    5000000    2    1    2    0    0 -0.46507015909E+02 -0.96768138949E+02  0.59461678048E+02  0.61241200258E+03  0.59998816196E+03 0.  0.
        -24    2    4    4    0    0 -0.21003170654E+03 -0.91810734482E+02  0.25024473602E+03  0.34867474711E+03  0.80056996273E+02 0.  0.
         24    2    4    4    0    0  0.16352469063E+03 -0.49574044665E+01 -0.19078305797E+03  0.26373725546E+03  0.79964144510E+02 0.  0.
         11    1    5    5    0    0 -0.11605670651E+03 -0.27247554065E+02  0.79239608914E+02  0.14314504514E+03  0.00000000000E+00 0. -1.
        -12    1    5    5    0    0 -0.93975000029E+02 -0.64563180417E+02  0.17100512710E+03  0.20552970197E+03  0.00000000000E+00 0.  1.
         13    1    3    3    0    0  0.16329545180E+02  0.53739647338E+02  0.35492338590E+02  0.66440272730E+02  0.00000000000E+00 0. -1.
        -14    1    3    3    0    0  0.30177470729E+02  0.43028491611E+02 -0.41909348078E+02  0.67219969401E+02  0.00000000000E+00 0.  1.
          2    1    6    6  502    0 -0.43264508340E+01 -0.10082191203E+02 -0.21411053657E+01  0.11178241743E+02  0.00000000000E+00 0. -1.
         -1    1    6    6    0  502  0.16785114146E+03  0.51247867369E+01 -0.18864195260E+03  0.25255901372E+03  0.00000000000E+00 0.  1.
<mgrwt>
<rscale>  0 0.26042554E+03</rscale>
<asrwt>0</asrwt>
<pdfrwt beam="1">  1        1 0.61470532E-01 0.26042554E+03</pdfrwt>
<pdfrwt beam="2">  1       -2 0.53309813E-01 0.26042554E+03</pdfrwt>
<totfact> 0.18162455E+02</totfact>
</mgrwt>
</event>
<event>
12    3  0.2212098E-007  0.9765500E+03  0.7818608E-02  0.9334645E-01
         -2   -1    0    0    0  501 -0.00000000000E+00  0.00000000000E+00  0.22202219591E+04  0.22202219591E+04  0.00000000000E+00 0.  1.
          1   -1    0    0  501    0  0.00000000000E+00 -0.00000000000E+00 -0.53056752684E+03  0.53056752684E+03  0.00000000000E+00 0. -1.
        -24    2    1    2    0    0 -0.95594933338E+03  0.10552930896E+03  0.11319199211E+04  0.14874319161E+04  0.78964765950E+02 0.  0.
    5000000    2    1    2    0    0  0.95594933338E+03 -0.10552930896E+03  0.55773451117E+03  0.12633575698E+04  0.60002416722E+03 0.  0.
        -24    2    4    4    0    0  0.33600953935E+03 -0.13320727321E+03  0.51838658331E+03  0.63647671344E+03  0.75705804396E+02 0.  0.
         24    2    4    4    0    0  0.61993979403E+03  0.27677964253E+02  0.39347927857E+02  0.62688085639E+03  0.79623682110E+02 0.  0.
         11    1    3    3    0    0 -0.35787973828E+03  0.50568844562E+02  0.36965925605E+03  0.51699427530E+03  0.00000000000E+00 0. -1.
        -12    1    3    3    0    0 -0.59806959511E+03  0.54960464399E+02  0.76226066502E+03  0.97043764080E+03  0.00000000000E+00 0.  1.
         13    1    5    5    0    0  0.87431615959E+02 -0.63033994726E+02  0.11620804877E+03  0.15849884087E+03  0.00000000000E+00 0. -1.
        -14    1    5    5    0    0  0.24857792339E+03 -0.70173278488E+02  0.40217853455E+03  0.47797787257E+03  0.00000000000E+00 0.  1.
          4    1    6    6  502    0  0.31129932113E+02 -0.15172947042E+02 -0.43291964060E+01  0.34900328607E+02  0.00000000000E+00 0. -1.
         -3    1    6    6    0  502  0.58880986192E+03  0.42850911296E+02  0.43677124262E+02  0.59198052778E+03  0.00000000000E+00 0.  1.
<mgrwt>
<rscale>  0 0.97655005E+03</rscale>
<asrwt>0</asrwt>
<pdfrwt beam="1">  1        1 0.81625774E-01 0.97655005E+03</pdfrwt>
<pdfrwt beam="2">  1       -2 0.34157260E+00 0.97655005E+03</pdfrwt>
<totfact> 0.64042829E-01</totfact>
</mgrwt>
</event>
<event>
12    3  0.2212098E-007  0.5477758E+03  0.7818608E-02  0.1002010E+00
          1   -1    0    0  501    0  0.00000000000E+00  0.00000000000E+00  0.19264197649E+04  0.19264197649E+04  0.00000000000E+00 0. -1.
         -2   -1    0    0    0  501 -0.00000000000E+00 -0.00000000000E+00 -0.22009018045E+03  0.22009018045E+03  0.00000000000E+00 0.  1.
        -24    2    1    2    0    0  0.21195005243E+03 -0.33142486319E+03  0.14132588949E+03  0.42487326729E+03  0.76019876036E+02 0.  0.
    5000000    2    1    2    0    0 -0.21195005243E+03  0.33142486319E+03  0.15650036950E+04  0.17216366781E+04  0.60002585055E+03 0.  0.
        -24    2    4    4    0    0  0.14143066211E+03  0.30025876313E+03  0.59625180715E+03  0.68696358332E+03  0.79023985268E+02 0.  0.
         24    2    4    4    0    0 -0.35338071454E+03  0.31166100065E+02  0.96875188782E+03  0.10346730948E+04  0.78860241269E+02 0.  0.
         11    1    5    5    0    0  0.13296695758E+03  0.20853339830E+03  0.40215290293E+03  0.47211581985E+03  0.00000000000E+00 0. -1.
        -12    1    5    5    0    0  0.84637045358E+01  0.91725364825E+02  0.19409890422E+03  0.21484776347E+03  0.00000000000E+00 0.  1.
         13    1    3    3    0    0  0.76921879062E+02 -0.18288940239E+03  0.51675245768E+02  0.20502643734E+03  0.00000000000E+00 0. -1.
        -14    1    3    3    0    0  0.13502817336E+03 -0.14853546081E+03  0.89650643720E+02  0.21984682995E+03  0.00000000000E+00 0.  1.
          2    1    6    6  502    0 -0.73790577019E+02  0.22896285747E+02  0.29982952142E+03  0.30962401566E+03  0.00000000000E+00 0. -1.
         -1    1    6    6    0  502 -0.27959013752E+03  0.82698143186E+01  0.66892236640E+03  0.72504907910E+03  0.00000000000E+00 0.  1.
<mgrwt>
<rscale>  0 0.54777578E+03</rscale>
<asrwt>0</asrwt>
<pdfrwt beam="1">  1        1 0.29637226E+00 0.54777578E+03</pdfrwt>
<pdfrwt beam="2">  1       -2 0.33860029E-01 0.54777578E+03</pdfrwt>
<totfact> 0.25564537E+01</totfact>
</mgrwt>
</event>
<event>
12    3  0.2212098E-007  0.5126873E+03  0.7818608E-02  0.1010519E+00
         -4   -1    0    0    0  501 -0.00000000000E+00  0.00000000000E+00  0.17846863520E+04  0.17846863520E+04  0.00000000000E+00 0.  1.
          1   -1    0    0  501    0  0.00000000000E+00 -0.00000000000E+00 -0.37995553869E+03  0.37995553869E+03  0.00000000000E+00 0. -1.
        -24    2    1    2    0    0  0.28713599508E+03 -0.29179122440E+03 -0.15418755834E+03  0.44481406163E+03  0.80601166037E+02 0.  0.
    5000000    2    1    2    0    0 -0.28713599508E+03  0.29179122440E+03  0.15589183716E+04  0.17198278291E+04  0.59999339485E+03 0.  0.
        -24    2    4    4    0    0 -0.22666334079E+03 -0.73802704003E+02  0.10818766392E+04  0.11104966654E+04  0.76958900578E+02 0.  0.
         24    2    4    4    0    0 -0.60472654289E+02  0.36559392840E+03  0.47704173247E+03  0.60933116362E+03  0.79998687779E+02 0.  0.
         11    1    5    5    0    0 -0.38060981626E+02 -0.21346554207E+01  0.32358084808E+03  0.32581860032E+03  0.00000000000E+00 0. -1.
        -12    1    5    5    0    0 -0.18860235916E+03 -0.71668048582E+02  0.75829579109E+03  0.78467806510E+03  0.00000000000E+00 0.  1.
         11    1    3    3    0    0  0.22934756244E+03 -0.25026507744E+03 -0.95672848377E+02  0.35268428842E+03  0.00000000000E+00 0. -1.
        -12    1    3    3    0    0  0.57788432638E+02 -0.41526146958E+02 -0.58514709968E+02  0.92129773204E+02  0.00000000000E+00 0.  1.
          2    1    6    6  502    0 -0.22745074840E+02  0.32611999236E+02  0.83201392180E+02  0.92213624722E+02  0.00000000000E+00 0. -1.
         -1    1    6    6    0  502 -0.37727579449E+02  0.33298192917E+03  0.39384034029E+03  0.51711753890E+03  0.00000000000E+00 0.  1.
<mgrwt>
<rscale>  0 0.51268733E+03</rscale>
<asrwt>0</asrwt>
<pdfrwt beam="1">  1        1 0.58454699E-01 0.51268733E+03</pdfrwt>
<pdfrwt beam="2">  1       -4 0.27456713E+00 0.51268733E+03</pdfrwt>
<totfact> 0.14393086E+00</totfact>
</mgrwt>
</event>
<event>
12    3  0.2212098E-007  0.5740945E+03  0.7818608E-02  0.9960659E-01
          1   -1    0    0  501    0  0.00000000000E+00  0.00000000000E+00  0.71987679027E+03  0.71987679027E+03  0.00000000000E+00 0. -1.
         -2   -1    0    0    0  501 -0.00000000000E+00 -0.00000000000E+00 -0.67339173894E+03  0.67339173894E+03  0.00000000000E+00 0.  1.
        -24    2    1    2    0    0  0.31653747173E+03 -0.45061876930E+03  0.13885316567E+03  0.57356444324E+03  0.80266572601E+02 0.  0.
    5000000    2    1    2    0    0 -0.31653747173E+03  0.45061876930E+03 -0.92368114341E+02  0.81970408597E+03  0.60010805173E+03 0.  0.
        -24    2    4    4    0    0 -0.30867995755E+03  0.36850828745E+03 -0.30722372541E+03  0.57480893372E+03  0.70265345081E+02 0.  0.
         24    2    4    4    0    0 -0.78575141824E+01  0.82110481843E+02  0.21485561106E+03  0.24489515225E+03  0.83706811134E+02 0.  0.
         11    1    5    5    0    0 -0.10913249576E+03  0.82348460613E+02 -0.78484136695E+02  0.15764177844E+03  0.00000000000E+00 0. -1.
        -12    1    5    5    0    0 -0.19954746179E+03  0.28615982684E+03 -0.22873958871E+03  0.41716715528E+03  0.00000000000E+00 0.  1.
         13    1    3    3    0    0  0.28176576098E+03 -0.37616382201E+03  0.14306363866E+03  0.49128237272E+03  0.00000000000E+00 0. -1.
        -14    1    3    3    0    0  0.34771710755E+02 -0.74454947291E+02 -0.42104729891E+01  0.82282070511E+02  0.00000000000E+00 0.  1.
          2    1    6    6  502    0 -0.40818279662E+02  0.42805559957E+02  0.72421655521E+02  0.93505850652E+02  0.00000000000E+00 0. -1.
         -1    1    6    6    0  502  0.32960765479E+02  0.39304921886E+02  0.14243395554E+03  0.15138930159E+03  0.00000000000E+00 0.  1.
<mgrwt>
<rscale>  0 0.57409454E+03</rscale>
<asrwt>0</asrwt>
<pdfrwt beam="1">  1        1 0.11075028E+00 0.57409454E+03</pdfrwt>
<pdfrwt beam="2">  1       -2 0.10359873E+00 0.57409454E+03</pdfrwt>
<totfact> 0.18056380E+01</totfact>
</mgrwt>
</event>
<event>
12    3  0.2212098E-007  0.1024651E+04  0.7818608E-02  0.9281914E-01
          1   -1    0    0  501    0  0.00000000000E+00  0.00000000000E+00  0.12429083526E+04  0.12429083526E+04  0.00000000000E+00 0. -1.
         -2   -1    0    0    0  501 -0.00000000000E+00 -0.00000000000E+00 -0.10400056029E+04  0.10400056029E+04  0.00000000000E+00 0.  1.
        -24    2    1    2    0    0 -0.34675975819E+03 -0.93204346697E+03 -0.26239409545E+03  0.10315797014E+04  0.79741236901E+02 0.  0.
    5000000    2    1    2    0    0  0.34675975819E+03  0.93204346697E+03  0.46529684510E+03  0.12513342541E+04  0.60032400178E+03 0.  0.
        -24    2    4    4    0    0  0.22323878262E+03  0.86415641577E+03  0.16658899460E+03  0.91134000966E+03  0.78656564333E+02 0.  0.
         24    2    4    4    0    0  0.12352097556E+03  0.67887051205E+02  0.29870785050E+03  0.33999424440E+03  0.80645044184E+02 0.  0.
         11    1    3    3    0    0 -0.27890361684E+02 -0.15703526009E+03 -0.47711514413E+02  0.16647622591E+03  0.00000000000E+00 0. -1.
        -12    1    3    3    0    0 -0.31886939650E+03 -0.77500820688E+03 -0.21468258104E+03  0.86510347552E+03  0.00000000000E+00 0.  1.
         13    1    5    5    0    0  0.75161055174E+02  0.18725057741E+03  0.17182491659E+02  0.20250234807E+03  0.00000000000E+00 0. -1.
        -14    1    5    5    0    0  0.14807772745E+03  0.67690583836E+03  0.14940650294E+03  0.70883766159E+03  0.00000000000E+00 0.  1.
          4    1    6    6  502    0  0.30232961693E+02 -0.13660386883E+02  0.10437836067E+03  0.10952388013E+03  0.00000000000E+00 0. -1.
         -3    1    6    6    0  502  0.93288013871E+02  0.81547438089E+02  0.19432948983E+03  0.23047036427E+03  0.00000000000E+00 0.  1.
<mgrwt>
<rscale>  0 0.10246511E+04</rscale>
<asrwt>0</asrwt>
<pdfrwt beam="1">  1        1 0.19121667E+00 0.10246511E+04</pdfrwt>
<pdfrwt beam="2">  1       -2 0.16000086E+00 0.10246511E+04</pdfrwt>
<totfact> 0.21825888E+00</totfact>
</mgrwt>
</event>
<event>
12    3  0.2212098E-007  0.6456486E+03  0.7818608E-02  0.9814979E-01
          3   -1    0    0  501    0  0.00000000000E+00  0.00000000000E+00  0.50928510851E+03  0.50928510851E+03  0.00000000000E+00 0. -1.
         -4   -1    0    0    0  501 -0.00000000000E+00 -0.00000000000E+00 -0.11009678692E+04  0.11009678692E+04  0.00000000000E+00 0.  1.
        -24    2    1    2    0    0  0.21417458611E+03 -0.58367824384E+03 -0.32481413038E+03  0.70598614096E+03  0.79756919807E+02 0.  0.
    5000000    2    1    2    0    0 -0.21417458611E+03  0.58367824384E+03 -0.26686863026E+03  0.90426683671E+03  0.59994049745E+03 0.  0.
        -24    2    4    4    0    0 -0.20869372824E+03  0.29848421674E+03 -0.42521468320E+03  0.56557996360E+03  0.80170247447E+02 0.  0.
         24    2    4    4    0    0 -0.54808578766E+01  0.28519402710E+03  0.15834605293E+03  0.33868687310E+03  0.90937630474E+02 0.  0.
         11    1    3    3    0    0  0.75003492339E+02 -0.25771452894E+03 -0.10087350422E+03  0.28673640533E+03  0.00000000000E+00 0. -1.
        -12    1    3    3    0    0  0.13917109378E+03 -0.32596371490E+03 -0.22394062616E+03  0.41924973562E+03  0.00000000000E+00 0.  1.
         13    1    5    5    0    0 -0.51654497869E+02  0.12396030445E+03 -0.19497822155E+03  0.23675060952E+03  0.00000000000E+00 0. -1.
        -14    1    5    5    0    0 -0.15703923037E+03  0.17452391229E+03 -0.23023646165E+03  0.32882935409E+03  0.00000000000E+00 0.  1.
          4    1    6    6  502    0  0.24559334739E+02  0.25707092574E+03  0.13644852755E+03  0.29207331692E+03  0.00000000000E+00 0. -1.
         -3    1    6    6    0  502 -0.30040192615E+02  0.28123101358E+02  0.21897525378E+02  0.46613556183E+02  0.00000000000E+00 0.  1.
<mgrwt>
<rscale>  0 0.64564856E+03</rscale>
<asrwt>0</asrwt>
<pdfrwt beam="1">  1        3 0.78351556E-01 0.64564856E+03</pdfrwt>
<pdfrwt beam="2">  1       -4 0.16937967E+00 0.64564856E+03</pdfrwt>
<totfact> 0.73858123E-01</totfact>
</mgrwt>
</event>
<event>
12    3  0.2212098E-007  0.8475287E+03  0.7818608E-02  0.9493660E-01
         -2   -1    0    0    0  501 -0.00000000000E+00  0.00000000000E+00  0.86735493736E+03  0.86735493736E+03  0.00000000000E+00 0.  1.
          1   -1    0    0  501    0  0.00000000000E+00 -0.00000000000E+00 -0.16177221864E+04  0.16177221864E+04  0.00000000000E+00 0. -1.
        -24    2    1    2    0    0 -0.70135332936E+03  0.38136708454E+03 -0.11560810321E+04  0.14071638429E+04  0.79053033787E+02 0.  0.
    5000000    2    1    2    0    0  0.70135332936E+03 -0.38136708454E+03  0.40571378313E+03  0.10779132808E+04  0.59996335001E+03 0.  0.
        -24    2    4    4    0    0  0.84224028591E+02 -0.22203638379E+03  0.34736136143E+03  0.43313023648E+03  0.10270366897E+03 0.  0.
         24    2    4    4    0    0  0.61712930077E+03 -0.15933070074E+03  0.58352421703E+02  0.64478304434E+03  0.78136566794E+02 0.  0.
         13    1    5    5    0    0  0.52851967385E+02 -0.21689208403E+03  0.27580323463E+03  0.35482802991E+03  0.00000000000E+00 0. -1.
        -14    1    5    5    0    0  0.31372061205E+02 -0.51442997643E+01  0.71558126795E+02  0.78302206577E+02  0.00000000000E+00 0.  1.
         13    1    3    3    0    0 -0.42814471721E+03  0.26882218629E+03 -0.69181688839E+03  0.85684530330E+03  0.00000000000E+00 0. -1.
        -14    1    3    3    0    0 -0.27320861216E+03  0.11254489825E+03 -0.46426414374E+03  0.55031853961E+03  0.00000000000E+00 0.  1.
          4    1    6    6  502    0  0.60572473454E+03 -0.16254480998E+03  0.47897715614E+02  0.62898128783E+03  0.00000000000E+00 0. -1.
         -3    1    6    6    0  502  0.11404566234E+02  0.32141092317E+01  0.10454706089E+02  0.15801756502E+02  0.00000000000E+00 0.  1.
<mgrwt>
<rscale>  0 0.84752873E+03</rscale>
<asrwt>0</asrwt>
<pdfrwt beam="1">  1        1 0.24888033E+00 0.84752873E+03</pdfrwt>
<pdfrwt beam="2">  1       -2 0.13343922E+00 0.84752873E+03</pdfrwt>
<totfact> 0.19749446E+00</totfact>
</mgrwt>
</event>
<event>
12    3  0.2212098E-007  0.1948473E+04  0.7818608E-02  0.8631097E-01
          1   -1    0    0  501    0  0.00000000000E+00  0.00000000000E+00  0.40570612956E+04  0.40570612956E+04  0.00000000000E+00 0. -1.
         -2   -1    0    0    0  501 -0.00000000000E+00 -0.00000000000E+00 -0.10644516915E+04  0.10644516915E+04  0.00000000000E+00 0.  1.
        -24    2    1    2    0    0  0.30503466584E+03 -0.18785305188E+04  0.58117665576E+03  0.19914995134E+04  0.79880844027E+02 0.  0.
    5000000    2    1    2    0    0 -0.30503466584E+03  0.18785305188E+04  0.24114329483E+04  0.31300134736E+04  0.60004368459E+03 0.  0.
        -24    2    4    4    0    0  0.11954831924E+03  0.10657168642E+04  0.12963384503E+04  0.16842571246E+04  0.78641265368E+02 0.  0.
         24    2    4    4    0    0 -0.42458298509E+03  0.81281365462E+03  0.11150944980E+04  0.14457563490E+04  0.76412911427E+02 0.  0.
         13    1    3    3    0    0  0.20635678174E+03 -0.14065059977E+04  0.40548366352E+03  0.14782622380E+04  0.00000000000E+00 0. -1.
        -14    1    3    3    0    0  0.98677884100E+02 -0.47202452111E+03  0.17569299224E+03  0.51323727540E+03  0.00000000000E+00 0.  1.
         13    1    5    5    0    0  0.27969882698E+02  0.45663938057E+03  0.60183063980E+03  0.75597748460E+03  0.00000000000E+00 0. -1.
        -14    1    5    5    0    0  0.91578436545E+02  0.60907748366E+03  0.69450781052E+03  0.92827963999E+03  0.00000000000E+00 0.  1.
          2    1    6    6  502    0 -0.18927738172E+03  0.43846914844E+03  0.55593703627E+03  0.73290320620E+03  0.00000000000E+00 0. -1.
         -1    1    6    6    0  502 -0.23530560337E+03  0.37434450617E+03  0.55915746170E+03  0.71285314284E+03  0.00000000000E+00 0.  1.
<mgrwt>
<rscale>  0 0.19484730E+04</rscale>
<asrwt>0</asrwt>
<pdfrwt beam="1">  1        1 0.62416327E+00 0.19484730E+04</pdfrwt>
<pdfrwt beam="2">  1       -2 0.16376180E+00 0.19484730E+04</pdfrwt>
<totfact> 0.16036411E-02</totfact>
</mgrwt>
</event>
<event>
12    3  0.2212098E-007  0.6787072E+03  0.7818608E-02  0.9754355E-01
         -2   -1    0    0    0  501 -0.00000000000E+00  0.00000000000E+00  0.23032542179E+03  0.23032542179E+03  0.00000000000E+00 0.  1.
          1   -1    0    0  501    0  0.00000000000E+00 -0.00000000000E+00 -0.23313716169E+04  0.23313716169E+04  0.00000000000E+00 0. -1.
        -24    2    1    2    0    0 -0.51527093280E+03  0.24404519989E+03 -0.12454057187E+04  0.13715337524E+04  0.70761824989E+02 0.  0.
    5000000    2    1    2    0    0  0.51527093280E+03 -0.24404519989E+03 -0.85564047643E+03  0.11901632864E+04  0.59942124548E+03 0.  0.
        -24    2    4    4    0    0  0.57310205839E+03 -0.43885395595E+02 -0.73615773201E+03  0.93767563430E+03  0.83279598153E+02 0.  0.
         24    2    4    4    0    0 -0.57831125590E+02 -0.20015980430E+03 -0.11948274442E+03  0.25248765207E+03  0.77881332108E+02 0.  0.
         11    1    5    5    0    0  0.13993000893E+03 -0.31320252653E+02 -0.13778593255E+03  0.19886258782E+03  0.00000000000E+00 0. -1.
        -12    1    5    5    0    0  0.43317204947E+03 -0.12565142942E+02 -0.59837179946E+03  0.73881304648E+03  0.00000000000E+00 0.  1.
         13    1    3    3    0    0 -0.31174736489E+03  0.14702704030E+03 -0.66831708278E+03  0.75196482180E+03  0.00000000000E+00 0. -1.
        -14    1    3    3    0    0 -0.20352356791E+03  0.97018159592E+02 -0.57708863592E+03  0.61956893055E+03  0.00000000000E+00 0.  1.
          4    1    6    6  502    0 -0.25156532139E+02 -0.13825911025E+03 -0.11631383051E+03  0.18242077690E+03  0.00000000000E+00 0. -1.
         -3    1    6    6    0  502 -0.32674593452E+02 -0.61900694049E+02 -0.31689139062E+01  0.70066875172E+02  0.00000000000E+00 0.  1.
<mgrwt>
<rscale>  0 0.67870716E+03</rscale>
<asrwt>0</asrwt>
<pdfrwt beam="1">  1        1 0.35867254E+00 0.67870716E+03</pdfrwt>
<pdfrwt beam="2">  1       -2 0.35434681E-01 0.67870716E+03</pdfrwt>
<totfact> 0.12313541E+01</totfact>
</mgrwt>
</event>
<event>
12    3  0.2212098E-007  0.4878720E+03  0.7818608E-02  0.1016994E+00
         -2   -1    0    0    0  501 -0.00000000000E+00  0.00000000000E+00  0.15680829832E+04  0.15680829832E+04  0.00000000000E+00 0.  1.
          1   -1    0    0  501    0  0.00000000000E+00 -0.00000000000E+00 -0.36591806864E+03  0.36591806864E+03  0.00000000000E+00 0. -1.
        -24    2    1    2    0    0  0.37151800329E+03  0.29761922655E+02  0.11661286199E+04  0.12269048507E+04  0.80797002737E+02 0.  0.
    5000000    2    1    2    0    0 -0.37151800329E+03 -0.29761922655E+02  0.36036294665E+02  0.70709620116E+03  0.59981249099E+03 0.  0.
        -24    2    4    4    0    0  0.99714045564E+02  0.17671300387E+02  0.16565341889E+03  0.20970260341E+03  0.79239894911E+02 0.  0.
         24    2    4    4    0    0 -0.47123204886E+03 -0.47433223042E+02 -0.12961712422E+03  0.49739359776E+03  0.79311018645E+02 0.  0.
         11    1    3    3    0    0  0.33955374228E+03  0.78828154282E+01  0.99245935184E+03  0.10489682778E+04  0.00000000000E+00 0. -1.
        -12    1    3    3    0    0  0.31964261013E+02  0.21879107226E+02  0.17366926809E+03  0.17793657295E+03  0.00000000000E+00 0.  1.
         13    1    5    5    0    0  0.11244046609E+02 -0.23472082842E+02  0.14496663407E+02  0.29791282400E+02  0.00000000000E+00 0. -1.
        -14    1    5    5    0    0  0.88469998955E+02  0.41143383228E+02  0.15115675548E+03  0.17991132101E+03  0.00000000000E+00 0.  1.
          4    1    6    6  502    0 -0.20711908428E+02 -0.46000002886E+01 -0.25218249929E+02  0.32956081121E+02  0.00000000000E+00 0. -1.
         -3    1    6    6    0  502 -0.45052014043E+03 -0.42833222753E+02 -0.10439887429E+03  0.46443751664E+03  0.00000000000E+00 0.  1.
<mgrwt>
<rscale>  0 0.48787200E+03</rscale>
<asrwt>0</asrwt>
<pdfrwt beam="1">  1        1 0.56295088E-01 0.48787200E+03</pdfrwt>
<pdfrwt beam="2">  1       -2 0.24124353E+00 0.48787200E+03</pdfrwt>
<totfact> 0.46133788E+00</totfact>
</mgrwt>
</event>
<event>
12    3  0.2212098E-007  0.1032363E+04  0.7818608E-02  0.9273745E-01
          1   -1    0    0  501    0  0.00000000000E+00  0.00000000000E+00  0.11237090093E+04  0.11237090093E+04  0.00000000000E+00 0. -1.
         -2   -1    0    0    0  501 -0.00000000000E+00 -0.00000000000E+00 -0.95001712796E+03  0.95001712796E+03  0.00000000000E+00 0.  1.
        -24    2    1    2    0    0 -0.93636264352E+03  0.12270111799E+03  0.77084396798E+02  0.95080670937E+03  0.79125405643E+02 0.  0.
    5000000    2    1    2    0    0  0.93636264352E+03 -0.12270111799E+03  0.96607484507E+02  0.11229194279E+04  0.59982036549E+03 0.  0.
        -24    2    4    4    0    0 -0.58869638409E+02  0.41685254945E+02  0.26132578087E+01  0.10664426890E+03  0.78503988222E+02 0.  0.
         24    2    4    4    0    0  0.99523228193E+03 -0.16438637293E+03  0.93994226699E+02  0.10162751590E+04  0.80436990578E+02 0.  0.
         11    1    3    3    0    0 -0.60322233687E+03  0.43481204508E+02  0.63431252550E+02  0.60810470040E+03  0.00000000000E+00 0. -1.
        -12    1    3    3    0    0 -0.33314030665E+03  0.79219913480E+02  0.13653144249E+02  0.34270200898E+03  0.00000000000E+00 0.  1.
         11    1    5    5    0    0 -0.52021337145E+02  0.63877281244E+02 -0.40585211568E+01  0.82480289593E+02  0.00000000000E+00 0. -1.
        -12    1    5    5    0    0 -0.68483012648E+01 -0.22192026298E+02  0.66717789656E+01  0.24163979308E+02  0.00000000000E+00 0.  1.
          4    1    6    6  502    0  0.81153996650E+03 -0.10209898021E+03  0.73695091108E+02  0.82125044015E+03  0.00000000000E+00 0. -1.
         -3    1    6    6    0  502  0.18369231543E+03 -0.62287392727E+02  0.20299135591E+02  0.19502471881E+03  0.00000000000E+00 0.  1.
<mgrwt>
<rscale>  0 0.10323625E+04</rscale>
<asrwt>0</asrwt>
<pdfrwt beam="1">  1        1 0.17287831E+00 0.10323625E+04</pdfrwt>
<pdfrwt beam="2">  1       -2 0.14615648E+00 0.10323625E+04</pdfrwt>
<totfact> 0.33997393E+00</totfact>
</mgrwt>
</event>
<event>
12    3  0.2212098E-007  0.8739679E+03  0.7818608E-02  0.9458721E-01
          1   -1    0    0  501    0  0.00000000000E+00  0.00000000000E+00  0.16154704365E+04  0.16154704365E+04  0.00000000000E+00 0. -1.
         -2   -1    0    0    0  501 -0.00000000000E+00 -0.00000000000E+00 -0.50025501650E+03  0.50025501650E+03  0.00000000000E+00 0.  1.
        -24    2    1    2    0    0 -0.57636155092E+03 -0.53872195344E+03  0.36956453980E+03  0.87538927923E+03  0.85524619887E+02 0.  0.
    5000000    2    1    2    0    0  0.57636155092E+03  0.53872195344E+03  0.74565088019E+03  0.12403361738E+04  0.60002050658E+03 0.  0.
        -24    2    4    4    0    0  0.30887839752E+03  0.59923744925E+03  0.64748173454E+03  0.93808812521E+03  0.79280193374E+02 0.  0.
         24    2    4    4    0    0  0.26748315340E+03 -0.60515495812E+02  0.98169145652E+02  0.30224804855E+03  0.80668079851E+02 0.  0.
         11    1    5    5    0    0  0.30200727155E+03  0.58626667929E+03  0.61204263328E+03  0.89972951283E+03  0.00000000000E+00 0. -1.
        -12    1    5    5    0    0  0.68711259685E+01  0.12970769968E+02  0.35439101260E+02  0.38358612381E+02  0.00000000000E+00 0.  1.
         13    1    3    3    0    0 -0.45222850309E+03 -0.37210141890E+03  0.27999527990E+03  0.64912821671E+03  0.00000000000E+00 0. -1.
        -14    1    3    3    0    0 -0.12413304783E+03 -0.16662053454E+03  0.89569259897E+02  0.22626106252E+03  0.00000000000E+00 0.  1.
          4    1    6    6  502    0  0.74510103737E+02 -0.44354679771E+02  0.37159018640E+01  0.86792287118E+02  0.00000000000E+00 0. -1.
         -3    1    6    6    0  502  0.19297304966E+03 -0.16160816040E+02  0.94453243788E+02  0.21545576143E+03  0.00000000000E+00 0.  1.
<mgrwt>
<rscale>  0 0.87396789E+03</rscale>
<asrwt>0</asrwt>
<pdfrwt beam="1">  1        1 0.24853391E+00 0.87396789E+03</pdfrwt>
<pdfrwt beam="2">  1       -2 0.76962311E-01 0.87396789E+03</pdfrwt>
<totfact> 0.73341867E+00</totfact>
</mgrwt>
</event>
<event>
12    3  0.2212098E-007  0.2996435E+03  0.7818608E-02  0.1085419E+00
          1   -1    0    0  501    0  0.00000000000E+00  0.00000000000E+00  0.17995214305E+04  0.17995214305E+04  0.00000000000E+00 0. -1.
         -2   -1    0    0    0  501 -0.00000000000E+00 -0.00000000000E+00 -0.10840276605E+03  0.10840276605E+03  0.00000000000E+00 0.  1.
        -24    2    1    2    0    0 -0.19363800321E+03  0.32369069074E+02  0.21549738358E+03  0.30295615679E+03  0.82461370860E+02 0.  0.
    5000000    2    1    2    0    0  0.19363800321E+03 -0.32369069074E+02  0.14756212808E+04  0.16049680397E+04  0.59993400565E+03 0.  0.
        -24    2    4    4    0    0  0.26738574279E+03  0.24811395619E+02  0.25648297960E+03  0.37949934380E+03  0.78265524475E+02 0.  0.
         24    2    4    4    0    0 -0.73747739576E+02 -0.57180464694E+02  0.12191383012E+04  0.12254686959E+04  0.82261731651E+02 0.  0.
         13    1    3    3    0    0 -0.16176703869E+03  0.11163751062E+02  0.20835108672E+03  0.26401397592E+03  0.00000000000E+00 0. -1.
        -14    1    3    3    0    0 -0.31870964520E+02  0.21205318013E+02  0.71462968564E+01  0.38942180861E+02  0.00000000000E+00 0.  1.
         13    1    5    5    0    0  0.59942236162E+02 -0.21101643466E+02  0.86892281426E+02  0.10765045102E+03  0.00000000000E+00 0. -1.
        -14    1    5    5    0    0  0.20744350663E+03  0.45913039086E+02  0.16959069817E+03  0.27184889278E+03  0.00000000000E+00 0.  1.
          2    1    6    6  502    0 -0.58216817067E+02 -0.77711376288E+02  0.87567543419E+03  0.88104240638E+03  0.00000000000E+00 0. -1.
         -1    1    6    6    0  502 -0.15530922509E+02  0.20530911594E+02  0.34346286705E+03  0.34442628954E+03  0.00000000000E+00 0.  1.
<mgrwt>
<rscale>  0 0.29964353E+03</rscale>
<asrwt>0</asrwt>
<pdfrwt beam="1">  1        1 0.27684943E+00 0.29964353E+03</pdfrwt>
<pdfrwt beam="2">  1       -2 0.16677350E-01 0.29964353E+03</pdfrwt>
<totfact> 0.11454669E+02</totfact>
</mgrwt>
</event>
<event>
12    3  0.2212098E-007  0.9012190E+03  0.7818608E-02  0.9424059E-01
         -2   -1    0    0    0  501 -0.00000000000E+00  0.00000000000E+00  0.12351010708E+04  0.12351010708E+04  0.00000000000E+00 0.  1.
          1   -1    0    0  501    0  0.00000000000E+00 -0.00000000000E+00 -0.77414123427E+03  0.77414123427E+03  0.00000000000E+00 0. -1.
        -24    2    1    2    0    0  0.47508918022E+03  0.66554229274E+03  0.55364684229E+03  0.99084888057E+03  0.81242880011E+02 0.  0.
    5000000    2    1    2    0    0 -0.47508918022E+03 -0.66554229274E+03 -0.92687005765E+02  0.10183934245E+04  0.59989833591E+03 0.  0.
        -24    2    4    4    0    0  0.34175713087E+02 -0.41045011774E+03  0.59729072324E+02  0.42330980967E+03  0.77371534576E+02 0.  0.
         24    2    4    4    0    0 -0.50926489330E+03 -0.25509217500E+03 -0.15241607809E+03  0.59508361482E+03  0.80443138140E+02 0.  0.
         11    1    5    5    0    0  0.34448770436E+02 -0.35359143465E+03  0.23825434100E+02  0.35606357824E+03  0.00000000000E+00 0. -1.
        -12    1    5    5    0    0 -0.27305734917E+00 -0.56858683095E+02  0.35903638223E+02  0.67246231428E+02  0.00000000000E+00 0.  1.
         11    1    3    3    0    0  0.10907200712E+03  0.19219102582E+03  0.11645966993E+03  0.24979381070E+03  0.00000000000E+00 0. -1.
        -12    1    3    3    0    0  0.36601717310E+03  0.47335126692E+03  0.43718717236E+03  0.74105506987E+03  0.00000000000E+00 0.  1.
          2    1    6    6  502    0 -0.42210444394E+03 -0.19411275053E+03 -0.15159836884E+03  0.48870644251E+03  0.00000000000E+00 0. -1.
         -1    1    6    6    0  502 -0.87160449361E+02 -0.60979424465E+02 -0.81770924881E+00  0.10637717231E+03  0.00000000000E+00 0.  1.
<mgrwt>
<rscale>  0 0.90121902E+03</rscale>
<asrwt>0</asrwt>
<pdfrwt beam="1">  1        1 0.11909865E+00 0.90121902E+03</pdfrwt>
<pdfrwt beam="2">  1       -2 0.19001555E+00 0.90121902E+03</pdfrwt>
<totfact> 0.31873548E+00</totfact>
</mgrwt>
</event>
<event>
12    3  0.2212098E-007  0.8168415E+03  0.7818608E-02  0.9535955E-01
         -2   -1    0    0    0  501 -0.00000000000E+00  0.00000000000E+00  0.44000860538E+03  0.44000860538E+03  0.00000000000E+00 0.  1.
          1   -1    0    0  501    0  0.00000000000E+00 -0.00000000000E+00 -0.19099635837E+04  0.19099635837E+04  0.00000000000E+00 0. -1.
        -24    2    1    2    0    0  0.74871048861E+03  0.20709773307E+03 -0.33606906649E+03  0.85024787607E+03  0.80759931419E+02 0.  0.
    5000000    2    1    2    0    0 -0.74871048861E+03 -0.20709773307E+03 -0.11338859118E+04  0.14997243130E+04  0.60001573910E+03 0.  0.
        -24    2    4    4    0    0 -0.34232545083E+03 -0.26357511114E+03 -0.94281060454E+03  0.10400733767E+04  0.78754298178E+02 0.  0.
         24    2    4    4    0    0 -0.40638503777E+03  0.56477378070E+02 -0.19107530731E+03  0.45965093627E+03  0.80191751382E+02 0.  0.
         11    1    3    3    0    0  0.26422904912E+03  0.33413522653E+02 -0.11315866524E+03  0.28937577198E+03  0.00000000000E+00 0. -1.
        -12    1    3    3    0    0  0.48448143949E+03  0.17368421041E+03 -0.22291040125E+03  0.56087210409E+03  0.00000000000E+00 0.  1.
         13    1    5    5    0    0 -0.16604124775E+03 -0.16258666066E+03 -0.43613053839E+03  0.49418009339E+03  0.00000000000E+00 0. -1.
        -14    1    5    5    0    0 -0.17628420308E+03 -0.10098845048E+03 -0.50668006615E+03  0.54589328336E+03  0.00000000000E+00 0.  1.
          4    1    6    6  502    0 -0.10249318680E+03 -0.18434363560E+02 -0.61168962752E+02  0.12077384280E+03  0.00000000000E+00 0. -1.
         -3    1    6    6    0  502 -0.30389185098E+03  0.74911741631E+02 -0.12990634456E+03  0.33887709347E+03  0.00000000000E+00 0.  1.
<mgrwt>
<rscale>  0 0.81684150E+03</rscale>
<asrwt>0</asrwt>
<pdfrwt beam="1">  1        1 0.29384056E+00 0.81684150E+03</pdfrwt>
<pdfrwt beam="2">  1       -2 0.67693631E-01 0.81684150E+03</pdfrwt>
<totfact> 0.62076409E+00</totfact>
</mgrwt>
</event>
<event>
12    3  0.2212098E-007  0.7190351E+03  0.7818608E-02  0.9685222E-01
         -2   -1    0    0    0  501 -0.00000000000E+00  0.00000000000E+00  0.13932413150E+04  0.13932413150E+04  0.00000000000E+00 0.  1.
          1   -1    0    0  501    0  0.00000000000E+00 -0.00000000000E+00 -0.43089394283E+03  0.43089394283E+03  0.00000000000E+00 0. -1.
        -24    2    1    2    0    0  0.22941116158E+03  0.55500911701E+03  0.10052729645E+03  0.61429188620E+03  0.81142979393E+02 0.  0.
    5000000    2    1    2    0    0 -0.22941116158E+03 -0.55500911701E+03  0.86182007570E+03  0.12098433716E+04  0.60026872310E+03 0.  0.
        -24    2    4    4    0    0 -0.41825188986E+03 -0.29532857909E+03  0.46450055770E+03  0.69601833779E+03  0.80790750969E+02 0.  0.
         24    2    4    4    0    0  0.18884072828E+03 -0.25968053792E+03  0.39731951800E+03  0.51382503382E+03  0.55304281625E+02 0.  0.
         11    1    5    5    0    0 -0.18595224568E+03 -0.15946561499E+03  0.17700683629E+03  0.30222332824E+03  0.00000000000E+00 0. -1.
        -12    1    5    5    0    0 -0.23229964417E+03 -0.13586296409E+03  0.28749372141E+03  0.39379500955E+03  0.00000000000E+00 0.  1.
         13    1    3    3    0    0  0.30510663953E+02  0.13099952603E+03 -0.34308233836E+01  0.13454942209E+03  0.00000000000E+00 0. -1.
        -14    1    3    3    0    0  0.19890049762E+03  0.42400959098E+03  0.10395811983E+03  0.47974246411E+03  0.00000000000E+00 0.  1.
          2    1    6    6  502    0  0.45789616065E+02 -0.67558384745E+02  0.65848331887E+02  0.10486575752E+03  0.00000000000E+00 0. -1.
         -1    1    6    6    0  502  0.14305111221E+03 -0.19212215317E+03  0.33147118611E+03  0.40895927630E+03  0.00000000000E+00 0.  1.
<mgrwt>
<rscale>  0 0.71903511E+03</rscale>
<asrwt>0</asrwt>
<pdfrwt beam="1">  1        1 0.66291377E-01 0.71903511E+03</pdfrwt>
<pdfrwt beam="2">  1       -2 0.21434482E+00 0.71903511E+03</pdfrwt>
<totfact> 0.52558341E+00</totfact>
</mgrwt>
</event>
<event>
12    3  0.2212098E-007  0.3348217E+03  0.7818608E-02  0.1069023E+00
         -2   -1    0    0    0  501 -0.00000000000E+00  0.00000000000E+00  0.34284827287E+03  0.34284827287E+03  0.00000000000E+00 0.  1.
          1   -1    0    0  501    0  0.00000000000E+00 -0.00000000000E+00 -0.47671084848E+03  0.47671084848E+03  0.00000000000E+00 0. -1.
        -24    2    1    2    0    0 -0.47616771785E+02 -0.14205316232E+03 -0.12014949536E+03  0.20097100798E+03  0.59219818737E+02 0.  0.
    5000000    2    1    2    0    0  0.47616771785E+02  0.14205316232E+03 -0.13713080243E+02  0.61858811337E+03  0.60001395613E+03 0.  0.
        -24    2    4    4    0    0  0.45868505075E+02  0.32589159065E+03 -0.15628743136E+03  0.37247014111E+03  0.77453187141E+02 0.  0.
         24    2    4    4    0    0  0.17482667097E+01 -0.18383842834E+03  0.14257435112E+03  0.24611797226E+03  0.80293128619E+02 0.  0.
         11    1    5    5    0    0  0.20665950321E+02  0.99577406052E+02 -0.88679457182E+02  0.13493252916E+03  0.00000000000E+00 0. -1.
        -12    1    5    5    0    0  0.25202554754E+02  0.22631418460E+03 -0.67607974179E+02  0.23753761195E+03  0.00000000000E+00 0.  1.
         13    1    3    3    0    0 -0.14774306626E+02 -0.19862527890E+02 -0.51214635569E+02  0.56883556912E+02  0.00000000000E+00 0. -1.
        -14    1    3    3    0    0 -0.32842465159E+02 -0.12219063443E+03 -0.68934859795E+02  0.14408745106E+03  0.00000000000E+00 0.  1.
          2    1    6    6  502    0 -0.18391579152E+02 -0.44325163926E+02  0.35270866619E+01  0.48118714458E+02  0.00000000000E+00 0. -1.
         -1    1    6    6    0  502  0.20139845862E+02 -0.13951326441E+03  0.13904726446E+03  0.19799925780E+03  0.00000000000E+00 0.  1.
<mgrwt>
<rscale>  0 0.33482166E+03</rscale>
<asrwt>0</asrwt>
<pdfrwt beam="1">  1        1 0.73340131E-01 0.33482166E+03</pdfrwt>
<pdfrwt beam="2">  1       -2 0.52745888E-01 0.33482166E+03</pdfrwt>
<totfact> 0.14633088E+02</totfact>
</mgrwt>
</event>
<event>
12    3  0.2212098E-007  0.6039238E+03  0.7818608E-02  0.9897299E-01
         -2   -1    0    0    0  501 -0.00000000000E+00  0.00000000000E+00  0.14534859757E+04  0.14534859757E+04  0.00000000000E+00 0.  1.
          1   -1    0    0  501    0  0.00000000000E+00 -0.00000000000E+00 -0.65557227188E+03  0.65557227188E+03  0.00000000000E+00 0. -1.
        -24    2    1    2    0    0  0.48985619595E+03 -0.33353358452E+02 -0.42969008761E+03  0.65714675950E+03  0.78337429711E+02 0.  0.
    5000000    2    1    2    0    0 -0.48985619595E+03  0.33353358452E+02  0.12276037914E+04  0.14519114881E+04  0.59997030033E+03 0.  0.
        -24    2    4    4    0    0  0.98075021696E+02  0.33575785893E+01  0.58473130032E+02  0.13993264239E+03  0.80821125055E+02 0.  0.
         24    2    4    4    0    0 -0.58793121765E+03  0.29995779863E+02  0.11691306614E+04  0.13119788457E+04  0.88651704222E+02 0.  0.
         11    1    3    3    0    0  0.11335758382E+03 -0.33305386889E+02 -0.13219459893E+03  0.17729806144E+03  0.00000000000E+00 0. -1.
        -12    1    3    3    0    0  0.37649861213E+03 -0.47971563743E-01 -0.29749548868E+03  0.47984869805E+03  0.00000000000E+00 0.  1.
         13    1    5    5    0    0  0.69670366001E+01  0.23646937249E+02 -0.73425709627E+01  0.25722180868E+02  0.00000000000E+00 0. -1.
        -14    1    5    5    0    0  0.91107985096E+02 -0.20289358660E+02  0.65815700995E+02  0.11421046152E+03  0.00000000000E+00 0.  1.
          4    1    6    6  502    0 -0.23144347615E+03 -0.31098054571E+02  0.44560979476E+03  0.50309170222E+03  0.00000000000E+00 0. -1.
         -3    1    6    6    0  502 -0.35648774149E+03  0.61093834435E+02  0.72352086660E+03  0.80888714346E+03  0.00000000000E+00 0.  1.
<mgrwt>
<rscale>  0 0.60392383E+03</rscale>
<asrwt>0</asrwt>
<pdfrwt beam="1">  1        1 0.10085727E+00 0.60392383E+03</pdfrwt>
<pdfrwt beam="2">  1       -2 0.22361323E+00 0.60392383E+03</pdfrwt>
<totfact> 0.26078042E+00</totfact>
</mgrwt>
</event>
<event>
12    3  0.2212098E-007  0.9716190E+03  0.7818608E-02  0.9340232E-01
          1   -1    0    0  501    0  0.00000000000E+00  0.00000000000E+00  0.32687663361E+04  0.32687663361E+04  0.00000000000E+00 0. -1.
         -2   -1    0    0    0  501 -0.00000000000E+00 -0.00000000000E+00 -0.33162256996E+03  0.33162256996E+03  0.00000000000E+00 0.  1.
        -24    2    1    2    0    0  0.75676075968E+03  0.57841000303E+03  0.13008795236E+04  0.16143434110E+04  0.81068703837E+02 0.  0.
    5000000    2    1    2    0    0 -0.75676075968E+03 -0.57841000303E+03  0.16362642426E+04  0.19860454951E+04  0.59980918472E+03 0.  0.
        -24    2    4    4    0    0 -0.54812158190E+02 -0.81045480550E+02  0.70171983597E+03  0.71328383080E+03  0.82403595115E+02 0.  0.
         24    2    4    4    0    0 -0.70194860149E+03 -0.49736452248E+03  0.93454440663E+03  0.12727616643E+04  0.80285109684E+02 0.  0.
         11    1    3    3    0    0  0.12822939681E+03  0.68099647940E+02  0.17059533117E+03  0.22401586389E+03  0.00000000000E+00 0. -1.
        -12    1    3    3    0    0  0.62853136286E+03  0.51031035509E+03  0.11302841924E+04  0.13903275471E+04  0.00000000000E+00 0.  1.
         11    1    5    5    0    0 -0.76853768909E+02 -0.61425134173E+02  0.53386244152E+03  0.54285233293E+03  0.00000000000E+00 0. -1.
        -12    1    5    5    0    0  0.22041610719E+02 -0.19620346378E+02  0.16785739445E+03  0.17043149787E+03  0.00000000000E+00 0.  1.
          4    1    6    6  502    0 -0.30912462223E+03 -0.23169464475E+03  0.36310034982E+03  0.53017195750E+03  0.00000000000E+00 0. -1.
         -3    1    6    6    0  502 -0.39282397925E+03 -0.26566987773E+03  0.57144405681E+03  0.74258970682E+03  0.00000000000E+00 0.  1.
<mgrwt>
<rscale>  0 0.97161898E+03</rscale>
<asrwt>0</asrwt>
<pdfrwt beam="1">  1        1 0.50288711E+00 0.97161898E+03</pdfrwt>
<pdfrwt beam="2">  1       -2 0.51018859E-01 0.97161898E+03</pdfrwt>
<totfact> 0.12464917E+00</totfact>
</mgrwt>
</event>
<event>
12    3  0.2212098E-007  0.8877086E+03  0.7818608E-02  0.9441078E-01
         -2   -1    0    0    0  501 -0.00000000000E+00  0.00000000000E+00  0.74982618560E+03  0.74982618560E+03  0.00000000000E+00 0.  1.
          1   -1    0    0  501    0  0.00000000000E+00 -0.00000000000E+00 -0.12281160387E+04  0.12281160387E+04  0.00000000000E+00 0. -1.
        -24    2    1    2    0    0 -0.32887876199E+03 -0.75018813755E+03  0.66302145063E+02  0.82575039281E+03  0.80772860374E+02 0.  0.
    5000000    2    1    2    0    0  0.32887876199E+03  0.75018813755E+03 -0.54459199817E+03  0.11521918315E+04  0.60001840828E+03 0.  0.
        -24    2    4    4    0    0  0.44547788274E+03  0.48508735155E+03 -0.19531136445E+03  0.69149067543E+03  0.79073019971E+02 0.  0.
         24    2    4    4    0    0 -0.11659912075E+03  0.26510078600E+03 -0.34928063372E+03  0.46070115606E+03  0.79842422329E+02 0.  0.
         11    1    3    3    0    0 -0.27002413990E+03 -0.57702972141E+03  0.81293194220E+02  0.64224988825E+03  0.00000000000E+00 0. -1.
        -12    1    3    3    0    0 -0.58854622092E+02 -0.17315841613E+03 -0.14991049157E+02  0.18350050456E+03  0.00000000000E+00 0.  1.
         11    1    5    5    0    0  0.68669221917E+02  0.37598193234E+02 -0.20588620206E+02  0.80950462971E+02  0.00000000000E+00 0. -1.
        -12    1    5    5    0    0  0.37680866082E+03  0.44748915831E+03 -0.17472274424E+03  0.61054021246E+03  0.00000000000E+00 0.  1.
          4    1    6    6  502    0 -0.24136610963E+02  0.10051406643E+03 -0.17779215803E+03  0.20565919624E+03  0.00000000000E+00 0. -1.
         -3    1    6    6    0  502 -0.92462509784E+02  0.16458671958E+03 -0.17148847568E+03  0.25504195982E+03  0.00000000000E+00 0.  1.
<mgrwt>
<rscale>  0 0.88770863E+03</rscale>
<asrwt>0</asrwt>
<pdfrwt beam="1">  1        1 0.18894093E+00 0.88770863E+03</pdfrwt>
<pdfrwt beam="2">  1       -2 0.11535788E+00 0.88770863E+03</pdfrwt>
<totfact> 0.52857534E+00</totfact>
</mgrwt>
</event>
<event>
12    3  0.2212098E-007  0.1408972E+04  0.7818608E-02  0.8947350E-01
         -2   -1    0    0    0  501 -0.00000000000E+00  0.00000000000E+00  0.17089703886E+04  0.17089703886E+04  0.00000000000E+00 0.  1.
          1   -1    0    0  501    0  0.00000000000E+00 -0.00000000000E+00 -0.15814430599E+04  0.15814430599E+04  0.00000000000E+00 0. -1.
        -24    2    1    2    0    0 -0.44009724827E+03 -0.12886151164E+04 -0.75630133936E+03  0.15596653265E+04  0.79685059311E+02 0.  0.
    5000000    2    1    2    0    0  0.44009724827E+03  0.12886151164E+04  0.88382866806E+03  0.17307481220E+04  0.60010119256E+03 0.  0.
        -24    2    4    4    0    0  0.24501545699E+03  0.12020783436E+04  0.60728288791E+03  0.13710800509E+04  0.77737260136E+02 0.  0.
         24    2    4    4    0    0  0.19508179128E+03  0.86536772718E+02  0.27654578016E+03  0.35966807111E+03  0.85662328567E+02 0.  0.
         11    1    3    3    0    0 -0.20721059981E+03 -0.65018496753E+03 -0.33630165743E+03  0.76077298155E+03  0.00000000000E+00 0. -1.
        -12    1    3    3    0    0 -0.23288664846E+03 -0.63843014884E+03 -0.41999968193E+03  0.79889234493E+03  0.00000000000E+00 0.  1.
         11    1    5    5    0    0  0.94032325241E+02  0.34001854823E+03  0.14629357569E+03  0.38191164112E+03  0.00000000000E+00 0. -1.
        -12    1    5    5    0    0  0.15098313175E+03  0.86205979541E+03  0.46098931222E+03  0.98916840979E+03  0.00000000000E+00 0.  1.
          2    1    6    6  502    0  0.15766982846E+03  0.30462223134E+02  0.21528913036E+03  0.26858356520E+03  0.00000000000E+00 0. -1.
         -1    1    6    6    0  502  0.37411962818E+02  0.56074549584E+02  0.61256649792E+02  0.91084505909E+02  0.00000000000E+00 0.  1.
<mgrwt>
<rscale>  0 0.14089716E+04</rscale>
<asrwt>0</asrwt>
<pdfrwt beam="1">  1        1 0.24329893E+00 0.14089716E+04</pdfrwt>
<pdfrwt beam="2">  1       -2 0.26291852E+00 0.14089716E+04</pdfrwt>
<totfact> 0.25670418E-01</totfact>
</mgrwt>
</event>
<event>
12    3  0.2212098E-007  0.5617940E+03  0.7818608E-02  0.9988004E-01
          1   -1    0    0  501    0  0.00000000000E+00  0.00000000000E+00  0.26292044518E+04  0.26292044518E+04  0.00000000000E+00 0. -1.
         -2   -1    0    0    0  501 -0.00000000000E+00 -0.00000000000E+00 -0.13471184051E+03  0.13471184051E+03  0.00000000000E+00 0.  1.
        -24    2    1    2    0    0 -0.10174135521E+03  0.40976804119E+03  0.12178975607E+04  0.12915177069E+04  0.80513153518E+02 0.  0.
    5000000    2    1    2    0    0  0.10174135521E+03 -0.40976804119E+03  0.12765950506E+04  0.14723985854E+04  0.60000126685E+03 0.  0.
        -24    2    4    4    0    0  0.20423870470E+03 -0.50740483692E+03  0.11090753444E+04  0.12391739432E+04  0.79566481268E+02 0.  0.
         24    2    4    4    0    0 -0.10249734950E+03  0.97636795731E+02  0.16751970620E+03  0.23322464222E+03  0.79323585653E+02 0.  0.
         13    1    5    5    0    0  0.98157927075E+02 -0.21475511528E+03  0.56479405954E+03  0.61216588265E+03  0.00000000000E+00 0. -1.
        -14    1    5    5    0    0  0.10608077763E+03 -0.29264972163E+03  0.54428128483E+03  0.62700806053E+03  0.00000000000E+00 0.  1.
         13    1    3    3    0    0 -0.83940580909E+02  0.32902401208E+03  0.86971701451E+03  0.93365438304E+03  0.00000000000E+00 0. -1.
        -14    1    3    3    0    0 -0.17800774296E+02  0.80744029104E+02  0.34818054619E+03  0.35786332384E+03  0.00000000000E+00 0.  1.
          2    1    6    6  502    0 -0.75765216124E+02  0.30503185058E+02  0.51543919420E+02  0.96579438299E+02  0.00000000000E+00 0. -1.
         -1    1    6    6    0  502 -0.26732133373E+02  0.67133610673E+02  0.11597578678E+03  0.13664520392E+03  0.00000000000E+00 0.  1.
<mgrwt>
<rscale>  0 0.56179401E+03</rscale>
<asrwt>0</asrwt>
<pdfrwt beam="1">  1        1 0.40449295E+00 0.56179401E+03</pdfrwt>
<pdfrwt beam="2">  1       -2 0.20724901E-01 0.56179401E+03</pdfrwt>
<totfact> 0.20984843E+01</totfact>
</mgrwt>
</event>
<event>
12    3  0.2212098E-007  0.3884112E+03  0.7818608E-02  0.1047868E+00
          1   -1    0    0  501    0  0.00000000000E+00  0.00000000000E+00  0.52731853180E+03  0.52731853180E+03  0.00000000000E+00 0. -1.
         -2   -1    0    0    0  501 -0.00000000000E+00 -0.00000000000E+00 -0.45193558852E+03  0.45193558852E+03  0.00000000000E+00 0.  1.
        -24    2    1    2    0    0  0.15513292628E+02  0.18573251759E+03 -0.20755731680E+03  0.29025239203E+03  0.80182173729E+02 0.  0.
    5000000    2    1    2    0    0 -0.15513292628E+02 -0.18573251759E+03  0.28294026008E+03  0.68900172828E+03  0.59994246429E+03 0.  0.
        -24    2    4    4    0    0  0.23727592909E+03 -0.19570579102E+03  0.27805986712E+03  0.42310923574E+03  0.84282338029E+02 0.  0.
         24    2    4    4    0    0 -0.25278922172E+03  0.99732734310E+01  0.48803929638E+01  0.26589249254E+03  0.81689305023E+02 0.  0.
         11    1    5    5    0    0  0.71547245212E+02 -0.14821463847E+02  0.53911619386E+02  0.90802790667E+02  0.00000000000E+00 0. -1.
        -12    1    5    5    0    0  0.16572868388E+03 -0.18088432717E+03  0.22414824773E+03  0.33230644507E+03  0.00000000000E+00 0.  1.
         13    1    3    3    0    0 -0.10504244449E+02  0.13645328378E+03 -0.10129935370E+03  0.17026860212E+03  0.00000000000E+00 0. -1.
        -14    1    3    3    0    0  0.26017537076E+02  0.49279233805E+02 -0.10625796310E+03  0.11998378991E+03  0.00000000000E+00 0.  1.
          4    1    6    6  502    0 -0.13297910767E+03  0.46043654698E+02  0.22488529772E+01  0.14074273890E+03  0.00000000000E+00 0. -1.
         -1    1    6    6    0  502 -0.11981011405E+03 -0.36070381267E+02  0.26315399867E+01  0.12514975364E+03  0.00000000000E+00 0.  1.
<mgrwt>
<rscale>  0 0.38841123E+03</rscale>
<asrwt>0</asrwt>
<pdfrwt beam="1">  1        1 0.81125927E-01 0.38841123E+03</pdfrwt>
<pdfrwt beam="2">  1       -2 0.69528553E-01 0.38841123E+03</pdfrwt>
<totfact> 0.71229564E+01</totfact>
</mgrwt>
</event>
<event>
12    3  0.2212098E-007  0.5130052E+03  0.7818608E-02  0.1010439E+00
         -2   -1    0    0    0  501 -0.00000000000E+00  0.00000000000E+00  0.18745397079E+03  0.18745397079E+03  0.00000000000E+00 0.  1.
          1   -1    0    0  501    0  0.00000000000E+00 -0.00000000000E+00 -0.18293259190E+04  0.18293259190E+04  0.00000000000E+00 0. -1.
        -24    2    1    2    0    0 -0.75352981333E+02 -0.40817184260E+03 -0.78393664734E+03  0.89060919208E+03  0.79660159874E+02 0.  0.
    5000000    2    1    2    0    0  0.75352981333E+02  0.40817184260E+03 -0.85793530087E+03  0.11261706977E+04  0.59993760930E+03 0.  0.
        -24    2    4    4    0    0  0.18567708624E+03  0.42968785517E+03 -0.86345997762E+03  0.98543467908E+03  0.80067100336E+02 0.  0.
         24    2    4    4    0    0 -0.11032410491E+03 -0.21516012567E+02  0.55246767463E+01  0.14073601865E+03  0.84508922435E+02 0.  0.
         11    1    3    3    0    0 -0.51851580935E+02 -0.38542909879E+03 -0.73829632010E+03  0.83446128305E+03  0.00000000000E+00 0. -1.
        -12    1    3    3    0    0 -0.23501400398E+02 -0.22742743812E+02 -0.45640327246E+02  0.56147909025E+02  0.00000000000E+00 0.  1.
         13    1    5    5    0    0  0.49303196145E+02  0.17701240014E+03 -0.40089566073E+03  0.44100059608E+03  0.00000000000E+00 0. -1.
        -14    1    5    5    0    0  0.13637389009E+03  0.25267545503E+03 -0.46256431689E+03  0.54443408300E+03  0.00000000000E+00 0.  1.
          4    1    6    6  502    0 -0.25330349835E+02 -0.39238824906E+02 -0.19146800472E+02  0.50476845890E+02  0.00000000000E+00 0. -1.
         -3    1    6    6    0  502 -0.84993755072E+02  0.17722812339E+02  0.24671477218E+02  0.90259172755E+02  0.00000000000E+00 0.  1.
<mgrwt>
<rscale>  0 0.51300517E+03</rscale>
<asrwt>0</asrwt>
<pdfrwt beam="1">  1        1 0.28143475E+00 0.51300517E+03</pdfrwt>
<pdfrwt beam="2">  1       -2 0.28839073E-01 0.51300517E+03</pdfrwt>
<totfact> 0.40188276E+01</totfact>
</mgrwt>
</event>
<event>
12    3  0.2212098E-007  0.1356937E+04  0.7818608E-02  0.8985593E-01
          1   -1    0    0  501    0  0.00000000000E+00  0.00000000000E+00  0.25280622428E+04  0.25280622428E+04  0.00000000000E+00 0. -1.
         -2   -1    0    0    0  501 -0.00000000000E+00 -0.00000000000E+00 -0.90111215088E+03  0.90111215088E+03  0.00000000000E+00 0.  1.
        -24    2    1    2    0    0  0.12749493279E+04  0.38204005796E+03  0.14313905402E+04  0.19561168992E+04  0.77872009304E+02 0.  0.
    5000000    2    1    2    0    0 -0.12749493279E+04 -0.38204005796E+03  0.19555955165E+03  0.14730574945E+04  0.60017035013E+03 0.  0.
        -24    2    4    4    0    0 -0.12396295783E+04 -0.32725833963E+03  0.30709989313E+03  0.13211380104E+04  0.85532367593E+02 0.  0.
         24    2    4    4    0    0 -0.35319749640E+02 -0.54781718330E+02 -0.11154034148E+03  0.15191948411E+03  0.79935977487E+02 0.  0.
         11    1    3    3    0    0  0.10848577663E+04  0.34478469826E+03  0.12515720302E+04  0.16918112803E+04  0.00000000000E+00 0. -1.
        -12    1    3    3    0    0  0.19009156159E+03  0.37255359694E+02  0.17981851002E+03  0.26430561885E+03  0.00000000000E+00 0.  1.
         11    1    5    5    0    0 -0.70000001773E+03 -0.14897255987E+03  0.19643532165E+03  0.74214532540E+03  0.00000000000E+00 0. -1.
        -12    1    5    5    0    0 -0.53962956056E+03 -0.17828577975E+03  0.11066457148E+03  0.57899268499E+03  0.00000000000E+00 0.  1.
          4    1    6    6  502    0 -0.33923925410E+02  0.81550245539E+01 -0.18247989421E+02  0.39374182640E+02  0.00000000000E+00 0. -1.
         -3    1    6    6    0  502 -0.13958242297E+01 -0.62936742884E+02 -0.93292352058E+02  0.11254530147E+03  0.00000000000E+00 0.  1.
<mgrwt>
<rscale>  0 0.13569372E+04</rscale>
<asrwt>0</asrwt>
<pdfrwt beam="1">  1        1 0.38893265E+00 0.13569372E+04</pdfrwt>
<pdfrwt beam="2">  1       -2 0.13863264E+00 0.13569372E+04</pdfrwt>
<totfact> 0.40343538E-01</totfact>
</mgrwt>
</event>
<event>
12    3  0.2212098E-007  0.8664203E+03  0.7818608E-02  0.9468559E-01
         -2   -1    0    0    0  501 -0.00000000000E+00  0.00000000000E+00  0.11952073377E+04  0.11952073377E+04  0.00000000000E+00 0.  1.
          1   -1    0    0  501    0  0.00000000000E+00 -0.00000000000E+00 -0.84471426178E+03  0.84471426178E+03  0.00000000000E+00 0. -1.
        -24    2    1    2    0    0 -0.34070991583E+03  0.68484373416E+03  0.66660984117E+03  0.10176665905E+04  0.78628379274E+02 0.  0.
    5000000    2    1    2    0    0  0.34070991583E+03 -0.68484373416E+03 -0.31611676526E+03  0.10222550090E+04  0.59998442247E+03 0.  0.
        -24    2    4    4    0    0  0.47718468939E+03 -0.33738444936E+03 -0.17151448404E+03  0.61417363476E+03  0.79110940704E+02 0.  0.
         24    2    4    4    0    0 -0.13647477356E+03 -0.34745928480E+03 -0.14460228123E+03  0.40808137425E+03  0.79166090349E+02 0.  0.
         11    1    3    3    0    0 -0.71972067140E+02  0.22515409261E+03  0.19787118502E+03  0.30826506407E+03  0.00000000000E+00 0. -1.
        -12    1    3    3    0    0 -0.26873784869E+03  0.45968964155E+03  0.46873865615E+03  0.70940152639E+03  0.00000000000E+00 0.  1.
         11    1    5    5    0    0  0.70338942786E+02 -0.85693669373E+02 -0.22778605728E+02  0.11318054922E+03  0.00000000000E+00 0. -1.
        -12    1    5    5    0    0  0.40684574661E+03 -0.25169077999E+03 -0.14873587831E+03  0.50099308554E+03  0.00000000000E+00 0.  1.
          4    1    6    6  502    0 -0.37137535780E+02 -0.59888552845E+02  0.16977838002E+01  0.70489132464E+02  0.00000000000E+00 0. -1.
         -1    1    6    6    0  502 -0.99337237781E+02 -0.28757073196E+03 -0.14630006503E+03  0.33759224179E+03  0.00000000000E+00 0.  1.
<mgrwt>
<rscale>  0 0.86642030E+03</rscale>
<asrwt>0</asrwt>
<pdfrwt beam="1">  1        1 0.12995604E+00 0.86642030E+03</pdfrwt>
<pdfrwt beam="2">  1       -2 0.18387805E+00 0.86642030E+03</pdfrwt>
<totfact> 0.30586931E+00</totfact>
</mgrwt>
</event>
<event>
12    3  0.2212098E-007  0.9176282E+03  0.7818608E-02  0.9403810E-01
          1   -1    0    0  501    0  0.00000000000E+00  0.00000000000E+00  0.17993851396E+04  0.17993851396E+04  0.00000000000E+00 0. -1.
         -2   -1    0    0    0  501 -0.00000000000E+00 -0.00000000000E+00 -0.52992257084E+03  0.52992257084E+03  0.00000000000E+00 0.  1.
        -24    2    1    2    0    0  0.32312034056E+03  0.75705132650E+03  0.95476206657E+03  0.12631985562E+04  0.81034086412E+02 0.  0.
    5000000    2    1    2    0    0 -0.32312034056E+03 -0.75705132650E+03  0.31470050223E+03  0.10661091543E+04  0.60001571421E+03 0.  0.
        -24    2    4    4    0    0  0.15408624248E+03 -0.32618163077E+03  0.88272873007E+02  0.37987490623E+03  0.79848718842E+02 0.  0.
         24    2    4    4    0    0 -0.47720658304E+03 -0.43086969573E+03  0.22642762922E+03  0.68623424805E+03  0.79203246987E+02 0.  0.
         13    1    5    5    0    0  0.14582754571E+03 -0.31985214239E+03  0.69382696617E+02  0.35830856070E+03  0.00000000000E+00 0. -1.
        -14    1    5    5    0    0  0.82586967722E+01 -0.63294883777E+01  0.18890176390E+02  0.21566345531E+02  0.00000000000E+00 0.  1.
         13    1    3    3    0    0  0.91087441205E+02  0.31022360639E+03  0.39007836145E+03  0.50665248048E+03  0.00000000000E+00 0. -1.
        -14    1    3    3    0    0  0.23203289935E+03  0.44682772011E+03  0.56468370512E+03  0.75654607571E+03  0.00000000000E+00 0.  1.
          2    1    6    6  502    0 -0.89574765544E+02 -0.11936188122E+03  0.34324247450E+02  0.15313083058E+03  0.00000000000E+00 0. -1.
         -1    1    6    6    0  502 -0.38763181749E+03 -0.31150781450E+03  0.19210338177E+03  0.53310341747E+03  0.00000000000E+00 0.  1.
<mgrwt>
<rscale>  0 0.91762818E+03</rscale>
<asrwt>0</asrwt>
<pdfrwt beam="1">  1        1 0.27682848E+00 0.91762818E+03</pdfrwt>
<pdfrwt beam="2">  1       -2 0.81526550E-01 0.91762818E+03</pdfrwt>
<totfact> 0.48124488E+00</totfact>
</mgrwt>
</event>
<event>
12    3  0.2212098E-007  0.4944478E+03  0.7818608E-02  0.1015238E+00
          1   -1    0    0  501    0  0.00000000000E+00  0.00000000000E+00  0.50239501927E+03  0.50239501927E+03  0.00000000000E+00 0. -1.
         -2   -1    0    0    0  501 -0.00000000000E+00 -0.00000000000E+00 -0.52751090152E+03  0.52751090152E+03  0.00000000000E+00 0.  1.
        -24    2    1    2    0    0 -0.29424875699E+03 -0.11353276927E+03  0.10279458093E+03  0.34025864383E+03  0.75744294474E+02 0.  0.
    5000000    2    1    2    0    0  0.29424875699E+03  0.11353276927E+03 -0.12791046318E+03  0.68964727696E+03  0.59981685483E+03 0.  0.
        -24    2    4    4    0    0  0.10249797164E+03  0.33767223764E+03 -0.12778147526E+03  0.38359928740E+03  0.79321709592E+02 0.  0.
         24    2    4    4    0    0  0.19175078535E+03 -0.22413946837E+03 -0.12898791682E+00  0.30604798955E+03  0.81599572956E+02 0.  0.
         11    1    3    3    0    0 -0.23119142090E+00 -0.13403422394E+02  0.75417299706E+01  0.15381250674E+02  0.00000000000E+00 0. -1.
        -12    1    3    3    0    0 -0.29401756557E+03 -0.10012934688E+03  0.95252850959E+02  0.32487739316E+03  0.00000000000E+00 0.  1.
         13    1    5    5    0    0  0.48290074303E+02  0.54279379257E+02 -0.33971959971E+02  0.80201473509E+02  0.00000000000E+00 0. -1.
        -14    1    5    5    0    0  0.54207897334E+02  0.28339285839E+03 -0.93809515290E+02  0.30339781390E+03  0.00000000000E+00 0.  1.
          2    1    6    6  502    0  0.82995551496E+02 -0.45718548290E+02 -0.17561004369E+02  0.96368231800E+02  0.00000000000E+00 0. -1.
         -1    1    6    6    0  502  0.10875523386E+03 -0.17842092008E+03  0.17432016452E+02  0.20967975775E+03  0.00000000000E+00 0.  1.
<mgrwt>
<rscale>  0 0.49444781E+03</rscale>
<asrwt>0</asrwt>
<pdfrwt beam="1">  1        1 0.77291541E-01 0.49444781E+03</pdfrwt>
<pdfrwt beam="2">  1       -2 0.81155524E-01 0.49444781E+03</pdfrwt>
<totfact> 0.53535712E+01</totfact>
</mgrwt>
</event>
<event>
12    3  0.2212098E-007  0.6469484E+03  0.7818608E-02  0.9812522E-01
         -2   -1    0    0    0  501 -0.00000000000E+00  0.00000000000E+00  0.47557288072E+03  0.47557288072E+03  0.00000000000E+00 0.  1.
          1   -1    0    0  501    0  0.00000000000E+00 -0.00000000000E+00 -0.96125673673E+03  0.96125673673E+03  0.00000000000E+00 0. -1.
        -24    2    1    2    0    0 -0.43510785932E+03  0.31782447278E+03 -0.16718093309E+03  0.56982891240E+03  0.80151608068E+02 0.  0.
    5000000    2    1    2    0    0  0.43510785932E+03 -0.31782447278E+03 -0.31850292293E+03  0.86700070505E+03  0.59992905073E+03 0.  0.
        -24    2    4    4    0    0  0.52014925798E+03 -0.13748246893E+03 -0.87516877474E+02  0.55086095375E+03  0.79573278704E+02 0.  0.
         24    2    4    4    0    0 -0.85041398657E+02 -0.18034200385E+03 -0.23098604546E+03  0.31613975130E+03  0.82671103305E+02 0.  0.
         11    1    3    3    0    0 -0.95328493944E+02  0.11329229164E+03 -0.50317786318E+02  0.15637948946E+03  0.00000000000E+00 0. -1.
        -12    1    3    3    0    0 -0.33977936538E+03  0.20453218114E+03 -0.11686314677E+03  0.41344942294E+03  0.00000000000E+00 0.  1.
         11    1    5    5    0    0  0.17124105691E+03 -0.81202478861E+02 -0.45926445370E+02  0.19500405260E+03  0.00000000000E+00 0. -1.
        -12    1    5    5    0    0  0.34890820107E+03 -0.56279990067E+02 -0.41590432104E+02  0.35585690115E+03  0.00000000000E+00 0.  1.
          4    1    6    6  502    0 -0.19046364710E+02 -0.10250009026E+03 -0.70148430845E+02  0.12565760965E+03  0.00000000000E+00 0. -1.
         -1    1    6    6    0  502 -0.65995033947E+02 -0.77841913587E+02 -0.16083761461E+03  0.19048214166E+03  0.00000000000E+00 0.  1.
<mgrwt>
<rscale>  0 0.64694838E+03</rscale>
<asrwt>0</asrwt>
<pdfrwt beam="1">  1        1 0.14788565E+00 0.64694838E+03</pdfrwt>
<pdfrwt beam="2">  1       -2 0.73165059E-01 0.64694838E+03</pdfrwt>
<totfact> 0.24824507E+01</totfact>
</mgrwt>
</event>
<event>
12    3  0.2212098E-007  0.5090343E+03  0.7818608E-02  0.1011447E+00
          1   -1    0    0  501    0  0.00000000000E+00  0.00000000000E+00  0.13585236505E+04  0.13585236505E+04  0.00000000000E+00 0. -1.
         -2   -1    0    0    0  501 -0.00000000000E+00 -0.00000000000E+00 -0.41502685855E+03  0.41502685855E+03  0.00000000000E+00 0.  1.
        -24    2    1    2    0    0 -0.42316056473E+03 -0.14466619987E+03  0.91873340029E+03  0.10248055472E+04  0.78499527627E+02 0.  0.
    5000000    2    1    2    0    0  0.42316056473E+03  0.14466619987E+03  0.24763391647E+02  0.74874496183E+03  0.60001051605E+03 0.  0.
        -24    2    4    4    0    0  0.35410884433E+03 -0.40669125191E+02  0.24696266162E+03  0.44069212274E+03  0.78561691889E+02 0.  0.
         24    2    4    4    0    0  0.69051720403E+02  0.18533532506E+03 -0.22219926997E+03  0.30805283910E+03  0.80041947102E+02 0.  0.
         11    1    3    3    0    0 -0.23542948457E+03 -0.10343231666E+03  0.45169793721E+03  0.51976563258E+03  0.00000000000E+00 0. -1.
        -12    1    3    3    0    0 -0.18773108016E+03 -0.41233883208E+02  0.46703546308E+03  0.50503991462E+03  0.00000000000E+00 0.  1.
         13    1    5    5    0    0  0.31316877460E+03 -0.51358164185E+02  0.19051437628E+03  0.37014601170E+03  0.00000000000E+00 0. -1.
        -14    1    5    5    0    0  0.40940069734E+02  0.10689038994E+02  0.56448285337E+02  0.70546111034E+02  0.00000000000E+00 0.  1.
          2    1    6    6  502    0  0.70802525440E+02  0.93922325225E+02 -0.93877213278E+02  0.15049030519E+03  0.00000000000E+00 0. -1.
         -1    1    6    6    0  502 -0.17508050369E+01  0.91412999833E+02 -0.12832205669E+03  0.15756253390E+03  0.00000000000E+00 0.  1.
<mgrwt>
<rscale>  0 0.50903427E+03</rscale>
<asrwt>0</asrwt>
<pdfrwt beam="1">  1        1 0.20900364E+00 0.50903427E+03</pdfrwt>
<pdfrwt beam="2">  1       -2 0.63850286E-01 0.50903427E+03</pdfrwt>
<totfact> 0.17431754E+01</totfact>
</mgrwt>
</event>
<event>
12    3  0.2212098E-007  0.7721837E+03  0.7818608E-02  0.9601176E-01
         -2   -1    0    0    0  501 -0.00000000000E+00  0.00000000000E+00  0.20305077595E+04  0.20305077595E+04  0.00000000000E+00 0.  1.
          1   -1    0    0  501    0  0.00000000000E+00 -0.00000000000E+00 -0.30665643050E+03  0.30665643050E+03  0.00000000000E+00 0. -1.
        -24    2    1    2    0    0 -0.45086274402E+03  0.49763398451E+03  0.77960986811E+03  0.10321752001E+04  0.81714752664E+02 0.  0.
    5000000    2    1    2    0    0  0.45086274402E+03 -0.49763398451E+03  0.94424146093E+03  0.13049889899E+04  0.60040613822E+03 0.  0.
        -24    2    4    4    0    0  0.24741451090E+03  0.69715155699E+02  0.16119036113E+03  0.31365492887E+03  0.79516908560E+02 0.  0.
         24    2    4    4    0    0  0.20344823312E+03 -0.56734914021E+03  0.78305109979E+03  0.99133406106E+03  0.79359720669E+02 0.  0.
         13    1    5    5    0    0  0.13735511806E+03  0.76749786130E+02  0.78664087336E+02  0.17591190058E+03  0.00000000000E+00 0. -1.
        -14    1    5    5    0    0  0.11005939284E+03 -0.70346304314E+01  0.82526273797E+02  0.13774302830E+03  0.00000000000E+00 0.  1.
         13    1    3    3    0    0 -0.23363843910E+03  0.27169517056E+03  0.47607792619E+03  0.59586523454E+03  0.00000000000E+00 0. -1.
        -14    1    3    3    0    0 -0.21722430491E+03  0.22593881396E+03  0.30353194193E+03  0.43630996558E+03  0.00000000000E+00 0.  1.
          4    1    6    6  502    0  0.14157114011E+03 -0.45747157282E+03  0.65732339505E+03  0.81326297919E+03  0.00000000000E+00 0. -1.
         -3    1    6    6    0  502  0.61877093006E+02 -0.10987756739E+03  0.12572770475E+03  0.17807108186E+03  0.00000000000E+00 0.  1.
<mgrwt>
<rscale>  0 0.77218366E+03</rscale>
<asrwt>0</asrwt>
<pdfrwt beam="1">  1        1 0.47177914E-01 0.77218366E+03</pdfrwt>
<pdfrwt beam="2">  1       -2 0.31238580E+00 0.77218366E+03</pdfrwt>
<totfact> 0.20735502E+00</totfact>
</mgrwt>
</event>
<event>
12    3  0.2212098E-007  0.7437932E+03  0.7818608E-02  0.9645138E-01
          1   -1    0    0  501    0  0.00000000000E+00  0.00000000000E+00  0.64079997736E+03  0.64079997736E+03  0.00000000000E+00 0. -1.
         -2   -1    0    0    0  501 -0.00000000000E+00 -0.00000000000E+00 -0.91969637631E+03  0.91969637631E+03  0.00000000000E+00 0.  1.
        -24    2    1    2    0    0  0.38232070361E+03 -0.51328667662E+03 -0.15107840212E+02  0.64445205863E+03  0.73877440655E+02 0.  0.
    5000000    2    1    2    0    0 -0.38232070361E+03  0.51328667662E+03 -0.26378855874E+03  0.91604429504E+03  0.59993367463E+03 0.  0.
        -24    2    4    4    0    0 -0.84291060532E+02  0.53382122661E+03 -0.69384127601E+02  0.55060074214E+03  0.79227111584E+02 0.  0.
         24    2    4    4    0    0 -0.29802964307E+03 -0.20534549995E+02 -0.19440443114E+03  0.36544355290E+03  0.80700505682E+02 0.  0.
         11    1    5    5    0    0 -0.43822389969E+02  0.45405297523E+03 -0.67535606325E+02  0.46113508248E+03  0.00000000000E+00 0. -1.
        -12    1    5    5    0    0 -0.40468670563E+02  0.79768251388E+02 -0.18485212763E+01  0.89465659655E+02  0.00000000000E+00 0.  1.
         11    1    3    3    0    0  0.17102411419E+03 -0.26286657240E+03  0.23749716541E+02  0.31450299133E+03  0.00000000000E+00 0. -1.
        -12    1    3    3    0    0  0.21129658942E+03 -0.25042010422E+03 -0.38857556753E+02  0.32994906730E+03  0.00000000000E+00 0.  1.
          4    1    6    6  502    0 -0.25790463305E+03 -0.29555187400E+02 -0.19440485401E+03  0.32431706109E+03  0.00000000000E+00 0. -1.
         -3    1    6    6    0  502 -0.40125010020E+02  0.90206374042E+01  0.42287452985E-03  0.41126491808E+02  0.00000000000E+00 0.  1.
<mgrwt>
<rscale>  0 0.74379320E+03</rscale>
<asrwt>0</asrwt>
<pdfrwt beam="1">  1        1 0.98584612E-01 0.74379320E+03</pdfrwt>
<pdfrwt beam="2">  1       -2 0.14149175E+00 0.74379320E+03</pdfrwt>
<totfact> 0.97189797E+00</totfact>
</mgrwt>
</event>
<event>
12    3  0.2212098E-007  0.8484127E+03  0.7818608E-02  0.9492470E-01
          1   -1    0    0  501    0  0.00000000000E+00  0.00000000000E+00  0.57411547767E+03  0.57411547767E+03  0.00000000000E+00 0. -1.
         -2   -1    0    0    0  501 -0.00000000000E+00 -0.00000000000E+00 -0.14222088186E+04  0.14222088186E+04  0.00000000000E+00 0.  1.
        -24    2    1    2    0    0  0.77319985171E+03  0.15468030782E+03 -0.53994539310E+03  0.95875983960E+03  0.76911599835E+02 0.  0.
    5000000    2    1    2    0    0 -0.77319985171E+03 -0.15468030782E+03 -0.30814794785E+03  0.10375644567E+04  0.59985067785E+03 0.  0.
        -24    2    4    4    0    0 -0.24914851186E+03 -0.26145242044E+03 -0.33007289705E+03  0.49566664782E+03  0.79403773748E+02 0.  0.
         24    2    4    4    0    0 -0.52405133985E+03  0.10677211262E+03  0.21924949199E+02  0.54189780887E+03  0.84512963651E+02 0.  0.
         11    1    5    5    0    0 -0.90110217829E+02 -0.62208574307E+02 -0.13968006915E+03  0.17748318172E+03  0.00000000000E+00 0. -1.
        -12    1    5    5    0    0 -0.15903829403E+03 -0.19924384613E+03 -0.19039282790E+03  0.31818346611E+03  0.00000000000E+00 0.  1.
         11    1    3    3    0    0  0.50255098708E+03  0.64224151522E+02 -0.35712164169E+03  0.61985329169E+03  0.00000000000E+00 0. -1.
        -12    1    3    3    0    0  0.27064886463E+03  0.90456156299E+02 -0.18282375140E+03  0.33890654790E+03  0.00000000000E+00 0.  1.
          2    1    6    6  502    0 -0.24349677977E+03  0.89077006671E+02  0.27480788548E+02  0.26073087392E+03  0.00000000000E+00 0. -1.
         -1    1    6    6    0  502 -0.28055456008E+03  0.17695105947E+02 -0.55558393490E+01  0.28116693495E+03  0.00000000000E+00 0.  1.
<mgrwt>
<rscale>  0 0.84841268E+03</rscale>
<asrwt>0</asrwt>
<pdfrwt beam="1">  1        1 0.88325460E-01 0.84841268E+03</pdfrwt>
<pdfrwt beam="2">  1       -2 0.21880135E+00 0.84841268E+03</pdfrwt>
<totfact> 0.32662000E+00</totfact>
</mgrwt>
</event>
<event>
12    3  0.2212098E-007  0.7009416E+03  0.7818608E-02  0.9715623E-01
          1   -1    0    0  501    0  0.00000000000E+00  0.00000000000E+00  0.19875861766E+04  0.19875861766E+04  0.00000000000E+00 0. -1.
         -2   -1    0    0    0  501 -0.00000000000E+00 -0.00000000000E+00 -0.35184173295E+03  0.35184173295E+03  0.00000000000E+00 0.  1.
        -24    2    1    2    0    0 -0.64465191624E+03  0.18304463170E+03  0.11064775685E+04  0.12958857376E+04  0.77109046441E+02 0.  0.
    5000000    2    1    2    0    0  0.64465191624E+03 -0.18304463170E+03  0.52926687515E+03  0.10435421719E+04  0.59981281177E+03 0.  0.
        -24    2    4    4    0    0  0.65354605495E+03 -0.16598021062E+03  0.19763332144E+03  0.70719893847E+03  0.79997078493E+02 0.  0.
         24    2    4    4    0    0 -0.88941387124E+01 -0.17064421086E+02  0.33163355371E+03  0.33634323346E+03  0.52684500372E+02 0.  0.
         11    1    5    5    0    0  0.76322687447E+02  0.30052898393E+01  0.92709957575E+01  0.76942418395E+02  0.00000000000E+00 0. -1.
        -12    1    5    5    0    0  0.57722336751E+03 -0.16898550046E+03  0.18836232568E+03  0.63025652007E+03  0.00000000000E+00 0.  1.
         13    1    3    3    0    0 -0.43122701933E+03  0.10307385689E+03  0.78944799761E+03  0.90543310250E+03  0.00000000000E+00 0. -1.
        -14    1    3    3    0    0 -0.21342489691E+03  0.79970774810E+02  0.31702957087E+03  0.39045263509E+03  0.00000000000E+00 0.  1.
          2    1    6    6  502    0 -0.16355674937E+01  0.17432134602E+02  0.17061198680E+03  0.17150803024E+03  0.00000000000E+00 0. -1.
         -1    1    6    6    0  502 -0.72585712187E+01 -0.34496555688E+02  0.16102156691E+03  0.16483520322E+03  0.00000000000E+00 0.  1.
<mgrwt>
<rscale>  0 0.70094162E+03</rscale>
<asrwt>0</asrwt>
<pdfrwt beam="1">  1        1 0.30578248E+00 0.70094162E+03</pdfrwt>
<pdfrwt beam="2">  1       -2 0.54129499E-01 0.70094162E+03</pdfrwt>
<totfact> 0.89980075E+00</totfact>
</mgrwt>
</event>
<event>
12    3  0.2212098E-007  0.4296542E+03  0.7818608E-02  0.1033969E+00
          1   -1    0    0  501    0  0.00000000000E+00  0.00000000000E+00  0.16981988740E+04  0.16981988740E+04  0.00000000000E+00 0. -1.
         -2   -1    0    0    0  501 -0.00000000000E+00 -0.00000000000E+00 -0.36114327611E+03  0.36114327611E+03  0.00000000000E+00 0.  1.
        -24    2    1    2    0    0  0.12081678399E+03  0.21920941119E+03  0.13825665408E+04  0.14073809757E+04  0.81126505586E+02 0.  0.
    5000000    2    1    2    0    0 -0.12081678399E+03 -0.21920941119E+03 -0.45510942845E+02  0.65196117442E+03  0.60027715747E+03 0.  0.
        -24    2    4    4    0    0  0.18919533983E+03 -0.20638833582E+03  0.89066311271E+02  0.30453926553E+03  0.80126990928E+02 0.  0.
         24    2    4    4    0    0 -0.31001212382E+03 -0.12821075372E+02 -0.13457725412E+03  0.34742190888E+03  0.79492443409E+02 0.  0.
         13    1    3    3    0    0  0.62140210526E+02  0.16131408905E+03  0.76193721621E+03  0.78130145433E+03  0.00000000000E+00 0. -1.
        -14    1    3    3    0    0  0.58676573465E+02  0.57895322138E+02  0.62062932456E+03  0.62607952139E+03  0.00000000000E+00 0.  1.
         13    1    5    5    0    0  0.19469093021E+03 -0.18950530935E+03  0.91348950915E+02  0.28663818903E+03  0.00000000000E+00 0. -1.
        -14    1    5    5    0    0 -0.54955903796E+01 -0.16883026467E+02 -0.22826396443E+01  0.17901076505E+02  0.00000000000E+00 0.  1.
          2    1    6    6  502    0 -0.21153814993E+03  0.15472775009E+02 -0.12066309425E+03  0.24402331437E+03  0.00000000000E+00 0. -1.
         -3    1    6    6    0  502 -0.98473973887E+02 -0.28293850381E+02 -0.13914159867E+02  0.10339859451E+03  0.00000000000E+00 0.  1.
<mgrwt>
<rscale>  0 0.42965416E+03</rscale>
<asrwt>0</asrwt>
<pdfrwt beam="1">  1        1 0.26126136E+00 0.42965416E+03</pdfrwt>
<pdfrwt beam="2">  1       -2 0.55560505E-01 0.42965416E+03</pdfrwt>
<totfact> 0.13991617E+01</totfact>
</mgrwt>
</event>
<event>
12    3  0.2212098E-007  0.1007499E+04  0.7818608E-02  0.9300358E-01
         -2   -1    0    0    0  501 -0.00000000000E+00  0.00000000000E+00  0.20913444848E+04  0.20913444848E+04  0.00000000000E+00 0.  1.
          1   -1    0    0  501    0  0.00000000000E+00 -0.00000000000E+00 -0.52788198628E+03  0.52788198628E+03  0.00000000000E+00 0. -1.
        -24    2    1    2    0    0 -0.25619509249E+03 -0.89409311991E+03  0.40669940278E+03  0.10182674699E+04  0.80161110196E+02 0.  0.
    5000000    2    1    2    0    0  0.25619509249E+03  0.89409311991E+03  0.11567630957E+04  0.16009590011E+04  0.59994202319E+03 0.  0.
        -24    2    4    4    0    0 -0.13046351665E+03  0.34208656308E+02  0.20950634049E+03  0.26198575056E+03  0.80948535817E+02 0.  0.
         24    2    4    4    0    0  0.38665860914E+03  0.85988446360E+03  0.94725675522E+03  0.13389732506E+04  0.81534254416E+02 0.  0.
         11    1    5    5    0    0 -0.12876213396E+03  0.40496480842E+02  0.14868088929E+03  0.20081249698E+03  0.00000000000E+00 0. -1.
        -12    1    5    5    0    0 -0.17013826835E+01 -0.62878245333E+01  0.60825451199E+02  0.61173253583E+02  0.00000000000E+00 0.  1.
         13    1    3    3    0    0 -0.20310799616E+03 -0.68333648622E+03  0.27466401422E+03  0.76396461450E+03  0.00000000000E+00 0. -1.
        -14    1    3    3    0    0 -0.53087096328E+02 -0.21075663369E+03  0.13203538856E+03  0.25430285542E+03  0.00000000000E+00 0.  1.
          4    1    6    6  502    0  0.15214262623E+03  0.37400142234E+03  0.45910741773E+03  0.61139517797E+03  0.00000000000E+00 0. -1.
         -3    1    6    6    0  502  0.23451598291E+03  0.48588304126E+03  0.48814933749E+03  0.72757807259E+03  0.00000000000E+00 0.  1.
<mgrwt>
<rscale>  0 0.10074989E+04</rscale>
<asrwt>0</asrwt>
<pdfrwt beam="1">  1        1 0.81212615E-01 0.10074989E+04</pdfrwt>
<pdfrwt beam="2">  1       -2 0.32174530E+00 0.10074989E+04</pdfrwt>
<totfact> 0.85088247E-01</totfact>
</mgrwt>
</event>
<event>
12    3  0.2212098E-007  0.6081612E+03  0.7818608E-02  0.9888617E-01
          1   -1    0    0  501    0  0.00000000000E+00  0.00000000000E+00  0.64018518219E+03  0.64018518219E+03  0.00000000000E+00 0. -1.
         -2   -1    0    0    0  501 -0.00000000000E+00 -0.00000000000E+00 -0.16282435961E+04  0.16282435961E+04  0.00000000000E+00 0.  1.
        -24    2    1    2    0    0  0.65961708935E+02 -0.53655483587E+03 -0.12941975309E+04  0.14048244665E+04  0.79639775827E+02 0.  0.
    5000000    2    1    2    0    0 -0.65961708935E+02  0.53655483587E+03  0.30613911691E+03  0.86360431181E+03  0.59987432812E+03 0.  0.
        -24    2    4    4    0    0  0.75872344838E+02  0.49803566135E+03  0.42022494635E+03  0.66095538794E+03  0.80479106779E+02 0.  0.
         24    2    4    4    0    0 -0.14183405377E+03  0.38519174521E+02 -0.11408582944E+03  0.20264892387E+03  0.80314284222E+02 0.  0.
         11    1    3    3    0    0  0.79256438919E+02 -0.40044842608E+03 -0.92320580072E+03  0.10094302727E+04  0.00000000000E+00 0. -1.
        -12    1    3    3    0    0 -0.13294729984E+02 -0.13610640979E+03 -0.37099173014E+03  0.39539419377E+03  0.00000000000E+00 0.  1.
         13    1    5    5    0    0  0.32696964051E+02  0.30836581454E+03  0.20982865339E+03  0.37441505154E+03  0.00000000000E+00 0. -1.
        -14    1    5    5    0    0  0.43175380787E+02  0.18966984681E+03  0.21039629296E+03  0.28654033641E+03  0.00000000000E+00 0.  1.
          2    1    6    6  502    0 -0.12679582719E+03  0.15285572309E+01 -0.94680802728E+02  0.15825287575E+03  0.00000000000E+00 0. -1.
         -1    1    6    6    0  502 -0.15038226587E+02  0.36990617290E+02 -0.19405026711E+02  0.44396048113E+02  0.00000000000E+00 0.  1.
<mgrwt>
<rscale>  0 0.60816122E+03</rscale>
<asrwt>0</asrwt>
<pdfrwt beam="1">  1        1 0.98490027E-01 0.60816122E+03</pdfrwt>
<pdfrwt beam="2">  1       -2 0.25049902E+00 0.60816122E+03</pdfrwt>
<totfact> 0.18498757E+00</totfact>
</mgrwt>
</event>
<event>
12    3  0.2212098E-007  0.1139352E+04  0.7818608E-02  0.9167663E-01
          1   -1    0    0  501    0  0.00000000000E+00  0.00000000000E+00  0.61360778056E+03  0.61360778056E+03  0.00000000000E+00 0. -1.
         -2   -1    0    0    0  501 -0.00000000000E+00 -0.00000000000E+00 -0.24538080050E+04  0.24538080050E+04  0.00000000000E+00 0.  1.
        -24    2    1    2    0    0 -0.11344356908E+04  0.35449435047E+02 -0.11151079900E+04  0.15931377209E+04  0.80130952721E+02 0.  0.
    5000000    2    1    2    0    0  0.11344356908E+04 -0.35449435047E+02 -0.72509223451E+03  0.14742780647E+04  0.59961326249E+03 0.  0.
        -24    2    4    4    0    0  0.87437114833E+03 -0.17317925300E+02 -0.80391523373E+03  0.11906237241E+04  0.80500519920E+02 0.  0.
         24    2    4    4    0    0  0.26006454243E+03 -0.18131509747E+02  0.78822999217E+02  0.28365434063E+03  0.79274219488E+02 0.  0.
         11    1    3    3    0    0 -0.69195482928E+03 -0.15633543480E+02 -0.69515011866E+03  0.98095850112E+03  0.00000000000E+00 0. -1.
        -12    1    3    3    0    0 -0.44248086148E+03  0.51082978527E+02 -0.41995787132E+03  0.61217921980E+03  0.00000000000E+00 0.  1.
         13    1    5    5    0    0  0.39265239891E+03  0.20681901753E+02 -0.39902955296E+03  0.56020374112E+03  0.00000000000E+00 0. -1.
        -14    1    5    5    0    0  0.48171874942E+03 -0.37999827053E+02 -0.40488568076E+03  0.63041998294E+03  0.00000000000E+00 0.  1.
          4    1    6    6  502    0  0.48163138437E+02  0.14598803201E+02  0.43149988912E+02  0.66292793742E+02  0.00000000000E+00 0. -1.
         -3    1    6    6    0  502  0.21190140399E+03 -0.32730312948E+02  0.35673010306E+02  0.21736154688E+03  0.00000000000E+00 0.  1.
<mgrwt>
<rscale>  0 0.11393522E+04</rscale>
<asrwt>0</asrwt>
<pdfrwt beam="1">  1        1 0.94401197E-01 0.11393522E+04</pdfrwt>
<pdfrwt beam="2">  1       -2 0.37750892E+00 0.11393522E+04</pdfrwt>
<totfact> 0.30179057E-01</totfact>
</mgrwt>
</event>
<event>
12    3  0.2212098E-007  0.5652022E+03  0.7818608E-02  0.9980352E-01
          1   -1    0    0  501    0  0.00000000000E+00  0.00000000000E+00  0.10163006229E+04  0.10163006229E+04  0.00000000000E+00 0. -1.
         -2   -1    0    0    0  501 -0.00000000000E+00 -0.00000000000E+00 -0.46603815557E+03  0.46603815557E+03  0.00000000000E+00 0.  1.
        -24    2    1    2    0    0 -0.51513241495E+03  0.18967855637E+02  0.44295861828E+03  0.68395848478E+03  0.76587772645E+02 0.  0.
    5000000    2    1    2    0    0  0.51513241495E+03 -0.18967855637E+02  0.10730384900E+03  0.79838029364E+03  0.60014647611E+03 0.  0.
        -24    2    4    4    0    0  0.36063131880E+03 -0.16423684305E+03  0.29870899599E+03  0.50182920684E+03  0.74677974275E+02 0.  0.
         24    2    4    4    0    0  0.15450109615E+03  0.14526898742E+03 -0.19140514698E+03  0.29655108680E+03  0.79579830202E+02 0.  0.
         11    1    3    3    0    0 -0.29392184272E+03  0.48363164812E+02  0.24625328642E+03  0.38648379838E+03  0.00000000000E+00 0. -1.
        -12    1    3    3    0    0 -0.22121057223E+03 -0.29395309175E+02  0.19670533186E+03  0.29747468640E+03  0.00000000000E+00 0.  1.
         13    1    5    5    0    0  0.20528280754E+03 -0.80561972775E+02  0.20923182473E+03  0.30398884685E+03  0.00000000000E+00 0. -1.
        -14    1    5    5    0    0  0.15534851125E+03 -0.83674870278E+02  0.89477171260E+02  0.19784035999E+03  0.00000000000E+00 0.  1.
          2    1    6    6  502    0  0.99629698586E+02  0.10131958054E+03 -0.75289006228E+02  0.16081097195E+03  0.00000000000E+00 0. -1.
         -1    1    6    6    0  502  0.54871397567E+02  0.43949406872E+02 -0.11611614076E+03  0.13574011485E+03  0.00000000000E+00 0.  1.
<mgrwt>
<rscale>  0 0.56520219E+03</rscale>
<asrwt>0</asrwt>
<pdfrwt beam="1">  1        1 0.15635394E+00 0.56520219E+03</pdfrwt>
<pdfrwt beam="2">  1       -2 0.71698178E-01 0.56520219E+03</pdfrwt>
<totfact> 0.23769751E+01</totfact>
</mgrwt>
</event>
<event>
12    3  0.2212098E-007  0.6556738E+03  0.7818608E-02  0.9796191E-01
         -2   -1    0    0    0  501 -0.00000000000E+00  0.00000000000E+00  0.11660717742E+04  0.11660717742E+04  0.00000000000E+00 0.  1.
          1   -1    0    0  501    0  0.00000000000E+00 -0.00000000000E+00 -0.43570748911E+03  0.43570748911E+03  0.00000000000E+00 0. -1.
        -24    2    1    2    0    0 -0.57061618054E+03 -0.89733815486E+02  0.39445183753E+03  0.70397822954E+03  0.79612262807E+02 0.  0.
    5000000    2    1    2    0    0  0.57061618054E+03  0.89733815486E+02  0.33591244760E+03  0.89780103381E+03  0.59962866902E+03 0.  0.
        -24    2    4    4    0    0  0.33375546692E+03  0.26893731391E+03 -0.87869581168E+01  0.43591870831E+03  0.78917166132E+02 0.  0.
         24    2    4    4    0    0  0.23686071362E+03 -0.17920349843E+03  0.34469940572E+03  0.46188232550E+03  0.79377016803E+02 0.  0.
         11    1    3    3    0    0 -0.37545912033E+02 -0.91506212618E+01  0.53821268694E+02  0.66258270003E+02  0.00000000000E+00 0. -1.
        -12    1    3    3    0    0 -0.53307026851E+03 -0.80583194224E+02  0.34063056883E+03  0.63771995953E+03  0.00000000000E+00 0.  1.
         13    1    5    5    0    0  0.90864367942E+02  0.62336048710E+02 -0.35907481529E+02  0.11589419123E+03  0.00000000000E+00 0. -1.
        -14    1    5    5    0    0  0.24289109898E+03  0.20660126520E+03  0.27120523412E+02  0.32002451709E+03  0.00000000000E+00 0.  1.
          2    1    6    6  502    0  0.36571007213E+02 -0.63296592457E+02  0.57200168592E+02  0.92821099283E+02  0.00000000000E+00 0. -1.
         -1    1    6    6    0  502  0.20028970641E+03 -0.11590690597E+03  0.28749923713E+03  0.36906122621E+03  0.00000000000E+00 0.  1.
<mgrwt>
<rscale>  0 0.65567382E+03</rscale>
<asrwt>0</asrwt>
<pdfrwt beam="1">  1        1 0.67031922E-01 0.65567382E+03</pdfrwt>
<pdfrwt beam="2">  1       -2 0.17939566E+00 0.65567382E+03</pdfrwt>
<totfact> 0.88424928E+00</totfact>
</mgrwt>
</event>
<event>
12    3  0.2212098E-007  0.6504517E+03  0.7818608E-02  0.9805932E-01
          1   -1    0    0  501    0  0.00000000000E+00  0.00000000000E+00  0.10864787411E+04  0.10864787411E+04  0.00000000000E+00 0. -1.
         -2   -1    0    0    0  501 -0.00000000000E+00 -0.00000000000E+00 -0.12026074637E+04  0.12026074637E+04  0.00000000000E+00 0.  1.
        -24    2    1    2    0    0 -0.60732017307E+01 -0.52443716928E+03  0.87132716572E+03  0.10201195588E+04  0.79759991575E+02 0.  0.
    5000000    2    1    2    0    0  0.60732017307E+01  0.52443716928E+03 -0.98745588837E+03  0.12689666460E+04  0.60011331334E+03 0.  0.
        -24    2    4    4    0    0 -0.17219904787E+03  0.55672715098E+03 -0.64131273082E+03  0.87006047769E+03  0.78266106305E+02 0.  0.
         24    2    4    4    0    0  0.17827224960E+03 -0.32289981697E+02 -0.34614315755E+03  0.39890616830E+03  0.80544445461E+02 0.  0.
         13    1    3    3    0    0  0.35583186749E+02 -0.31151953075E+03  0.51330400028E+03  0.60149112871E+03  0.00000000000E+00 0. -1.
        -14    1    3    3    0    0 -0.41656388479E+02 -0.21291763853E+03  0.35802316545E+03  0.41862843011E+03  0.00000000000E+00 0.  1.
         13    1    5    5    0    0 -0.35559355409E+02  0.22394050884E+03 -0.27845632965E+03  0.35909851960E+03  0.00000000000E+00 0. -1.
        -14    1    5    5    0    0 -0.13663969246E+03  0.33278664213E+03 -0.36285640117E+03  0.51096195808E+03  0.00000000000E+00 0.  1.
          4    1    6    6  502    0  0.88692451527E+02 -0.79952085238E-02 -0.93307072413E+02  0.12873445842E+03  0.00000000000E+00 0. -1.
         -3    1    6    6    0  502  0.89579798076E+02 -0.32281986488E+02 -0.25283608513E+03  0.27017170988E+03  0.00000000000E+00 0.  1.
<mgrwt>
<rscale>  0 0.65045169E+03</rscale>
<asrwt>0</asrwt>
<pdfrwt beam="1">  1        1 0.16715058E+00 0.65045169E+03</pdfrwt>
<pdfrwt beam="2">  1       -2 0.18501653E+00 0.65045169E+03</pdfrwt>
<totfact> 0.19997746E+00</totfact>
</mgrwt>
</event>
<event>
12    3  0.2212098E-007  0.6122628E+03  0.7818608E-02  0.9880286E-01
          1   -1    0    0  501    0  0.00000000000E+00  0.00000000000E+00  0.29917873347E+03  0.29917873347E+03  0.00000000000E+00 0. -1.
         -2   -1    0    0    0  501 -0.00000000000E+00 -0.00000000000E+00 -0.19121371181E+04  0.19121371181E+04  0.00000000000E+00 0.  1.
        -24    2    1    2    0    0 -0.87915076252E+02 -0.60209373112E+03 -0.41947276253E+03  0.74343143503E+03  0.80541780438E+02 0.  0.
    5000000    2    1    2    0    0  0.87915076252E+02  0.60209373112E+03 -0.11934856221E+04  0.14678844165E+04  0.60002567317E+03 0.  0.
        -24    2    4    4    0    0  0.33968886021E+02  0.32036400129E+03 -0.11101646638E+04  0.11588210017E+04  0.81323765445E+02 0.  0.
         24    2    4    4    0    0  0.53946190231E+02  0.28172972983E+03 -0.83320958323E+02  0.30906341480E+03  0.79347212714E+02 0.  0.
         13    1    5    5    0    0  0.34571773095E+02  0.14890025244E+03 -0.39903414050E+03  0.42731105527E+03  0.00000000000E+00 0. -1.
        -14    1    5    5    0    0 -0.60288707367E+00  0.17146374885E+03 -0.71113052325E+03  0.73150994644E+03  0.00000000000E+00 0.  1.
         13    1    3    3    0    0 -0.53323182052E+02 -0.17334627203E+03 -0.95762647392E+02  0.20509211688E+03  0.00000000000E+00 0. -1.
        -14    1    3    3    0    0 -0.34591894200E+02 -0.42874745909E+03 -0.32371011514E+03  0.53833931815E+03  0.00000000000E+00 0.  1.
          2    1    6    6  502    0  0.50711721315E+02  0.18251163847E+03 -0.89694226957E+02  0.20958824205E+03  0.00000000000E+00 0. -1.
         -1    1    6    6    0  502  0.32344689156E+01  0.99218091351E+02  0.63732686338E+01  0.99475172750E+02  0.00000000000E+00 0.  1.
<mgrwt>
<rscale>  0 0.61226276E+03</rscale>
<asrwt>0</asrwt>
<pdfrwt beam="1">  1        1 0.46027499E-01 0.61226276E+03</pdfrwt>
<pdfrwt beam="2">  1       -2 0.29417493E+00 0.61226276E+03</pdfrwt>
<totfact> 0.28257607E+00</totfact>
</mgrwt>
</event>
<event>
12    3  0.2212098E-007  0.7026022E+03  0.7818608E-02  0.9712792E-01
         -2   -1    0    0    0  501 -0.00000000000E+00  0.00000000000E+00  0.16140090553E+04  0.16140090553E+04  0.00000000000E+00 0.  1.
          1   -1    0    0  501    0  0.00000000000E+00 -0.00000000000E+00 -0.82889087386E+03  0.82889087386E+03  0.00000000000E+00 0. -1.
        -24    2    1    2    0    0  0.57281839936E+03 -0.17993957650E+03  0.13114331424E+04  0.14441448022E+04  0.72098217577E+02 0.  0.
    5000000    2    1    2    0    0 -0.57281839936E+03  0.17993957650E+03 -0.52631496094E+03  0.99875512695E+03  0.60000432970E+03 0.  0.
        -24    2    4    4    0    0  0.10296305401E+03  0.13710568653E+02 -0.16080585957E+03  0.20892944688E+03  0.83687628226E+02 0.  0.
         24    2    4    4    0    0 -0.67578145337E+03  0.16622900784E+03 -0.36550910137E+03  0.78982568007E+03  0.76909335913E+02 0.  0.
         11    1    5    5    0    0  0.50068106199E+02 -0.92400628795E+00 -0.14255117386E+03  0.15109105273E+03  0.00000000000E+00 0. -1.
        -12    1    5    5    0    0  0.52894947807E+02  0.14634574941E+02 -0.18254685706E+02  0.57838394146E+02  0.00000000000E+00 0.  1.
         11    1    3    3    0    0  0.26531461760E+03 -0.48164658252E+02  0.61542502861E+03  0.67190746867E+03  0.00000000000E+00 0. -1.
        -12    1    3    3    0    0  0.30750378176E+03 -0.13177491824E+03  0.69600811379E+03  0.77223733356E+03  0.00000000000E+00 0.  1.
          2    1    6    6  502    0 -0.40177124885E+03  0.92297848377E+02 -0.25811804771E+03  0.48637840800E+03  0.00000000000E+00 0. -1.
         -1    1    6    6    0  502 -0.27401020452E+03  0.73931159467E+02 -0.10739105367E+03  0.30344727207E+03  0.00000000000E+00 0.  1.
<mgrwt>
<rscale>  0 0.70260220E+03</rscale>
<asrwt>0</asrwt>
<pdfrwt beam="1">  1        1 0.12752167E+00 0.70260220E+03</pdfrwt>
<pdfrwt beam="2">  1       -2 0.24830908E+00 0.70260220E+03</pdfrwt>
<totfact> 0.12611483E+00</totfact>
</mgrwt>
</event>
<event>
12    3  0.2212098E-007  0.4502885E+03  0.7818608E-02  0.1027636E+00
          1   -1    0    0  501    0  0.00000000000E+00  0.00000000000E+00  0.30799314552E+03  0.30799314552E+03  0.00000000000E+00 0. -1.
         -2   -1    0    0    0  501 -0.00000000000E+00 -0.00000000000E+00 -0.97185843949E+03  0.97185843949E+03  0.00000000000E+00 0.  1.
        -24    2    1    2    0    0 -0.77200164942E+02  0.35151356328E+03 -0.10210595713E+03  0.38248972796E+03  0.79693882312E+02 0.  0.
    5000000    2    1    2    0    0  0.77200164942E+02 -0.35151356328E+03 -0.56175933685E+03  0.89736185705E+03  0.60013590070E+03 0.  0.
        -24    2    4    4    0    0  0.22265771302E+03 -0.27615533342E+03 -0.66612898110E+02  0.36998199008E+03  0.81309098164E+02 0.  0.
         24    2    4    4    0    0 -0.14545754807E+03 -0.75358229861E+02 -0.49514643874E+03  0.52737986697E+03  0.78248113017E+02 0.  0.
         13    1    5    5    0    0  0.19739534465E+03 -0.21207673683E+03 -0.28147363630E+02  0.29109060183E+03  0.00000000000E+00 0. -1.
        -14    1    5    5    0    0  0.25262368361E+02 -0.64078596591E+02 -0.38465534480E+02  0.78891388245E+02  0.00000000000E+00 0.  1.
         13    1    3    3    0    0  0.82694263970E+01  0.13778971970E+03 -0.29773811313E+02  0.14121214575E+03  0.00000000000E+00 0. -1.
        -14    1    3    3    0    0 -0.85469591339E+02  0.21372384358E+03 -0.72332145812E+02  0.24127758221E+03  0.00000000000E+00 0.  1.
          2    1    6    6  502    0 -0.14808809947E+02  0.98402293806E+01 -0.11677766174E+03  0.11812346611E+03  0.00000000000E+00 0. -1.
         -1    1    6    6    0  502 -0.13064873813E+03 -0.85198459242E+02 -0.37836877700E+03  0.40925640086E+03  0.00000000000E+00 0.  1.
<mgrwt>
<rscale>  0 0.45028847E+03</rscale>
<asrwt>0</asrwt>
<pdfrwt beam="1">  1        1 0.47383561E-01 0.45028847E+03</pdfrwt>
<pdfrwt beam="2">  1       -2 0.14951668E+00 0.45028847E+03</pdfrwt>
<totfact> 0.23402267E+01</totfact>
</mgrwt>
</event>
<event>
12    3  0.2212098E-007  0.5320995E+03  0.7818608E-02  0.1005724E+00
          1   -1    0    0  501    0  0.00000000000E+00  0.00000000000E+00  0.51074833340E+03  0.51074833340E+03  0.00000000000E+00 0. -1.
         -2   -1    0    0    0  501 -0.00000000000E+00 -0.00000000000E+00 -0.60407211360E+03  0.60407211360E+03  0.00000000000E+00 0.  1.
        -24    2    1    2    0    0 -0.37766713243E+03  0.73181634448E+02 -0.85990799473E+02  0.40211518620E+03  0.79461882959E+02 0.  0.
    5000000    2    1    2    0    0  0.37766713243E+03 -0.73181634448E+02 -0.73329807291E+01  0.71270526080E+03  0.59992249635E+03 0.  0.
        -24    2    4    4    0    0  0.50296603020E+03 -0.14397549252E+03  0.68027353676E+02  0.53340913865E+03  0.78700815474E+02 0.  0.
         24    2    4    4    0    0 -0.12529889778E+03  0.70793858071E+02 -0.75360334405E+02  0.17929612216E+03  0.75870516634E+02 0.  0.
         11    1    5    5    0    0  0.99517277784E+02 -0.57143213629E+02 -0.22626539977E+01  0.11477872209E+03  0.00000000000E+00 0. -1.
        -12    1    5    5    0    0  0.40344875242E+03 -0.86832278890E+02  0.70290007674E+02  0.41863041656E+03  0.00000000000E+00 0.  1.
         13    1    3    3    0    0 -0.13723191841E+03  0.62246027271E+02 -0.49926100426E+02  0.15874439469E+03  0.00000000000E+00 0. -1.
        -14    1    3    3    0    0 -0.24043521402E+03  0.10935607177E+02 -0.36064699047E+02  0.24337079151E+03  0.00000000000E+00 0.  1.
          2    1    6    6  502    0 -0.11717007592E+03  0.59346061581E+02 -0.89838574929E+02  0.15912809702E+03  0.00000000000E+00 0. -1.
         -1    1    6    6    0  502 -0.81288218600E+01  0.11447796490E+02  0.14478240524E+02  0.20168025138E+02  0.00000000000E+00 0.  1.
<mgrwt>
<rscale>  0 0.53209946E+03</rscale>
<asrwt>0</asrwt>
<pdfrwt beam="1">  1        1 0.78576667E-01 0.53209946E+03</pdfrwt>
<pdfrwt beam="2">  1       -2 0.92934171E-01 0.53209946E+03</pdfrwt>
<totfact> 0.38304489E+01</totfact>
</mgrwt>
</event>
<event>
12    3  0.2212098E-007  0.6383146E+03  0.7818608E-02  0.9828957E-01
         -4   -1    0    0    0  501 -0.00000000000E+00  0.00000000000E+00  0.43826789799E+03  0.43826789799E+03  0.00000000000E+00 0.  1.
          1   -1    0    0  501    0  0.00000000000E+00 -0.00000000000E+00 -0.13624448815E+04  0.13624448815E+04  0.00000000000E+00 0. -1.
        -24    2    1    2    0    0 -0.34363949715E+03 -0.40888389125E+03  0.45341209939E+02  0.54156385624E+03  0.77210391433E+02 0.  0.
    5000000    2    1    2    0    0  0.34363949715E+03  0.40888389125E+03 -0.96951819341E+03  0.12591489232E+04  0.60018025871E+03 0.  0.
        -24    2    4    4    0    0  0.22623961723E+03  0.52120632310E+03 -0.89424025389E+03  0.10625316744E+04  0.80420965549E+02 0.  0.
         24    2    4    4    0    0  0.11739987992E+03 -0.11232243185E+03 -0.75277939513E+02  0.19661724884E+03  0.81194296978E+02 0.  0.
         11    1    3    3    0    0 -0.21456624790E+03 -0.19950792807E+03  0.10806386256E+02  0.29318742484E+03  0.00000000000E+00 0. -1.
        -12    1    3    3    0    0 -0.12907324925E+03 -0.20937596318E+03  0.34534823683E+02  0.24837643140E+03  0.00000000000E+00 0.  1.
         11    1    5    5    0    0  0.17554360416E+03  0.45668934719E+03 -0.79815333778E+03  0.93617811735E+03  0.00000000000E+00 0. -1.
        -12    1    5    5    0    0  0.50696013064E+02  0.64516975914E+02 -0.96086916110E+02  0.12635355701E+03  0.00000000000E+00 0.  1.
          2    1    6    6  502    0  0.95941621365E+02 -0.10801822592E+03 -0.90024760426E+02  0.17022687605E+03  0.00000000000E+00 0. -1.
         -1    1    6    6    0  502  0.21458258555E+02 -0.43042059372E+01  0.14746820913E+02  0.26390372790E+02  0.00000000000E+00 0.  1.
<mgrwt>
<rscale>  0 0.63831457E+03</rscale>
<asrwt>0</asrwt>
<pdfrwt beam="1">  1        1 0.20960691E+00 0.63831457E+03</pdfrwt>
<pdfrwt beam="2">  1       -4 0.67425830E-01 0.63831457E+03</pdfrwt>
<totfact> 0.82402934E+00</totfact>
</mgrwt>
</event>
<event>
12    3  0.2212098E-007  0.7860852E+03  0.7818608E-02  0.9580379E-01
         -2   -1    0    0    0  501 -0.00000000000E+00  0.00000000000E+00  0.46754334402E+03  0.46754334402E+03  0.00000000000E+00 0.  1.
          1   -1    0    0  501    0  0.00000000000E+00 -0.00000000000E+00 -0.14687505561E+04  0.14687505561E+04  0.00000000000E+00 0. -1.
        -24    2    1    2    0    0 -0.65031625207E+03 -0.24554455699E+03 -0.22842752482E+03  0.73616931026E+03  0.81010876389E+02 0.  0.
    5000000    2    1    2    0    0  0.65031625207E+03  0.24554455699E+03 -0.77277968730E+03  0.12001245899E+04  0.59992268586E+03 0.  0.
        -24    2    4    4    0    0  0.32291734905E+03  0.39854291876E+03 -0.29751364600E+03  0.59764541947E+03  0.74522516323E+02 0.  0.
         24    2    4    4    0    0  0.32739890302E+03 -0.15299836177E+03 -0.47526604130E+03  0.60247917044E+03  0.80652342764E+02 0.  0.
         11    1    5    5    0    0  0.70136338753E+02  0.83243174230E+02 -0.10012088583E+03  0.14789429958E+03  0.00000000000E+00 0. -1.
        -12    1    5    5    0    0  0.25278101030E+03  0.31529974453E+03 -0.19739276017E+03  0.44975111989E+03  0.00000000000E+00 0.  1.
         11    1    3    3    0    0 -0.27738507837E+03 -0.13700191813E+03 -0.73357235940E+02  0.31795171227E+03  0.00000000000E+00 0. -1.
        -12    1    3    3    0    0 -0.37293117370E+03 -0.10854263886E+03 -0.15507028888E+03  0.41821759798E+03  0.00000000000E+00 0.  1.
          2    1    6    6  502    0  0.19906418571E+03 -0.90243592858E+02 -0.34915654438E+03  0.41192323140E+03  0.00000000000E+00 0. -1.
         -1    1    6    6    0  502  0.12833471731E+03 -0.62754768912E+02 -0.12610949692E+03  0.19055593903E+03  0.00000000000E+00 0.  1.
<mgrwt>
<rscale>  0 0.78608522E+03</rscale>
<asrwt>0</asrwt>
<pdfrwt beam="1">  1        1 0.22596162E+00 0.78608522E+03</pdfrwt>
<pdfrwt beam="2">  1       -2 0.71929746E-01 0.78608522E+03</pdfrwt>
<totfact> 0.10851389E+01</totfact>
</mgrwt>
</event>
<event>
12    3  0.2212098E-007  0.4857132E+03  0.7818608E-02  0.1017577E+00
         -2   -1    0    0    0  501 -0.00000000000E+00  0.00000000000E+00  0.38635840047E+03  0.38635840047E+03  0.00000000000E+00 0.  1.
          1   -1    0    0  501    0  0.00000000000E+00 -0.00000000000E+00 -0.83000824807E+03  0.83000824807E+03  0.00000000000E+00 0. -1.
        -24    2    1    2    0    0  0.26040765135E+03  0.26240446664E+03 -0.33165301884E+03  0.50293885717E+03  0.79281272439E+02 0.  0.
    5000000    2    1    2    0    0 -0.26040765135E+03 -0.26240446664E+03 -0.11199682876E+03  0.71342779137E+03  0.59980636446E+03 0.  0.
        -24    2    4    4    0    0  0.12837252542E+03 -0.12852800310E+03 -0.20426645183E+03  0.28441632189E+03  0.78542395860E+02 0.  0.
         24    2    4    4    0    0 -0.38878017677E+03 -0.13387646354E+03  0.92269623073E+02  0.42901146948E+03  0.80400399642E+02 0.  0.
         11    1    5    5    0    0  0.32135228573E+02 -0.20541268684E+02 -0.97320292555E+02  0.10452681942E+03  0.00000000000E+00 0. -1.
        -12    1    5    5    0    0  0.96237296848E+02 -0.10798673442E+03 -0.10694615928E+03  0.17988950247E+03  0.00000000000E+00 0.  1.
         13    1    3    3    0    0  0.15457597637E+03  0.15994559709E+03 -0.14651989830E+03  0.26635391324E+03  0.00000000000E+00 0. -1.
        -14    1    3    3    0    0  0.10583167498E+03  0.10245886955E+03 -0.18513312054E+03  0.23658494394E+03  0.00000000000E+00 0.  1.
          4    1    6    6  502    0 -0.23750573730E+03 -0.39950397108E+02  0.56847768764E+02  0.24746045803E+03  0.00000000000E+00 0. -1.
         -1    1    6    6    0  502 -0.15127443948E+03 -0.93926066429E+02  0.35421854308E+02  0.18155101144E+03  0.00000000000E+00 0.  1.
<mgrwt>
<rscale>  0 0.48571320E+03</rscale>
<asrwt>0</asrwt>
<pdfrwt beam="1">  1        1 0.12769358E+00 0.48571320E+03</pdfrwt>
<pdfrwt beam="2">  1       -2 0.59439754E-01 0.48571320E+03</pdfrwt>
<totfact> 0.50498309E+01</totfact>
</mgrwt>
</event>
<event>
12    3  0.2212098E-007  0.6993565E+03  0.7818608E-02  0.9718333E-01
         -2   -1    0    0    0  501 -0.00000000000E+00  0.00000000000E+00  0.13941567672E+04  0.13941567672E+04  0.00000000000E+00 0.  1.
          1   -1    0    0  501    0  0.00000000000E+00 -0.00000000000E+00 -0.39776773134E+03  0.39776773134E+03  0.00000000000E+00 0. -1.
        -24    2    1    2    0    0  0.57947619992E+03  0.20841007682E+02  0.68553870034E+03  0.90142512139E+03  0.79855656867E+02 0.  0.
    5000000    2    1    2    0    0 -0.57947619992E+03 -0.20841007682E+02  0.31085033553E+03  0.89049937717E+03  0.60011181937E+03 0.  0.
        -24    2    4    4    0    0  0.36960673435E+02 -0.17145091122E+03  0.52138281564E+02  0.20040229825E+03  0.81738451179E+02 0.  0.
         24    2    4    4    0    0 -0.61643687336E+03  0.15060990354E+03  0.25871205397E+03  0.69009707891E+03  0.81389738746E+02 0.  0.
         11    1    3    3    0    0  0.20323425303E+03 -0.27816396525E+02  0.21811072315E+03  0.29941643421E+03  0.00000000000E+00 0. -1.
        -12    1    3    3    0    0  0.37624194689E+03  0.48657404207E+02  0.46742797718E+03  0.60200868718E+03  0.00000000000E+00 0.  1.
         13    1    5    5    0    0 -0.35011034908E+00 -0.65532732925E+01 -0.16635652925E+02  0.17883313908E+02  0.00000000000E+00 0. -1.
        -14    1    5    5    0    0  0.37310783784E+02 -0.16489763793E+03  0.68773934488E+02  0.18251898435E+03  0.00000000000E+00 0.  1.
          4    1    6    6  502    0 -0.38968039174E+03  0.59465296886E+02  0.13916383487E+03  0.41803528819E+03  0.00000000000E+00 0. -1.
         -3    1    6    6    0  502 -0.22675648162E+03  0.91144606655E+02  0.11954821911E+03  0.27206179072E+03  0.00000000000E+00 0.  1.
<mgrwt>
<rscale>  0 0.69935654E+03</rscale>
<asrwt>0</asrwt>
<pdfrwt beam="1">  1        1 0.61195036E-01 0.69935654E+03</pdfrwt>
<pdfrwt beam="2">  1       -2 0.21448565E+00 0.69935654E+03</pdfrwt>
<totfact> 0.58483453E+00</totfact>
</mgrwt>
</event>
<event>
12    3  0.2212098E-007  0.1889308E+04  0.7818608E-02  0.8660197E-01
         -2   -1    0    0    0  501 -0.00000000000E+00  0.00000000000E+00  0.20602412884E+04  0.20602412884E+04  0.00000000000E+00 0.  1.
          1   -1    0    0  501    0  0.00000000000E+00 -0.00000000000E+00 -0.20276491193E+04  0.20276491193E+04  0.00000000000E+00 0. -1.
        -24    2    1    2    0    0  0.99870515921E+03 -0.15659920857E+04  0.75515942645E+03  0.20065332895E+04  0.78529453793E+02 0.  0.
    5000000    2    1    2    0    0 -0.99870515921E+03  0.15659920857E+04 -0.72256725731E+03  0.20813571181E+04  0.60016731358E+03 0.  0.
        -24    2    4    4    0    0  0.22117445720E+02  0.13916009885E+02 -0.42797310538E+02  0.10173624312E+03  0.88520148205E+02 0.  0.
         24    2    4    4    0    0 -0.10208226049E+04  0.15520760758E+04 -0.67976994677E+03  0.19796208750E+04  0.76109738809E+02 0.  0.
         11    1    3    3    0    0  0.38591810895E+03 -0.62870118861E+03  0.33918102744E+03  0.81193703004E+03  0.00000000000E+00 0. -1.
        -12    1    3    3    0    0  0.61278705027E+03 -0.93729089710E+03  0.41597839900E+03  0.11945962595E+04  0.00000000000E+00 0.  1.
         13    1    5    5    0    0 -0.13073477854E+02 -0.13050634751E+02  0.18462069849E+02  0.26116717132E+02  0.00000000000E+00 0. -1.
        -14    1    5    5    0    0  0.35190923575E+02  0.26966644637E+02 -0.61259380388E+02  0.75619525987E+02  0.00000000000E+00 0.  1.
          2    1    6    6  502    0 -0.55919458772E+03  0.80779761764E+03 -0.39131796016E+03  0.10575279306E+04  0.00000000000E+00 0. -1.
         -1    1    6    6    0  502 -0.46162801721E+03  0.74427845818E+03 -0.28845198661E+03  0.92209294443E+03  0.00000000000E+00 0.  1.
<mgrwt>
<rscale>  0 0.18893076E+04</rscale>
<asrwt>0</asrwt>
<pdfrwt beam="1">  1        1 0.31194602E+00 0.18893076E+04</pdfrwt>
<pdfrwt beam="2">  1       -2 0.31696020E+00 0.18893076E+04</pdfrwt>
<totfact> 0.56288243E-02</totfact>
</mgrwt>
</event>
<event>
12    3  0.2212098E-007  0.1113090E+04  0.7818608E-02  0.9192527E-01
         -2   -1    0    0    0  501 -0.00000000000E+00  0.00000000000E+00  0.11357028501E+04  0.11357028501E+04  0.00000000000E+00 0.  1.
          1   -1    0    0  501    0  0.00000000000E+00 -0.00000000000E+00 -0.14271604344E+04  0.14271604344E+04  0.00000000000E+00 0. -1.
        -24    2    1    2    0    0  0.69796435602E+03 -0.85609132238E+03 -0.61276672674E+03  0.12655826173E+04  0.78547470764E+02 0.  0.
    5000000    2    1    2    0    0 -0.69796435602E+03  0.85609132238E+03  0.32130914251E+03  0.12972806672E+04  0.59970907115E+03 0.  0.
        -24    2    4    4    0    0 -0.66750133976E+03  0.76919709115E+03  0.77142224914E+02  0.10245284569E+04  0.80532183691E+02 0.  0.
         24    2    4    4    0    0 -0.30463016259E+02  0.86894231232E+02  0.24416691759E+03  0.27275221030E+03  0.79357934670E+02 0.  0.
         11    1    3    3    0    0  0.50654633813E+03 -0.66425498502E+03 -0.43942079666E+03  0.94388268038E+03  0.00000000000E+00 0. -1.
        -12    1    3    3    0    0  0.19141801789E+03 -0.19183633737E+03 -0.17334593008E+03  0.32169993687E+03  0.00000000000E+00 0.  1.
         11    1    5    5    0    0 -0.48944282490E+03  0.52774098326E+03  0.82431166761E+02  0.72447202949E+03  0.00000000000E+00 0. -1.
        -12    1    5    5    0    0 -0.17805851486E+03  0.24145610789E+03 -0.52889418472E+01  0.30005642746E+03  0.00000000000E+00 0.  1.
          4    1    6    6  502    0 -0.36127853108E+02  0.44721421917E+02  0.21131088124E+03  0.21899204525E+03  0.00000000000E+00 0. -1.
         -3    1    6    6    0  502  0.56648368489E+01  0.42172809315E+02  0.32856036349E+02  0.53760165054E+02  0.00000000000E+00 0.  1.
<mgrwt>
<rscale>  0 0.11130901E+04</rscale>
<asrwt>0</asrwt>
<pdfrwt beam="1">  1        1 0.21956314E+00 0.11130901E+04</pdfrwt>
<pdfrwt beam="2">  1       -2 0.17472352E+00 0.11130901E+04</pdfrwt>
<totfact> 0.12523225E+00</totfact>
</mgrwt>
</event>
<event>
12    3  0.2212098E-007  0.4081314E+03  0.7818608E-02  0.1041000E+00
          1   -1    0    0  501    0  0.00000000000E+00  0.00000000000E+00  0.29807480736E+03  0.29807480736E+03  0.00000000000E+00 0. -1.
         -2   -1    0    0    0  501 -0.00000000000E+00 -0.00000000000E+00 -0.97308532227E+03  0.97308532227E+03  0.00000000000E+00 0.  1.
        -24    2    1    2    0    0  0.19622863841E+03 -0.20154380200E+03 -0.51036355915E+03  0.58832191973E+03  0.80784503860E+02 0.  0.
    5000000    2    1    2    0    0 -0.19622863841E+03  0.20154380200E+03 -0.16464695576E+03  0.68283820991E+03  0.60002818119E+03 0.  0.
        -24    2    4    4    0    0  0.31552056575E+02 -0.12072698826E+03  0.11924090080E+03  0.18997054182E+03  0.79371760518E+02 0.  0.
         24    2    4    4    0    0 -0.22778069498E+03  0.32227079026E+03 -0.28388785656E+03  0.49286766809E+03  0.81140100347E+02 0.  0.
         11    1    5    5    0    0  0.34792708128E+02 -0.55087688201E+02  0.10364949664E+03  0.12242713786E+03  0.00000000000E+00 0. -1.
        -12    1    5    5    0    0 -0.32406515528E+01 -0.65639300062E+02  0.15591404153E+02  0.67543403961E+02  0.00000000000E+00 0.  1.
         13    1    3    3    0    0  0.32906926860E+02 -0.75975643853E+02 -0.19232026487E+03  0.20938540678E+03  0.00000000000E+00 0. -1.
        -14    1    3    3    0    0  0.16332171155E+03 -0.12556815814E+03 -0.31804329428E+03  0.37893651294E+03  0.00000000000E+00 0.  1.
          2    1    6    6  502    0 -0.14305897854E+03  0.23372177333E+03 -0.15419319821E+03  0.31443167945E+03  0.00000000000E+00 0. -1.
         -1    1    6    6    0  502 -0.84721716445E+02  0.88549016929E+02 -0.12969465835E+03  0.17843598864E+03  0.00000000000E+00 0.  1.
<mgrwt>
<rscale>  0 0.40813137E+03</rscale>
<asrwt>0</asrwt>
<pdfrwt beam="1">  1        1 0.45857663E-01 0.40813137E+03</pdfrwt>
<pdfrwt beam="2">  1       -2 0.14970543E+00 0.40813137E+03</pdfrwt>
<totfact> 0.24456309E+01</totfact>
</mgrwt>
</event>
<event>
12    3  0.2212098E-007  0.1062556E+04  0.7818608E-02  0.9242476E-01
          1   -1    0    0  501    0  0.00000000000E+00  0.00000000000E+00  0.31628615888E+04  0.31628615888E+04  0.00000000000E+00 0. -1.
         -2   -1    0    0    0  501 -0.00000000000E+00 -0.00000000000E+00 -0.43256044392E+03  0.43256044392E+03  0.00000000000E+00 0.  1.
        -24    2    1    2    0    0 -0.73857438121E+03  0.73227783721E+03  0.17840124443E+04  0.20666158118E+04  0.80483319461E+02 0.  0.
    5000000    2    1    2    0    0  0.73857438121E+03 -0.73227783721E+03  0.94628870062E+03  0.15288062210E+04  0.60005267176E+03 0.  0.
        -24    2    4    4    0    0  0.49892172023E+02 -0.18285809091E+03 -0.33755701133E+02  0.20857403398E+03  0.80233222858E+02 0.  0.
         24    2    4    4    0    0  0.68868220918E+03 -0.54941974630E+03  0.98004440175E+03  0.13202321870E+04  0.79879629875E+02 0.  0.
         11    1    3    3    0    0 -0.44018500816E+03  0.45494196843E+03  0.11578084907E+04  0.13195664201E+04  0.00000000000E+00 0. -1.
        -12    1    3    3    0    0 -0.29838937305E+03  0.27733586878E+03  0.62620395361E+03  0.74704939166E+03  0.00000000000E+00 0.  1.
         13    1    5    5    0    0  0.55152781757E+02 -0.77424953625E+02  0.72246948912E+01  0.95334406149E+02  0.00000000000E+00 0. -1.
        -14    1    5    5    0    0 -0.52606097339E+01 -0.10543313729E+03 -0.40980396025E+02  0.11323962783E+03  0.00000000000E+00 0.  1.
          4    1    6    6  502    0  0.68321259135E+03 -0.55170035506E+03  0.96910633404E+03  0.13077919611E+04  0.00000000000E+00 0. -1.
         -3    1    6    6    0  502  0.54696178353E+01  0.22806087613E+01  0.10938067713E+02  0.12440225918E+02  0.00000000000E+00 0.  1.
<mgrwt>
<rscale>  0 0.10625557E+04</rscale>
<asrwt>0</asrwt>
<pdfrwt beam="1">  1        1 0.48659407E+00 0.10625557E+04</pdfrwt>
<pdfrwt beam="2">  1       -2 0.66547763E-01 0.10625557E+04</pdfrwt>
<totfact> 0.84114795E-01</totfact>
</mgrwt>
</event>
<event>
12    3  0.2212098E-007  0.4761802E+03  0.7818608E-02  0.1020190E+00
         -2   -1    0    0    0  501 -0.00000000000E+00  0.00000000000E+00  0.99042611021E+03  0.99042611021E+03  0.00000000000E+00 0.  1.
          1   -1    0    0  501    0  0.00000000000E+00 -0.00000000000E+00 -0.40497079267E+03  0.40497079267E+03  0.00000000000E+00 0. -1.
        -24    2    1    2    0    0 -0.35729566179E+03  0.14956348298E+03 -0.97510188937E+02  0.40722603795E+03  0.79343453837E+02 0.  0.
    5000000    2    1    2    0    0  0.35729566179E+03 -0.14956348298E+03  0.68296550648E+03  0.98817086493E+03  0.60000862483E+03 0.  0.
        -24    2    4    4    0    0  0.29635642423E+03  0.75816107457E+02  0.67008416284E+03  0.74104911449E+03  0.81029577738E+02 0.  0.
         24    2    4    4    0    0  0.60939237560E+02 -0.22537959044E+03  0.12881343641E+02  0.24712175044E+03  0.79960490644E+02 0.  0.
         11    1    5    5    0    0  0.19587256658E+03  0.78285495596E+02  0.38863132539E+03  0.44218659889E+03  0.00000000000E+00 0. -1.
        -12    1    5    5    0    0  0.10048385764E+03 -0.24693881392E+01  0.28145283745E+03  0.29886251560E+03  0.00000000000E+00 0.  1.
         13    1    3    3    0    0 -0.70902392155E+01  0.19208426809E+02 -0.12532242911E+02  0.24006088082E+02  0.00000000000E+00 0. -1.
        -14    1    3    3    0    0 -0.35020542257E+03  0.13035505617E+03 -0.84977946026E+02  0.38321994987E+03  0.00000000000E+00 0.  1.
          4    1    6    6  502    0  0.74121052877E+02 -0.12357581494E+03  0.55666535321E+01  0.14420783664E+03  0.00000000000E+00 0. -1.
         -3    1    6    6    0  502 -0.13181815317E+02 -0.10180377550E+03  0.73146901089E+01  0.10291391380E+03  0.00000000000E+00 0.  1.
<mgrwt>
<rscale>  0 0.47618021E+03</rscale>
<asrwt>0</asrwt>
<pdfrwt beam="1">  1        1 0.62303199E-01 0.47618021E+03</pdfrwt>
<pdfrwt beam="2">  1       -2 0.15237325E+00 0.47618021E+03</pdfrwt>
<totfact> 0.15567370E+01</totfact>
</mgrwt>
</event>
<event>
12    3  0.2212098E-007  0.2849692E+03  0.7818608E-02  0.1093005E+00
          1   -1    0    0  501    0  0.00000000000E+00  0.00000000000E+00  0.83836902297E+03  0.83836902297E+03  0.00000000000E+00 0. -1.
         -2   -1    0    0    0  501 -0.00000000000E+00 -0.00000000000E+00 -0.45595888103E+03  0.45595888103E+03  0.00000000000E+00 0.  1.
        -24    2    1    2    0    0  0.15519450147E+03 -0.12261710892E+03  0.59162665159E+03  0.62918873347E+03  0.82073617944E+02 0.  0.
    5000000    2    1    2    0    0 -0.15519450147E+03  0.12261710892E+03 -0.20921650966E+03  0.66513917054E+03  0.59959843194E+03 0.  0.
        -24    2    4    4    0    0 -0.49577052728E+02  0.20772214004E+03  0.14804736941E+03  0.27472064421E+03  0.89146156113E+02 0.  0.
         24    2    4    4    0    0 -0.10561744874E+03 -0.85105031115E+02 -0.35726387906E+03  0.39041852632E+03  0.79945197557E+02 0.  0.
         13    1    3    3    0    0  0.12048856043E+03 -0.67228174541E+02  0.48386935284E+03  0.50315670647E+03  0.00000000000E+00 0. -1.
        -14    1    3    3    0    0  0.34705941045E+02 -0.55388934380E+02  0.10775729875E+03  0.12603202700E+03  0.00000000000E+00 0.  1.
         13    1    5    5    0    0  0.11719032921E+02  0.12479609159E+03  0.59280486409E+02  0.13865632434E+03  0.00000000000E+00 0. -1.
        -14    1    5    5    0    0 -0.61296085649E+02  0.82926048444E+02  0.88766882997E+02  0.13606431988E+03  0.00000000000E+00 0.  1.
          4    1    6    6  502    0 -0.76745614321E+02 -0.75624227371E+02 -0.17404264186E+03  0.20469429467E+03  0.00000000000E+00 0. -1.
         -1    1    6    6    0  502 -0.28871834423E+02 -0.94808037445E+01 -0.18322123720E+03  0.18572423166E+03  0.00000000000E+00 0.  1.
<mgrwt>
<rscale>  0 0.28496918E+03</rscale>
<asrwt>0</asrwt>
<pdfrwt beam="1">  1        1 0.12897985E+00 0.28496918E+03</pdfrwt>
<pdfrwt beam="2">  1       -2 0.70147520E-01 0.28496918E+03</pdfrwt>
<totfact> 0.36174267E+01</totfact>
</mgrwt>
</event>
<event>
12    3  0.2212098E-007  0.7187459E+03  0.7818608E-02  0.9685701E-01
         -2   -1    0    0    0  501 -0.00000000000E+00  0.00000000000E+00  0.57834380508E+03  0.57834380508E+03  0.00000000000E+00 0.  1.
          1   -1    0    0  501    0  0.00000000000E+00 -0.00000000000E+00 -0.93117088698E+03  0.93117088698E+03  0.00000000000E+00 0. -1.
        -24    2    1    2    0    0 -0.10516105146E+03 -0.59842474281E+03 -0.12498531106E+03  0.62570684830E+03  0.81955551852E+02 0.  0.
    5000000    2    1    2    0    0  0.10516105146E+03  0.59842474281E+03 -0.22784177085E+03  0.88380784377E+03  0.60002784320E+03 0.  0.
        -24    2    4    4    0    0  0.32286937466E+03  0.25951478205E+03 -0.21686286871E+03  0.47345232535E+03  0.74397885461E+02 0.  0.
         24    2    4    4    0    0 -0.21770832319E+03  0.33890996076E+03 -0.10978902140E+02  0.41035551842E+03  0.77551529428E+02 0.  0.
         11    1    3    3    0    0 -0.74601184228E+02 -0.25017289952E+03 -0.25869722554E+02  0.26233768103E+03  0.00000000000E+00 0. -1.
        -12    1    3    3    0    0 -0.30559867235E+02 -0.34825184328E+03 -0.99115588502E+02  0.36336916727E+03  0.00000000000E+00 0.  1.
         13    1    5    5    0    0  0.19578243238E+02  0.45496403658E+02 -0.29453626278E+02  0.57625918257E+02  0.00000000000E+00 0. -1.
        -14    1    5    5    0    0  0.30329113142E+03  0.21401837839E+03 -0.18740924243E+03  0.41582640709E+03  0.00000000000E+00 0.  1.
          4    1    6    6  502    0 -0.48976484198E+02  0.41599944708E+02 -0.23106015941E+02  0.68287183107E+02  0.00000000000E+00 0. -1.
         -3    1    6    6    0  502 -0.16873183900E+03  0.29731001605E+03  0.12127113800E+02  0.34206833531E+03  0.00000000000E+00 0.  1.
<mgrwt>
<rscale>  0 0.71874586E+03</rscale>
<asrwt>0</asrwt>
<pdfrwt beam="1">  1        1 0.14325706E+00 0.71874586E+03</pdfrwt>
<pdfrwt beam="2">  1       -2 0.88975970E-01 0.71874586E+03</pdfrwt>
<totfact> 0.16751517E+01</totfact>
</mgrwt>
</event>
<event>
12    3  0.2212098E-007  0.8186728E+03  0.7818608E-02  0.9533376E-01
          1   -1    0    0  501    0  0.00000000000E+00  0.00000000000E+00  0.64786171455E+03  0.64786171455E+03  0.00000000000E+00 0. -1.
         -2   -1    0    0    0  501 -0.00000000000E+00 -0.00000000000E+00 -0.10483155622E+04  0.10483155622E+04  0.00000000000E+00 0.  1.
        -24    2    1    2    0    0  0.20990034638E+03  0.68095885244E+03 -0.17440581967E+03  0.73762852732E+03  0.76911249211E+02 0.  0.
    5000000    2    1    2    0    0 -0.20990034638E+03 -0.68095885244E+03 -0.22604802793E+03  0.95854874938E+03  0.59996239871E+03 0.  0.
        -24    2    4    4    0    0 -0.40640594370E+03 -0.52225099520E+03 -0.16180028574E+03  0.68591274177E+03  0.79906594231E+02 0.  0.
         24    2    4    4    0    0  0.19650559733E+03 -0.15870785724E+03 -0.64247742195E+02  0.27263600760E+03  0.79999915828E+02 0.  0.
         13    1    3    3    0    0  0.44308923731E+02  0.26615958540E+03 -0.75332891030E+02  0.28014148228E+03  0.00000000000E+00 0. -1.
        -14    1    3    3    0    0  0.16559142264E+03  0.41479926704E+03 -0.99072928641E+02  0.45748704504E+03  0.00000000000E+00 0.  1.
         13    1    5    5    0    0 -0.89818879323E+02 -0.14002711000E+03 -0.73230728076E+02  0.18176292844E+03  0.00000000000E+00 0. -1.
        -14    1    5    5    0    0 -0.31658706438E+03 -0.38222388519E+03 -0.88569557662E+02  0.50414981334E+03  0.00000000000E+00 0.  1.
          2    1    6    6  502    0  0.79305082359E+02 -0.31703394494E+02 -0.50620193908E+02  0.99281445102E+02  0.00000000000E+00 0. -1.
         -1    1    6    6    0  502  0.11720051497E+03 -0.12700446275E+03 -0.13627548287E+02  0.17335456250E+03  0.00000000000E+00 0.  1.
<mgrwt>
<rscale>  0 0.81867277E+03</rscale>
<asrwt>0</asrwt>
<pdfrwt beam="1">  1        1 0.99671033E-01 0.81867277E+03</pdfrwt>
<pdfrwt beam="2">  1       -2 0.16127932E+00 0.81867277E+03</pdfrwt>
<totfact> 0.67006626E+00</totfact>
</mgrwt>
</event>
<event>
12    3  0.2212098E-007  0.9741026E+03  0.7818608E-02  0.9337414E-01
         -2   -1    0    0    0  501 -0.00000000000E+00  0.00000000000E+00  0.53359890893E+03  0.53359890893E+03  0.00000000000E+00 0.  1.
          1   -1    0    0  501    0  0.00000000000E+00 -0.00000000000E+00 -0.19787483736E+04  0.19787483736E+04  0.00000000000E+00 0. -1.
        -24    2    1    2    0    0  0.66839860674E+03 -0.58122154094E+03 -0.10400205677E+04  0.13683939671E+04  0.79272257480E+02 0.  0.
    5000000    2    1    2    0    0 -0.66839860674E+03  0.58122154094E+03 -0.40512889693E+03  0.11439533154E+04  0.59993715299E+03 0.  0.
        -24    2    4    4    0    0 -0.59651975059E+03  0.69102560985E+03 -0.38623058172E+03  0.99443515899E+03  0.79843702754E+02 0.  0.
         24    2    4    4    0    0 -0.71878856148E+02 -0.10980406891E+03 -0.18898315208E+02  0.14951815640E+03  0.69101586563E+02 0.  0.
         11    1    5    5    0    0 -0.11546308792E+03  0.17269411615E+03 -0.64486104604E+02  0.21751652837E+03  0.00000000000E+00 0. -1.
        -12    1    5    5    0    0 -0.48105666266E+03  0.51833149370E+03 -0.32174447711E+03  0.77691863062E+03  0.00000000000E+00 0.  1.
         13    1    3    3    0    0  0.31868778881E+03 -0.32431460265E+03 -0.55887689551E+03  0.72047571268E+03  0.00000000000E+00 0. -1.
        -14    1    3    3    0    0  0.34971081792E+03 -0.25690693828E+03 -0.48114367222E+03  0.64791825443E+03  0.00000000000E+00 0.  1.
          2    1    6    6  502    0 -0.15501734648E+01 -0.56275004086E+02 -0.23526291552E+02  0.61014469733E+02  0.00000000000E+00 0. -1.
         -1    1    6    6    0  502 -0.70328682683E+02 -0.53529064827E+02  0.46279763432E+01  0.88503686670E+02  0.00000000000E+00 0.  1.
<mgrwt>
<rscale>  0 0.97410256E+03</rscale>
<asrwt>0</asrwt>
<pdfrwt beam="1">  1        1 0.30442283E+00 0.97410256E+03</pdfrwt>
<pdfrwt beam="2">  1       -2 0.82092138E-01 0.97410256E+03</pdfrwt>
<totfact> 0.35627661E+00</totfact>
</mgrwt>
</event>
<event>
12    3  0.2212098E-007  0.6036860E+03  0.7818608E-02  0.9897788E-01
         -2   -1    0    0    0  501 -0.00000000000E+00  0.00000000000E+00  0.30841522388E+03  0.30841522388E+03  0.00000000000E+00 0.  1.
          1   -1    0    0  501    0  0.00000000000E+00 -0.00000000000E+00 -0.16131144199E+04  0.16131144199E+04  0.00000000000E+00 0. -1.
        -24    2    1    2    0    0  0.55823543475E+03  0.11062106472E+03 -0.42895860889E+03  0.71713086206E+03  0.80046015548E+02 0.  0.
    5000000    2    1    2    0    0 -0.55823543475E+03 -0.11062106472E+03 -0.87574058717E+03  0.12043987818E+04  0.59982583218E+03 0.  0.
        -24    2    4    4    0    0 -0.51448563764E+03 -0.15028944184E+03 -0.30025767163E+03  0.61999828982E+03  0.83431542884E+02 0.  0.
         24    2    4    4    0    0 -0.43749797109E+02  0.39668377112E+02 -0.57548291554E+03  0.58440049195E+03  0.82799299640E+02 0.  0.
         11    1    3    3    0    0  0.32604756959E+03  0.10413020273E+03 -0.24770506974E+03  0.42250197435E+03  0.00000000000E+00 0. -1.
        -12    1    3    3    0    0  0.23218786515E+03  0.64908619929E+01 -0.18125353915E+03  0.29462888770E+03  0.00000000000E+00 0.  1.
         13    1    5    5    0    0 -0.98441836787E+02 -0.64291781320E+02 -0.67622340914E+02  0.13563557559E+03  0.00000000000E+00 0. -1.
        -14    1    5    5    0    0 -0.41604380085E+03 -0.85997660515E+02 -0.23263533072E+03  0.48436271423E+03  0.00000000000E+00 0.  1.
          4    1    6    6  502    0 -0.21473332414E+02 -0.18357746333E+02 -0.32865651346E+03  0.32986848091E+03  0.00000000000E+00 0. -1.
         -3    1    6    6    0  502 -0.22276464695E+02  0.58026123445E+02 -0.24682640208E+03  0.25453201104E+03  0.00000000000E+00 0.  1.
<mgrwt>
<rscale>  0 0.60368598E+03</rscale>
<asrwt>0</asrwt>
<pdfrwt beam="1">  1        1 0.24817145E+00 0.60368598E+03</pdfrwt>
<pdfrwt beam="2">  1       -2 0.47448497E-01 0.60368598E+03</pdfrwt>
<totfact> 0.21263212E+01</totfact>
</mgrwt>
</event>
<event>
12    3  0.2212098E-007  0.4520748E+03  0.7818608E-02  0.1027105E+00
          1   -1    0    0  501    0  0.00000000000E+00  0.00000000000E+00  0.55672003585E+03  0.55672003585E+03  0.00000000000E+00 0. -1.
         -2   -1    0    0    0  501 -0.00000000000E+00 -0.00000000000E+00 -0.39121617453E+03  0.39121617453E+03  0.00000000000E+00 0.  1.
        -24    2    1    2    0    0 -0.25215470100E+03  0.68042261949E+02  0.29809452936E+00  0.27305525534E+03  0.79670201201E+02 0.  0.
    5000000    2    1    2    0    0  0.25215470100E+03 -0.68042261949E+02  0.16520576679E+03  0.67488095503E+03  0.59996634526E+03 0.  0.
        -24    2    4    4    0    0 -0.10030047796E+01 -0.29438368686E+03  0.64016239089E+02  0.31158516367E+03  0.79526563125E+02 0.  0.
         24    2    4    4    0    0  0.25315770578E+03  0.22634142491E+03  0.10118952770E+03  0.36329579137E+03  0.80157637690E+02 0.  0.
         13    1    3    3    0    0 -0.91415131737E+02  0.47698381647E+02  0.31997425599E+02  0.10796155412E+03  0.00000000000E+00 0. -1.
        -14    1    3    3    0    0 -0.16073956927E+03  0.20343880303E+02 -0.31699331070E+02  0.16509370122E+03  0.00000000000E+00 0.  1.
         13    1    5    5    0    0 -0.24531238750E+01 -0.11518113204E+03  0.65191036925E+02  0.13237289107E+03  0.00000000000E+00 0. -1.
        -14    1    5    5    0    0  0.14501190954E+01 -0.17920255483E+03 -0.11747978359E+01  0.17921227260E+03  0.00000000000E+00 0.  1.
          4    1    6    6  502    0  0.94127569176E+00  0.16441138464E+02 -0.68473725146E+01  0.17834896812E+02  0.00000000000E+00 0. -1.
         -3    1    6    6    0  502  0.25221643009E+03  0.20990028645E+03  0.10803690021E+03  0.34546089455E+03  0.00000000000E+00 0.  1.
<mgrwt>
<rscale>  0 0.45207475E+03</rscale>
<asrwt>0</asrwt>
<pdfrwt beam="1">  1        1 0.85649236E-01 0.45207475E+03</pdfrwt>
<pdfrwt beam="2">  1       -2 0.60187104E-01 0.45207475E+03</pdfrwt>
<totfact> 0.89250542E+01</totfact>
</mgrwt>
</event>
<event>
12    3  0.2212098E-007  0.2620214E+03  0.7818608E-02  0.1105935E+00
          1   -1    0    0  501    0  0.00000000000E+00  0.00000000000E+00  0.11486198151E+04  0.11486198151E+04  0.00000000000E+00 0. -1.
         -2   -1    0    0    0  501 -0.00000000000E+00 -0.00000000000E+00 -0.11087978524E+03  0.11087978524E+03  0.00000000000E+00 0.  1.
        -24    2    1    2    0    0 -0.91273551213E+01  0.73687993965E+02  0.17538297944E+03  0.20635003435E+03  0.79422403237E+02 0.  0.
    5000000    2    1    2    0    0  0.91273551213E+01 -0.73687993965E+02  0.86235705038E+03  0.10531495659E+04  0.59995924598E+03 0.  0.
        -24    2    4    4    0    0  0.12122250845E+03 -0.22144253763E+03  0.13322085340E+03  0.29663644530E+03  0.80707439992E+02 0.  0.
         24    2    4    4    0    0 -0.11209515333E+03  0.14775454367E+03  0.72913619698E+03  0.75651312064E+03  0.79219816910E+02 0.  0.
         11    1    5    5    0    0  0.49090136987E+01 -0.47410598798E+02  0.55966715406E+02  0.73512832398E+02  0.00000000000E+00 0. -1.
        -12    1    5    5    0    0  0.11631349475E+03 -0.17403193883E+03  0.77254137993E+02  0.22312361290E+03  0.00000000000E+00 0.  1.
         13    1    3    3    0    0 -0.19233135503E+02  0.23674752225E+02  0.14231596548E+03  0.14554807256E+03  0.00000000000E+00 0. -1.
        -14    1    3    3    0    0  0.10105780382E+02  0.50013241741E+02  0.33067013956E+02  0.60801961798E+02  0.00000000000E+00 0.  1.
          2    1    6    6  502    0 -0.24089139648E+02  0.28472038111E+02  0.30391790882E+03  0.30619771211E+03  0.00000000000E+00 0. -1.
         -1    1    6    6    0  502 -0.88006013683E+02  0.11928250555E+03  0.42521828816E+03  0.45031540853E+03  0.00000000000E+00 0.  1.
<mgrwt>
<rscale>  0 0.26202140E+03</rscale>
<asrwt>0</asrwt>
<pdfrwt beam="1">  1        1 0.17671073E+00 0.26202140E+03</pdfrwt>
<pdfrwt beam="2">  1       -2 0.17058429E-01 0.26202140E+03</pdfrwt>
<totfact> 0.30390506E+02</totfact>
</mgrwt>
</event>
<event>
12    3  0.2212098E-007  0.5310683E+03  0.7818608E-02  0.1005973E+00
          1   -1    0    0  501    0  0.00000000000E+00  0.00000000000E+00  0.20233238734E+04  0.20233238734E+04  0.00000000000E+00 0. -1.
         -2   -1    0    0    0  501 -0.00000000000E+00 -0.00000000000E+00 -0.21126549127E+03  0.21126549127E+03  0.00000000000E+00 0.  1.
        -24    2    1    2    0    0 -0.49806640324E+03  0.94307022438E+02  0.59094894514E+03  0.78270162666E+03  0.80232313279E+02 0.  0.
    5000000    2    1    2    0    0  0.49806640324E+03 -0.94307022438E+02  0.12211094369E+04  0.14518877380E+04  0.59992148664E+03 0.  0.
        -24    2    4    4    0    0  0.31747793128E+03 -0.14467863811E+03  0.19938229981E+03  0.41008589152E+03  0.81810706953E+02 0.  0.
         24    2    4    4    0    0  0.18058847196E+03  0.50371615674E+02  0.10217271371E+04  0.10418018464E+04  0.79216466869E+02 0.  0.
         11    1    3    3    0    0 -0.16505292839E+03  0.66112626040E+02  0.17995935065E+03  0.25297967582E+03  0.00000000000E+00 0. -1.
        -12    1    3    3    0    0 -0.33301347484E+03  0.28194396398E+02  0.41098959449E+03  0.52972195084E+03  0.00000000000E+00 0.  1.
         13    1    5    5    0    0  0.18098568916E+03 -0.12271009926E+03  0.10406874437E+03  0.24216500923E+03  0.00000000000E+00 0. -1.
        -14    1    5    5    0    0  0.13649224212E+03 -0.21968538851E+02  0.95313555448E+02  0.16792088230E+03  0.00000000000E+00 0.  1.
          2    1    6    6  502    0  0.86580322463E+01 -0.78604170317E+01  0.19641002802E+03  0.19675783793E+03  0.00000000000E+00 0. -1.
         -3    1    6    6    0  502  0.17193043971E+03  0.58232032706E+02  0.82531710911E+03  0.84504400851E+03  0.00000000000E+00 0.  1.
<mgrwt>
<rscale>  0 0.53106825E+03</rscale>
<asrwt>0</asrwt>
<pdfrwt beam="1">  1        1 0.31128058E+00 0.53106825E+03</pdfrwt>
<pdfrwt beam="2">  1       -2 0.32502385E-01 0.53106825E+03</pdfrwt>
<totfact> 0.23883693E+01</totfact>
</mgrwt>
</event>
<event>
12    3  0.2212098E-007  0.1610619E+04  0.7818608E-02  0.8814051E-01
          1   -1    0    0  501    0  0.00000000000E+00  0.00000000000E+00  0.19512011984E+04  0.19512011984E+04  0.00000000000E+00 0. -1.
         -2   -1    0    0    0  501 -0.00000000000E+00 -0.00000000000E+00 -0.14948164879E+04  0.14948164879E+04  0.00000000000E+00 0.  1.
        -24    2    1    2    0    0  0.15528865169E+04 -0.20773009306E+03 -0.31588032432E+03  0.15991377497E+04  0.53411958703E+02 0.  0.
    5000000    2    1    2    0    0 -0.15528865169E+04  0.20773009306E+03  0.77226503483E+03  0.18468799365E+04  0.59996990759E+03 0.  0.
        -24    2    4    4    0    0 -0.26700912187E+03 -0.16452604445E+03  0.23763710885E+03  0.40322125001E+03  0.88052771067E+02 0.  0.
         24    2    4    4    0    0 -0.12858773950E+04  0.37225613752E+03  0.53462792598E+03  0.14436586865E+04  0.79171187769E+02 0.  0.
         11    1    3    3    0    0  0.80722808353E+03 -0.12421363312E+03 -0.18634309672E+03  0.83771710929E+03  0.00000000000E+00 0. -1.
        -12    1    3    3    0    0  0.74565843336E+03 -0.83516459947E+02 -0.12953722759E+03  0.76142064042E+03  0.00000000000E+00 0.  1.
         13    1    5    5    0    0 -0.26294070921E+03 -0.15787307289E+03  0.24496748134E+03  0.39251852264E+03  0.00000000000E+00 0. -1.
        -14    1    5    5    0    0 -0.40684126677E+01 -0.66529715599E+01 -0.73303724953E+01  0.10702727369E+02  0.00000000000E+00 0.  1.
          2    1    6    6  502    0 -0.86431218164E+03  0.27562975365E+03  0.39180386638E+03  0.98818903968E+03  0.00000000000E+00 0. -1.
         -3    1    6    6    0  502 -0.42156521338E+03  0.96626383870E+02  0.14282405961E+03  0.45546964684E+03  0.00000000000E+00 0.  1.
<mgrwt>
<rscale>  0 0.16106189E+04</rscale>
<asrwt>0</asrwt>
<pdfrwt beam="1">  1        1 0.30018480E+00 0.16106189E+04</pdfrwt>
<pdfrwt beam="2">  1       -2 0.22997177E+00 0.16106189E+04</pdfrwt>
<totfact> 0.22422947E-01</totfact>
</mgrwt>
</event>
<event>
12    3  0.2212098E-007  0.7352846E+03  0.7818608E-02  0.9658724E-01
          1   -1    0    0  501    0  0.00000000000E+00  0.00000000000E+00  0.33895267421E+03  0.33895267421E+03  0.00000000000E+00 0. -1.
         -2   -1    0    0    0  501 -0.00000000000E+00 -0.00000000000E+00 -0.21770040246E+04  0.21770040246E+04  0.00000000000E+00 0.  1.
        -24    2    1    2    0    0 -0.65893772571E+03 -0.11441242609E+03 -0.30598937265E+03  0.73983248832E+03  0.80209008160E+02 0.  0.
    5000000    2    1    2    0    0  0.65893772571E+03  0.11441242609E+03 -0.15320619777E+04  0.17761242105E+04  0.60009514068E+03 0.  0.
        -24    2    4    4    0    0  0.37898182359E+03  0.28149914273E+03 -0.12474182852E+04  0.13361246209E+04  0.79420616873E+02 0.  0.
         24    2    4    4    0    0  0.27995590212E+03 -0.16708671664E+03 -0.28464369254E+03  0.43999958959E+03  0.79273760619E+02 0.  0.
         11    1    5    5    0    0  0.32944888710E+03  0.24717379210E+03 -0.10004738578E+04  0.10819331739E+04  0.00000000000E+00 0. -1.
        -12    1    5    5    0    0  0.49532936488E+02  0.34325350630E+02 -0.24694442741E+03  0.25419144699E+03  0.00000000000E+00 0.  1.
         13    1    3    3    0    0 -0.50235257528E+03 -0.11691593912E+03 -0.21571333555E+03  0.55907038004E+03  0.00000000000E+00 0. -1.
        -14    1    3    3    0    0 -0.15658515044E+03  0.25035130340E+01 -0.90276037097E+02  0.18076210828E+03  0.00000000000E+00 0.  1.
          2    1    6    6  502    0  0.10507886792E+03 -0.60158052404E+02 -0.57494286602E+02  0.13403787802E+03  0.00000000000E+00 0. -1.
         -1    1    6    6    0  502  0.17487703421E+03 -0.10692866424E+03 -0.22714940594E+03  0.30596171157E+03  0.00000000000E+00 0.  1.
<mgrwt>
<rscale>  0 0.73528456E+03</rscale>
<asrwt>0</asrwt>
<pdfrwt beam="1">  1        1 0.52146563E-01 0.73528456E+03</pdfrwt>
<pdfrwt beam="2">  1       -2 0.33492371E+00 0.73528456E+03</pdfrwt>
<totfact> 0.13344229E+00</totfact>
</mgrwt>
</event>
<event>
12    3  0.2212098E-007  0.7101117E+03  0.7818608E-02  0.9700094E-01
          1   -1    0    0  501    0  0.00000000000E+00  0.00000000000E+00  0.27091566482E+04  0.27091566482E+04  0.00000000000E+00 0. -1.
         -2   -1    0    0    0  501 -0.00000000000E+00 -0.00000000000E+00 -0.20666963626E+03  0.20666963626E+03  0.00000000000E+00 0.  1.
        -24    2    1    2    0    0 -0.12496084154E+03 -0.59244454222E+03  0.13556472284E+04  0.14869083901E+04  0.80693276858E+02 0.  0.
    5000000    2    1    2    0    0  0.12496084154E+03  0.59244454222E+03  0.11468397835E+04  0.14289178944E+04  0.59996592606E+03 0.  0.
        -24    2    4    4    0    0  0.25258444829E+03  0.61384388055E+03  0.75326761168E+03  0.10071555554E+04  0.79668091256E+02 0.  0.
         24    2    4    4    0    0 -0.12762360675E+03 -0.21399338333E+02  0.39357217186E+03  0.42176233904E+03  0.78985438473E+02 0.  0.
         11    1    3    3    0    0 -0.11321207036E+03 -0.41232490636E+03  0.10151680221E+04  0.11015420620E+04  0.00000000000E+00 0. -1.
        -12    1    3    3    0    0 -0.11748771179E+02 -0.18011963586E+03  0.34047920636E+03  0.38536632807E+03  0.00000000000E+00 0.  1.
         13    1    5    5    0    0  0.12311206095E+03  0.19989146993E+03  0.25845827988E+03  0.34916165560E+03  0.00000000000E+00 0. -1.
        -14    1    5    5    0    0  0.12947238734E+03  0.41395241062E+03  0.49480933180E+03  0.65799389980E+03  0.00000000000E+00 0.  1.
          2    1    6    6  502    0 -0.13030692001E+02 -0.25869862249E+02  0.35749762859E+02  0.46011892498E+02  0.00000000000E+00 0. -1.
         -1    1    6    6    0  502 -0.11459291475E+03  0.44705239154E+01  0.35782240900E+03  0.37575044654E+03  0.00000000000E+00 0.  1.
<mgrwt>
<rscale>  0 0.71011165E+03</rscale>
<asrwt>0</asrwt>
<pdfrwt beam="1">  1        1 0.41679331E+00 0.71011165E+03</pdfrwt>
<pdfrwt beam="2">  1       -2 0.31795331E-01 0.71011165E+03</pdfrwt>
<totfact> 0.82972394E+00</totfact>
</mgrwt>
</event>
<event>
12    3  0.2212098E-007  0.7556572E+03  0.7818608E-02  0.9626517E-01
          1   -1    0    0  501    0  0.00000000000E+00  0.00000000000E+00  0.26988300063E+04  0.26988300063E+04  0.00000000000E+00 0. -1.
         -2   -1    0    0    0  501 -0.00000000000E+00 -0.00000000000E+00 -0.22139020814E+03  0.22139020814E+03  0.00000000000E+00 0.  1.
        -24    2    1    2    0    0 -0.40575504346E+02 -0.64841267382E+03  0.91395368463E+03  0.11240239473E+04  0.77673221103E+02 0.  0.
    5000000    2    1    2    0    0  0.40575504346E+02  0.64841267382E+03  0.15634861135E+04  0.17961962672E+04  0.59978899276E+03 0.  0.
        -24    2    4    4    0    0  0.27315797214E+03  0.16192249466E+03  0.45103681070E+03  0.55753492815E+03  0.81097592319E+02 0.  0.
         24    2    4    4    0    0 -0.23258246779E+03  0.48649017916E+03  0.11124493028E+04  0.12386613390E+04  0.77273298465E+02 0.  0.
         11    1    5    5    0    0  0.76433026950E+02  0.64234152972E+02  0.87297163248E+02  0.13262288162E+03  0.00000000000E+00 0. -1.
        -12    1    5    5    0    0  0.19672494519E+03  0.97688341689E+02  0.36373964745E+03  0.42491204653E+03  0.00000000000E+00 0.  1.
         13    1    3    3    0    0 -0.81779444518E+01 -0.54308346784E+02  0.11905768803E+03  0.13111448579E+03  0.00000000000E+00 0. -1.
        -14    1    3    3    0    0 -0.32397559894E+02 -0.59410432704E+03  0.79489599660E+03  0.99290946148E+03  0.00000000000E+00 0.  1.
          2    1    6    6  502    0 -0.11172983904E+03  0.29539066312E+03  0.58532951621E+03  0.66509386055E+03  0.00000000000E+00 0. -1.
         -1    1    6    6    0  502 -0.12085262875E+03  0.19109951604E+03  0.52711978664E+03  0.57356747848E+03  0.00000000000E+00 0.  1.
<mgrwt>
<rscale>  0 0.75565718E+03</rscale>
<asrwt>0</asrwt>
<pdfrwt beam="1">  1        1 0.41520459E+00 0.75565718E+03</pdfrwt>
<pdfrwt beam="2">  1       -2 0.34060034E-01 0.75565718E+03</pdfrwt>
<totfact> 0.73533536E+00</totfact>
</mgrwt>
</event>
<event>
12    3  0.2212098E-007  0.1444944E+04  0.7818608E-02  0.8921913E-01
          1   -1    0    0  501    0  0.00000000000E+00  0.00000000000E+00  0.13546171075E+04  0.13546171075E+04  0.00000000000E+00 0. -1.
         -2   -1    0    0    0  501 -0.00000000000E+00 -0.00000000000E+00 -0.20949412897E+04  0.20949412897E+04  0.00000000000E+00 0.  1.
        -24    2    1    2    0    0  0.13951974529E+04  0.22361210340E+03  0.47341941403E+03  0.14925941534E+04  0.84457443893E+02 0.  0.
    5000000    2    1    2    0    0 -0.13951974529E+04 -0.22361210340E+03 -0.12137435962E+04  0.19569642438E+04  0.59996435642E+03 0.  0.
        -24    2    4    4    0    0 -0.11192704844E+04 -0.34573430309E+03 -0.11389645254E+04  0.16358008732E+04  0.79408317843E+02 0.  0.
         24    2    4    4    0    0 -0.27592696844E+03  0.12212219969E+03 -0.74779070819E+02  0.32116337064E+03  0.80650341840E+02 0.  0.
         11    1    3    3    0    0  0.11443015306E+04  0.20256441186E+03  0.36112455976E+03  0.12169097261E+04  0.00000000000E+00 0. -1.
        -12    1    3    3    0    0  0.25089592228E+03  0.21047691536E+02  0.11229485427E+03  0.27568442725E+03  0.00000000000E+00 0.  1.
         11    1    5    5    0    0 -0.15702903187E+03 -0.62643403755E+02 -0.19976787100E+03  0.26170501556E+03  0.00000000000E+00 0. -1.
        -12    1    5    5    0    0 -0.96224145256E+03 -0.28309089934E+03 -0.93919665438E+03  0.13740958576E+04  0.00000000000E+00 0.  1.
          2    1    6    6  502    0 -0.64238714045E+02  0.12116254795E+02  0.13569157970E+02  0.66764796566E+02  0.00000000000E+00 0. -1.
         -1    1    6    6    0  502 -0.21168825440E+03  0.11000594490E+03 -0.88348228789E+02  0.25439857408E+03  0.00000000000E+00 0.  1.
<mgrwt>
<rscale>  0 0.14449444E+04</rscale>
<asrwt>0</asrwt>
<pdfrwt beam="1">  1        1 0.20840263E+00 0.14449444E+04</pdfrwt>
<pdfrwt beam="2">  1       -2 0.32229866E+00 0.14449444E+04</pdfrwt>
<totfact> 0.15978686E-01</totfact>
</mgrwt>
</event>
<event>
12    3  0.2212098E-007  0.3552796E+03  0.7818608E-02  0.1060469E+00
         -2   -1    0    0    0  501 -0.00000000000E+00  0.00000000000E+00  0.55905135926E+03  0.55905135926E+03  0.00000000000E+00 0.  1.
          1   -1    0    0  501    0  0.00000000000E+00 -0.00000000000E+00 -0.43478394792E+03  0.43478394792E+03  0.00000000000E+00 0. -1.
        -24    2    1    2    0    0  0.15521701198E+03 -0.58368088321E+02 -0.21699728898E+03  0.28397705852E+03  0.77820253132E+02 0.  0.
    5000000    2    1    2    0    0 -0.15521701198E+03  0.58368088321E+02  0.34126470031E+03  0.70985824867E+03  0.59994831692E+03 0.  0.
        -24    2    4    4    0    0  0.18008472841E+03 -0.23008846287E+02 -0.24201951257E+02  0.19977799465E+03  0.79784687046E+02 0.  0.
         24    2    4    4    0    0 -0.33530174039E+03  0.81376934608E+02  0.36546665157E+03  0.51008025402E+03  0.86985800774E+02 0.  0.
         11    1    3    3    0    0  0.12200561193E+03 -0.59134373303E+02 -0.21009976986E+03  0.25004830881E+03  0.00000000000E+00 0. -1.
        -12    1    3    3    0    0  0.33211400055E+02  0.76628498259E+00 -0.68975191201E+01  0.33928749701E+02  0.00000000000E+00 0.  1.
         13    1    5    5    0    0  0.13614554622E+02 -0.17652589282E+02 -0.24630730523E+02  0.33221121173E+02  0.00000000000E+00 0. -1.
        -14    1    5    5    0    0  0.16647017379E+03 -0.53562570050E+01  0.42877926577E+00  0.16655687347E+03  0.00000000000E+00 0.  1.
          4    1    6    6  502    0 -0.21843290265E+03  0.88825585149E+02  0.21243512751E+03  0.31738242065E+03  0.00000000000E+00 0. -1.
         -3    1    6    6    0  502 -0.11686883774E+03 -0.74486505416E+01  0.15303152406E+03  0.19269783337E+03  0.00000000000E+00 0.  1.
<mgrwt>
<rscale>  0 0.35527960E+03</rscale>
<asrwt>0</asrwt>
<pdfrwt beam="1">  1        1 0.66889838E-01 0.35527960E+03</pdfrwt>
<pdfrwt beam="2">  1       -2 0.86007902E-01 0.35527960E+03</pdfrwt>
<totfact> 0.57874427E+01</totfact>
</mgrwt>
</event>
<event>
12    3  0.2212098E-007  0.7093927E+03  0.7818608E-02  0.9701303E-01
          1   -1    0    0  501    0  0.00000000000E+00  0.00000000000E+00  0.14516324562E+04  0.14516324562E+04  0.00000000000E+00 0. -1.
         -2   -1    0    0    0  501 -0.00000000000E+00 -0.00000000000E+00 -0.40948027019E+03  0.40948027019E+03  0.00000000000E+00 0.  1.
        -24    2    1    2    0    0 -0.12996390671E+03  0.61639559867E+03  0.64444435804E+03  0.90453035600E+03  0.77669062152E+02 0.  0.
    5000000    2    1    2    0    0  0.12996390671E+03 -0.61639559867E+03  0.39770782801E+03  0.95658237042E+03  0.60003680207E+03 0.  0.
        -24    2    4    4    0    0  0.75191438749E+02  0.61011139115E+02 -0.30841671507E+02  0.14907203653E+03  0.10906489727E+03 0.  0.
         24    2    4    4    0    0  0.54772467963E+02 -0.67740673778E+03  0.42854949952E+03  0.80751033389E+03  0.80860090062E+02 0.  0.
         11    1    5    5    0    0  0.61802645172E+02  0.36358044732E+02  0.33303214483E+02  0.79060599933E+02  0.00000000000E+00 0. -1.
        -12    1    5    5    0    0  0.13388793577E+02  0.24653094383E+02 -0.64144885990E+02  0.70011436600E+02  0.00000000000E+00 0.  1.
         11    1    3    3    0    0 -0.58101451285E+02  0.12291503953E+03  0.13232837951E+03  0.18972265444E+03  0.00000000000E+00 0. -1.
        -12    1    3    3    0    0 -0.71862455427E+02  0.49348055914E+03  0.51211597854E+03  0.71480770157E+03  0.00000000000E+00 0.  1.
          4    1    6    6  502    0  0.75070917132E+02 -0.58359506536E+03  0.37081649352E+03  0.69550249085E+03  0.00000000000E+00 0. -1.
         -3    1    6    6    0  502 -0.20298449169E+02 -0.93811672425E+02  0.57733006001E+02  0.11200784305E+03  0.00000000000E+00 0.  1.
<mgrwt>
<rscale>  0 0.70939272E+03</rscale>
<asrwt>0</asrwt>
<pdfrwt beam="1">  1        1 0.22332807E+00 0.70939272E+03</pdfrwt>
<pdfrwt beam="2">  1       -2 0.62996965E-01 0.70939272E+03</pdfrwt>
<totfact> 0.15003884E+01</totfact>
</mgrwt>
</event>
<event>
12    3  0.2212098E-007  0.8796128E+03  0.7818608E-02  0.9451431E-01
          1   -1    0    0  501    0  0.00000000000E+00  0.00000000000E+00  0.17534797437E+04  0.17534797437E+04  0.00000000000E+00 0. -1.
         -2   -1    0    0    0  501 -0.00000000000E+00 -0.00000000000E+00 -0.77512669344E+03  0.77512669344E+03  0.00000000000E+00 0.  1.
        -24    2    1    2    0    0 -0.61013889044E+03 -0.51148414540E+03 -0.34547005331E+03  0.87144161574E+03  0.78583937915E+02 0.  0.
    5000000    2    1    2    0    0  0.61013889044E+03  0.51148414540E+03  0.13238231035E+04  0.16571648214E+04  0.59983509325E+03 0.  0.
        -24    2    4    4    0    0  0.20609226771E+03  0.50261025449E+03  0.96690310566E+03  0.11120824834E+04  0.82065482192E+02 0.  0.
         24    2    4    4    0    0  0.40404662273E+03  0.88738909111E+01  0.35691999786E+03  0.54508233798E+03  0.79940296622E+02 0.  0.
         11    1    5    5    0    0  0.74790588601E+02  0.28985950016E+03  0.52129811620E+03  0.60113549881E+03  0.00000000000E+00 0. -1.
        -12    1    5    5    0    0  0.13130167910E+03  0.21275075433E+03  0.44560498947E+03  0.51094698457E+03  0.00000000000E+00 0.  1.
         13    1    3    3    0    0 -0.42583542957E+03 -0.31970448749E+03 -0.20449148501E+03  0.57040646897E+03  0.00000000000E+00 0. -1.
        -14    1    3    3    0    0 -0.18430346087E+03 -0.19177965791E+03 -0.14097856829E+03  0.30103514678E+03  0.00000000000E+00 0.  1.
          2    1    6    6  502    0  0.28250394621E+03  0.41526821130E+02  0.26088731108E+03  0.38677531666E+03  0.00000000000E+00 0. -1.
         -1    1    6    6    0  502  0.12154267652E+03 -0.32652930219E+02  0.96032686786E+02  0.15830702132E+03  0.00000000000E+00 0.  1.
<mgrwt>
<rscale>  0 0.87961285E+03</rscale>
<asrwt>0</asrwt>
<pdfrwt beam="1">  1        1 0.26976611E+00 0.87961285E+03</pdfrwt>
<pdfrwt beam="2">  1       -2 0.11925026E+00 0.87961285E+03</pdfrwt>
<totfact> 0.21116933E+00</totfact>
</mgrwt>
</event>
<event>
12    3  0.2212098E-007  0.1240659E+04  0.7818608E-02  0.9077993E-01
          1   -1    0    0  501    0  0.00000000000E+00  0.00000000000E+00  0.12767907227E+04  0.12767907227E+04  0.00000000000E+00 0. -1.
         -2   -1    0    0    0  501 -0.00000000000E+00 -0.00000000000E+00 -0.12104236556E+04  0.12104236556E+04  0.00000000000E+00 0.  1.
        -24    2    1    2    0    0 -0.58725276912E+03 -0.10106507011E+04 -0.60336299775E+01  0.11714535725E+04  0.77371915085E+02 0.  0.
    5000000    2    1    2    0    0  0.58725276912E+03  0.10106507011E+04  0.72400697023E+02  0.13157608058E+04  0.59975326806E+03 0.  0.
        -24    2    4    4    0    0  0.43144963774E+03  0.19734307566E+03  0.11643454391E+02  0.48162608175E+03  0.82067247855E+02 0.  0.
         24    2    4    4    0    0  0.15580313138E+03  0.81330762547E+03  0.60757242632E+02  0.83413472403E+03  0.79657930556E+02 0.  0.
         11    1    3    3    0    0 -0.48997210034E+03 -0.87054623148E+03  0.18497830855E+02  0.99913240864E+03  0.00000000000E+00 0. -1.
        -12    1    3    3    0    0 -0.97280668785E+02 -0.14010446966E+03 -0.24531460832E+02  0.17232116384E+03  0.00000000000E+00 0.  1.
         13    1    5    5    0    0  0.30513693762E+03  0.10195192719E+03 -0.99620269101E+01  0.32187262719E+03  0.00000000000E+00 0. -1.
        -14    1    5    5    0    0  0.12631270012E+03  0.95391148475E+02  0.21605481301E+02  0.15975345455E+03  0.00000000000E+00 0.  1.
          2    1    6    6  502    0  0.88854862493E+02  0.63753049366E+03  0.53216678019E+02  0.64588879210E+03  0.00000000000E+00 0. -1.
         -1    1    6    6    0  502  0.66948268887E+02  0.17577713181E+03  0.75405646132E+01  0.18824593193E+03  0.00000000000E+00 0.  1.
<mgrwt>
<rscale>  0 0.12406595E+04</rscale>
<asrwt>0</asrwt>
<pdfrwt beam="1">  1        1 0.19642934E+00 0.12406595E+04</pdfrwt>
<pdfrwt beam="2">  1       -2 0.18621902E+00 0.12406595E+04</pdfrwt>
<totfact> 0.13145366E+00</totfact>
</mgrwt>
</event>
<event>
12    3  0.2212098E-007  0.1192809E+04  0.7818608E-02  0.9119174E-01
          1   -1    0    0  501    0  0.00000000000E+00  0.00000000000E+00  0.12059184614E+04  0.12059184614E+04  0.00000000000E+00 0. -1.
         -2   -1    0    0    0  501 -0.00000000000E+00 -0.00000000000E+00 -0.12686861643E+04  0.12686861643E+04  0.00000000000E+00 0.  1.
        -24    2    1    2    0    0  0.27681181793E+03  0.11014536328E+04  0.21984669366E+03  0.11594258836E+04  0.78172393884E+02 0.  0.
    5000000    2    1    2    0    0 -0.27681181793E+03 -0.11014536328E+04 -0.28261439658E+03  0.13151787421E+04  0.59999944892E+03 0.  0.
        -24    2    4    4    0    0  0.11488998166E+03 -0.10040355993E+03  0.60098304979E+02  0.18405246856E+03  0.83563880896E+02 0.  0.
         24    2    4    4    0    0 -0.39170179959E+03 -0.10010500729E+04 -0.34271270155E+03  0.11311262735E+04  0.80393424001E+02 0.  0.
         13    1    5    5    0    0  0.25339068011E+02  0.10445691613E+02  0.25442593081E+02  0.37396609253E+02  0.00000000000E+00 0. -1.
        -14    1    5    5    0    0  0.89550913652E+02 -0.11084925154E+03  0.34655711898E+02  0.14665585931E+03  0.00000000000E+00 0.  1.
         13    1    3    3    0    0  0.26295083250E+03  0.94163361510E+03  0.17935348181E+03  0.99397418319E+03  0.00000000000E+00 0. -1.
        -14    1    3    3    0    0  0.13860985429E+02  0.15982001769E+03  0.40493211853E+02  0.16545170043E+03  0.00000000000E+00 0.  1.
          4    1    6    6  502    0 -0.14104151300E+03 -0.46399537516E+03 -0.16816018440E+03  0.51328575294E+03  0.00000000000E+00 0. -1.
         -3    1    6    6    0  502 -0.25066028660E+03 -0.53705469770E+03 -0.17455251716E+03  0.61784052056E+03  0.00000000000E+00 0.  1.
<mgrwt>
<rscale>  0 0.11928088E+04</rscale>
<asrwt>0</asrwt>
<pdfrwt beam="1">  1        1 0.18552592E+00 0.11928088E+04</pdfrwt>
<pdfrwt beam="2">  1       -2 0.19518249E+00 0.11928088E+04</pdfrwt>
<totfact> 0.12947134E+00</totfact>
</mgrwt>
</event>
<event>
12    3  0.2212098E-007  0.4128040E+03  0.7818608E-02  0.1039434E+00
          1   -1    0    0  501    0  0.00000000000E+00  0.00000000000E+00  0.14192335396E+04  0.14192335396E+04  0.00000000000E+00 0. -1.
         -2   -1    0    0    0  501 -0.00000000000E+00 -0.00000000000E+00 -0.15658227500E+03  0.15658227500E+03  0.00000000000E+00 0.  1.
        -24    2    1    2    0    0 -0.19261776960E+03 -0.16557397324E+03  0.21661085471E+03  0.34358932780E+03  0.81345055297E+02 0.  0.
    5000000    2    1    2    0    0  0.19261776960E+03  0.16557397324E+03  0.10460404099E+04  0.12322264868E+04  0.59972096000E+03 0.  0.
        -24    2    4    4    0    0  0.35173543991E+03  0.11490738388E+03  0.36327747129E+03  0.52486440504E+03  0.81182485626E+02 0.  0.
         24    2    4    4    0    0 -0.15911767032E+03  0.50666589351E+02  0.68276293857E+03  0.70736208173E+03  0.79437699464E+02 0.  0.
         11    1    5    5    0    0  0.21594352865E+03  0.36130903829E+02  0.17916268777E+03  0.28290690778E+03  0.00000000000E+00 0. -1.
        -12    1    5    5    0    0  0.13579191127E+03  0.78776480055E+02  0.18411478352E+03  0.24195749727E+03  0.00000000000E+00 0.  1.
         13    1    3    3    0    0 -0.12844173047E+03 -0.58206412599E+02  0.12633087642E+03  0.18932711093E+03  0.00000000000E+00 0. -1.
        -14    1    3    3    0    0 -0.64176039129E+02 -0.10736756064E+03  0.90279978286E+02  0.15426221687E+03  0.00000000000E+00 0.  1.
          4    1    6    6  502    0 -0.17153138166E+02  0.37210185966E+02  0.19073334938E+03  0.19508469611E+03  0.00000000000E+00 0. -1.
         -3    1    6    6    0  502 -0.14196453215E+03  0.13456403385E+02  0.49202958919E+03  0.51227738562E+03  0.00000000000E+00 0.  1.
<mgrwt>
<rscale>  0 0.41280401E+03</rscale>
<asrwt>0</asrwt>
<pdfrwt beam="1">  1        1 0.21834361E+00 0.41280401E+03</pdfrwt>
<pdfrwt beam="2">  1       -2 0.24089582E-01 0.41280401E+03</pdfrwt>
<totfact> 0.10625973E+02</totfact>
</mgrwt>
</event>
<event>
12    3  0.2212098E-007  0.7452123E+03  0.7818608E-02  0.9642892E-01
         -2   -1    0    0    0  501 -0.00000000000E+00  0.00000000000E+00  0.16618835219E+04  0.16618835219E+04  0.00000000000E+00 0.  1.
          1   -1    0    0  501    0  0.00000000000E+00 -0.00000000000E+00 -0.35138268722E+03  0.35138268722E+03  0.00000000000E+00 0. -1.
        -24    2    1    2    0    0 -0.58543784182E+03 -0.22621378060E+03  0.36839695361E+03  0.73204689115E+03  0.79159296628E+02 0.  0.
    5000000    2    1    2    0    0  0.58543784182E+03  0.22621378060E+03  0.94210388110E+03  0.12812193180E+04  0.60004422910E+03 0.  0.
        -24    2    4    4    0    0  0.68114088178E+03  0.27128060526E+03  0.75872607039E+03  0.10583991075E+04  0.83650183967E+02 0.  0.
         24    2    4    4    0    0 -0.95703039959E+02 -0.45066824661E+02  0.18337781072E+03  0.22282021049E+03  0.69507799549E+02 0.  0.
         11    1    3    3    0    0 -0.19934414738E+03 -0.38537461662E+02  0.10837998841E+03  0.23015092208E+03  0.00000000000E+00 0. -1.
        -12    1    3    3    0    0 -0.38609369444E+03 -0.18767631894E+03  0.26001696520E+03  0.50189596907E+03  0.00000000000E+00 0.  1.
         13    1    5    5    0    0  0.99129693814E+02  0.38772664924E+02  0.15613907186E+03  0.18896937716E+03  0.00000000000E+00 0. -1.
        -14    1    5    5    0    0  0.58201118797E+03  0.23250794034E+03  0.60258699853E+03  0.86942973036E+03  0.00000000000E+00 0.  1.
          4    1    6    6  502    0 -0.69717131119E+01  0.15833744766E+02  0.14538515234E+02  0.22598245114E+02  0.00000000000E+00 0. -1.
         -3    1    6    6    0  502 -0.88731326847E+02 -0.60900569428E+02  0.16883929548E+03  0.20022196538E+03  0.00000000000E+00 0.  1.
<mgrwt>
<rscale>  0 0.74521233E+03</rscale>
<asrwt>0</asrwt>
<pdfrwt beam="1">  1        1 0.54058876E-01 0.74521233E+03</pdfrwt>
<pdfrwt beam="2">  1       -2 0.25567438E+00 0.74521233E+03</pdfrwt>
<totfact> 0.38219669E+00</totfact>
</mgrwt>
</event>
<event>
12    3  0.2212098E-007  0.6006207E+03  0.7818608E-02  0.9904119E-01
          1   -1    0    0  501    0  0.00000000000E+00  0.00000000000E+00  0.27656009455E+03  0.27656009455E+03  0.00000000000E+00 0. -1.
         -2   -1    0    0    0  501 -0.00000000000E+00 -0.00000000000E+00 -0.17180356287E+04  0.17180356287E+04  0.00000000000E+00 0.  1.
        -24    2    1    2    0    0 -0.47802386623E+03  0.28201949420E+03 -0.60996772468E+03  0.82862094540E+03  0.80686022430E+02 0.  0.
    5000000    2    1    2    0    0  0.47802386623E+03 -0.28201949420E+03 -0.83150780949E+03  0.11659747779E+04  0.60004177653E+03 0.  0.
        -24    2    4    4    0    0  0.31168060887E+03 -0.11686522130E+02 -0.76073876360E+03  0.82620961892E+03  0.81347963796E+02 0.  0.
         24    2    4    4    0    0  0.16634325736E+03 -0.27033297207E+03 -0.70769045894E+02  0.33976515895E+03  0.98397715020E+02 0.  0.
         13    1    3    3    0    0 -0.34526269080E+03  0.16108992188E+03 -0.40236768314E+03  0.55412637641E+03  0.00000000000E+00 0. -1.
        -14    1    3    3    0    0 -0.13276117542E+03  0.12092957232E+03 -0.20760004153E+03  0.27449456899E+03  0.00000000000E+00 0.  1.
         13    1    5    5    0    0  0.25951718209E+02  0.30720135265E+01 -0.22560068117E+02  0.34523696478E+02  0.00000000000E+00 0. -1.
        -14    1    5    5    0    0  0.28572889066E+03 -0.14758535657E+02 -0.73817869548E+03  0.79168592244E+03  0.00000000000E+00 0.  1.
          2    1    6    6  502    0  0.16623553522E+03 -0.20881007286E+03 -0.36622599571E+02  0.26940140032E+03  0.00000000000E+00 0. -1.
         -1    1    6    6    0  502  0.10772214159E+00 -0.61522899208E+02 -0.34146446323E+02  0.70363758623E+02  0.00000000000E+00 0.  1.
<mgrwt>
<rscale>  0 0.60062074E+03</rscale>
<asrwt>0</asrwt>
<pdfrwt beam="1">  1        1 0.42547707E-01 0.60062074E+03</pdfrwt>
<pdfrwt beam="2">  1       -2 0.26431317E+00 0.60062074E+03</pdfrwt>
<totfact> 0.47233240E+00</totfact>
</mgrwt>
</event>
<event>
12    3  0.2212098E-007  0.6859104E+03  0.7818608E-02  0.9741635E-01
          1   -1    0    0  501    0  0.00000000000E+00  0.00000000000E+00  0.18537739067E+04  0.18537739067E+04  0.00000000000E+00 0. -1.
         -2   -1    0    0    0  501 -0.00000000000E+00 -0.00000000000E+00 -0.50821656681E+03  0.50821656681E+03  0.00000000000E+00 0.  1.
        -24    2    1    2    0    0 -0.35668031906E+03  0.48170012519E+03 -0.16767623557E+03  0.62729833056E+03  0.78307183179E+02 0.  0.
    5000000    2    1    2    0    0  0.35668031906E+03 -0.48170012519E+03  0.15132335755E+04  0.17346921429E+04  0.60002092987E+03 0.  0.
        -24    2    4    4    0    0  0.17215771140E+03  0.68217011917E+02  0.72481898175E+03  0.75255184446E+03  0.81730557282E+02 0.  0.
         24    2    4    4    0    0  0.18452260766E+03 -0.54991713711E+03  0.78841459370E+03  0.98214029847E+03  0.80898355377E+02 0.  0.
         13    1    5    5    0    0  0.47949452994E+02  0.43427348424E+02  0.37433969234E+03  0.37988852298E+03  0.00000000000E+00 0. -1.
        -14    1    5    5    0    0  0.12420825841E+03  0.24789663493E+02  0.35047928941E+03  0.37266332148E+03  0.00000000000E+00 0.  1.
         13    1    3    3    0    0 -0.13109305561E+03  0.16475495736E+03 -0.97354058578E+02  0.23196421690E+03  0.00000000000E+00 0. -1.
        -14    1    3    3    0    0 -0.22558726345E+03  0.31694516783E+03 -0.70322176991E+02  0.39533411366E+03  0.00000000000E+00 0.  1.
          2    1    6    6  502    0  0.16945196372E+03 -0.52604820088E+03  0.77216755049E+03  0.94957011520E+03  0.00000000000E+00 0. -1.
         -1    1    6    6    0  502  0.15070643934E+02 -0.23868936225E+02  0.16247043217E+02  0.32570183272E+02  0.00000000000E+00 0.  1.
<mgrwt>
<rscale>  0 0.68591041E+03</rscale>
<asrwt>0</asrwt>
<pdfrwt beam="1">  1        1 0.28519598E+00 0.68591041E+03</pdfrwt>
<pdfrwt beam="2">  1       -2 0.78187165E-01 0.68591041E+03</pdfrwt>
<totfact> 0.50298383E+00</totfact>
</mgrwt>
</event>
<event>
12    3  0.2212098E-007  0.5970902E+03  0.7818608E-02  0.9911461E-01
          1   -1    0    0  501    0  0.00000000000E+00  0.00000000000E+00  0.23647433655E+04  0.23647433655E+04  0.00000000000E+00 0. -1.
         -2   -1    0    0    0  501 -0.00000000000E+00 -0.00000000000E+00 -0.15643025486E+03  0.15643025486E+03  0.00000000000E+00 0.  1.
        -24    2    1    2    0    0 -0.31984365270E+03  0.31780149030E+03  0.97782271987E+03  0.10796736145E+04  0.79120749390E+02 0.  0.
    5000000    2    1    2    0    0  0.31984365270E+03 -0.31780149030E+03  0.12304903908E+04  0.14415000059E+04  0.60043144128E+03 0.  0.
        -24    2    4    4    0    0  0.29906906324E+02  0.16538168532E+03  0.32470866010E+03  0.37183481995E+03  0.67674917842E+02 0.  0.
         24    2    4    4    0    0  0.28993674637E+03 -0.48318317561E+03  0.90578173068E+03  0.10696651859E+04  0.78827458404E+02 0.  0.
         13    1    5    5    0    0 -0.98697004536E+00  0.10797877402E+03  0.14589824557E+03  0.18151222496E+03  0.00000000000E+00 0. -1.
        -14    1    5    5    0    0  0.30893876370E+02  0.57402911291E+02  0.17881041453E+03  0.19032259500E+03  0.00000000000E+00 0.  1.
         13    1    3    3    0    0 -0.66892531299E+02  0.39241836838E+02  0.11900373634E+03  0.14204373187E+03  0.00000000000E+00 0. -1.
        -14    1    3    3    0    0 -0.25295112140E+03  0.27855965346E+03  0.85881898353E+03  0.93762988264E+03  0.00000000000E+00 0.  1.
          2    1    6    6  502    0  0.19898879494E+03 -0.38478567964E+03  0.72644610120E+03  0.84580168936E+03  0.00000000000E+00 0. -1.
         -1    1    6    6    0  502  0.90947951435E+02 -0.98397495969E+02  0.17933562948E+03  0.22386349654E+03  0.00000000000E+00 0.  1.
<mgrwt>
<rscale>  0 0.59709021E+03</rscale>
<asrwt>0</asrwt>
<pdfrwt beam="1">  1        1 0.36380665E+00 0.59709021E+03</pdfrwt>
<pdfrwt beam="2">  1       -2 0.24066195E-01 0.59709021E+03</pdfrwt>
<totfact> 0.24196167E+01</totfact>
</mgrwt>
</event>
<event>
12    3  0.2212098E-007  0.1139677E+04  0.7818608E-02  0.9167360E-01
         -4   -1    0    0    0  501 -0.00000000000E+00  0.00000000000E+00  0.10828886036E+04  0.10828886036E+04  0.00000000000E+00 0.  1.
          3   -1    0    0  501    0  0.00000000000E+00 -0.00000000000E+00 -0.20536456166E+04  0.20536456166E+04  0.00000000000E+00 0. -1.
        -24    2    1    2    0    0 -0.60191851023E+01 -0.11280588174E+04 -0.13899064332E+04  0.17918199658E+04  0.78904820027E+02 0.  0.
    5000000    2    1    2    0    0  0.60191851023E+01  0.11280588174E+04  0.41914942013E+03  0.13447142544E+04  0.60001438604E+03 0.  0.
        -24    2    4    4    0    0  0.85127755979E+02  0.45004150507E+03 -0.10929131669E+03  0.47775583664E+03  0.80758630567E+02 0.  0.
         24    2    4    4    0    0 -0.79108570877E+02  0.67801731236E+03  0.52844073683E+03  0.86695841778E+03  0.80010274178E+02 0.  0.
         11    1    5    5    0    0  0.93283225363E+02  0.30207040882E+03 -0.61740097823E+02  0.32211819523E+03  0.00000000000E+00 0. -1.
        -12    1    5    5    0    0 -0.81554693840E+01  0.14797109625E+03 -0.47551218872E+02  0.15563764140E+03  0.00000000000E+00 0.  1.
         13    1    3    3    0    0 -0.15395533231E+02 -0.10870208033E+04 -0.13180327389E+04  0.17085261338E+04  0.00000000000E+00 0. -1.
        -14    1    3    3    0    0  0.93763481286E+01 -0.41038014137E+02 -0.71873694323E+02  0.83293831970E+02  0.00000000000E+00 0.  1.
          2    1    6    6  502    0  0.93299664132E+01  0.16017533791E+03  0.14853209385E+03  0.21864347704E+03  0.00000000000E+00 0. -1.
         -1    1    6    6    0  502 -0.88438537290E+02  0.51784197445E+03  0.37990864298E+03  0.64831494074E+03  0.00000000000E+00 0.  1.
<mgrwt>
<rscale>  0 0.11396767E+04</rscale>
<asrwt>0</asrwt>
<pdfrwt beam="1">  1        3 0.31594548E+00 0.11396767E+04</pdfrwt>
<pdfrwt beam="2">  1       -4 0.16659825E+00 0.11396767E+04</pdfrwt>
<totfact> 0.15420358E-02</totfact>
</mgrwt>
</event>
<event>
12    3  0.2212098E-007  0.8947635E+03  0.7818608E-02  0.9432151E-01
          1   -1    0    0  501    0  0.00000000000E+00  0.00000000000E+00  0.13623312712E+04  0.13623312712E+04  0.00000000000E+00 0. -1.
         -2   -1    0    0    0  501 -0.00000000000E+00 -0.00000000000E+00 -0.73935581205E+03  0.73935581205E+03  0.00000000000E+00 0.  1.
        -24    2    1    2    0    0 -0.83001161281E+03  0.28012094320E+03  0.18577819430E+02  0.87990338448E+03  0.80608997125E+02 0.  0.
    5000000    2    1    2    0    0  0.83001161281E+03 -0.28012094320E+03  0.60439763976E+03  0.12217836988E+04  0.60005989659E+03 0.  0.
        -24    2    4    4    0    0  0.72588088571E+03 -0.19272494392E+03  0.19494749548E+03  0.78066455332E+03  0.85945648960E+02 0.  0.
         24    2    4    4    0    0  0.10413072711E+03 -0.87395999279E+02  0.40945014428E+03  0.44111914548E+03  0.91953307952E+02 0.  0.
         11    1    3    3    0    0 -0.36882479889E+03  0.85803625138E+02 -0.78285690091E+01  0.37875490869E+03  0.00000000000E+00 0. -1.
        -12    1    3    3    0    0 -0.46118681392E+03  0.19431731807E+03  0.26406388440E+02  0.50114847579E+03  0.00000000000E+00 0.  1.
         11    1    5    5    0    0  0.51557376820E+02 -0.37196094093E+02  0.22883289513E+02  0.67567428982E+02  0.00000000000E+00 0. -1.
        -12    1    5    5    0    0  0.67432350889E+03 -0.15552884983E+03  0.17206420597E+03  0.71309712434E+03  0.00000000000E+00 0.  1.
          2    1    6    6  502    0  0.45654159235E+02 -0.84747815807E+02  0.17778717413E+03  0.20217510683E+03  0.00000000000E+00 0. -1.
         -1    1    6    6    0  502  0.58476567872E+02 -0.26481834721E+01  0.23166297015E+03  0.23894403865E+03  0.00000000000E+00 0.  1.
<mgrwt>
<rscale>  0 0.89476346E+03</rscale>
<asrwt>0</asrwt>
<pdfrwt beam="1">  1        1 0.20958943E+00 0.89476346E+03</pdfrwt>
<pdfrwt beam="2">  1       -2 0.11374705E+00 0.89476346E+03</pdfrwt>
<totfact> 0.43870241E+00</totfact>
</mgrwt>
</event>
<event>
12    3  0.2212098E-007  0.5000216E+03  0.7818608E-02  0.1013773E+00
          1   -1    0    0  501    0  0.00000000000E+00  0.00000000000E+00  0.12852594004E+04  0.12852594004E+04  0.00000000000E+00 0. -1.
         -2   -1    0    0    0  501 -0.00000000000E+00 -0.00000000000E+00 -0.43283402373E+03  0.43283402373E+03  0.00000000000E+00 0.  1.
        -24    2    1    2    0    0  0.18917879119E+03 -0.41341031820E+03  0.84793836606E+03  0.96522131316E+03  0.77175154792E+02 0.  0.
    5000000    2    1    2    0    0 -0.18917879119E+03  0.41341031820E+03  0.44870106035E+01  0.75287211095E+03  0.60008297423E+03 0.  0.
        -24    2    4    4    0    0 -0.26261471901E+03  0.31409719908E+03 -0.22985733047E+03  0.47550946857E+03  0.75175269987E+02 0.  0.
         24    2    4    4    0    0  0.73435927816E+02  0.99313119117E+02  0.23434434107E+03  0.27736264239E+03  0.82199963976E+02 0.  0.
         13    1    5    5    0    0 -0.90562212991E+02  0.57338500556E+02 -0.58828100258E+02  0.12227004313E+03  0.00000000000E+00 0. -1.
        -14    1    5    5    0    0 -0.17205250602E+03  0.25675869853E+03 -0.17102923021E+03  0.35323942543E+03  0.00000000000E+00 0.  1.
         13    1    3    3    0    0  0.16432453162E+03 -0.31755300546E+03  0.60320605310E+03  0.70121323822E+03  0.00000000000E+00 0. -1.
        -14    1    3    3    0    0  0.24854259574E+02 -0.95857312740E+02  0.24473231297E+03  0.26400807494E+03  0.00000000000E+00 0.  1.
          4    1    6    6  502    0  0.33087928197E+01  0.24266042301E+02  0.12486468780E+03  0.12724377854E+03  0.00000000000E+00 0. -1.
         -3    1    6    6    0  502  0.70127134996E+02  0.75047076816E+02  0.10947965327E+03  0.15011886384E+03  0.00000000000E+00 0.  1.
<mgrwt>
<rscale>  0 0.50002162E+03</rscale>
<asrwt>0</asrwt>
<pdfrwt beam="1">  1        1 0.19773221E+00 0.50002162E+03</pdfrwt>
<pdfrwt beam="2">  1       -2 0.66589850E-01 0.50002162E+03</pdfrwt>
<totfact> 0.17948746E+01</totfact>
</mgrwt>
</event>
<event>
12    3  0.2212098E-007  0.5409650E+03  0.7818608E-02  0.1003607E+00
         -4   -1    0    0    0  501 -0.00000000000E+00  0.00000000000E+00  0.39847455939E+03  0.39847455939E+03  0.00000000000E+00 0.  1.
          3   -1    0    0  501    0  0.00000000000E+00 -0.00000000000E+00 -0.10363391171E+04  0.10363391171E+04  0.00000000000E+00 0. -1.
        -24    2    1    2    0    0  0.30695738220E+03 -0.36975770010E+03 -0.10224390044E+03  0.49782870408E+03  0.80224760287E+02 0.  0.
    5000000    2    1    2    0    0 -0.30695738220E+03  0.36975770010E+03 -0.53562065731E+03  0.93698497243E+03  0.60008979224E+03 0.  0.
        -24    2    4    4    0    0 -0.13449203333E+02 -0.57234296628E+02  0.80378669300E+02  0.12798952563E+03  0.80398646826E+02 0.  0.
         24    2    4    4    0    0 -0.29350817887E+03  0.42699199673E+03 -0.61599932661E+03  0.80899544680E+03  0.80927413359E+02 0.  0.
         11    1    5    5    0    0  0.17826102807E+02 -0.10172820629E+02  0.66790171264E+02  0.69872621235E+02  0.00000000000E+00 0. -1.
        -12    1    5    5    0    0 -0.31275306141E+02 -0.47061475999E+02  0.13588498036E+02  0.58116904394E+02  0.00000000000E+00 0.  1.
         13    1    3    3    0    0  0.18084896356E+03 -0.21498889817E+03 -0.99904352581E+02  0.29817352938E+03  0.00000000000E+00 0. -1.
        -14    1    3    3    0    0  0.12610841864E+03 -0.15476880193E+03 -0.23395478545E+01  0.19965517470E+03  0.00000000000E+00 0.  1.
          2    1    6    6  502    0 -0.27082483411E+03  0.34141511973E+03 -0.50590447712E+03  0.66771978758E+03  0.00000000000E+00 0. -1.
         -1    1    6    6    0  502 -0.22683344760E+02  0.85576876995E+02 -0.11009484948E+03  0.14127565922E+03  0.00000000000E+00 0.  1.
<mgrwt>
<rscale>  0 0.54096496E+03</rscale>
<asrwt>0</asrwt>
<pdfrwt beam="1">  1        3 0.15943678E+00 0.54096496E+03</pdfrwt>
<pdfrwt beam="2">  1       -4 0.61303780E-01 0.54096496E+03</pdfrwt>
<totfact> 0.15677036E+00</totfact>
</mgrwt>
</event>
<event>
12    3  0.2212098E-007  0.1321700E+04  0.7818608E-02  0.9012532E-01
         -2   -1    0    0    0  501 -0.00000000000E+00  0.00000000000E+00  0.45979995390E+04  0.45979995390E+04  0.00000000000E+00 0.  1.
          1   -1    0    0  501    0  0.00000000000E+00 -0.00000000000E+00 -0.14299830849E+04  0.14299830849E+04  0.00000000000E+00 0. -1.
        -24    2    1    2    0    0 -0.12268975091E+04 -0.39157585394E+03  0.41203418467E+04  0.43176212952E+04  0.77637411171E+02 0.  0.
    5000000    2    1    2    0    0  0.12268975091E+04  0.39157585394E+03 -0.95232539263E+03  0.17103613287E+04  0.59983587251E+03 0.  0.
        -24    2    4    4    0    0  0.12324084947E+03 -0.69507689132E+02  0.30114641169E+02  0.16051032978E+03  0.69548893051E+02 0.  0.
         24    2    4    4    0    0  0.11036566597E+04  0.46108354307E+03 -0.98244003380E+03  0.15498509989E+04  0.78699699781E+02 0.  0.
         11    1    5    5    0    0 -0.69694976361E+01 -0.14235629510E+02  0.63373277811E+01  0.17070113305E+02  0.00000000000E+00 0. -1.
        -12    1    5    5    0    0  0.13021034711E+03 -0.55272059622E+02  0.23777313388E+02  0.14344021647E+03  0.00000000000E+00 0.  1.
         13    1    3    3    0    0 -0.66803787478E+03 -0.20573437838E+03  0.21083717633E+04  0.22212232505E+04  0.00000000000E+00 0. -1.
        -14    1    3    3    0    0 -0.55885963437E+03 -0.18584147556E+03  0.20119700835E+04  0.20963980447E+04  0.00000000000E+00 0.  1.
          2    1    6    6  502    0  0.46885061821E+03  0.23348854173E+03 -0.45263897474E+03  0.69225706408E+03  0.00000000000E+00 0. -1.
         -1    1    6    6    0  502  0.63480604146E+03  0.22759500134E+03 -0.52980105906E+03  0.85759393485E+03  0.00000000000E+00 0.  1.
<mgrwt>
<rscale>  0 0.13217002E+04</rscale>
<asrwt>0</asrwt>
<pdfrwt beam="1">  1        1 0.21999740E+00 0.13217002E+04</pdfrwt>
<pdfrwt beam="2">  1       -2 0.70738454E+00 0.13217002E+04</pdfrwt>
<totfact> 0.13161853E-03</totfact>
</mgrwt>
</event>
<event>
12    3  0.2212098E-007  0.1887748E+04  0.7818608E-02  0.8660979E-01
         -2   -1    0    0    0  501 -0.00000000000E+00  0.00000000000E+00  0.13921158568E+04  0.13921158568E+04  0.00000000000E+00 0.  1.
          1   -1    0    0  501    0  0.00000000000E+00 -0.00000000000E+00 -0.27856594938E+04  0.27856594938E+04  0.00000000000E+00 0. -1.
        -24    2    1    2    0    0 -0.72441223960E+03 -0.17409648203E+04 -0.10787576737E+04  0.21739932021E+04  0.82442259062E+02 0.  0.
    5000000    2    1    2    0    0  0.72441223960E+03  0.17409648203E+04 -0.31478596331E+03  0.20037821485E+04  0.60026752175E+03 0.  0.
        -24    2    4    4    0    0  0.15621846885E+03  0.34248128728E+03 -0.30935666765E+03  0.49214886547E+03  0.69363649113E+02 0.  0.
         24    2    4    4    0    0  0.56819377075E+03  0.13984835330E+04 -0.54292956535E+01  0.15116332830E+04  0.80033442757E+02 0.  0.
         11    1    3    3    0    0 -0.27408248251E+03 -0.55870461488E+03 -0.34980097867E+03  0.71388569014E+03  0.00000000000E+00 0. -1.
        -12    1    3    3    0    0 -0.45032975709E+03 -0.11822602054E+04 -0.72895669507E+03  0.14601075120E+04  0.00000000000E+00 0.  1.
         11    1    5    5    0    0  0.77826245381E+02  0.16289391502E+03 -0.10418339570E+03  0.20843591811E+03  0.00000000000E+00 0. -1.
        -12    1    5    5    0    0  0.78392223471E+02  0.17958737226E+03 -0.20517327195E+03  0.28371294736E+03  0.00000000000E+00 0.  1.
          4    1    6    6  502    0  0.38909350792E+03  0.85564012540E+03  0.22014156959E+01  0.93995671620E+03  0.00000000000E+00 0. -1.
         -3    1    6    6    0  502  0.17910026282E+03  0.54284340757E+03 -0.76307113494E+01  0.57167656681E+03  0.00000000000E+00 0.  1.
<mgrwt>
<rscale>  0 0.18877484E+04</rscale>
<asrwt>0</asrwt>
<pdfrwt beam="1">  1        1 0.42856300E+00 0.18877484E+04</pdfrwt>
<pdfrwt beam="2">  1       -2 0.21417167E+00 0.18877484E+04</pdfrwt>
<totfact> 0.72672268E-02</totfact>
</mgrwt>
</event>
<event>
12    3  0.2212098E-007  0.5150345E+03  0.7818608E-02  0.1009928E+00
         -2   -1    0    0    0  501 -0.00000000000E+00  0.00000000000E+00  0.38600143490E+03  0.38600143490E+03  0.00000000000E+00 0.  1.
          1   -1    0    0  501    0  0.00000000000E+00 -0.00000000000E+00 -0.22121387120E+04  0.22121387120E+04  0.00000000000E+00 0. -1.
        -24    2    1    2    0    0  0.41834442522E+03  0.14123230443E+03 -0.17973753219E+04  0.18527035975E+04  0.83629842718E+02 0.  0.
    5000000    2    1    2    0    0 -0.41834442522E+03 -0.14123230443E+03 -0.28761955194E+02  0.74543654936E+03  0.59990814057E+03 0.  0.
        -24    2    4    4    0    0  0.38358247238E+02  0.69091840930E+02 -0.18209727808E+03  0.21348592840E+03  0.78560711085E+02 0.  0.
         24    2    4    4    0    0 -0.45670267246E+03 -0.21032414536E+03  0.15333532289E+03  0.53195062096E+03  0.81524013254E+02 0.  0.
         11    1    5    5    0    0  0.34456428636E+02  0.52287951837E+02 -0.18560335012E+03  0.19588230894E+03  0.00000000000E+00 0. -1.
        -12    1    5    5    0    0  0.39018186021E+01  0.16803889093E+02  0.35060720324E+01  0.17603619462E+02  0.00000000000E+00 0.  1.
         13    1    3    3    0    0  0.27760484421E+03  0.12702252933E+03 -0.13179349330E+04  0.13528309799E+04  0.00000000000E+00 0. -1.
        -14    1    3    3    0    0  0.14073958101E+03  0.14209775096E+02 -0.47944038887E+03  0.49987261763E+03  0.00000000000E+00 0.  1.
          2    1    6    6  502    0 -0.37896491428E+03 -0.18491246806E+03  0.97130165830E+02  0.43271387337E+03  0.00000000000E+00 0. -1.
         -1    1    6    6    0  502 -0.77737758185E+02 -0.25411677297E+02  0.56205157058E+02  0.99236747582E+02  0.00000000000E+00 0.  1.
<mgrwt>
<rscale>  0 0.51503450E+03</rscale>
<asrwt>0</asrwt>
<pdfrwt beam="1">  1        1 0.34032903E+00 0.51503450E+03</pdfrwt>
<pdfrwt beam="2">  1       -2 0.59384836E-01 0.51503450E+03</pdfrwt>
<totfact> 0.54554849E+00</totfact>
</mgrwt>
</event>
<event>
12    3  0.2212098E-007  0.1050359E+04  0.7818608E-02  0.9254973E-01
          1   -1    0    0  501    0  0.00000000000E+00  0.00000000000E+00  0.87072994735E+03  0.87072994735E+03  0.00000000000E+00 0. -1.
         -2   -1    0    0    0  501 -0.00000000000E+00 -0.00000000000E+00 -0.14330025020E+04  0.14330025020E+04  0.00000000000E+00 0.  1.
        -24    2    1    2    0    0 -0.45333752279E+03 -0.86126197731E+03  0.10105312768E+03  0.98180554111E+03  0.80270061722E+02 0.  0.
    5000000    2    1    2    0    0  0.45333752279E+03  0.86126197731E+03 -0.66332568237E+03  0.13219269083E+04  0.60016888192E+03 0.  0.
        -24    2    4    4    0    0  0.17436685541E+02  0.62246135503E+03 -0.27185905477E+03  0.68418586429E+03  0.80254437468E+02 0.  0.
         24    2    4    4    0    0  0.43590083725E+03  0.23880062229E+03 -0.39146662760E+03  0.63774104399E+03  0.80201256548E+02 0.  0.
         11    1    3    3    0    0 -0.30824123064E+03 -0.53131355853E+03  0.93153346471E+02  0.62127634729E+03  0.00000000000E+00 0. -1.
        -12    1    3    3    0    0 -0.14509629214E+03 -0.32994841879E+03  0.78997812052E+01  0.36052919382E+03  0.00000000000E+00 0.  1.
         13    1    5    5    0    0 -0.39157962667E+01  0.17626593640E+03 -0.39577199462E+02  0.18069689680E+03  0.00000000000E+00 0. -1.
        -14    1    5    5    0    0  0.21352481808E+02  0.44619541863E+03 -0.23228185531E+03  0.50348896749E+03  0.00000000000E+00 0.  1.
          2    1    6    6  502    0  0.25786869362E+03  0.18381559446E+03 -0.23336556507E+03  0.39337504099E+03  0.00000000000E+00 0. -1.
         -1    1    6    6    0  502  0.17803214363E+03  0.54985027832E+02 -0.15810106253E+03  0.24436600300E+03  0.00000000000E+00 0.  1.
<mgrwt>
<rscale>  0 0.10503590E+04</rscale>
<asrwt>0</asrwt>
<pdfrwt beam="1">  1        1 0.13395846E+00 0.10503590E+04</pdfrwt>
<pdfrwt beam="2">  1       -2 0.22046192E+00 0.10503590E+04</pdfrwt>
<totfact> 0.16431387E+00</totfact>
</mgrwt>
</event>
<event>
12    3  0.2212098E-007  0.3535186E+03  0.7818608E-02  0.1061180E+00
          1   -1    0    0  501    0  0.00000000000E+00  0.00000000000E+00  0.34757058715E+03  0.34757058715E+03  0.00000000000E+00 0. -1.
         -2   -1    0    0    0  501 -0.00000000000E+00 -0.00000000000E+00 -0.63063867483E+03  0.63063867483E+03  0.00000000000E+00 0.  1.
        -24    2    1    2    0    0  0.11698035158E+02 -0.25894899605E+03 -0.15344321040E+03  0.31174554235E+03  0.80305901257E+02 0.  0.
    5000000    2    1    2    0    0 -0.11698035158E+02  0.25894899605E+03 -0.12962487728E+03  0.66646371963E+03  0.60014985978E+03 0.  0.
        -24    2    4    4    0    0  0.43652631097E+02  0.32641421669E+03  0.14410940731E+03  0.36794177164E+03  0.78497343789E+02 0.  0.
         24    2    4    4    0    0 -0.55350666256E+02 -0.67465220640E+02 -0.27373428460E+03  0.29852194799E+03  0.81053331934E+02 0.  0.
         13    1    5    5    0    0  0.14828869680E+02  0.99754260952E+02  0.85104598063E+02  0.13196060232E+03  0.00000000000E+00 0. -1.
        -14    1    5    5    0    0  0.28823761418E+02  0.22665995574E+03  0.59004809252E+02  0.23598116932E+03  0.00000000000E+00 0.  1.
         13    1    3    3    0    0  0.30411348473E+02 -0.43353148321E+02 -0.15753854591E+02  0.55249701535E+02  0.00000000000E+00 0. -1.
        -14    1    3    3    0    0 -0.18713313314E+02 -0.21559584773E+03 -0.13768935581E+03  0.25649584082E+03  0.00000000000E+00 0.  1.
          2    1    6    6  502    0 -0.33247797276E+02  0.40429997515E+01 -0.35494803025E+02  0.48802078977E+02  0.00000000000E+00 0. -1.
         -1    1    6    6    0  502 -0.22102868980E+02 -0.71508220391E+02 -0.23823948157E+03  0.24971986902E+03  0.00000000000E+00 0.  1.
<mgrwt>
<rscale>  0 0.35351863E+03</rscale>
<asrwt>0</asrwt>
<pdfrwt beam="1">  1        1 0.53472399E-01 0.35351863E+03</pdfrwt>
<pdfrwt beam="2">  1       -2 0.97021334E-01 0.35351863E+03</pdfrwt>
<totfact> 0.58728146E+01</totfact>
</mgrwt>
</event>
<event>
12    3  0.2212098E-007  0.7769965E+03  0.7818608E-02  0.9593924E-01
         -4   -1    0    0    0  501 -0.00000000000E+00  0.00000000000E+00  0.29372190882E+03  0.29372190882E+03  0.00000000000E+00 0.  1.
          1   -1    0    0  501    0  0.00000000000E+00 -0.00000000000E+00 -0.26001992314E+04  0.26001992314E+04  0.00000000000E+00 0. -1.
        -24    2    1    2    0    0 -0.29656911171E+03 -0.70376768312E+03 -0.87587546058E+03  0.11648244936E+04  0.80100491289E+02 0.  0.
    5000000    2    1    2    0    0  0.29656911171E+03  0.70376768312E+03 -0.14306018620E+04  0.17290966466E+04  0.59992610866E+03 0.  0.
        -24    2    4    4    0    0  0.11853700284E+03  0.16107139593E+03 -0.33601077230E+02  0.21774781633E+03  0.79309920550E+02 0.  0.
         24    2    4    4    0    0  0.17803210887E+03  0.54269628719E+03 -0.13970007848E+04  0.15113488303E+04  0.79683135857E+02 0.  0.
         13    1    3    3    0    0 -0.15734648368E+03 -0.27244527233E+03 -0.35308887298E+03  0.47292292666E+03  0.00000000000E+00 0. -1.
        -14    1    3    3    0    0 -0.13922262803E+03 -0.43132241079E+03 -0.52278658760E+03  0.69190156697E+03  0.00000000000E+00 0.  1.
         13    1    5    5    0    0  0.38910693865E+01  0.57380994629E+02  0.69632088182E+01  0.57932764846E+02  0.00000000000E+00 0. -1.
        -14    1    5    5    0    0  0.11464593345E+03  0.10369040130E+03 -0.40564286048E+02  0.15981505149E+03  0.00000000000E+00 0.  1.
          2    1    6    6  502    0  0.14269678935E+03  0.34716647599E+03 -0.84276740406E+03  0.92257456777E+03  0.00000000000E+00 0. -1.
         -1    1    6    6    0  502  0.35335319514E+02  0.19552981120E+03 -0.55423338071E+03  0.58877426249E+03  0.00000000000E+00 0.  1.
<mgrwt>
<rscale>  0 0.77699647E+03</rscale>
<asrwt>0</asrwt>
<pdfrwt beam="1">  1        1 0.40003065E+00 0.77699647E+03</pdfrwt>
<pdfrwt beam="2">  1       -4 0.45187986E-01 0.77699647E+03</pdfrwt>
<totfact> 0.27877488E+00</totfact>
</mgrwt>
</event>
<event>
12    3  0.2212098E-007  0.3734874E+03  0.7818608E-02  0.1053367E+00
         -2   -1    0    0    0  501 -0.00000000000E+00  0.00000000000E+00  0.89574452048E+02  0.89574452048E+02  0.00000000000E+00 0.  1.
          1   -1    0    0  501    0  0.00000000000E+00 -0.00000000000E+00 -0.25641624763E+04  0.25641624763E+04  0.00000000000E+00 0. -1.
        -24    2    1    2    0    0 -0.43255288629E+02  0.27666859985E+03 -0.88826119578E+03  0.93472267015E+03  0.79258968095E+02 0.  0.
    5000000    2    1    2    0    0  0.43255288629E+02 -0.27666859985E+03 -0.15863268285E+04  0.17190142582E+04  0.60013388425E+03 0.  0.
        -24    2    4    4    0    0 -0.15266896827E+03 -0.12551071896E+03 -0.13533148436E+04  0.13699895541E+04  0.79684113595E+02 0.  0.
         24    2    4    4    0    0  0.19592425690E+03 -0.15115788089E+03 -0.23301198488E+03  0.34902470412E+03  0.79300943184E+02 0.  0.
         13    1    5    5    0    0  0.40654463577E+01 -0.25113765285E+02 -0.11634526490E+03  0.11909428922E+03  0.00000000000E+00 0. -1.
        -14    1    5    5    0    0 -0.15673441463E+03 -0.10039695367E+03 -0.12369695787E+04  0.12508952648E+04  0.00000000000E+00 0.  1.
         13    1    3    3    0    0 -0.40104020486E+02  0.80231392024E+02 -0.36314181987E+03  0.37405533022E+03  0.00000000000E+00 0. -1.
        -14    1    3    3    0    0 -0.31512681434E+01  0.19643720783E+03 -0.52511937591E+03  0.56066733993E+03  0.00000000000E+00 0.  1.
          2    1    6    6  502    0  0.72267401330E+02 -0.74292077622E+02 -0.14717277382E+03  0.18000476507E+03  0.00000000000E+00 0. -1.
         -1    1    6    6    0  502  0.12365685557E+03 -0.76865803272E+02 -0.85839211055E+02  0.16901993905E+03  0.00000000000E+00 0.  1.
<mgrwt>
<rscale>  0 0.37348739E+03</rscale>
<asrwt>0</asrwt>
<pdfrwt beam="1">  1        1 0.39448650E+00 0.37348739E+03</pdfrwt>
<pdfrwt beam="2">  1       -2 0.13780686E-01 0.37348739E+03</pdfrwt>
<totfact> 0.48465851E+01</totfact>
</mgrwt>
</event>
<event>
12    3  0.2212098E-007  0.1775968E+04  0.7818608E-02  0.8719185E-01
         -2   -1    0    0    0  501 -0.00000000000E+00  0.00000000000E+00  0.11084768057E+04  0.11084768057E+04  0.00000000000E+00 0.  1.
          1   -1    0    0  501    0  0.00000000000E+00 -0.00000000000E+00 -0.33932561931E+04  0.33932561931E+04  0.00000000000E+00 0. -1.
        -24    2    1    2    0    0 -0.92489304883E+03 -0.14785546884E+04 -0.19672572106E+04  0.26301645304E+04  0.78188272360E+02 0.  0.
    5000000    2    1    2    0    0  0.92489304883E+03  0.14785546884E+04 -0.31752217676E+03  0.18715684684E+04  0.60033080930E+03 0.  0.
        -24    2    4    4    0    0  0.90448054334E+03  0.11035553401E+04 -0.38862503795E+03  0.14809999531E+04  0.80074960027E+02 0.  0.
         24    2    4    4    0    0  0.20412505498E+02  0.37499934835E+03  0.71102861190E+02  0.39056851521E+03  0.80293004458E+02 0.  0.
         11    1    5    5    0    0  0.44123055860E+03  0.55653236359E+03 -0.23314963384E+03  0.74751015333E+03  0.00000000000E+00 0. -1.
        -12    1    5    5    0    0  0.46324998473E+03  0.54702297647E+03 -0.15547540410E+03  0.73348979981E+03  0.00000000000E+00 0.  1.
         11    1    3    3    0    0 -0.50792117744E+03 -0.75778317926E+03 -0.98860013156E+03  0.13451949633E+04  0.00000000000E+00 0. -1.
        -12    1    3    3    0    0 -0.41697187140E+03 -0.72077150915E+03 -0.97865707907E+03  0.12849695671E+04  0.00000000000E+00 0.  1.
          2    1    6    6  502    0  0.28910805541E+02  0.36740903421E+03  0.57794851352E+02  0.37304889483E+03  0.00000000000E+00 0. -1.
         -1    1    6    6    0  502 -0.84983000432E+01  0.75903141391E+01  0.13308009838E+02  0.17519620378E+02  0.00000000000E+00 0.  1.
<mgrwt>
<rscale>  0 0.17759676E+04</rscale>
<asrwt>0</asrwt>
<pdfrwt beam="1">  1        1 0.52203940E+00 0.17759676E+04</pdfrwt>
<pdfrwt beam="2">  1       -2 0.17053490E+00 0.17759676E+04</pdfrwt>
<totfact> 0.51553172E-02</totfact>
</mgrwt>
</event>
<event>
12    3  0.2212098E-007  0.4042277E+03  0.7818608E-02  0.1042326E+00
          1   -1    0    0  501    0  0.00000000000E+00  0.00000000000E+00  0.10886754588E+04  0.10886754588E+04  0.00000000000E+00 0. -1.
         -2   -1    0    0    0  501 -0.00000000000E+00 -0.00000000000E+00 -0.20792876306E+03  0.20792876306E+03  0.00000000000E+00 0.  1.
        -24    2    1    2    0    0  0.36748100397E+01  0.17770277642E+03 -0.24411568099E+02  0.19612808381E+03  0.79237110165E+02 0.  0.
    5000000    2    1    2    0    0 -0.36748100397E+01 -0.17770277642E+03  0.90515826379E+03  0.11004761380E+04  0.60012037695E+03 0.  0.
        -24    2    4    4    0    0  0.18494366529E+03  0.13542114625E+03  0.25981053652E+03  0.35469033227E+03  0.75899082548E+02 0.  0.
         24    2    4    4    0    0 -0.18861847533E+03 -0.31312392267E+03  0.64534772727E+03  0.74578580574E+03  0.78097751349E+02 0.  0.
         11    1    3    3    0    0 -0.37693996096E+02  0.77945383584E+02 -0.12476161224E+02  0.87475566661E+02  0.00000000000E+00 0. -1.
        -12    1    3    3    0    0  0.41368806135E+02  0.99757392835E+02 -0.11935406875E+02  0.10865251715E+03  0.00000000000E+00 0.  1.
         13    1    5    5    0    0  0.50837431385E+02  0.80612195564E+02  0.12125385457E+03  0.15422473132E+03  0.00000000000E+00 0. -1.
        -14    1    5    5    0    0  0.13410623391E+03  0.54808950684E+02  0.13855668196E+03  0.20046560094E+03  0.00000000000E+00 0.  1.
          2    1    6    6  502    0 -0.12594500752E+03 -0.13384857472E+03  0.32572648661E+03  0.37399910421E+03  0.00000000000E+00 0. -1.
         -1    1    6    6    0  502 -0.62673467810E+02 -0.17927534795E+03  0.31962124066E+03  0.37178670153E+03  0.00000000000E+00 0.  1.
<mgrwt>
<rscale>  0 0.40422774E+03</rscale>
<asrwt>0</asrwt>
<pdfrwt beam="1">  1        1 0.16748853E+00 0.40422774E+03</pdfrwt>
<pdfrwt beam="2">  1       -2 0.31989041E-01 0.40422774E+03</pdfrwt>
<totfact> 0.10861554E+02</totfact>
</mgrwt>
</event>
<event>
12    3  0.2212098E-007  0.1038318E+04  0.7818608E-02  0.9267488E-01
         -2   -1    0    0    0  501 -0.00000000000E+00  0.00000000000E+00  0.64482134900E+03  0.64482134900E+03  0.00000000000E+00 0.  1.
          1   -1    0    0  501    0  0.00000000000E+00 -0.00000000000E+00 -0.22822756819E+04  0.22822756819E+04  0.00000000000E+00 0. -1.
        -24    2    1    2    0    0  0.47549781093E+02  0.97223023795E+03 -0.14807005982E+04  0.17729982887E+04  0.59632649397E+02 0.  0.
    5000000    2    1    2    0    0 -0.47549781093E+02 -0.97223023795E+03 -0.15675373467E+03  0.11540987422E+04  0.59989962172E+03 0.  0.
        -24    2    4    4    0    0 -0.23571506459E+03 -0.25173674659E+03 -0.19522223696E+03  0.40422257384E+03  0.79694329415E+02 0.  0.
         24    2    4    4    0    0  0.18816528350E+03 -0.72049349136E+03  0.38468502291E+02  0.74987616835E+03  0.79482055772E+02 0.  0.
         13    1    3    3    0    0  0.49129751281E+02  0.50798800567E+03 -0.80675517285E+03  0.95463053339E+03  0.00000000000E+00 0. -1.
        -14    1    3    3    0    0 -0.15799701879E+01  0.46424223228E+03 -0.67394542536E+03  0.81836775529E+03  0.00000000000E+00 0.  1.
         13    1    5    5    0    0 -0.91450953332E+02 -0.15550436714E+03 -0.93896981098E+02  0.20337533805E+03  0.00000000000E+00 0. -1.
        -14    1    5    5    0    0 -0.14426411126E+03 -0.96232379447E+02 -0.10132525586E+03  0.20084723580E+03  0.00000000000E+00 0.  1.
          4    1    6    6  502    0 -0.47558356271E+01 -0.58272673115E+02 -0.55108687829E+01  0.58725565806E+02  0.00000000000E+00 0. -1.
         -3    1    6    6    0  502  0.19292111913E+03 -0.66222081824E+03  0.43979371074E+02  0.69115060255E+03  0.00000000000E+00 0.  1.
<mgrwt>
<rscale>  0 0.10383183E+04</rscale>
<asrwt>0</asrwt>
<pdfrwt beam="1">  1        1 0.35111933E+00 0.10383183E+04</pdfrwt>
<pdfrwt beam="2">  1       -2 0.99203285E-01 0.10383183E+04</pdfrwt>
<totfact> 0.14206947E+00</totfact>
</mgrwt>
</event>
<event>
12    3  0.2212098E-007  0.1303933E+04  0.7818608E-02  0.9026452E-01
          1   -1    0    0  501    0  0.00000000000E+00  0.00000000000E+00  0.14654146427E+04  0.14654146427E+04  0.00000000000E+00 0. -1.
         -2   -1    0    0    0  501 -0.00000000000E+00 -0.00000000000E+00 -0.15226904444E+04  0.15226904444E+04  0.00000000000E+00 0.  1.
        -24    2    1    2    0    0 -0.99016683040E+03  0.80874479123E+03  0.61859444801E+03  0.14226478339E+04  0.82275627789E+02 0.  0.
    5000000    2    1    2    0    0  0.99016683040E+03 -0.80874479123E+03 -0.67587024964E+03  0.15654572531E+04  0.59946420051E+03 0.  0.
        -24    2    4    4    0    0  0.19870713899E+03 -0.37236758142E+03 -0.46757553778E+03  0.63471177914E+03  0.78038556379E+02 0.  0.
         24    2    4    4    0    0  0.79145969141E+03 -0.43637720982E+03 -0.20829471187E+03  0.93074547400E+03  0.77890551390E+02 0.  0.
         11    1    5    5    0    0  0.73598877773E+02 -0.10193572143E+03 -0.94689392272E+02  0.15739684597E+03  0.00000000000E+00 0. -1.
        -12    1    5    5    0    0  0.12510826121E+03 -0.27043185999E+03 -0.37288614551E+03  0.47731493317E+03  0.00000000000E+00 0.  1.
         13    1    3    3    0    0 -0.89998664899E+03  0.75946064965E+03  0.58183882687E+03  0.13135040416E+04  0.00000000000E+00 0. -1.
        -14    1    3    3    0    0 -0.90180181404E+02  0.49284141587E+02  0.36755621142E+02  0.10914379238E+03  0.00000000000E+00 0.  1.
          2    1    6    6  502    0  0.15491172648E+03 -0.84030680475E+02 -0.72791738237E+02  0.19067625814E+03  0.00000000000E+00 0. -1.
         -1    1    6    6    0  502  0.63654796493E+03 -0.35234652934E+03 -0.13550297363E+03  0.74006921586E+03  0.00000000000E+00 0.  1.
<mgrwt>
<rscale>  0 0.13039330E+04</rscale>
<asrwt>0</asrwt>
<pdfrwt beam="1">  1        1 0.22544841E+00 0.13039330E+04</pdfrwt>
<pdfrwt beam="2">  1       -2 0.23426007E+00 0.13039330E+04</pdfrwt>
<totfact> 0.46940171E-01</totfact>
</mgrwt>
</event>
<event>
12    3  0.2212098E-007  0.5036662E+03  0.7818608E-02  0.1012826E+00
          1   -1    0    0  501    0  0.00000000000E+00  0.00000000000E+00  0.35634754920E+03  0.35634754920E+03  0.00000000000E+00 0. -1.
         -2   -1    0    0    0  501 -0.00000000000E+00 -0.00000000000E+00 -0.93095160927E+03  0.93095160927E+03  0.00000000000E+00 0.  1.
        -24    2    1    2    0    0  0.33419359403E+03  0.25297399716E+02  0.62222686563E+02  0.35030807994E+03  0.80738909015E+02 0.  0.
    5000000    2    1    2    0    0 -0.33419359403E+03 -0.25297399716E+02 -0.63682674663E+03  0.93699107852E+03  0.60006554581E+03 0.  0.
        -24    2    4    4    0    0 -0.10955277501E+03 -0.29368613614E+03 -0.23831087539E+03  0.40083788208E+03  0.75003848607E+02 0.  0.
         24    2    4    4    0    0 -0.22464081902E+03  0.26838873642E+03 -0.39851587124E+03  0.53615319644E+03  0.78417721328E+02 0.  0.
         11    1    3    3    0    0  0.15976506295E+03  0.24660730010E+01  0.69492136670E+02  0.17424153900E+03  0.00000000000E+00 0. -1.
        -12    1    3    3    0    0  0.17442853108E+03  0.22831326715E+02 -0.72694501076E+01  0.17606654094E+03  0.00000000000E+00 0.  1.
         13    1    5    5    0    0 -0.55895265243E+02 -0.74503297443E+02 -0.97577710667E+02  0.13489414971E+03  0.00000000000E+00 0. -1.
        -14    1    5    5    0    0 -0.53657509763E+02 -0.21918283869E+03 -0.14073316473E+03  0.26594373237E+03  0.00000000000E+00 0.  1.
          2    1    6    6  502    0 -0.16576222967E+03  0.16516216034E+03 -0.30780158543E+03  0.38664902947E+03  0.00000000000E+00 0. -1.
         -1    1    6    6    0  502 -0.58878589355E+02  0.10322657608E+03 -0.90714285806E+02  0.14950416698E+03  0.00000000000E+00 0.  1.
<mgrwt>
<rscale>  0 0.50366624E+03</rscale>
<asrwt>0</asrwt>
<pdfrwt beam="1">  1        1 0.54822700E-01 0.50366624E+03</pdfrwt>
<pdfrwt beam="2">  1       -2 0.14322332E+00 0.50366624E+03</pdfrwt>
<totfact> 0.21546421E+01</totfact>
</mgrwt>
</event>
<event>
12    3  0.2212098E-007  0.6254315E+03  0.7818608E-02  0.9854005E-01
         -2   -1    0    0    0  501 -0.00000000000E+00  0.00000000000E+00  0.98042159689E+03  0.98042159689E+03  0.00000000000E+00 0.  1.
          1   -1    0    0  501    0  0.00000000000E+00 -0.00000000000E+00 -0.54441086627E+03  0.54441086627E+03  0.00000000000E+00 0. -1.
        -24    2    1    2    0    0 -0.40329034644E+02  0.49587635474E+03  0.53974931899E+03  0.73844527575E+03  0.80326257879E+02 0.  0.
    5000000    2    1    2    0    0  0.40329034644E+02 -0.49587635474E+03 -0.10373858837E+03  0.78638718741E+03  0.60010276085E+03 0.  0.
        -24    2    4    4    0    0 -0.95772233028E+02  0.85926222324E+02  0.57062899265E+02  0.16239863225E+03  0.81003117108E+02 0.  0.
         24    2    4    4    0    0  0.13610126767E+03 -0.58180257707E+03 -0.16080148764E+03  0.62398855517E+03  0.80540702816E+02 0.  0.
         11    1    5    5    0    0 -0.43265381370E+02  0.89309708963E+02  0.33408827323E+02  0.10471039625E+03  0.00000000000E+00 0. -1.
        -12    1    5    5    0    0 -0.52506851658E+02 -0.33834866386E+01  0.23654071943E+02  0.57688235996E+02  0.00000000000E+00 0.  1.
         13    1    3    3    0    0 -0.32081995991E+02  0.33582921981E+03  0.30886662019E+03  0.45739382201E+03  0.00000000000E+00 0. -1.
        -14    1    3    3    0    0 -0.82470386529E+01  0.16004713493E+03  0.23088269880E+03  0.28105145375E+03  0.00000000000E+00 0.  1.
          4    1    6    6  502    0  0.53971029369E+02 -0.37522342922E+03 -0.12264431032E+03  0.39843082298E+03  0.00000000000E+00 0. -1.
         -3    1    6    6    0  502  0.82130238303E+02 -0.20657914785E+03 -0.38157177318E+02  0.22555773219E+03  0.00000000000E+00 0.  1.
<mgrwt>
<rscale>  0 0.62543147E+03</rscale>
<asrwt>0</asrwt>
<pdfrwt beam="1">  1        1 0.83755518E-01 0.62543147E+03</pdfrwt>
<pdfrwt beam="2">  1       -2 0.15083409E+00 0.62543147E+03</pdfrwt>
<totfact> 0.10519746E+01</totfact>
</mgrwt>
</event>
<event>
12    3  0.2212098E-007  0.4754129E+03  0.7818608E-02  0.1020404E+00
         -2   -1    0    0    0  501 -0.00000000000E+00  0.00000000000E+00  0.10254611862E+04  0.10254611862E+04  0.00000000000E+00 0.  1.
          3   -1    0    0  501    0  0.00000000000E+00 -0.00000000000E+00 -0.63950616226E+03  0.63950616226E+03  0.00000000000E+00 0. -1.
        -24    2    1    2    0    0  0.18897985274E+03  0.36348455245E+03  0.74445446267E+03  0.85477472172E+03  0.92698291718E+02 0.  0.
    5000000    2    1    2    0    0 -0.18897985274E+03 -0.36348455245E+03 -0.35849943876E+03  0.81019262671E+03  0.60004653168E+03 0.  0.
        -24    2    4    4    0    0 -0.22813568627E+03 -0.10053351985E+03  0.95245768322E+02  0.27829142201E+03  0.78876353992E+02 0.  0.
         24    2    4    4    0    0  0.39155833523E+02 -0.26295103260E+03 -0.45374520708E+03  0.53190120471E+03  0.79735523898E+02 0.  0.
         11    1    3    3    0    0  0.47648064172E+02  0.46301913795E+02  0.18218862363E+03  0.19392498503E+03  0.00000000000E+00 0. -1.
        -12    1    3    3    0    0  0.14133178857E+03  0.31718263865E+03  0.56226583905E+03  0.66084973669E+03  0.00000000000E+00 0.  1.
         11    1    5    5    0    0 -0.13035246833E+02  0.12569063990E+02  0.10404599192E+02  0.20884317416E+02  0.00000000000E+00 0. -1.
        -12    1    5    5    0    0 -0.21510043943E+03 -0.11310258384E+03  0.84841169129E+02  0.25740710459E+03  0.00000000000E+00 0.  1.
          2    1    6    6  502    0  0.15913206064E+02 -0.24769795178E+03 -0.42304539471E+03  0.49048436411E+03  0.00000000000E+00 0. -1.
         -1    1    6    6    0  502  0.23242627459E+02 -0.15253080818E+02 -0.30699812369E+02  0.41416840599E+02  0.00000000000E+00 0.  1.
<mgrwt>
<rscale>  0 0.47541287E+03</rscale>
<asrwt>0</asrwt>
<pdfrwt beam="1">  1        3 0.98385563E-01 0.47541287E+03</pdfrwt>
<pdfrwt beam="2">  1       -2 0.15776326E+00 0.47541287E+03</pdfrwt>
<totfact> 0.10212855E+00</totfact>
</mgrwt>
</event>
<event>
12    3  0.2212098E-007  0.3055074E+03  0.7818608E-02  0.1082519E+00
          1   -1    0    0  501    0  0.00000000000E+00  0.00000000000E+00  0.38332277210E+03  0.38332277210E+03  0.00000000000E+00 0. -1.
         -4   -1    0    0    0  501 -0.00000000000E+00 -0.00000000000E+00 -0.58324684320E+03  0.58324684320E+03  0.00000000000E+00 0.  1.
        -24    2    1    2    0    0  0.58990544427E+02  0.87659708869E+02  0.19867421103E+03  0.23864674707E+03  0.79477788519E+02 0.  0.
    5000000    2    1    2    0    0 -0.58990544427E+02 -0.87659708869E+02 -0.39859828214E+03  0.72792286823E+03  0.59985581824E+03 0.  0.
        -24    2    4    4    0    0 -0.97868689303E+02  0.17457608340E+03 -0.39738394223E+03  0.45203488698E+03  0.79790051122E+02 0.  0.
         24    2    4    4    0    0  0.38878144876E+02 -0.26223579227E+03 -0.12143399023E+01  0.27588798125E+03  0.76377893920E+02 0.  0.
         11    1    5    5    0    0 -0.67647700318E+02  0.79688419159E+02 -0.27536158555E+03  0.29453430752E+03  0.00000000000E+00 0. -1.
        -12    1    5    5    0    0 -0.30220988985E+02  0.94887664242E+02 -0.12202235668E+03  0.15750057946E+03  0.00000000000E+00 0.  1.
         13    1    3    3    0    0  0.26919458912E+02  0.94732812831E+02  0.13632573556E+03  0.16817749336E+03  0.00000000000E+00 0. -1.
        -14    1    3    3    0    0  0.32071085514E+02 -0.70731039624E+01  0.62348475470E+02  0.70469253715E+02  0.00000000000E+00 0.  1.
          4    1    6    6  502    0  0.59991482393E+02 -0.15344547606E+03  0.56783968045E+01  0.16485368141E+03  0.00000000000E+00 0. -1.
         -3    1    6    6    0  502 -0.21113337517E+02 -0.10879031621E+03 -0.68927367068E+01  0.11103429984E+03  0.00000000000E+00 0.  1.
<mgrwt>
<rscale>  0 0.30550741E+03</rscale>
<asrwt>0</asrwt>
<pdfrwt beam="1">  1        1 0.58972734E-01 0.30550741E+03</pdfrwt>
<pdfrwt beam="2">  1       -4 0.89730283E-01 0.30550741E+03</pdfrwt>
<totfact> 0.32627481E+01</totfact>
</mgrwt>
</event>
<event>
12    3  0.2212098E-007  0.5016696E+03  0.7818608E-02  0.1013344E+00
         -2   -1    0    0    0  501 -0.00000000000E+00  0.00000000000E+00  0.17027321584E+03  0.17027321584E+03  0.00000000000E+00 0.  1.
          1   -1    0    0  501    0  0.00000000000E+00 -0.00000000000E+00 -0.26756722067E+04  0.26756722067E+04  0.00000000000E+00 0. -1.
        -24    2    1    2    0    0  0.49142010806E+03 -0.71977025675E+01 -0.54782259686E+03  0.74030260832E+03  0.79955141978E+02 0.  0.
    5000000    2    1    2    0    0 -0.49142010806E+03  0.71977025675E+01 -0.19575763940E+04  0.21056428142E+04  0.60006732387E+03 0.  0.
        -24    2    4    4    0    0 -0.14635265231E+03 -0.22164720718E+02 -0.15728558927E+04  0.15818683884E+04  0.80756209186E+02 0.  0.
         24    2    4    4    0    0 -0.34506745576E+03  0.29362423285E+02 -0.38472050126E+03  0.52377442579E+03  0.79975521827E+02 0.  0.
         11    1    3    3    0    0  0.27178510091E+03 -0.26862404142E+02 -0.25426250366E+03  0.37314628579E+03  0.00000000000E+00 0. -1.
        -12    1    3    3    0    0  0.21963500715E+03  0.19664701574E+02 -0.29356009320E+03  0.36715632253E+03  0.00000000000E+00 0.  1.
         13    1    5    5    0    0 -0.43485630288E+02  0.24783864328E+02 -0.68776002455E+03  0.68957892322E+03  0.00000000000E+00 0. -1.
        -14    1    5    5    0    0 -0.10286702202E+03 -0.46948585046E+02 -0.88509586816E+03  0.89228946519E+03  0.00000000000E+00 0.  1.
          2    1    6    6  502    0 -0.13841152505E+03  0.18573343795E+02 -0.21384415905E+03  0.25540564544E+03  0.00000000000E+00 0. -1.
         -1    1    6    6    0  502 -0.20665593071E+03  0.10789079490E+02 -0.17087634222E+03  0.26836878034E+03  0.00000000000E+00 0.  1.
<mgrwt>
<rscale>  0 0.50166956E+03</rscale>
<asrwt>0</asrwt>
<pdfrwt beam="1">  1        1 0.41164185E+00 0.50166956E+03</pdfrwt>
<pdfrwt beam="2">  1       -2 0.26195881E-01 0.50166956E+03</pdfrwt>
<totfact> 0.13028303E+01</totfact>
</mgrwt>
</event>
<event>
12    3  0.2212098E-007  0.5219848E+03  0.7818608E-02  0.1008195E+00
          1   -1    0    0  501    0  0.00000000000E+00  0.00000000000E+00  0.23038289444E+04  0.23038289444E+04  0.00000000000E+00 0. -1.
         -2   -1    0    0    0  501 -0.00000000000E+00 -0.00000000000E+00 -0.26363824118E+03  0.26363824118E+03  0.00000000000E+00 0.  1.
        -24    2    1    2    0    0 -0.17409430914E+03  0.45503675307E+03  0.13581864675E+03  0.51222842143E+03  0.81018367076E+02 0.  0.
    5000000    2    1    2    0    0  0.17409430914E+03 -0.45503675307E+03  0.19043720565E+04  0.20552387642E+04  0.60000514418E+03 0.  0.
        -24    2    4    4    0    0  0.19200933006E+03 -0.15576529301E+03  0.21383882050E+03  0.33651757543E+03  0.79916381821E+02 0.  0.
         24    2    4    4    0    0 -0.17915020924E+02 -0.29927146006E+03  0.16905332360E+04  0.17187211887E+04  0.78838745671E+02 0.  0.
         11    1    5    5    0    0  0.13464114535E+03 -0.12657722337E+03  0.19673764187E+03  0.26991800834E+03  0.00000000000E+00 0. -1.
        -12    1    5    5    0    0  0.57368184710E+02 -0.29188069638E+02  0.17101178634E+02  0.66599567092E+02  0.00000000000E+00 0.  1.
         11    1    3    3    0    0 -0.32815734090E+01  0.43280477447E+02 -0.73481727641E+01  0.44022313604E+02  0.00000000000E+00 0. -1.
        -12    1    3    3    0    0 -0.17081273573E+03  0.41175627562E+03  0.14316681951E+03  0.46820610783E+03  0.00000000000E+00 0.  1.
          2    1    6    6  502    0  0.11900533926E+02 -0.22869753542E+03  0.13802663987E+04  0.13991352747E+04  0.00000000000E+00 0. -1.
         -1    1    6    6    0  502 -0.29815554850E+02 -0.70573924639E+02  0.31026683728E+03  0.31958591406E+03  0.00000000000E+00 0.  1.
<mgrwt>
<rscale>  0 0.52198478E+03</rscale>
<asrwt>0</asrwt>
<pdfrwt beam="1">  1        1 0.35443521E+00 0.52198478E+03</pdfrwt>
<pdfrwt beam="2">  1       -2 0.40559731E-01 0.52198478E+03</pdfrwt>
<totfact> 0.10211475E+01</totfact>
</mgrwt>
</event>
<event>
12    3  0.2212098E-007  0.1296275E+04  0.7818608E-02  0.9032524E-01
         -2   -1    0    0    0  501 -0.00000000000E+00  0.00000000000E+00  0.10009626279E+04  0.10009626279E+04  0.00000000000E+00 0.  1.
          1   -1    0    0  501    0  0.00000000000E+00 -0.00000000000E+00 -0.19028200236E+04  0.19028200236E+04  0.00000000000E+00 0. -1.
        -24    2    1    2    0    0  0.11918150348E+04  0.44843145434E+03 -0.90559530210E+02  0.12790549440E+04  0.79162332117E+02 0.  0.
    5000000    2    1    2    0    0 -0.11918150348E+04 -0.44843145434E+03 -0.81129786548E+03  0.16247277075E+04  0.60001837503E+03 0.  0.
        -24    2    4    4    0    0 -0.99746578946E+03 -0.25185088312E+03 -0.36633111890E+03  0.10949660099E+04  0.79907482025E+02 0.  0.
         24    2    4    4    0    0 -0.19434924537E+03 -0.19658057122E+03 -0.44496674658E+03  0.52976169756E+03  0.78971516958E+02 0.  0.
         11    1    5    5    0    0 -0.89872049017E+03 -0.24305895803E+03 -0.31186529779E+03  0.98185342109E+03  0.00000000000E+00 0. -1.
        -12    1    5    5    0    0 -0.98745299282E+02 -0.87919250967E+01 -0.54465821114E+02  0.11311258881E+03  0.00000000000E+00 0.  1.
         13    1    3    3    0    0  0.65421993272E+03  0.28343387685E+03 -0.32481628751E+02  0.71371810901E+03  0.00000000000E+00 0. -1.
        -14    1    3    3    0    0  0.53759510210E+03  0.16499757749E+03 -0.58077901459E+02  0.56533683501E+03  0.00000000000E+00 0.  1.
          2    1    6    6  502    0 -0.27564348691E+02 -0.77204988172E+02 -0.14012067411E+03  0.16233978820E+03  0.00000000000E+00 0. -1.
         -1    1    6    6    0  502 -0.16678489668E+03 -0.11937558304E+03 -0.30484607246E+03  0.36742190937E+03  0.00000000000E+00 0.  1.
<mgrwt>
<rscale>  0 0.12962753E+04</rscale>
<asrwt>0</asrwt>
<pdfrwt beam="1">  1        1 0.29274154E+00 0.12962753E+04</pdfrwt>
<pdfrwt beam="2">  1       -2 0.15399425E+00 0.12962753E+04</pdfrwt>
<totfact> 0.82116152E-01</totfact>
</mgrwt>
</event>
<event>
12    3  0.2212098E-007  0.4528940E+03  0.7818608E-02  0.1026863E+00
          1   -1    0    0  501    0  0.00000000000E+00  0.00000000000E+00  0.14493289131E+04  0.14493289131E+04  0.00000000000E+00 0. -1.
         -2   -1    0    0    0  501 -0.00000000000E+00 -0.00000000000E+00 -0.28459508461E+03  0.28459508461E+03  0.00000000000E+00 0.  1.
        -24    2    1    2    0    0 -0.28785684688E+03 -0.19741190882E+03  0.93795331692E+03  0.10037014493E+04  0.76335761441E+02 0.  0.
    5000000    2    1    2    0    0  0.28785684688E+03  0.19741190882E+03  0.22678051157E+03  0.73022254845E+03  0.59996878568E+03 0.  0.
        -24    2    4    4    0    0 -0.50631246408E+02  0.20448753029E+03  0.30006426040E+03  0.37517676257E+03  0.79626438101E+02 0.  0.
         24    2    4    4    0    0  0.33848809329E+03 -0.70756214719E+01 -0.73283748828E+02  0.35504578588E+03  0.77863653351E+02 0.  0.
         11    1    3    3    0    0 -0.72327767372E+02 -0.83539718449E+02  0.35610335016E+03  0.37285357245E+03  0.00000000000E+00 0. -1.
        -12    1    3    3    0    0 -0.21552907951E+03 -0.11387219037E+03  0.58184996676E+03  0.63084787681E+03  0.00000000000E+00 0.  1.
         13    1    5    5    0    0 -0.39069950877E+02  0.11434963175E+03  0.10541171487E+03  0.16035563281E+03  0.00000000000E+00 0. -1.
        -14    1    5    5    0    0 -0.11561295531E+02  0.90137898541E+02  0.19465254553E+03  0.21482112976E+03  0.00000000000E+00 0.  1.
          2    1    6    6  502    0  0.19867272678E+03 -0.18482853620E+02 -0.63906018906E+01  0.19963293325E+03  0.00000000000E+00 0. -1.
         -1    1    6    6    0  502  0.13981536651E+03  0.11407232148E+02 -0.66893146937E+02  0.15541285264E+03  0.00000000000E+00 0.  1.
<mgrwt>
<rscale>  0 0.45289403E+03</rscale>
<asrwt>0</asrwt>
<pdfrwt beam="1">  1        1 0.22297367E+00 0.45289403E+03</pdfrwt>
<pdfrwt beam="2">  1       -2 0.43783860E-01 0.45289403E+03</pdfrwt>
<totfact> 0.33017712E+01</totfact>
</mgrwt>
</event>
<event>
12    3  0.2212098E-007  0.3843202E+03  0.7818608E-02  0.1049348E+00
          1   -1    0    0  501    0  0.00000000000E+00  0.00000000000E+00  0.44286868356E+03  0.44286868356E+03  0.00000000000E+00 0. -1.
         -2   -1    0    0    0  501 -0.00000000000E+00 -0.00000000000E+00 -0.45775502228E+03  0.45775502228E+03  0.00000000000E+00 0.  1.
        -24    2    1    2    0    0  0.19240780662E+02  0.19176277401E+03  0.14018318382E+03  0.25126489077E+03  0.79621298467E+02 0.  0.
    5000000    2    1    2    0    0 -0.19240780662E+02 -0.19176277401E+03 -0.15506952254E+03  0.64935881506E+03  0.60039748896E+03 0.  0.
        -24    2    4    4    0    0 -0.22116246967E+03  0.51599753410E+02  0.72945685418E+02  0.25153131621E+03  0.79822036239E+02 0.  0.
         24    2    4    4    0    0  0.20192168901E+03 -0.24336252742E+03 -0.22801520796E+03  0.39782749885E+03  0.79234434041E+02 0.  0.
         11    1    3    3    0    0  0.44151521650E+02  0.15358848250E+03  0.12606187654E+03  0.20354452962E+03  0.00000000000E+00 0. -1.
        -12    1    3    3    0    0 -0.24910740988E+02  0.38174291513E+02  0.14121307282E+02  0.47720361152E+02  0.00000000000E+00 0.  1.
         13    1    5    5    0    0 -0.52405606661E+02 -0.18960759734E+02  0.31365763375E+02  0.63950520962E+02  0.00000000000E+00 0. -1.
        -14    1    5    5    0    0 -0.16875686301E+03  0.70560513144E+02  0.41579922043E+02  0.18758079525E+03  0.00000000000E+00 0.  1.
          2    1    6    6  502    0  0.60688735485E+02 -0.13012209618E+03 -0.82703900369E+02  0.16569495365E+03  0.00000000000E+00 0. -1.
         -1    1    6    6    0  502  0.14123295353E+03 -0.11324043124E+03 -0.14531130759E+03  0.23213254520E+03  0.00000000000E+00 0.  1.
<mgrwt>
<rscale>  0 0.38432019E+03</rscale>
<asrwt>0</asrwt>
<pdfrwt beam="1">  1        1 0.68133644E-01 0.38432019E+03</pdfrwt>
<pdfrwt beam="2">  1       -2 0.70423849E-01 0.38432019E+03</pdfrwt>
<totfact> 0.87598821E+01</totfact>
</mgrwt>
</event>
<event>
12    3  0.2212098E-007  0.8968734E+03  0.7818608E-02  0.9429498E-01
         -2   -1    0    0    0  501 -0.00000000000E+00  0.00000000000E+00  0.10842071298E+04  0.10842071298E+04  0.00000000000E+00 0.  1.
          1   -1    0    0  501    0  0.00000000000E+00 -0.00000000000E+00 -0.75899091761E+03  0.75899091761E+03  0.00000000000E+00 0. -1.
        -24    2    1    2    0    0  0.43659334053E+02  0.80210412850E+03  0.20822742404E+03  0.83368075562E+03  0.79923537021E+02 0.  0.
    5000000    2    1    2    0    0 -0.43659334053E+02 -0.80210412850E+03  0.11698878817E+03  0.10095172918E+04  0.60013466448E+03 0.  0.
        -24    2    4    4    0    0  0.24186758874E+03 -0.22305170409E+03 -0.37570760270E+02  0.34074965878E+03  0.80291810014E+02 0.  0.
         24    2    4    4    0    0 -0.28552692279E+03 -0.57905242441E+03  0.15455954844E+03  0.66876763303E+03  0.80834145757E+02 0.  0.
         13    1    5    5    0    0  0.21547737803E+03 -0.15444357210E+03 -0.26916159863E+02  0.26647288243E+03  0.00000000000E+00 0. -1.
        -14    1    5    5    0    0  0.26390210703E+02 -0.68608131990E+02 -0.10654600407E+02  0.74276776357E+02  0.00000000000E+00 0.  1.
         13    1    3    3    0    0  0.42988788809E+02  0.32833616406E+03  0.11706025016E+03  0.35122040766E+03  0.00000000000E+00 0. -1.
        -14    1    3    3    0    0  0.67054524419E+00  0.47376796444E+03  0.91167173883E+02  0.48246034796E+03  0.00000000000E+00 0.  1.
          2    1    6    6  502    0 -0.16057785814E+03 -0.23895156068E+03  0.80674879742E+02  0.29898416864E+03  0.00000000000E+00 0. -1.
         -1    1    6    6    0  502 -0.12494906465E+03 -0.34010086373E+03  0.73884668694E+02  0.36978346439E+03  0.00000000000E+00 0.  1.
<mgrwt>
<rscale>  0 0.89687340E+03</rscale>
<asrwt>0</asrwt>
<pdfrwt beam="1">  1        1 0.11676783E+00 0.89687340E+03</pdfrwt>
<pdfrwt beam="2">  1       -2 0.16680110E+00 0.89687340E+03</pdfrwt>
<totfact> 0.47632310E+00</totfact>
</mgrwt>
</event>
<event>
12    3  0.2212098E-007  0.1092588E+04  0.7818608E-02  0.9212446E-01
          1   -1    0    0  501    0  0.00000000000E+00  0.00000000000E+00  0.10025612137E+04  0.10025612137E+04  0.00000000000E+00 0. -1.
         -2   -1    0    0    0  501 -0.00000000000E+00 -0.00000000000E+00 -0.14633131178E+04  0.14633131178E+04  0.00000000000E+00 0.  1.
        -24    2    1    2    0    0  0.10092715887E+04 -0.36901810253E+03  0.15663776003E+03  0.10889615055E+04  0.80611866239E+02 0.  0.
    5000000    2    1    2    0    0 -0.10092715887E+04  0.36901810253E+03 -0.61738966419E+03  0.13769128259E+04  0.59992952347E+03 0.  0.
        -24    2    4    4    0    0 -0.92726751246E+03  0.27248826835E+03 -0.28409443049E+03  0.10106704204E+04  0.81671029941E+02 0.  0.
         24    2    4    4    0    0 -0.82004076196E+02  0.96529834179E+02 -0.33329523370E+03  0.36624240557E+03  0.83696531769E+02 0.  0.
         11    1    3    3    0    0  0.26672187243E+03 -0.70577585033E+02  0.15540362336E+02  0.27633902295E+03  0.00000000000E+00 0. -1.
        -12    1    3    3    0    0  0.74254971623E+03 -0.29844051749E+03  0.14109739769E+03  0.81262248258E+03  0.00000000000E+00 0.  1.
         13    1    5    5    0    0 -0.29427744935E+03  0.54853528801E+02 -0.64551322710E+02  0.30622704009E+03  0.00000000000E+00 0. -1.
        -14    1    5    5    0    0 -0.63299006311E+03  0.21763473955E+03 -0.21954310778E+03  0.70444338028E+03  0.00000000000E+00 0.  1.
          2    1    6    6  502    0 -0.39427333342E+02  0.55168125153E+01 -0.40954708866E+02  0.57116004877E+02  0.00000000000E+00 0. -1.
         -1    1    6    6    0  502 -0.42576742854E+02  0.91013021664E+02 -0.29234052483E+03  0.30912640069E+03  0.00000000000E+00 0.  1.
<mgrwt>
<rscale>  0 0.10925885E+04</rscale>
<asrwt>0</asrwt>
<pdfrwt beam="1">  1        1 0.15424019E+00 0.10925885E+04</pdfrwt>
<pdfrwt beam="2">  1       -2 0.22512510E+00 0.10925885E+04</pdfrwt>
<totfact> 0.11962676E+00</totfact>
</mgrwt>
</event>
<event>
12    3  0.2212098E-007  0.9440327E+03  0.7818608E-02  0.9372153E-01
          1   -1    0    0  501    0  0.00000000000E+00  0.00000000000E+00  0.15639148496E+04  0.15639148496E+04  0.00000000000E+00 0. -1.
         -2   -1    0    0    0  501 -0.00000000000E+00 -0.00000000000E+00 -0.69010308882E+03  0.69010308882E+03  0.00000000000E+00 0.  1.
        -24    2    1    2    0    0  0.78435172775E+03 -0.48951634223E+03  0.64013274397E+03  0.11273337487E+04  0.79231110592E+02 0.  0.
    5000000    2    1    2    0    0 -0.78435172775E+03  0.48951634223E+03  0.23367901682E+03  0.11266841897E+04  0.59998124836E+03 0.  0.
        -24    2    4    4    0    0 -0.75681057251E+02  0.14465710853E+03  0.28434693065E+03  0.33456410854E+03  0.66533181786E+02 0.  0.
         24    2    4    4    0    0 -0.70867067050E+03  0.34485923371E+03 -0.50667913833E+02  0.79212008120E+03  0.61196202924E+02 0.  0.
         11    1    5    5    0    0  0.43672647447E+01  0.44738529044E+02  0.10491172888E+03  0.11413623368E+03  0.00000000000E+00 0. -1.
        -12    1    5    5    0    0 -0.80048321996E+02  0.99918579482E+02  0.17943520177E+03  0.22042787486E+03  0.00000000000E+00 0.  1.
         13    1    3    3    0    0  0.46843730370E+03 -0.28914618561E+03  0.42781860108E+03  0.69718561344E+03  0.00000000000E+00 0. -1.
        -14    1    3    3    0    0  0.31591442405E+03 -0.20037015662E+03  0.21231414288E+03  0.43014813525E+03  0.00000000000E+00 0.  1.
          2    1    6    6  502    0 -0.41537076714E+03  0.23539980927E+03 -0.31398022298E+02  0.47846816008E+03  0.00000000000E+00 0. -1.
         -1    1    6    6    0  502 -0.29329990335E+03  0.10945942444E+03 -0.19269891536E+02  0.31365192113E+03  0.00000000000E+00 0.  1.
<mgrwt>
<rscale>  0 0.94403273E+03</rscale>
<asrwt>0</asrwt>
<pdfrwt beam="1">  1        1 0.24060228E+00 0.94403273E+03</pdfrwt>
<pdfrwt beam="2">  1       -2 0.10616971E+00 0.94403273E+03</pdfrwt>
<totfact> 0.37387128E+00</totfact>
</mgrwt>
</event>
<event>
12    3  0.2212098E-007  0.5724880E+03  0.7818608E-02  0.9964188E-01
          1   -1    0    0  501    0  0.00000000000E+00  0.00000000000E+00  0.97348524915E+03  0.97348524915E+03  0.00000000000E+00 0. -1.
         -2   -1    0    0    0  501 -0.00000000000E+00 -0.00000000000E+00 -0.62040216688E+03  0.62040216688E+03  0.00000000000E+00 0.  1.
        -24    2    1    2    0    0  0.45519627236E+03  0.31009781184E+03  0.52144025799E+03  0.76245385985E+03  0.77920770501E+02 0.  0.
    5000000    2    1    2    0    0 -0.45519627236E+03 -0.31009781184E+03 -0.16835717573E+03  0.83143355618E+03  0.59964432828E+03 0.  0.
        -24    2    4    4    0    0 -0.40596553208E+03 -0.29937012142E+03 -0.35515386419E+03  0.62200516552E+03  0.79534117523E+02 0.  0.
         24    2    4    4    0    0 -0.49230740285E+02 -0.10727690412E+02  0.18679668846E+03  0.20942839066E+03  0.80177920056E+02 0.  0.
         11    1    5    5    0    0 -0.13220105592E+03 -0.97081759135E+02 -0.16244734506E+03  0.23084871033E+03  0.00000000000E+00 0. -1.
        -12    1    5    5    0    0 -0.27376447616E+03 -0.20228836229E+03 -0.19270651912E+03  0.39115645519E+03  0.00000000000E+00 0.  1.
         11    1    3    3    0    0  0.35888401808E+03  0.27519745791E+03  0.40190148321E+03  0.60502576927E+03  0.00000000000E+00 0. -1.
        -12    1    3    3    0    0  0.96312254282E+02  0.34900353923E+02  0.11953877478E+03  0.15742809058E+03  0.00000000000E+00 0.  1.
          4    1    6    6  502    0 -0.52794573804E+02  0.18866529326E+02  0.15928910984E+03  0.16886750269E+03  0.00000000000E+00 0. -1.
         -3    1    6    6    0  502  0.35638335193E+01 -0.29594219738E+02  0.27507578620E+02  0.40560887968E+02  0.00000000000E+00 0.  1.
<mgrwt>
<rscale>  0 0.57248800E+03</rscale>
<asrwt>0</asrwt>
<pdfrwt beam="1">  1        1 0.14976696E+00 0.57248800E+03</pdfrwt>
<pdfrwt beam="2">  1       -2 0.95446488E-01 0.57248800E+03</pdfrwt>
<totfact> 0.13434967E+01</totfact>
</mgrwt>
</event>
<event>
12    3  0.2212098E-007  0.5181328E+03  0.7818608E-02  0.1009151E+00
          1   -1    0    0  501    0  0.00000000000E+00  0.00000000000E+00  0.14785779970E+04  0.14785779970E+04  0.00000000000E+00 0. -1.
         -2   -1    0    0    0  501 -0.00000000000E+00 -0.00000000000E+00 -0.23602362646E+03  0.23602362646E+03  0.00000000000E+00 0.  1.
        -24    2    1    2    0    0  0.19579018445E+03 -0.28557687602E+03  0.84237078488E+03  0.91450036215E+03  0.82670579532E+02 0.  0.
    5000000    2    1    2    0    0 -0.19579018445E+03  0.28557687602E+03  0.40018358563E+03  0.80010126126E+03  0.60010597199E+03 0.  0.
        -24    2    4    4    0    0  0.10032235203E+03  0.34733233464E+03  0.28224277236E+03  0.46562840010E+03  0.80277639620E+02 0.  0.
         24    2    4    4    0    0 -0.29611253648E+03 -0.61755458617E+02  0.11794081326E+03  0.33447286116E+03  0.80409504962E+02 0.  0.
         11    1    3    3    0    0  0.15419908626E+03 -0.15478852712E+03  0.50052788095E+03  0.54613643529E+03  0.00000000000E+00 0. -1.
        -12    1    3    3    0    0  0.41591098187E+02 -0.13078834890E+03  0.34184290392E+03  0.36836392687E+03  0.00000000000E+00 0.  1.
         13    1    5    5    0    0  0.39935955811E+02  0.47404312383E+02  0.68690648549E+02  0.92522724761E+02  0.00000000000E+00 0. -1.
        -14    1    5    5    0    0  0.60386396223E+02  0.29992802226E+03  0.21355212381E+03  0.37310567534E+03  0.00000000000E+00 0.  1.
          2    1    6    6  502    0 -0.10910335521E+03 -0.62214048091E+02  0.55534734796E+02  0.13732529507E+03  0.00000000000E+00 0. -1.
         -1    1    6    6    0  502 -0.18700918127E+03  0.45858947409E+00  0.62406078469E+02  0.19714756609E+03  0.00000000000E+00 0.  1.
<mgrwt>
<rscale>  0 0.51813277E+03</rscale>
<asrwt>0</asrwt>
<pdfrwt beam="1">  1        1 0.22747353E+00 0.51813277E+03</pdfrwt>
<pdfrwt beam="2">  1       -2 0.36311328E-01 0.51813277E+03</pdfrwt>
<totfact> 0.44817512E+01</totfact>
</mgrwt>
</event>
<event>
12    3  0.2212098E-007  0.4586588E+03  0.7818608E-02  0.1025171E+00
         -2   -1    0    0    0  501 -0.00000000000E+00  0.00000000000E+00  0.37358018334E+03  0.37358018334E+03  0.00000000000E+00 0.  1.
          1   -1    0    0  501    0  0.00000000000E+00 -0.00000000000E+00 -0.81826353346E+03  0.81826353346E+03  0.00000000000E+00 0. -1.
        -24    2    1    2    0    0  0.10319029652E+03  0.36744989787E+03 -0.10539815651E+03  0.40388418262E+03  0.79661765213E+02 0.  0.
    5000000    2    1    2    0    0 -0.10319029652E+03 -0.36744989787E+03 -0.33928519361E+03  0.78795953418E+03  0.60008176123E+03 0.  0.
        -24    2    4    4    0    0  0.11786934473E+03 -0.43743832755E+02 -0.35791559563E+03  0.38740094971E+03  0.78544362717E+02 0.  0.
         24    2    4    4    0    0 -0.22105964125E+03 -0.32370606512E+03  0.18630402013E+02  0.40055858446E+03  0.80293873529E+02 0.  0.
         11    1    3    3    0    0  0.48535826895E+02  0.28309198575E+03 -0.96393309368E+02  0.30296611853E+03  0.00000000000E+00 0. -1.
        -12    1    3    3    0    0  0.54654469628E+02  0.84357912120E+02 -0.90048471380E+01  0.10091806409E+03  0.00000000000E+00 0.  1.
         13    1    5    5    0    0  0.97485951908E+02 -0.13488625717E+02 -0.17401339109E+03  0.19991526736E+03  0.00000000000E+00 0. -1.
        -14    1    5    5    0    0  0.20383392821E+02 -0.30255207038E+02 -0.18390220453E+03  0.18748568235E+03  0.00000000000E+00 0.  1.
          2    1    6    6  502    0 -0.74212517434E+02 -0.14900807216E+03  0.40419478781E+02  0.17130276582E+03  0.00000000000E+00 0. -1.
         -1    1    6    6    0  502 -0.14684712382E+03 -0.17469799296E+03 -0.21789076767E+02  0.22925581865E+03  0.00000000000E+00 0.  1.
<mgrwt>
<rscale>  0 0.45865884E+03</rscale>
<asrwt>0</asrwt>
<pdfrwt beam="1">  1        1 0.12588670E+00 0.45865884E+03</pdfrwt>
<pdfrwt beam="2">  1       -2 0.57473875E-01 0.45865884E+03</pdfrwt>
<totfact> 0.55604026E+01</totfact>
</mgrwt>
</event>
<event>
12    3  0.2212098E-007  0.1147388E+04  0.7818608E-02  0.9160197E-01
          1   -1    0    0  501    0  0.00000000000E+00  0.00000000000E+00  0.12144988839E+04  0.12144988839E+04  0.00000000000E+00 0. -1.
         -2   -1    0    0    0  501 -0.00000000000E+00 -0.00000000000E+00 -0.14179066289E+04  0.14179066289E+04  0.00000000000E+00 0.  1.
        -24    2    1    2    0    0  0.10711576048E+04  0.21642133241E+03 -0.68852045411E+03  0.12947253446E+04  0.89646498918E+02 0.  0.
    5000000    2    1    2    0    0 -0.10711576048E+04 -0.21642133241E+03  0.48511270903E+03  0.13376801682E+04  0.59986422178E+03 0.  0.
        -24    2    4    4    0    0 -0.67471210731E+03 -0.37516351696E+03  0.46015715510E+03  0.90235875933E+03  0.80762806648E+02 0.  0.
         24    2    4    4    0    0 -0.39644549749E+03  0.15874218455E+03  0.24955553934E+02  0.43532140890E+03  0.80708337495E+02 0.  0.
         11    1    5    5    0    0 -0.65073850699E+03 -0.35126104967E+03  0.42231456209E+03  0.85158353604E+03  0.00000000000E+00 0. -1.
        -12    1    5    5    0    0 -0.23973600326E+02 -0.23902467290E+02  0.37842593007E+02  0.50775223295E+02  0.00000000000E+00 0.  1.
         11    1    3    3    0    0  0.56111774190E+03  0.10873626582E+03 -0.41259129402E+03  0.70491720910E+03  0.00000000000E+00 0. -1.
        -12    1    3    3    0    0  0.51003986289E+03  0.10768506659E+03 -0.27592916009E+03  0.58980813549E+03  0.00000000000E+00 0.  1.
          2    1    6    6  502    0 -0.36332953929E+03  0.13399298827E+03  0.44116335834E+02  0.38975469992E+03  0.00000000000E+00 0. -1.
         -1    1    6    6    0  502 -0.33115958197E+02  0.24749196279E+02 -0.19160781900E+02  0.45566708975E+02  0.00000000000E+00 0.  1.
<mgrwt>
<rscale>  0 0.11473878E+04</rscale>
<asrwt>0</asrwt>
<pdfrwt beam="1">  1        1 0.18684598E+00 0.11473878E+04</pdfrwt>
<pdfrwt beam="2">  1       -2 0.21813948E+00 0.11473878E+04</pdfrwt>
<totfact> 0.91054511E-01</totfact>
</mgrwt>
</event>
<event>
12    3  0.2212098E-007  0.1179698E+04  0.7818608E-02  0.9130814E-01
          1   -1    0    0  501    0  0.00000000000E+00  0.00000000000E+00  0.30683733563E+04  0.30683733563E+04  0.00000000000E+00 0. -1.
         -2   -1    0    0    0  501 -0.00000000000E+00 -0.00000000000E+00 -0.80163141559E+03  0.80163141559E+03  0.00000000000E+00 0.  1.
        -24    2    1    2    0    0  0.20270096666E+03  0.11356724751E+04  0.22945364162E+04  0.25694774840E+04  0.80483059843E+02 0.  0.
    5000000    2    1    2    0    0 -0.20270096666E+03 -0.11356724751E+04 -0.27794475472E+02  0.13005272879E+04  0.59979916722E+03 0.  0.
        -24    2    4    4    0    0  0.58034358158E+02 -0.60483626175E+03 -0.25246673428E+03  0.66282388313E+03  0.80007236329E+02 0.  0.
         24    2    4    4    0    0 -0.26073532482E+03 -0.53083621339E+03  0.22467225881E+03  0.63770340476E+03  0.80112505336E+02 0.  0.
         11    1    3    3    0    0  0.14881922949E+03  0.88220398944E+03  0.18486055652E+04  0.20537218842E+04  0.00000000000E+00 0. -1.
        -12    1    3    3    0    0  0.53881737176E+02  0.25346848571E+03  0.44593085101E+03  0.51575559980E+03  0.00000000000E+00 0.  1.
         13    1    5    5    0    0  0.54131094282E+02 -0.35320338143E+03 -0.11123892555E+03  0.37424177022E+03  0.00000000000E+00 0. -1.
        -14    1    5    5    0    0  0.39032638763E+01 -0.25163288032E+03 -0.14122780873E+03  0.28858211291E+03  0.00000000000E+00 0.  1.
          4    1    6    6  502    0 -0.15044542296E+03 -0.38799381533E+03  0.16442727589E+03  0.44744760037E+03  0.00000000000E+00 0. -1.
         -3    1    6    6    0  502 -0.11028990187E+03 -0.14284239806E+03  0.60244982923E+02  0.19025580439E+03  0.00000000000E+00 0.  1.
<mgrwt>
<rscale>  0 0.11796985E+04</rscale>
<asrwt>0</asrwt>
<pdfrwt beam="1">  1        1 0.47205743E+00 0.11796985E+04</pdfrwt>
<pdfrwt beam="2">  1       -2 0.12332791E+00 0.11796985E+04</pdfrwt>
<totfact> 0.23028061E-01</totfact>
</mgrwt>
</event>
<event>
12    3  0.2212098E-007  0.7514185E+03  0.7818608E-02  0.9633128E-01
          1   -1    0    0  501    0  0.00000000000E+00  0.00000000000E+00  0.13859927617E+04  0.13859927617E+04  0.00000000000E+00 0. -1.
         -2   -1    0    0    0  501 -0.00000000000E+00 -0.00000000000E+00 -0.43294860111E+03  0.43294860111E+03  0.00000000000E+00 0.  1.
        -24    2    1    2    0    0 -0.60657308268E+03 -0.24277414264E+03  0.35775099982E+03  0.75075015526E+03  0.93647363969E+02 0.  0.
    5000000    2    1    2    0    0  0.60657308268E+03  0.24277414264E+03  0.59529316079E+03  0.10681912076E+04  0.59982357380E+03 0.  0.
        -24    2    4    4    0    0  0.34684696364E+02  0.27161299225E+03  0.86550382053E+02  0.29809384571E+03  0.79952026211E+02 0.  0.
         24    2    4    4    0    0  0.57188838632E+03 -0.28838849605E+02  0.50874277873E+03  0.77009736187E+03  0.79641234236E+02 0.  0.
         11    1    3    3    0    0 -0.51971533382E+03 -0.19635516730E+03  0.26527365333E+03  0.61565371036E+03  0.00000000000E+00 0. -1.
        -12    1    3    3    0    0 -0.86857748862E+02 -0.46418975347E+02  0.92477346494E+02  0.13509644490E+03  0.00000000000E+00 0.  1.
         11    1    5    5    0    0  0.41948728248E+02  0.23698454817E+03  0.47341438252E+02  0.24528062225E+03  0.00000000000E+00 0. -1.
        -12    1    5    5    0    0 -0.72640318839E+01  0.34628444077E+02  0.39208943801E+02  0.52813223461E+02  0.00000000000E+00 0.  1.
          4    1    6    6  502    0  0.10185301437E+03 -0.95680152239E+01  0.13437580076E+03  0.16888587650E+03  0.00000000000E+00 0. -1.
         -3    1    6    6    0  502  0.47003537195E+03 -0.19270834381E+02  0.37436697797E+03  0.60121148537E+03  0.00000000000E+00 0.  1.
<mgrwt>
<rscale>  0 0.75141854E+03</rscale>
<asrwt>0</asrwt>
<pdfrwt beam="1">  1        1 0.21322965E+00 0.75141854E+03</pdfrwt>
<pdfrwt beam="2">  1       -2 0.66607478E-01 0.75141854E+03</pdfrwt>
<totfact> 0.14701182E+01</totfact>
</mgrwt>
</event>
<event>
12    3  0.2212098E-007  0.6338777E+03  0.7818608E-02  0.9837511E-01
          1   -1    0    0  501    0  0.00000000000E+00  0.00000000000E+00  0.21625564488E+04  0.21625564488E+04  0.00000000000E+00 0. -1.
         -2   -1    0    0    0  501 -0.00000000000E+00 -0.00000000000E+00 -0.25706006808E+03  0.25706006808E+03  0.00000000000E+00 0.  1.
        -24    2    1    2    0    0  0.17491136040E+03 -0.57038207180E+03  0.51578440318E+03  0.79275261675E+03  0.80582063547E+02 0.  0.
    5000000    2    1    2    0    0 -0.17491136040E+03  0.57038207180E+03  0.13897119776E+04  0.16268639002E+04  0.59954739362E+03 0.  0.
        -24    2    4    4    0    0 -0.10361410569E+03  0.49618234042E+02  0.87783196977E+03  0.88897536635E+03  0.80562911943E+02 0.  0.
         24    2    4    4    0    0 -0.71297254711E+02  0.52076383776E+03  0.51188000781E+03  0.73788853381E+03  0.78613438345E+02 0.  0.
         11    1    5    5    0    0 -0.11273936652E+02  0.46565536412E+02  0.30559532592E+03  0.30932823029E+03  0.00000000000E+00 0. -1.
        -12    1    5    5    0    0 -0.92340169041E+02  0.30526976301E+01  0.57223664384E+03  0.57964713605E+03  0.00000000000E+00 0.  1.
         13    1    3    3    0    0  0.87834443495E+02 -0.36487000036E+03  0.28122855872E+03  0.46897175700E+03  0.00000000000E+00 0. -1.
        -14    1    3    3    0    0  0.87076916908E+02 -0.20551207144E+03  0.23455584446E+03  0.32378085975E+03  0.00000000000E+00 0.  1.
          2    1    6    6  502    0  0.85711986745E+01  0.12068676758E+03  0.88269462260E+02  0.14976735053E+03  0.00000000000E+00 0. -1.
         -1    1    6    6    0  502 -0.79868453386E+02  0.40007707018E+03  0.42361054555E+03  0.58812118328E+03  0.00000000000E+00 0.  1.
<mgrwt>
<rscale>  0 0.63387769E+03</rscale>
<asrwt>0</asrwt>
<pdfrwt beam="1">  1        1 0.33270098E+00 0.63387769E+03</pdfrwt>
<pdfrwt beam="2">  1       -2 0.39547704E-01 0.63387769E+03</pdfrwt>
<totfact> 0.13036850E+01</totfact>
</mgrwt>
</event>
<event>
12    3  0.2212098E-007  0.1514254E+04  0.7818608E-02  0.8875029E-01
          1   -1    0    0  501    0  0.00000000000E+00  0.00000000000E+00  0.12552301398E+04  0.12552301398E+04  0.00000000000E+00 0. -1.
         -2   -1    0    0    0  501 -0.00000000000E+00 -0.00000000000E+00 -0.24788103836E+04  0.24788103836E+04  0.00000000000E+00 0.  1.
        -24    2    1    2    0    0  0.68137239155E+03  0.13089355645E+04  0.32545439143E+03  0.15120211556E+04  0.52026591155E+02 0.  0.
    5000000    2    1    2    0    0 -0.68137239155E+03 -0.13089355645E+04 -0.15490346353E+04  0.22220193677E+04  0.60023422211E+03 0.  0.
        -24    2    4    4    0    0 -0.20818518916E+03 -0.65381460713E+02 -0.99873678329E+02  0.25307308054E+03  0.80345653781E+02 0.  0.
         24    2    4    4    0    0 -0.47318720238E+03 -0.12435541038E+04 -0.14491609569E+04  0.19689462872E+04  0.79681021643E+02 0.  0.
         13    1    3    3    0    0  0.46810803118E+03  0.94994980607E+03  0.23431366062E+03  0.10846348023E+04  0.00000000000E+00 0. -1.
        -14    1    3    3    0    0  0.21326436037E+03  0.35898575844E+03  0.91140730803E+02  0.42738635329E+03  0.00000000000E+00 0.  1.
         13    1    5    5    0    0 -0.10543897751E+03 -0.18256567240E+02 -0.78178401542E+01  0.10729305127E+03  0.00000000000E+00 0. -1.
        -14    1    5    5    0    0 -0.10274621166E+03 -0.47124893473E+02 -0.92055838175E+02  0.14578002928E+03  0.00000000000E+00 0.  1.
          2    1    6    6  502    0 -0.17242589480E+03 -0.53630828865E+03 -0.57475090726E+03  0.80479554861E+03  0.00000000000E+00 0. -1.
         -1    1    6    6    0  502 -0.30076130758E+03 -0.70724581515E+03 -0.87441004967E+03  0.11641507386E+04  0.00000000000E+00 0.  1.
<mgrwt>
<rscale>  0 0.15142544E+04</rscale>
<asrwt>0</asrwt>
<pdfrwt beam="1">  1        1 0.19311233E+00 0.15142544E+04</pdfrwt>
<pdfrwt beam="2">  1       -2 0.38135544E+00 0.15142544E+04</pdfrwt>
<totfact> 0.79234784E-02</totfact>
</mgrwt>
</event>
<event>
12    3  0.2212098E-007  0.6756925E+03  0.7818608E-02  0.9759729E-01
          1   -1    0    0  501    0  0.00000000000E+00  0.00000000000E+00  0.18984420182E+04  0.18984420182E+04  0.00000000000E+00 0. -1.
         -2   -1    0    0    0  501 -0.00000000000E+00 -0.00000000000E+00 -0.29326140444E+03  0.29326140444E+03  0.00000000000E+00 0.  1.
        -24    2    1    2    0    0 -0.11453008720E+03  0.58241294419E+03  0.95091105089E+03  0.11237756924E+04  0.79485857796E+02 0.  0.
    5000000    2    1    2    0    0  0.11453008720E+03 -0.58241294419E+03  0.65426956286E+03  0.10679277303E+04  0.60006582787E+03 0.  0.
        -24    2    4    4    0    0 -0.20880723879E+02  0.58342941655E+02  0.30593608825E+03  0.32190238256E+03  0.78640640465E+02 0.  0.
         24    2    4    4    0    0  0.13541081108E+03 -0.64075588585E+03  0.34833347462E+03  0.74602534773E+03  0.79457012928E+02 0.  0.
         11    1    3    3    0    0 -0.49362909216E+02  0.32892145344E+03  0.46282594966E+03  0.56994199619E+03  0.00000000000E+00 0. -1.
        -12    1    3    3    0    0 -0.65167177983E+02  0.25349149076E+03  0.48808510123E+03  0.55383369617E+03  0.00000000000E+00 0.  1.
         13    1    5    5    0    0 -0.38974937517E+02  0.17825720874E+01  0.93287719150E+02  0.10111786124E+03  0.00000000000E+00 0. -1.
        -14    1    5    5    0    0  0.18094213638E+02  0.56560369568E+02  0.21264836910E+03  0.22078452132E+03  0.00000000000E+00 0.  1.
          2    1    6    6  502    0  0.43034880349E+02 -0.37151312363E+03  0.21869917222E+03  0.43324742340E+03  0.00000000000E+00 0. -1.
         -1    1    6    6    0  502  0.92375930729E+02 -0.26924276222E+03  0.12963430240E+03  0.31277792432E+03  0.00000000000E+00 0.  1.
<mgrwt>
<rscale>  0 0.67569247E+03</rscale>
<asrwt>0</asrwt>
<pdfrwt beam="1">  1        1 0.29206800E+00 0.67569247E+03</pdfrwt>
<pdfrwt beam="2">  1       -2 0.45117140E-01 0.67569247E+03</pdfrwt>
<totfact> 0.14988606E+01</totfact>
</mgrwt>
</event>
<event>
12    3  0.2212098E-007  0.1142991E+04  0.7818608E-02  0.9164274E-01
          3   -1    0    0  501    0  0.00000000000E+00  0.00000000000E+00  0.24985292065E+04  0.24985292065E+04  0.00000000000E+00 0. -1.
         -4   -1    0    0    0  501 -0.00000000000E+00 -0.00000000000E+00 -0.10277340736E+04  0.10277340736E+04  0.00000000000E+00 0.  1.
        -24    2    1    2    0    0  0.10454904392E+04  0.41852610604E+03  0.18742895247E+04  0.21881118612E+04  0.81596168399E+02 0.  0.
    5000000    2    1    2    0    0 -0.10454904392E+04 -0.41852610604E+03 -0.40349439189E+03  0.13381514189E+04  0.59968919926E+03 0.  0.
        -24    2    4    4    0    0 -0.55989596408E+03 -0.87340127025E+02 -0.47165754002E+03  0.74167342761E+03  0.80665046816E+02 0.  0.
         24    2    4    4    0    0 -0.48559447515E+03 -0.33118597902E+03  0.68163148135E+02  0.59647799131E+03  0.75190640113E+02 0.  0.
         11    1    5    5    0    0 -0.12706276841E+03 -0.52105310081E+02 -0.97073477501E+02  0.16817601045E+03  0.00000000000E+00 0. -1.
        -12    1    5    5    0    0 -0.43283319566E+03 -0.35234816944E+02 -0.37458406252E+03  0.57349741716E+03  0.00000000000E+00 0.  1.
         13    1    3    3    0    0  0.46473216663E+03  0.20316925657E+03  0.91661008557E+03  0.10475818739E+04  0.00000000000E+00 0. -1.
        -14    1    3    3    0    0  0.58075827260E+03  0.21535684947E+03  0.95767943918E+03  0.11405299873E+04  0.00000000000E+00 0.  1.
          2    1    6    6  502    0 -0.16659146796E+03 -0.11436819580E+03 -0.12369802913E+02  0.20244953305E+03  0.00000000000E+00 0. -1.
         -1    1    6    6    0  502 -0.31900300719E+03 -0.21681778322E+03  0.80532951048E+02  0.39402845826E+03  0.00000000000E+00 0.  1.
<mgrwt>
<rscale>  0 0.11429911E+04</rscale>
<asrwt>0</asrwt>
<pdfrwt beam="1">  1        3 0.38438911E+00 0.11429911E+04</pdfrwt>
<pdfrwt beam="2">  1       -4 0.15811294E+00 0.11429911E+04</pdfrwt>
<totfact> 0.76118602E-03</totfact>
</mgrwt>
</event>
<event>
12    3  0.2212098E-007  0.7257089E+03  0.7818608E-02  0.9674249E-01
          1   -1    0    0  501    0  0.00000000000E+00  0.00000000000E+00  0.85624547718E+03  0.85624547718E+03  0.00000000000E+00 0. -1.
         -2   -1    0    0    0  501 -0.00000000000E+00 -0.00000000000E+00 -0.80892742944E+03  0.80892742944E+03  0.00000000000E+00 0.  1.
        -24    2    1    2    0    0 -0.38035238809E+03 -0.53231140398E+03  0.32539907545E+03  0.73507369791E+03  0.80158674617E+02 0.  0.
    5000000    2    1    2    0    0  0.38035238809E+03  0.53231140398E+03 -0.27808102770E+03  0.93009920871E+03  0.59977671690E+03 0.  0.
        -24    2    4    4    0    0  0.30801322301E+03  0.67516919302E+02  0.77867019341E+02  0.33487912963E+03  0.81548015456E+02 0.  0.
         24    2    4    4    0    0  0.72339165085E+02  0.46479448468E+03 -0.35594804704E+03  0.59522007908E+03  0.79505110189E+02 0.  0.
         11    1    5    5    0    0  0.10065661102E+03  0.55645567276E+02  0.62544679525E+01  0.11518376999E+03  0.00000000000E+00 0. -1.
        -12    1    5    5    0    0  0.20735661198E+03  0.11871352026E+02  0.71612551389E+02  0.21969535964E+03  0.00000000000E+00 0.  1.
         13    1    3    3    0    0 -0.10098649480E+03 -0.13471834360E+03  0.45956156177E+02  0.17452585060E+03  0.00000000000E+00 0. -1.
        -14    1    3    3    0    0 -0.27936589329E+03 -0.39759306038E+03  0.27944291927E+03  0.56054784731E+03  0.00000000000E+00 0.  1.
          2    1    6    6  502    0  0.49675493752E+02  0.13513616161E+03 -0.79975975055E+02  0.16469849253E+03  0.00000000000E+00 0. -1.
         -1    1    6    6    0  502  0.22663671332E+02  0.32965832307E+03 -0.27597207199E+03  0.43052158655E+03  0.00000000000E+00 0.  1.
<mgrwt>
<rscale>  0 0.72570887E+03</rscale>
<asrwt>0</asrwt>
<pdfrwt beam="1">  1        1 0.13173007E+00 0.72570887E+03</pdfrwt>
<pdfrwt beam="2">  1       -2 0.12445037E+00 0.72570887E+03</pdfrwt>
<totfact> 0.86209930E+00</totfact>
</mgrwt>
</event>
<event>
12    3  0.2212098E-007  0.7489704E+03  0.7818608E-02  0.9636967E-01
         -2   -1    0    0    0  501 -0.00000000000E+00  0.00000000000E+00  0.72681194189E+03  0.72681194189E+03  0.00000000000E+00 0.  1.
          1   -1    0    0  501    0  0.00000000000E+00 -0.00000000000E+00 -0.11376097908E+04  0.11376097908E+04  0.00000000000E+00 0. -1.
        -24    2    1    2    0    0  0.64485026524E+03  0.24376858142E+03  0.24820945009E+03  0.73797558428E+03  0.88005942995E+02 0.  0.
    5000000    2    1    2    0    0 -0.64485026524E+03 -0.24376858142E+03 -0.65900729896E+03  0.11264461484E+04  0.59944584345E+03 0.  0.
        -24    2    4    4    0    0 -0.23834676938E+03 -0.30176510011E+03 -0.61252220273E+02  0.39684948351E+03  0.76591905312E+02 0.  0.
         24    2    4    4    0    0 -0.40650349586E+03  0.57996518687E+02 -0.59775507869E+03  0.72959666486E+03  0.79946675628E+02 0.  0.
         13    1    3    3    0    0  0.43140820701E+03  0.12793883095E+03  0.13324969038E+03  0.46929400756E+03  0.00000000000E+00 0. -1.
        -14    1    3    3    0    0  0.21344205823E+03  0.11582975047E+03  0.11495975971E+03  0.26868157672E+03  0.00000000000E+00 0.  1.
         13    1    5    5    0    0 -0.72917678282E+02 -0.13926876016E+03 -0.77335942889E+00  0.15720487730E+03  0.00000000000E+00 0. -1.
        -14    1    5    5    0    0 -0.16542909109E+03 -0.16249633995E+03 -0.60478860844E+02  0.23964460621E+03  0.00000000000E+00 0.  1.
          2    1    6    6  502    0  0.44412948393E-01  0.61896242875E+01 -0.22123555100E+02  0.22973138915E+02  0.00000000000E+00 0. -1.
         -1    1    6    6    0  502 -0.40654790881E+03  0.51806894400E+02 -0.57563152359E+03  0.70662352594E+03  0.00000000000E+00 0.  1.
<mgrwt>
<rscale>  0 0.74897044E+03</rscale>
<asrwt>0</asrwt>
<pdfrwt beam="1">  1        1 0.17501689E+00 0.74897044E+03</pdfrwt>
<pdfrwt beam="2">  1       -2 0.11181722E+00 0.74897044E+03</pdfrwt>
<totfact> 0.67545494E+00</totfact>
</mgrwt>
</event>
<event>
12    3  0.2212098E-007  0.1140521E+04  0.7818608E-02  0.9166573E-01
         -4   -1    0    0    0  501 -0.00000000000E+00  0.00000000000E+00  0.17757480140E+04  0.17757480140E+04  0.00000000000E+00 0.  1.
          3   -1    0    0  501    0  0.00000000000E+00 -0.00000000000E+00 -0.14430758188E+04  0.14430758188E+04  0.00000000000E+00 0. -1.
        -24    2    1    2    0    0  0.19585593055E+03 -0.11115889107E+04  0.12190453744E+04  0.16633196937E+04  0.81063718964E+02 0.  0.
    5000000    2    1    2    0    0 -0.19585593055E+03  0.11115889107E+04 -0.88637317924E+03  0.15555041391E+04  0.59995521653E+03 0.  0.
        -24    2    4    4    0    0  0.17212729756E+02  0.80953123699E+02  0.69554002466E+02  0.13157261518E+03  0.74992716332E+02 0.  0.
         24    2    4    4    0    0 -0.21306866030E+03  0.10306357870E+04 -0.95592718170E+03  0.14239315239E+04  0.78586439933E+02 0.  0.
         11    1    5    5    0    0 -0.51421335074E+01  0.75587896367E+02  0.76389056184E+02  0.10758838004E+03  0.00000000000E+00 0. -1.
        -12    1    5    5    0    0  0.22354863264E+02  0.53652273311E+01 -0.68350537181E+01  0.23984235139E+02  0.00000000000E+00 0.  1.
         13    1    3    3    0    0  0.14476246782E+03 -0.71916462103E+03  0.84162845850E+03  0.11164642343E+04  0.00000000000E+00 0. -1.
        -14    1    3    3    0    0  0.51093462728E+02 -0.39242428971E+03  0.37741691588E+03  0.54685545941E+03  0.00000000000E+00 0.  1.
          2    1    6    6  502    0 -0.67262244358E+02  0.25372771967E+03 -0.28090616380E+03  0.38446097085E+03  0.00000000000E+00 0. -1.
         -1    1    6    6    0  502 -0.14580641594E+03  0.77690806737E+03 -0.67502101790E+03  0.10394705531E+04  0.00000000000E+00 0.  1.
<mgrwt>
<rscale>  0 0.11405211E+04</rscale>
<asrwt>0</asrwt>
<pdfrwt beam="1">  1        3 0.22201166E+00 0.11405211E+04</pdfrwt>
<pdfrwt beam="2">  1       -4 0.27319200E+00 0.11405211E+04</pdfrwt>
<totfact> 0.10623509E-02</totfact>
</mgrwt>
</event>
<event>
12    3  0.2212098E-007  0.1264723E+04  0.7818608E-02  0.9058018E-01
          1   -1    0    0  501    0  0.00000000000E+00  0.00000000000E+00  0.21535052863E+04  0.21535052863E+04  0.00000000000E+00 0. -1.
         -2   -1    0    0    0  501 -0.00000000000E+00 -0.00000000000E+00 -0.83422223323E+03  0.83422223323E+03  0.00000000000E+00 0.  1.
        -24    2    1    2    0    0 -0.25479151843E+03  0.12349933155E+04  0.44200390743E+03  0.13385608926E+04  0.79060748180E+02 0.  0.
    5000000    2    1    2    0    0  0.25479151843E+03 -0.12349933155E+04  0.87727914567E+03  0.16491666269E+04  0.60000388067E+03 0.  0.
        -24    2    4    4    0    0  0.12889851044E+03 -0.73356514214E+03  0.83702941502E+03  0.11231910734E+04  0.78786433041E+02 0.  0.
         24    2    4    4    0    0  0.12589300799E+03 -0.50142817335E+03  0.40249730650E+02  0.52597555353E+03  0.88039647882E+02 0.  0.
         11    1    5    5    0    0  0.35847359578E+02 -0.73210401046E+02  0.10527083922E+03  0.13314182513E+03  0.00000000000E+00 0. -1.
        -12    1    5    5    0    0  0.93051150860E+02 -0.66035474109E+03  0.73175857580E+03  0.99004924828E+03  0.00000000000E+00 0.  1.
         11    1    3    3    0    0 -0.14263740759E+03  0.81255371752E+03  0.31903167128E+03  0.88451691967E+03  0.00000000000E+00 0. -1.
        -12    1    3    3    0    0 -0.11215411084E+03  0.42243959797E+03  0.12297223615E+03  0.45404397295E+03  0.00000000000E+00 0.  1.
          4    1    6    6  502    0  0.85581107837E+02 -0.24721782146E+03 -0.17475990058E+02  0.26219494178E+03  0.00000000000E+00 0. -1.
         -3    1    6    6    0  502  0.40311900150E+02 -0.25421035189E+03  0.57725720708E+02  0.26378061175E+03  0.00000000000E+00 0.  1.
<mgrwt>
<rscale>  0 0.12647225E+04</rscale>
<asrwt>0</asrwt>
<pdfrwt beam="1">  1        1 0.33130850E+00 0.12647225E+04</pdfrwt>
<pdfrwt beam="2">  1       -2 0.12834188E+00 0.12647225E+04</pdfrwt>
<totfact> 0.89753509E-01</totfact>
</mgrwt>
</event>
<event>
12    3  0.2212098E-007  0.9157144E+03  0.7818608E-02  0.9406148E-01
          1   -1    0    0  501    0  0.00000000000E+00  0.00000000000E+00  0.28860640383E+03  0.28860640383E+03  0.00000000000E+00 0. -1.
         -2   -1    0    0    0  501 -0.00000000000E+00 -0.00000000000E+00 -0.29614417164E+04  0.29614417164E+04  0.00000000000E+00 0.  1.
        -24    2    1    2    0    0  0.44489081671E+03 -0.69476997774E+03 -0.11764134952E+04  0.14390311745E+04  0.78923055554E+02 0.  0.
    5000000    2    1    2    0    0 -0.44489081671E+03  0.69476997774E+03 -0.14964218173E+04  0.18110169457E+04  0.59989245828E+03 0.  0.
        -24    2    4    4    0    0 -0.17572783740E+03 -0.70731161356E+02 -0.28787623240E+03  0.35317690114E+03  0.77317710120E+02 0.  0.
         24    2    4    4    0    0 -0.26916297931E+03  0.76550113910E+03 -0.12085455849E+04  0.14578400446E+04  0.79211497195E+02 0.  0.
         11    1    5    5    0    0 -0.15186703113E+03 -0.53465854208E+02 -0.27950117876E+03  0.32255712926E+03  0.00000000000E+00 0. -1.
        -12    1    5    5    0    0 -0.23860806269E+02 -0.17265307147E+02 -0.83750536419E+01  0.30619771884E+02  0.00000000000E+00 0.  1.
         13    1    3    3    0    0  0.24719599258E+03 -0.44930441341E+03 -0.69807120909E+03  0.86618919851E+03  0.00000000000E+00 0. -1.
        -14    1    3    3    0    0  0.19769482413E+03 -0.24546556433E+03 -0.47834228614E+03  0.57284197600E+03  0.00000000000E+00 0.  1.
          4    1    6    6  502    0 -0.25399148684E+03  0.67478353974E+03 -0.11041223878E+04  0.13186852347E+04  0.00000000000E+00 0. -1.
         -3    1    6    6    0  502 -0.15171492469E+02  0.90717599357E+02 -0.10442319709E+03  0.13915480986E+03  0.00000000000E+00 0.  1.
<mgrwt>
<rscale>  0 0.91571445E+03</rscale>
<asrwt>0</asrwt>
<pdfrwt beam="1">  1        1 0.44400984E-01 0.91571445E+03</pdfrwt>
<pdfrwt beam="2">  1       -2 0.45560643E+00 0.91571445E+03</pdfrwt>
<totfact> 0.26674568E-01</totfact>
</mgrwt>
</event>
<event>
12    3  0.2212098E-007  0.5791444E+03  0.7818608E-02  0.9949645E-01
         -2   -1    0    0    0  501 -0.00000000000E+00  0.00000000000E+00  0.14673012005E+04  0.14673012005E+04  0.00000000000E+00 0.  1.
          1   -1    0    0  501    0  0.00000000000E+00 -0.00000000000E+00 -0.31183736287E+03  0.31183736287E+03  0.00000000000E+00 0. -1.
        -24    2    1    2    0    0 -0.35470184619E+03 -0.40722242666E+03  0.45783627062E+03  0.71221533780E+03  0.77415323067E+02 0.  0.
    5000000    2    1    2    0    0  0.35470184619E+03  0.40722242666E+03  0.69762756696E+03  0.10669232255E+04  0.59999786874E+03 0.  0.
        -24    2    4    4    0    0 -0.10153224296E+01  0.16092251450E+03  0.58666763713E+03  0.61329880299E+03  0.77842268365E+02 0.  0.
         24    2    4    4    0    0  0.35571716862E+03  0.24629991216E+03  0.11095992983E+03  0.45362442253E+03  0.79149604553E+02 0.  0.
         13    1    5    5    0    0 -0.30641163001E+02  0.13700149603E+03  0.44636865196E+03  0.46792442150E+03  0.00000000000E+00 0. -1.
        -14    1    5    5    0    0  0.29625840571E+02  0.23921018464E+02  0.14029898517E+03  0.14537438149E+03  0.00000000000E+00 0.  1.
         13    1    3    3    0    0 -0.20473936603E+03 -0.23269757571E+03  0.21213471291E+03  0.37558954480E+03  0.00000000000E+00 0. -1.
        -14    1    3    3    0    0 -0.14996248016E+03 -0.17452485095E+03  0.24570155770E+03  0.33662579300E+03  0.00000000000E+00 0.  1.
          2    1    6    6  502    0  0.18187883374E+03  0.17333075040E+03  0.67354002983E+02  0.26011539923E+03  0.00000000000E+00 0. -1.
         -1    1    6    6    0  502  0.17383833488E+03  0.72969161764E+02  0.43605926850E+02  0.19350902330E+03  0.00000000000E+00 0.  1.
<mgrwt>
<rscale>  0 0.57914445E+03</rscale>
<asrwt>0</asrwt>
<pdfrwt beam="1">  1        1 0.47974980E-01 0.57914445E+03</pdfrwt>
<pdfrwt beam="2">  1       -2 0.22573864E+00 0.57914445E+03</pdfrwt>
<totfact> 0.69482100E+00</totfact>
</mgrwt>
</event>
<event>
12    3  0.2212098E-007  0.6495713E+03  0.7818608E-02  0.9807584E-01
         -2   -1    0    0    0  501 -0.00000000000E+00  0.00000000000E+00  0.18048500475E+04  0.18048500475E+04  0.00000000000E+00 0.  1.
          1   -1    0    0  501    0  0.00000000000E+00 -0.00000000000E+00 -0.34782279050E+03  0.34782279050E+03  0.00000000000E+00 0. -1.
        -24    2    1    2    0    0  0.47841418057E+03  0.32154544456E+03  0.14624585612E+03  0.59997207163E+03  0.79416844643E+02 0.  0.
    5000000    2    1    2    0    0 -0.47841418057E+03 -0.32154544456E+03  0.13107814009E+04  0.15527007664E+04  0.60038336747E+03 0.  0.
        -24    2    4    4    0    0  0.73734492782E+02 -0.34639168718E+02  0.57288566753E+03  0.58404154832E+03  0.79182666524E+02 0.  0.
         24    2    4    4    0    0 -0.55214867335E+03 -0.28690627584E+03  0.73789573339E+03  0.96865921808E+03  0.81407609118E+02 0.  0.
         11    1    3    3    0    0  0.28952395310E+03  0.21379819402E+03  0.54755120087E+02  0.36404932408E+03  0.00000000000E+00 0. -1.
        -12    1    3    3    0    0  0.18889022747E+03  0.10774725054E+03  0.91490736029E+02  0.23592274755E+03  0.00000000000E+00 0.  1.
         13    1    5    5    0    0  0.63930087494E+00  0.95804024756E+01  0.24567171348E+03  0.24585927606E+03  0.00000000000E+00 0. -1.
        -14    1    5    5    0    0  0.73095191907E+02 -0.44219571193E+02  0.32721395404E+03  0.33818227227E+03  0.00000000000E+00 0.  1.
          2    1    6    6  502    0 -0.31217229499E+03 -0.20368616903E+03  0.46269119306E+03  0.59415716553E+03  0.00000000000E+00 0. -1.
         -1    1    6    6    0  502 -0.23997637836E+03 -0.83220106809E+02  0.27520454032E+03  0.37450205255E+03  0.00000000000E+00 0.  1.
<mgrwt>
<rscale>  0 0.64957129E+03</rscale>
<asrwt>0</asrwt>
<pdfrwt beam="1">  1        1 0.53511200E-01 0.64957129E+03</pdfrwt>
<pdfrwt beam="2">  1       -2 0.27766923E+00 0.64957129E+03</pdfrwt>
<totfact> 0.28984374E+00</totfact>
</mgrwt>
</event>
<event>
12    3  0.2212098E-007  0.3738639E+03  0.7818608E-02  0.1053225E+00
          3   -1    0    0  501    0  0.00000000000E+00  0.00000000000E+00  0.11651869305E+04  0.11651869305E+04  0.00000000000E+00 0. -1.
         -4   -1    0    0    0  501 -0.00000000000E+00 -0.00000000000E+00 -0.19564454709E+03  0.19564454709E+03  0.00000000000E+00 0.  1.
        -24    2    1    2    0    0  0.32802255289E+02 -0.20026792055E+03  0.19293380221E+02  0.21884584960E+03  0.79611829607E+02 0.  0.
    5000000    2    1    2    0    0 -0.32802255289E+02  0.20026792055E+03  0.95024900321E+03  0.11419856280E+04  0.59997898173E+03 0.  0.
        -24    2    4    4    0    0  0.13920335579E+03  0.29667189108E+03  0.27923595999E+03  0.43774613441E+03  0.79102285755E+02 0.  0.
         24    2    4    4    0    0 -0.17200561108E+03 -0.96403970531E+02  0.67101304322E+03  0.70423949360E+03  0.82553645590E+02 0.  0.
         13    1    5    5    0    0  0.99036009017E+02  0.24424998142E+03  0.25683566012E+03  0.36800915860E+03  0.00000000000E+00 0. -1.
        -14    1    5    5    0    0  0.40167346775E+02  0.52421909666E+02  0.22400299869E+02  0.69736975803E+02  0.00000000000E+00 0.  1.
         13    1    3    3    0    0  0.43786022024E+02 -0.17927936114E+03  0.38291903563E+02  0.18847964063E+03  0.00000000000E+00 0. -1.
        -14    1    3    3    0    0 -0.10983766735E+02 -0.20988559415E+02 -0.18998523342E+02  0.30366208970E+02  0.00000000000E+00 0.  1.
          2    1    6    6  502    0 -0.17286527518E+03 -0.74952000632E+02  0.63448261258E+03  0.66186735184E+03  0.00000000000E+00 0. -1.
         -1    1    6    6    0  502  0.85966410051E+00 -0.21451969899E+02  0.36530430635E+02  0.42372141760E+02  0.00000000000E+00 0.  1.
<mgrwt>
<rscale>  0 0.37386390E+03</rscale>
<asrwt>0</asrwt>
<pdfrwt beam="1">  1        3 0.17925952E+00 0.37386390E+03</pdfrwt>
<pdfrwt beam="2">  1       -4 0.30099162E-01 0.37386390E+03</pdfrwt>
<totfact> 0.48740495E+00</totfact>
</mgrwt>
</event>
<event>
12    3  0.2212098E-007  0.4945620E+03  0.7818608E-02  0.1015208E+00
          1   -1    0    0  501    0  0.00000000000E+00  0.00000000000E+00  0.32132558331E+03  0.32132558331E+03  0.00000000000E+00 0. -1.
         -2   -1    0    0    0  501 -0.00000000000E+00 -0.00000000000E+00 -0.11498031478E+04  0.11498031478E+04  0.00000000000E+00 0.  1.
        -24    2    1    2    0    0  0.40185048786E+03 -0.16059387470E+03 -0.48657632163E+03  0.65625772888E+03  0.81507562613E+02 0.  0.
    5000000    2    1    2    0    0 -0.40185048786E+03  0.16059387470E+03 -0.34190124284E+03  0.81487100220E+03  0.59987005525E+03 0.  0.
        -24    2    4    4    0    0 -0.25898126278E+03 -0.71316534751E+02  0.97389557276E+02  0.29187312841E+03  0.59563870097E+02 0.  0.
         24    2    4    4    0    0 -0.14286922508E+03  0.23191040945E+03 -0.43929080011E+03  0.52299787379E+03  0.79726503994E+02 0.  0.
         11    1    5    5    0    0 -0.11366959442E+03 -0.22684263448E+02  0.72266489861E+02  0.13659355058E+03  0.00000000000E+00 0. -1.
        -12    1    5    5    0    0 -0.14531166836E+03 -0.48632271303E+02  0.25123067414E+02  0.15527957783E+03  0.00000000000E+00 0.  1.
         13    1    3    3    0    0  0.39132019164E+03 -0.16959566862E+03 -0.47024935385E+03  0.63484536541E+03  0.00000000000E+00 0. -1.
        -14    1    3    3    0    0  0.10530296222E+02  0.90017939165E+01 -0.16326967782E+02  0.21412363466E+02  0.00000000000E+00 0.  1.
          2    1    6    6  502    0 -0.57436445531E+02  0.15264954422E+03 -0.21104606169E+03  0.26672320631E+03  0.00000000000E+00 0. -1.
         -1    1    6    6    0  502 -0.85432779548E+02  0.79260865233E+02 -0.22824473842E+03  0.25627466748E+03  0.00000000000E+00 0.  1.
<mgrwt>
<rscale>  0 0.49456205E+03</rscale>
<asrwt>0</asrwt>
<pdfrwt beam="1">  1        1 0.49434705E-01 0.49456205E+03</pdfrwt>
<pdfrwt beam="2">  1       -2 0.17689279E+00 0.49456205E+03</pdfrwt>
<totfact> 0.13989904E+01</totfact>
</mgrwt>
</event>
<event>
12    3  0.2212098E-007  0.6111981E+03  0.7818608E-02  0.9882442E-01
          1   -1    0    0  501    0  0.00000000000E+00  0.00000000000E+00  0.25737104239E+04  0.25737104239E+04  0.00000000000E+00 0. -1.
         -2   -1    0    0    0  501 -0.00000000000E+00 -0.00000000000E+00 -0.16733836089E+03  0.16733836089E+03  0.00000000000E+00 0.  1.
        -24    2    1    2    0    0 -0.29293647723E+03 -0.41527861348E+03  0.77580526154E+03  0.93082162290E+03  0.79290499615E+02 0.  0.
    5000000    2    1    2    0    0  0.29293647723E+03  0.41527861348E+03  0.16305668014E+04  0.18102271619E+04  0.59992180913E+03 0.  0.
        -24    2    4    4    0    0  0.31523945608E+03  0.31726962299E+02  0.39039156892E+03  0.50942304894E+03  0.81998481061E+02 0.  0.
         24    2    4    4    0    0 -0.22302978851E+02  0.38355165119E+03  0.12401752325E+04  0.13008041129E+04  0.80295957941E+02 0.  0.
         11    1    5    5    0    0  0.17650577944E+03  0.50997727391E+02  0.25767277790E+03  0.31646535174E+03  0.00000000000E+00 0. -1.
        -12    1    5    5    0    0  0.13873367663E+03 -0.19270765092E+02  0.13271879102E+03  0.19295769720E+03  0.00000000000E+00 0.  1.
         11    1    3    3    0    0 -0.54945979689E+02 -0.13857491335E+03  0.23976126507E+03  0.28232522296E+03  0.00000000000E+00 0. -1.
        -12    1    3    3    0    0 -0.23799049754E+03 -0.27670370014E+03  0.53604399647E+03  0.64849639994E+03  0.00000000000E+00 0.  1.
          4    1    6    6  502    0 -0.24950961489E+02  0.32789208517E+03  0.94937315209E+03  0.10047114769E+04  0.00000000000E+00 0. -1.
         -3    1    6    6    0  502  0.26479826378E+01  0.55659566018E+02  0.29080208042E+03  0.29609263597E+03  0.00000000000E+00 0.  1.
<mgrwt>
<rscale>  0 0.61119811E+03</rscale>
<asrwt>0</asrwt>
<pdfrwt beam="1">  1        1 0.39595542E+00 0.61119811E+03</pdfrwt>
<pdfrwt beam="2">  1       -2 0.25744365E-01 0.61119811E+03</pdfrwt>
<totfact> 0.15432334E+01</totfact>
</mgrwt>
</event>
<event>
12    3  0.2212098E-007  0.7824596E+03  0.7818608E-02  0.9585759E-01
          1   -1    0    0  501    0  0.00000000000E+00  0.00000000000E+00  0.16665574439E+04  0.16665574439E+04  0.00000000000E+00 0. -1.
         -2   -1    0    0    0  501 -0.00000000000E+00 -0.00000000000E+00 -0.64892964051E+03  0.64892964051E+03  0.00000000000E+00 0.  1.
        -24    2    1    2    0    0  0.58421375639E+03  0.34293347160E+03 -0.27683616069E+03  0.73607589943E+03  0.79122631155E+02 0.  0.
    5000000    2    1    2    0    0 -0.58421375639E+03 -0.34293347160E+03  0.12944639640E+04  0.15794111849E+04  0.59999471483E+03 0.  0.
        -24    2    4    4    0    0 -0.45521201596E+02  0.14251063131E+03  0.17745899040E+03  0.24555406775E+03  0.80147657992E+02 0.  0.
         24    2    4    4    0    0 -0.53869255480E+03 -0.48544410291E+03  0.11170049736E+04  0.13338571172E+04  0.75027010526E+02 0.  0.
         13    1    5    5    0    0  0.71194299357E+01  0.67715724829E+02  0.35779884195E+02  0.76917525862E+02  0.00000000000E+00 0. -1.
        -14    1    5    5    0    0 -0.52640631532E+02  0.74794906485E+02  0.14167910621E+03  0.16863654189E+03  0.00000000000E+00 0.  1.
         13    1    3    3    0    0  0.45380605770E+03  0.25829156103E+03 -0.24755690781E+03  0.57787445964E+03  0.00000000000E+00 0. -1.
        -14    1    3    3    0    0  0.13040769869E+03  0.84641910562E+02 -0.29279252887E+02  0.15820143979E+03  0.00000000000E+00 0.  1.
          4    1    6    6  502    0 -0.39854968599E+03 -0.32151295371E+03  0.74898744037E+03  0.90730073153E+03  0.00000000000E+00 0. -1.
         -3    1    6    6    0  502 -0.14014286881E+03 -0.16393114920E+03  0.36801753327E+03  0.42655638566E+03  0.00000000000E+00 0.  1.
<mgrwt>
<rscale>  0 0.78245964E+03</rscale>
<asrwt>0</asrwt>
<pdfrwt beam="1">  1        1 0.25639345E+00 0.78245964E+03</pdfrwt>
<pdfrwt beam="2">  1       -2 0.99835330E-01 0.78245964E+03</pdfrwt>
<totfact> 0.37709130E+00</totfact>
</mgrwt>
</event>
<event>
12    3  0.2212098E-007  0.6451225E+03  0.7818608E-02  0.9815975E-01
          1   -1    0    0  501    0  0.00000000000E+00  0.00000000000E+00  0.82440799909E+03  0.82440799909E+03  0.00000000000E+00 0. -1.
         -2   -1    0    0    0  501 -0.00000000000E+00 -0.00000000000E+00 -0.10859005583E+04  0.10859005583E+04  0.00000000000E+00 0.  1.
        -24    2    1    2    0    0 -0.59166658735E+03  0.65654392206E+02 -0.72886906417E+03  0.94448003660E+03  0.80078567876E+02 0.  0.
    5000000    2    1    2    0    0  0.59166658735E+03 -0.65654392206E+02  0.46737650501E+03  0.96582852074E+03  0.60000340353E+03 0.  0.
        -24    2    4    4    0    0  0.17642320022E+03  0.12543212494E+03  0.44387001711E+03  0.50139518277E+03  0.86707402625E+02 0.  0.
         24    2    4    4    0    0  0.41524338713E+03 -0.19108651715E+03  0.23506487892E+02  0.46443333797E+03  0.78769555402E+02 0.  0.
         11    1    5    5    0    0  0.15700968082E+03  0.13763918292E+03  0.38082603418E+03  0.43430985812E+03  0.00000000000E+00 0. -1.
        -12    1    5    5    0    0  0.19413519398E+02 -0.12207057980E+02  0.63043982931E+02  0.67085324652E+02  0.00000000000E+00 0.  1.
         13    1    3    3    0    0 -0.59569881760E+02  0.27139757753E+02 -0.10360013792E+03  0.12254846323E+03  0.00000000000E+00 0. -1.
        -14    1    3    3    0    0 -0.53209670559E+03  0.38514634453E+02 -0.62526892626E+03  0.82193157337E+03  0.00000000000E+00 0.  1.
          4    1    6    6  502    0  0.15294959641E+03 -0.45490837368E+02  0.38200673499E+02  0.16408012306E+03  0.00000000000E+00 0. -1.
         -3    1    6    6    0  502  0.26229379072E+03 -0.14559567978E+03 -0.14694185607E+02  0.30035321492E+03  0.00000000000E+00 0.  1.
<mgrwt>
<rscale>  0 0.64512249E+03</rscale>
<asrwt>0</asrwt>
<pdfrwt beam="1">  1        1 0.12683200E+00 0.64512249E+03</pdfrwt>
<pdfrwt beam="2">  1       -2 0.16706162E+00 0.64512249E+03</pdfrwt>
<totfact> 0.42957043E+00</totfact>
</mgrwt>
</event>
<event>
12    3  0.2212098E-007  0.6311547E+03  0.7818608E-02  0.9842798E-01
         -2   -1    0    0    0  501 -0.00000000000E+00  0.00000000000E+00  0.15008177505E+04  0.15008177505E+04  0.00000000000E+00 0.  1.
          1   -1    0    0  501    0  0.00000000000E+00 -0.00000000000E+00 -0.27904072407E+03  0.27904072407E+03  0.00000000000E+00 0. -1.
        -24    2    1    2    0    0 -0.42524208097E+02  0.50200782546E+03  0.44728620987E+03  0.67816510599E+03  0.77606651364E+02 0.  0.
    5000000    2    1    2    0    0  0.42524208097E+02 -0.50200782546E+03  0.77449081657E+03  0.11016933686E+04  0.60006007063E+03 0.  0.
        -24    2    4    4    0    0 -0.24346138381E+03 -0.34602655339E+03  0.54753508045E+03  0.69647730012E+03  0.79234741121E+02 0.  0.
         24    2    4    4    0    0  0.28598559190E+03 -0.15598127208E+03  0.22695573611E+03  0.40521606848E+03  0.81075520249E+02 0.  0.
         13    1    5    5    0    0 -0.15200243815E+03 -0.20139136840E+03  0.38601876756E+03  0.46116560299E+03  0.00000000000E+00 0. -1.
        -14    1    5    5    0    0 -0.91458945659E+02 -0.14463518499E+03  0.16151631289E+03  0.23531169713E+03  0.00000000000E+00 0.  1.
         13    1    3    3    0    0  0.57781321647E+00  0.38575676528E+03  0.33702166045E+03  0.51224234053E+03  0.00000000000E+00 0. -1.
        -14    1    3    3    0    0 -0.43102021314E+02  0.11625106019E+03  0.11026454943E+03  0.16592276546E+03  0.00000000000E+00 0.  1.
          2    1    6    6  502    0  0.31619908468E+02 -0.35904600325E+02  0.64772168898E+02  0.80525727564E+02  0.00000000000E+00 0. -1.
         -1    1    6    6    0  502  0.25436568344E+03 -0.12007667175E+03  0.16218356722E+03  0.32469034092E+03  0.00000000000E+00 0.  1.
<mgrwt>
<rscale>  0 0.63115473E+03</rscale>
<asrwt>0</asrwt>
<pdfrwt beam="1">  1        1 0.42929343E-01 0.63115473E+03</pdfrwt>
<pdfrwt beam="2">  1       -2 0.23089503E+00 0.63115473E+03</pdfrwt>
<totfact> 0.74019400E+00</totfact>
</mgrwt>
</event>
<event>
12    3  0.2212098E-007  0.3846576E+03  0.7818608E-02  0.1049226E+00
          1   -1    0    0  501    0  0.00000000000E+00  0.00000000000E+00  0.10139644193E+04  0.10139644193E+04  0.00000000000E+00 0. -1.
         -2   -1    0    0    0  501 -0.00000000000E+00 -0.00000000000E+00 -0.15872922714E+04  0.15872922714E+04  0.00000000000E+00 0.  1.
        -24    2    1    2    0    0  0.34109818308E+03  0.80670917186E+02 -0.14432551391E+04  0.14878216270E+04  0.88159116873E+02 0.  0.
    5000000    2    1    2    0    0 -0.34109818308E+03 -0.80670917186E+02  0.86992728688E+03  0.11134350637E+04  0.60009031758E+03 0.  0.
        -24    2    4    4    0    0 -0.30629250794E+03 -0.12534143477E+03  0.93767399133E+03  0.99753822313E+03  0.79526202543E+02 0.  0.
         24    2    4    4    0    0 -0.34805675138E+02  0.44670517581E+02 -0.67746704448E+02  0.11589684058E+03  0.75070443787E+02 0.  0.
         11    1    3    3    0    0  0.26268600294E+03  0.90070594220E+02 -0.10127571368E+04  0.10501398318E+04  0.00000000000E+00 0. -1.
        -12    1    3    3    0    0  0.78412180140E+02 -0.93996770344E+01 -0.43049800226E+03  0.43768179522E+03  0.00000000000E+00 0.  1.
         13    1    5    5    0    0 -0.64933478638E+02  0.33052046499E+01  0.22422735328E+03  0.23346345963E+03  0.00000000000E+00 0. -1.
        -14    1    5    5    0    0 -0.24135902930E+03 -0.12864663942E+03  0.71344663805E+03  0.76407476349E+03  0.00000000000E+00 0.  1.
          2    1    6    6  502    0  0.25233155550E+01  0.35622812797E+02  0.25373851277E+01  0.35802098210E+02  0.00000000000E+00 0. -1.
         -1    1    6    6    0  502 -0.37328990693E+02  0.90477047844E+01 -0.70284089576E+02  0.80094742371E+02  0.00000000000E+00 0.  1.
<mgrwt>
<rscale>  0 0.38465765E+03</rscale>
<asrwt>0</asrwt>
<pdfrwt beam="1">  1        1 0.15599453E+00 0.38465765E+03</pdfrwt>
<pdfrwt beam="2">  1       -2 0.24419881E+00 0.38465765E+03</pdfrwt>
<totfact> 0.10309229E+00</totfact>
</mgrwt>
</event>
<event>
12    3  0.2212098E-007  0.7554563E+03  0.7818608E-02  0.9626829E-01
         -2   -1    0    0    0  501 -0.00000000000E+00  0.00000000000E+00  0.50295051098E+03  0.50295051098E+03  0.00000000000E+00 0.  1.
          1   -1    0    0  501    0  0.00000000000E+00 -0.00000000000E+00 -0.12720036856E+04  0.12720036856E+04  0.00000000000E+00 0. -1.
        -24    2    1    2    0    0  0.63009702793E+03 -0.19589028813E+03 -0.53888881317E+03  0.85386250685E+03  0.57312808840E+02 0.  0.
    5000000    2    1    2    0    0 -0.63009702793E+03  0.19589028813E+03 -0.23016436148E+03  0.92109168976E+03  0.60003249751E+03 0.  0.
        -24    2    4    4    0    0 -0.65958056105E+03  0.29908965075E+03 -0.27596626456E+03  0.77921623004E+03  0.80742914751E+02 0.  0.
         24    2    4    4    0    0  0.29483533126E+02 -0.10319936261E+03  0.45801903087E+02  0.14187545972E+03  0.80693522513E+02 0.  0.
         13    1    3    3    0    0  0.51538127808E+03 -0.13685134018E+03 -0.43883644218E+03  0.69059653496E+03  0.00000000000E+00 0. -1.
        -14    1    3    3    0    0  0.11471574985E+03 -0.59038947958E+02 -0.10005237099E+03  0.16326597190E+03  0.00000000000E+00 0.  1.
         13    1    5    5    0    0 -0.17684353141E+03  0.53585867220E+02 -0.97897534991E+02  0.20911481804E+03  0.00000000000E+00 0. -1.
        -14    1    5    5    0    0 -0.48273702965E+03  0.24550378353E+03 -0.17806872957E+03  0.57010141200E+03  0.00000000000E+00 0.  1.
          2    1    6    6  502    0 -0.62908189094E+00 -0.88995943329E+02  0.58210102878E+02  0.10634420412E+03  0.00000000000E+00 0. -1.
         -1    1    6    6    0  502  0.30112615017E+02 -0.14203419283E+02 -0.12408199791E+02  0.35531255600E+02  0.00000000000E+00 0.  1.
<mgrwt>
<rscale>  0 0.75545626E+03</rscale>
<asrwt>0</asrwt>
<pdfrwt beam="1">  1        1 0.19569288E+00 0.75545626E+03</pdfrwt>
<pdfrwt beam="2">  1       -2 0.77377001E-01 0.75545626E+03</pdfrwt>
<totfact> 0.12717700E+01</totfact>
</mgrwt>
</event>
<event>
12    3  0.2212098E-007  0.1129807E+04  0.7818608E-02  0.9176617E-01
         -2   -1    0    0    0  501 -0.00000000000E+00  0.00000000000E+00  0.19987471557E+04  0.19987471557E+04  0.00000000000E+00 0.  1.
          1   -1    0    0  501    0  0.00000000000E+00 -0.00000000000E+00 -0.70626642297E+03  0.70626642297E+03  0.00000000000E+00 0. -1.
        -24    2    1    2    0    0  0.68091640481E+03 -0.82569619737E+03  0.94488875223E+03  0.14297786615E+04  0.77658909212E+02 0.  0.
    5000000    2    1    2    0    0 -0.68091640481E+03  0.82569619737E+03  0.34759198046E+03  0.12752349171E+04  0.59998545667E+03 0.  0.
        -24    2    4    4    0    0 -0.58150962977E+02  0.45825767564E+03  0.27352123196E+03  0.54328374842E+03  0.83437013281E+02 0.  0.
         24    2    4    4    0    0 -0.62276544183E+03  0.36743852173E+03  0.74070748498E+02  0.73195116868E+03  0.86128826502E+02 0.  0.
         11    1    3    3    0    0  0.63389381613E+03 -0.77813956586E+03  0.90781799009E+03  0.13533129931E+04  0.00000000000E+00 0. -1.
        -12    1    3    3    0    0  0.47022588684E+02 -0.47556631507E+02  0.37070762136E+02  0.76465668455E+02  0.00000000000E+00 0.  1.
         11    1    5    5    0    0 -0.24324216919E+02  0.23235643908E+03  0.90337400770E+02  0.25048358886E+03  0.00000000000E+00 0. -1.
        -12    1    5    5    0    0 -0.33826746059E+02  0.22590123656E+03  0.18318383119E+03  0.29280015956E+03  0.00000000000E+00 0.  1.
          2    1    6    6  502    0 -0.80432744353E+02  0.79130043882E+02  0.26538792682E+02  0.11591073171E+03  0.00000000000E+00 0. -1.
         -1    1    6    6    0  502 -0.54233269748E+03  0.28830847785E+03  0.47531955816E+02  0.61604043697E+03  0.00000000000E+00 0.  1.
<mgrwt>
<rscale>  0 0.11298075E+04</rscale>
<asrwt>0</asrwt>
<pdfrwt beam="1">  1        1 0.10865637E+00 0.11298075E+04</pdfrwt>
<pdfrwt beam="2">  1       -2 0.30749956E+00 0.11298075E+04</pdfrwt>
<totfact> 0.66867397E-01</totfact>
</mgrwt>
</event>
<event>
12    3  0.2212098E-007  0.4014564E+03  0.7818608E-02  0.1043277E+00
          1   -1    0    0  501    0  0.00000000000E+00  0.00000000000E+00  0.21405843017E+04  0.21405843017E+04  0.00000000000E+00 0. -1.
         -2   -1    0    0    0  501 -0.00000000000E+00 -0.00000000000E+00 -0.14374483811E+03  0.14374483811E+03  0.00000000000E+00 0.  1.
        -24    2    1    2    0    0  0.37986075752E+03 -0.66239343137E+02  0.78657068137E+03  0.87964548078E+03  0.80005558363E+02 0.  0.
    5000000    2    1    2    0    0 -0.37986075752E+03  0.66239343137E+02  0.12102687822E+04  0.14046836590E+04  0.59975312509E+03 0.  0.
        -24    2    4    4    0    0 -0.16416396719E+03 -0.11059276339E+02  0.12535301360E+02  0.18266045047E+03  0.78330011292E+02 0.  0.
         24    2    4    4    0    0 -0.21569679032E+03  0.77298619476E+02  0.11977334809E+04  0.12220232086E+04  0.79215207814E+02 0.  0.
         11    1    3    3    0    0  0.97587023679E+02 -0.50603534256E+02  0.19077813830E+03  0.22018229475E+03  0.00000000000E+00 0. -1.
        -12    1    3    3    0    0  0.28227373384E+03 -0.15635808881E+02  0.59579254307E+03  0.65946318602E+03  0.00000000000E+00 0.  1.
         13    1    5    5    0    0 -0.14494189490E+03 -0.20666008213E+02  0.36075615075E+02  0.15078689199E+03  0.00000000000E+00 0. -1.
        -14    1    5    5    0    0 -0.19222072291E+02  0.96067318735E+01 -0.23540313715E+02  0.31873558481E+02  0.00000000000E+00 0.  1.
          2    1    6    6  502    0 -0.52214262951E+02  0.57557942896E+02  0.37214289994E+03  0.38017046706E+03  0.00000000000E+00 0. -1.
         -1    1    6    6    0  502 -0.16348252737E+03  0.19740676581E+02  0.82559058094E+03  0.84185274152E+03  0.00000000000E+00 0.  1.
<mgrwt>
<rscale>  0 0.40145644E+03</rscale>
<asrwt>0</asrwt>
<pdfrwt beam="1">  1        1 0.32932064E+00 0.40145644E+03</pdfrwt>
<pdfrwt beam="2">  1       -2 0.22114592E-01 0.40145644E+03</pdfrwt>
<totfact> 0.41199728E+01</totfact>
</mgrwt>
</event>
<event>
12    3  0.2212098E-007  0.1072104E+04  0.7818608E-02  0.9232816E-01
         -2   -1    0    0    0  501 -0.00000000000E+00  0.00000000000E+00  0.53419100277E+03  0.53419100277E+03  0.00000000000E+00 0.  1.
          1   -1    0    0  501    0  0.00000000000E+00 -0.00000000000E+00 -0.23885859592E+04  0.23885859592E+04  0.00000000000E+00 0. -1.
        -24    2    1    2    0    0  0.97496303315E+03 -0.32510649106E+03 -0.59586673709E+03  0.11907469153E+04  0.81079598476E+02 0.  0.
    5000000    2    1    2    0    0 -0.97496303315E+03  0.32510649106E+03 -0.12585282193E+04  0.17320300467E+04  0.59982302164E+03 0.  0.
        -24    2    4    4    0    0 -0.50378760128E+03  0.37946441482E+03 -0.10035905908E+04  0.11880044246E+04  0.79782514821E+02 0.  0.
         24    2    4    4    0    0 -0.47117543187E+03 -0.54357923767E+02 -0.25493762854E+03  0.54402562208E+03  0.77521684462E+02 0.  0.
         11    1    5    5    0    0 -0.21079447806E+03  0.11094484357E+03 -0.38642885379E+03  0.45394969913E+03  0.00000000000E+00 0. -1.
        -12    1    5    5    0    0 -0.29299312321E+03  0.26851957126E+03 -0.61716173700E+03  0.73405472549E+03  0.00000000000E+00 0.  1.
         13    1    3    3    0    0  0.50302964443E+03 -0.14146624947E+03 -0.26566517085E+03  0.58619920327E+03  0.00000000000E+00 0. -1.
        -14    1    3    3    0    0  0.47193338872E+03 -0.18364024159E+03 -0.33020156624E+03  0.60454771198E+03  0.00000000000E+00 0.  1.
          4    1    6    6  502    0 -0.39364943571E+03 -0.18164887926E+02 -0.22235843273E+03  0.45247443463E+03  0.00000000000E+00 0. -1.
         -3    1    6    6    0  502 -0.77525996163E+02 -0.36193035841E+02 -0.32579195804E+02  0.91551187451E+02  0.00000000000E+00 0.  1.
<mgrwt>
<rscale>  0 0.10721041E+04</rscale>
<asrwt>0</asrwt>
<pdfrwt beam="1">  1        1 0.36747476E+00 0.10721041E+04</pdfrwt>
<pdfrwt beam="2">  1       -2 0.82183232E-01 0.10721041E+04</pdfrwt>
<totfact> 0.18532295E+00</totfact>
</mgrwt>
</event>
<event>
12    3  0.2212098E-007  0.1003721E+04  0.7818608E-02  0.9304473E-01
         -2   -1    0    0    0  501 -0.00000000000E+00  0.00000000000E+00  0.61290653939E+03  0.61290653939E+03  0.00000000000E+00 0.  1.
          1   -1    0    0  501    0  0.00000000000E+00 -0.00000000000E+00 -0.24391138182E+04  0.24391138182E+04  0.00000000000E+00 0. -1.
        -24    2    1    2    0    0 -0.91404482016E+03  0.15498591660E+03 -0.12258633138E+02  0.92850293249E+03  0.49687563370E+02 0.  0.
    5000000    2    1    2    0    0  0.91404482016E+03 -0.15498591660E+03 -0.18139486457E+04  0.21235174251E+04  0.59951480213E+03 0.  0.
        -24    2    4    4    0    0  0.79071110209E+03  0.97399318072E+02 -0.14554727471E+04  0.16611269689E+04  0.78938046574E+02 0.  0.
         24    2    4    4    0    0  0.12333371806E+03 -0.25238523467E+03 -0.35847589863E+03  0.46239045623E+03  0.79940299112E+02 0.  0.
         11    1    5    5    0    0  0.23839089268E+03  0.39454008901E+02 -0.51626734235E+03  0.57001649565E+03  0.00000000000E+00 0. -1.
        -12    1    5    5    0    0  0.55232020941E+03  0.57945309171E+02 -0.93920540472E+03  0.10911104732E+04  0.00000000000E+00 0.  1.
         11    1    3    3    0    0 -0.83042919042E+03  0.15375893439E+03 -0.49365722359E+01  0.84455835793E+03  0.00000000000E+00 0. -1.
        -12    1    3    3    0    0 -0.83615629740E+02  0.12269822063E+01 -0.73220609016E+01  0.83944574559E+02  0.00000000000E+00 0.  1.
          2    1    6    6  502    0  0.75602076119E+02 -0.12297159776E+03 -0.24233846346E+03  0.28207378226E+03  0.00000000000E+00 0. -1.
         -1    1    6    6    0  502  0.47731641945E+02 -0.12941363691E+03 -0.11613743517E+03  0.18031667396E+03  0.00000000000E+00 0.  1.
<mgrwt>
<rscale>  0 0.10037209E+04</rscale>
<asrwt>0</asrwt>
<pdfrwt beam="1">  1        1 0.37524827E+00 0.10037209E+04</pdfrwt>
<pdfrwt beam="2">  1       -2 0.94293316E-01 0.10037209E+04</pdfrwt>
<totfact> 0.12580596E+00</totfact>
</mgrwt>
</event>
<event>
12    3  0.2212098E-007  0.3379480E+03  0.7818608E-02  0.1067673E+00
         -2   -1    0    0    0  501 -0.00000000000E+00  0.00000000000E+00  0.16101090431E+03  0.16101090431E+03  0.00000000000E+00 0.  1.
          1   -1    0    0  501    0  0.00000000000E+00 -0.00000000000E+00 -0.86376234668E+03  0.86376234668E+03  0.00000000000E+00 0. -1.
        -24    2    1    2    0    0  0.42491085865E+02  0.11075473802E+03 -0.16179319454E+03  0.20824367932E+03  0.55823720844E+02 0.  0.
    5000000    2    1    2    0    0 -0.42491085865E+02 -0.11075473802E+03 -0.54095824783E+03  0.81652957167E+03  0.60001050919E+03 0.  0.
        -24    2    4    4    0    0 -0.19997721890E+03  0.13187578356E+03 -0.42066933422E+03  0.49323309492E+03  0.94520298394E+02 0.  0.
         24    2    4    4    0    0  0.15748613303E+03 -0.24263052157E+03 -0.12028891362E+03  0.32329647675E+03  0.79873256105E+02 0.  0.
         11    1    3    3    0    0  0.26386013441E+02  0.21402436881E+02 -0.18710704696E+02  0.38786292424E+02  0.00000000000E+00 0. -1.
        -12    1    3    3    0    0  0.16105072424E+02  0.89352301138E+02 -0.14308248984E+03  0.16945738690E+03  0.00000000000E+00 0.  1.
         13    1    5    5    0    0 -0.39887439289E+02  0.78751933054E+02 -0.12925911959E+03  0.15652729720E+03  0.00000000000E+00 0. -1.
        -14    1    5    5    0    0 -0.16008977961E+03  0.53123850501E+02 -0.29141021463E+03  0.33670579772E+03  0.00000000000E+00 0.  1.
          2    1    6    6  502    0  0.51161808763E+02 -0.38544271866E+02 -0.93245486065E+00  0.64062945933E+02  0.00000000000E+00 0. -1.
         -1    1    6    6    0  502  0.10632432427E+03 -0.20408624971E+03 -0.11935645876E+03  0.25923353081E+03  0.00000000000E+00 0.  1.
<mgrwt>
<rscale>  0 0.33794802E+03</rscale>
<asrwt>0</asrwt>
<pdfrwt beam="1">  1        1 0.13288651E+00 0.33794802E+03</pdfrwt>
<pdfrwt beam="2">  1       -2 0.24770909E-01 0.33794802E+03</pdfrwt>
<totfact> 0.25934443E+02</totfact>
</mgrwt>
</event>
<event>
12    3  0.2212098E-007  0.4743400E+03  0.7818608E-02  0.1020702E+00
         -2   -1    0    0    0  501 -0.00000000000E+00  0.00000000000E+00  0.13177488332E+04  0.13177488332E+04  0.00000000000E+00 0.  1.
          1   -1    0    0  501    0  0.00000000000E+00 -0.00000000000E+00 -0.11696646602E+04  0.11696646602E+04  0.00000000000E+00 0. -1.
        -24    2    1    2    0    0 -0.21371979715E+03 -0.22532572216E+03  0.11972799894E+04  0.12395527304E+04  0.81017069808E+02 0.  0.
    5000000    2    1    2    0    0  0.21371979715E+03  0.22532572216E+03 -0.10491958164E+04  0.12478607630E+04  0.59991398546E+03 0.  0.
        -24    2    4    4    0    0  0.26116561940E+03 -0.11122287744E+03 -0.29675770855E+03  0.41847407240E+03  0.80482311496E+02 0.  0.
         24    2    4    4    0    0 -0.47445822244E+02  0.33654859960E+03 -0.75243810789E+03  0.82938669065E+03  0.78759827822E+02 0.  0.
         11    1    3    3    0    0 -0.17408064047E+03 -0.15752750117E+03  0.76566116064E+03  0.80084704902E+03  0.00000000000E+00 0. -1.
        -12    1    3    3    0    0 -0.39639156678E+02 -0.67798220987E+02  0.43161882879E+03  0.43870568138E+03  0.00000000000E+00 0.  1.
         11    1    5    5    0    0  0.11594600882E+03 -0.17844837510E+02 -0.83019108393E+02  0.14371530032E+03  0.00000000000E+00 0. -1.
        -12    1    5    5    0    0  0.14521961057E+03 -0.93378039931E+02 -0.21373860015E+03  0.27475877208E+03  0.00000000000E+00 0.  1.
          2    1    6    6  502    0  0.15572998527E+01  0.20536712294E+03 -0.50332110678E+03  0.54360851437E+03  0.00000000000E+00 0. -1.
         -1    1    6    6    0  502 -0.49003122096E+02  0.13118147666E+03 -0.24911700111E+03  0.28577817628E+03  0.00000000000E+00 0.  1.
<mgrwt>
<rscale>  0 0.47434004E+03</rscale>
<asrwt>0</asrwt>
<pdfrwt beam="1">  1        1 0.17994841E+00 0.47434004E+03</pdfrwt>
<pdfrwt beam="2">  1       -2 0.20273059E+00 0.47434004E+03</pdfrwt>
<totfact> 0.13843711E+00</totfact>
</mgrwt>
</event>
<event>
12    3  0.2212098E-007  0.1952178E+04  0.7818608E-02  0.8629311E-01
          1   -1    0    0  501    0  0.00000000000E+00  0.00000000000E+00  0.29316243958E+04  0.29316243958E+04  0.00000000000E+00 0. -1.
         -2   -1    0    0    0  501 -0.00000000000E+00 -0.00000000000E+00 -0.14474289079E+04  0.14474289079E+04  0.00000000000E+00 0.  1.
        -24    2    1    2    0    0 -0.81338550835E+03 -0.17295034623E+04  0.46706682531E+02  0.19134533387E+04  0.79648941220E+02 0.  0.
    5000000    2    1    2    0    0  0.81338550835E+03  0.17295034623E+04  0.14374888053E+04  0.24655999650E+04  0.60002575831E+03 0.  0.
        -24    2    4    4    0    0  0.88378539203E+03  0.15454455438E+04  0.12091707221E+04  0.21535625012E+04  0.79114241957E+02 0.  0.
         24    2    4    4    0    0 -0.70399883688E+02  0.18405791851E+03  0.22831808316E+03  0.31203746378E+03  0.80029811416E+02 0.  0.
         11    1    5    5    0    0  0.78633799655E+03  0.13547235173E+04  0.10343172985E+04  0.18770763243E+04  0.00000000000E+00 0. -1.
        -12    1    5    5    0    0  0.97447395480E+02  0.19072202644E+03  0.17485342360E+03  0.27648617687E+03  0.00000000000E+00 0.  1.
         11    1    3    3    0    0 -0.39142742393E+03 -0.82564024819E+03  0.62028633548E+02  0.91583011472E+03  0.00000000000E+00 0. -1.
        -12    1    3    3    0    0 -0.42195808441E+03 -0.90386321411E+03 -0.15321951017E+02  0.99762322397E+03  0.00000000000E+00 0.  1.
          4    1    6    6  502    0 -0.86802755398E+02  0.17027990952E+03  0.20173651917E+03  0.27789852302E+03  0.00000000000E+00 0. -1.
         -3    1    6    6    0  502  0.16402871710E+02  0.13778008996E+02  0.26581563989E+02  0.34138940762E+02  0.00000000000E+00 0.  1.
<mgrwt>
<rscale>  0 0.19521778E+04</rscale>
<asrwt>0</asrwt>
<pdfrwt beam="1">  1        1 0.45101913E+00 0.19521778E+04</pdfrwt>
<pdfrwt beam="2">  1       -2 0.22268137E+00 0.19521778E+04</pdfrwt>
<totfact> 0.50010741E-02</totfact>
</mgrwt>
</event>
<event>
12    3  0.2212098E-007  0.6210282E+03  0.7818608E-02  0.9862715E-01
          1   -1    0    0  501    0  0.00000000000E+00  0.00000000000E+00  0.98484495290E+03  0.98484495290E+03  0.00000000000E+00 0. -1.
         -2   -1    0    0    0  501 -0.00000000000E+00 -0.00000000000E+00 -0.41405792999E+03  0.41405792999E+03  0.00000000000E+00 0.  1.
        -24    2    1    2    0    0  0.35429408649E+03  0.32583582788E+03  0.10322720982E+03  0.49867396928E+03  0.79539828593E+02 0.  0.
    5000000    2    1    2    0    0 -0.35429408649E+03 -0.32583582788E+03  0.46755981309E+03  0.90022891361E+03  0.60008885311E+03 0.  0.
        -24    2    4    4    0    0  0.95748245795E+02 -0.27579491580E+03  0.24618760041E+03  0.38998655012E+03  0.79060815363E+02 0.  0.
         24    2    4    4    0    0 -0.45004233229E+03 -0.50040912086E+02  0.22137221268E+03  0.51024236349E+03  0.79368880683E+02 0.  0.
         11    1    5    5    0    0  0.96843571078E+02 -0.22442667449E+03  0.23123446231E+03  0.33647494118E+03  0.00000000000E+00 0. -1.
        -12    1    5    5    0    0 -0.10953252830E+01 -0.51368241308E+02  0.14953138105E+02  0.53511608944E+02  0.00000000000E+00 0.  1.
         13    1    3    3    0    0  0.83959824636E+02  0.12178456139E+03  0.15054602984E+02  0.14868548220E+03  0.00000000000E+00 0. -1.
        -14    1    3    3    0    0  0.27033426186E+03  0.20405126649E+03  0.88172606836E+02  0.34998848708E+03  0.00000000000E+00 0.  1.
          2    1    6    6  502    0 -0.30626953938E+03 -0.70841537724E+02  0.14660157385E+03  0.34685959072E+03  0.00000000000E+00 0. -1.
         -1    1    6    6    0  502 -0.14377279291E+03  0.20800625638E+02  0.74770638828E+02  0.16338277277E+03  0.00000000000E+00 0.  1.
<mgrwt>
<rscale>  0 0.62102824E+03</rscale>
<asrwt>0</asrwt>
<pdfrwt beam="1">  1        1 0.15151461E+00 0.62102824E+03</pdfrwt>
<pdfrwt beam="2">  1       -2 0.63701220E-01 0.62102824E+03</pdfrwt>
<totfact> 0.32215396E+01</totfact>
</mgrwt>
</event>
<event>
12    3  0.2212098E-007  0.5236043E+03  0.7818608E-02  0.1007795E+00
         -4   -1    0    0    0  501 -0.00000000000E+00  0.00000000000E+00  0.20247793908E+04  0.20247793908E+04  0.00000000000E+00 0.  1.
          3   -1    0    0  501    0  0.00000000000E+00 -0.00000000000E+00 -0.19399123806E+03  0.19399123806E+03  0.00000000000E+00 0. -1.
        -24    2    1    2    0    0 -0.29528573397E+03  0.32375652614E+03  0.36499885254E+03  0.57541548585E+03  0.76595470447E+02 0.  0.
    5000000    2    1    2    0    0  0.29528573397E+03 -0.32375652614E+03  0.14657893001E+04  0.16433551430E+04  0.60005491463E+03 0.  0.
        -24    2    4    4    0    0  0.32392956096E+03 -0.70358783626E+02  0.12622199316E+04  0.13073754187E+04  0.78425830398E+02 0.  0.
         24    2    4    4    0    0 -0.28643826990E+02 -0.25339774252E+03  0.20356936859E+03  0.33597972428E+03  0.80068736470E+02 0.  0.
         11    1    5    5    0    0  0.10189416837E+03 -0.56323342606E+02  0.37308314674E+03  0.39082703956E+03  0.00000000000E+00 0. -1.
        -12    1    5    5    0    0  0.22203539259E+03 -0.14035441020E+02  0.88913678482E+03  0.91654837913E+03  0.00000000000E+00 0.  1.
         11    1    3    3    0    0 -0.16873473935E+03  0.22074447837E+03  0.26545127254E+03  0.38427062741E+03  0.00000000000E+00 0. -1.
        -12    1    3    3    0    0 -0.12655099462E+03  0.10301204777E+03  0.99547580009E+02  0.19114485845E+03  0.00000000000E+00 0.  1.
          4    1    6    6  502    0 -0.48581127282E+02 -0.86603801391E+02  0.76680836860E+02  0.12546033271E+03  0.00000000000E+00 0. -1.
         -3    1    6    6    0  502  0.19937300292E+02 -0.16679394112E+03  0.12688853173E+03  0.21051939156E+03  0.00000000000E+00 0.  1.
<mgrwt>
<rscale>  0 0.52360435E+03</rscale>
<asrwt>0</asrwt>
<pdfrwt beam="1">  1        3 0.29844807E-01 0.52360435E+03</pdfrwt>
<pdfrwt beam="2">  1       -4 0.31150451E+00 0.52360435E+03</pdfrwt>
<totfact> 0.68434249E-01</totfact>
</mgrwt>
</event>
<event>
12    3  0.2212098E-007  0.2617679E+03  0.7818608E-02  0.1106086E+00
          3   -1    0    0  501    0  0.00000000000E+00  0.00000000000E+00  0.28349247986E+03  0.28349247986E+03  0.00000000000E+00 0. -1.
         -4   -1    0    0    0  501 -0.00000000000E+00 -0.00000000000E+00 -0.62010327256E+03  0.62010327256E+03  0.00000000000E+00 0.  1.
        -24    2    1    2    0    0 -0.72808215171E+02  0.14932763388E+03 -0.18874497733E+03  0.26372779396E+03  0.79548126356E+02 0.  0.
    5000000    2    1    2    0    0  0.72808215171E+02 -0.14932763388E+03 -0.14786581537E+03  0.63986795845E+03  0.59997243809E+03 0.  0.
        -24    2    4    4    0    0 -0.98809571296E+02  0.83204834870E+01  0.18516596162E+03  0.22494950390E+03  0.80518843372E+02 0.  0.
         24    2    4    4    0    0  0.17161778647E+03 -0.15764811736E+03 -0.33303177699E+03  0.41491845455E+03  0.83316060280E+02 0.  0.
         13    1    3    3    0    0 -0.14701212899E+01  0.73113925919E+02 -0.44270812409E+02  0.85485158076E+02  0.00000000000E+00 0. -1.
        -14    1    3    3    0    0 -0.71338093881E+02  0.76213707959E+02 -0.14447416492E+03  0.17824263589E+03  0.00000000000E+00 0.  1.
         13    1    5    5    0    0 -0.19748206286E+02 -0.11717037074E+01  0.12121728189E+03  0.12282098343E+03  0.00000000000E+00 0. -1.
        -14    1    5    5    0    0 -0.79061365010E+02  0.94921871945E+01  0.63948679725E+02  0.10212852047E+03  0.00000000000E+00 0.  1.
          2    1    6    6  502    0  0.10230036402E+03 -0.39578788380E+02 -0.16562241818E+03  0.19865203340E+03  0.00000000000E+00 0. -1.
         -1    1    6    6    0  502  0.69317422443E+02 -0.11806932898E+03 -0.16740935881E+03  0.21626642115E+03  0.00000000000E+00 0.  1.
<mgrwt>
<rscale>  0 0.26176788E+03</rscale>
<asrwt>0</asrwt>
<pdfrwt beam="1">  1        3 0.43614228E-01 0.26176788E+03</pdfrwt>
<pdfrwt beam="2">  1       -4 0.95400504E-01 0.26176788E+03</pdfrwt>
<totfact> 0.10575924E+01</totfact>
</mgrwt>
</event>
<event>
12    3  0.2212098E-007  0.5822229E+03  0.7818608E-02  0.9942990E-01
         -2   -1    0    0    0  501 -0.00000000000E+00  0.00000000000E+00  0.14851977345E+03  0.14851977345E+03  0.00000000000E+00 0.  1.
          1   -1    0    0  501    0  0.00000000000E+00 -0.00000000000E+00 -0.31939974677E+04  0.31939974677E+04  0.00000000000E+00 0. -1.
        -24    2    1    2    0    0  0.42536853433E+03 -0.34225680750E+03 -0.14757842784E+04  0.15756019549E+04  0.80648445445E+02 0.  0.
    5000000    2    1    2    0    0 -0.42536853433E+03  0.34225680750E+03 -0.15696934158E+04  0.17669152862E+04  0.59997841341E+03 0.  0.
        -24    2    4    4    0    0  0.67404702859E+01  0.94158889870E+02 -0.56865859122E+01  0.12344789799E+03  0.79345546676E+02 0.  0.
         24    2    4    4    0    0 -0.43210900462E+03  0.24809791763E+03 -0.15640068299E+04  0.16434673882E+04  0.81221446811E+02 0.  0.
         13    1    3    3    0    0  0.10266617838E+03 -0.42272816740E+02 -0.27796905030E+03  0.29932278253E+03  0.00000000000E+00 0. -1.
        -14    1    3    3    0    0  0.32270235596E+03 -0.29998399076E+03 -0.11978152281E+04  0.12762791724E+04  0.00000000000E+00 0.  1.
         13    1    5    5    0    0  0.25879433966E+02  0.84195702434E+02 -0.27982215853E+02  0.92421132945E+02  0.00000000000E+00 0. -1.
        -14    1    5    5    0    0 -0.19138963680E+02  0.99631874354E+01  0.22295629941E+02  0.31026765044E+02  0.00000000000E+00 0.  1.
          4    1    6    6  502    0 -0.20858915850E+03  0.16006939414E+03 -0.88407936417E+03  0.92234915847E+03  0.00000000000E+00 0. -1.
         -3    1    6    6    0  502 -0.22351984612E+03  0.88028523485E+02 -0.67992746572E+03  0.72111822970E+03  0.00000000000E+00 0.  1.
<mgrwt>
<rscale>  0 0.58222289E+03</rscale>
<asrwt>0</asrwt>
<pdfrwt beam="1">  1        1 0.49138421E+00 0.58222289E+03</pdfrwt>
<pdfrwt beam="2">  1       -2 0.22849197E-01 0.58222289E+03</pdfrwt>
<totfact> 0.70211241E+00</totfact>
</mgrwt>
</event>
<event>
12    3  0.2212098E-007  0.4613424E+03  0.7818608E-02  0.1024393E+00
         -4   -1    0    0    0  501 -0.00000000000E+00  0.00000000000E+00  0.23151556082E+03  0.23151556082E+03  0.00000000000E+00 0.  1.
          3   -1    0    0  501    0  0.00000000000E+00 -0.00000000000E+00 -0.11330755872E+04  0.11330755872E+04  0.00000000000E+00 0. -1.
        -24    2    1    2    0    0  0.27620894443E+03  0.18085217210E+03 -0.30131921920E+03  0.45372664239E+03  0.77946808925E+02 0.  0.
    5000000    2    1    2    0    0 -0.27620894443E+03 -0.18085217210E+03 -0.60024080723E+03  0.91086450568E+03  0.60032177365E+03 0.  0.
        -24    2    4    4    0    0 -0.13056087645E+03  0.15759167678E+03 -0.45718686442E+03  0.50811561839E+03  0.85325105387E+02 0.  0.
         24    2    4    4    0    0 -0.14564806798E+03 -0.33844384888E+03 -0.14305394281E+03  0.40274888729E+03  0.77360436324E+02 0.  0.
         11    1    3    3    0    0  0.61146075106E+02  0.10475945099E+02 -0.79893656472E+02  0.10115129397E+03  0.00000000000E+00 0. -1.
        -12    1    3    3    0    0  0.21506286933E+03  0.17037622700E+03 -0.22142556272E+03  0.35257534842E+03  0.00000000000E+00 0.  1.
         13    1    5    5    0    0 -0.48987698054E+01  0.34738390202E+02 -0.29880630812E+02  0.46082597552E+02  0.00000000000E+00 0. -1.
        -14    1    5    5    0    0 -0.12566210664E+03  0.12285328658E+03 -0.42730623361E+03  0.46203302084E+03  0.00000000000E+00 0.  1.
          4    1    6    6  502    0 -0.11958733725E+02 -0.11091149056E+03 -0.29042097011E+02  0.11527277844E+03  0.00000000000E+00 0. -1.
         -3    1    6    6    0  502 -0.13368933426E+03 -0.22753235831E+03 -0.11401184580E+03  0.28747610884E+03  0.00000000000E+00 0.  1.
<mgrwt>
<rscale>  0 0.46134245E+03</rscale>
<asrwt>0</asrwt>
<pdfrwt beam="1">  1        3 0.17431932E+00 0.46134245E+03</pdfrwt>
<pdfrwt beam="2">  1       -4 0.35617779E-01 0.46134245E+03</pdfrwt>
<totfact> 0.37972220E+00</totfact>
</mgrwt>
</event>
<event>
12    3  0.2212098E-007  0.5907482E+03  0.7818608E-02  0.9924789E-01
          1   -1    0    0  501    0  0.00000000000E+00  0.00000000000E+00  0.19615650498E+04  0.19615650498E+04  0.00000000000E+00 0. -1.
         -2   -1    0    0    0  501 -0.00000000000E+00 -0.00000000000E+00 -0.24335433033E+03  0.24335433033E+03  0.00000000000E+00 0.  1.
        -24    2    1    2    0    0 -0.53542551797E+03 -0.63044822219E+02  0.47511070597E+03  0.72304918414E+03  0.80092476909E+02 0.  0.
    5000000    2    1    2    0    0  0.53542551797E+03  0.63044822219E+02  0.12431000135E+04  0.14818701959E+04  0.59998874929E+03 0.  0.
        -24    2    4    4    0    0  0.51471508081E+02  0.13425579688E+03  0.80154442417E+03  0.81816437668E+03  0.79028780956E+02 0.  0.
         24    2    4    4    0    0  0.48395400988E+03 -0.71210974662E+02  0.44155558929E+03  0.66370581927E+03  0.79066993712E+02 0.  0.
         11    1    3    3    0    0 -0.24510571548E+03 -0.66443193209E+02  0.24063127473E+03  0.34984985360E+03  0.00000000000E+00 0. -1.
        -12    1    3    3    0    0 -0.29031980248E+03  0.33983709898E+01  0.23447943125E+03  0.37319933054E+03  0.00000000000E+00 0.  1.
         11    1    5    5    0    0  0.98326648489E+01  0.55113084820E+02  0.51386726248E+03  0.51690782241E+03  0.00000000000E+00 0. -1.
        -12    1    5    5    0    0  0.41638843232E+02  0.79142712061E+02  0.28767716168E+03  0.30125655427E+03  0.00000000000E+00 0.  1.
          4    1    6    6  502    0  0.41703784201E+02  0.81134541249E+01  0.17705109506E+02  0.46027216482E+02  0.00000000000E+00 0. -1.
         -3    1    6    6    0  502  0.44225022568E+03 -0.79324428787E+02  0.42385047979E+03  0.61767860278E+03  0.00000000000E+00 0.  1.
<mgrwt>
<rscale>  0 0.59074821E+03</rscale>
<asrwt>0</asrwt>
<pdfrwt beam="1">  1        1 0.30177923E+00 0.59074821E+03</pdfrwt>
<pdfrwt beam="2">  1       -2 0.37439129E-01 0.59074821E+03</pdfrwt>
<totfact> 0.19864710E+01</totfact>
</mgrwt>
</event>
<event>
12    3  0.2212098E-007  0.1086213E+04  0.7818608E-02  0.9218735E-01
          1   -1    0    0  501    0  0.00000000000E+00  0.00000000000E+00  0.20620894894E+04  0.20620894894E+04  0.00000000000E+00 0. -1.
         -2   -1    0    0    0  501 -0.00000000000E+00 -0.00000000000E+00 -0.62298308412E+03  0.62298308412E+03  0.00000000000E+00 0.  1.
        -24    2    1    2    0    0  0.88041139786E+03 -0.56207567334E+03  0.82228927683E+03  0.13317491490E+04  0.79642005026E+02 0.  0.
    5000000    2    1    2    0    0 -0.88041139786E+03  0.56207567334E+03  0.61681712841E+03  0.13533234245E+04  0.59997302387E+03 0.  0.
        -24    2    4    4    0    0 -0.25785214834E+02  0.15677874800E+03  0.30717601142E+03  0.35496150954E+03  0.79975734629E+02 0.  0.
         24    2    4    4    0    0 -0.85462618302E+03  0.40529692534E+03  0.30964111699E+03  0.99836191497E+03  0.78723449690E+02 0.  0.
         11    1    5    5    0    0 -0.44662900067E+02  0.45662542302E+02  0.13229221077E+03  0.14690497419E+03  0.00000000000E+00 0. -1.
        -12    1    5    5    0    0  0.18877685232E+02  0.11111620570E+03  0.17488380066E+03  0.20805653535E+03  0.00000000000E+00 0.  1.
         11    1    3    3    0    0  0.36318217884E+03 -0.27371505634E+03  0.37977436413E+03  0.59249455250E+03  0.00000000000E+00 0. -1.
        -12    1    3    3    0    0  0.51722921902E+03 -0.28836061699E+03  0.44251491271E+03  0.73925459648E+03  0.00000000000E+00 0.  1.
          4    1    6    6  502    0 -0.30962197669E+03  0.18754047014E+03  0.10715842007E+03  0.37751837489E+03  0.00000000000E+00 0. -1.
         -3    1    6    6    0  502 -0.54500420633E+03  0.21775645520E+03  0.20248269692E+03  0.62084354008E+03  0.00000000000E+00 0.  1.
<mgrwt>
<rscale>  0 0.10862129E+04</rscale>
<asrwt>0</asrwt>
<pdfrwt beam="1">  1        1 0.31724453E+00 0.10862129E+04</pdfrwt>
<pdfrwt beam="2">  1       -2 0.95843553E-01 0.10862129E+04</pdfrwt>
<totfact> 0.21588567E+00</totfact>
</mgrwt>
</event>
<event>
12    3  0.2212098E-007  0.6687708E+03  0.7818608E-02  0.9772181E-01
          1   -1    0    0  501    0  0.00000000000E+00  0.00000000000E+00  0.96180287637E+03  0.96180287637E+03  0.00000000000E+00 0. -1.
         -2   -1    0    0    0  501 -0.00000000000E+00 -0.00000000000E+00 -0.85614806894E+03  0.85614806894E+03  0.00000000000E+00 0.  1.
        -24    2    1    2    0    0 -0.45787921035E+03 -0.34326321182E+03  0.61523717315E+03  0.84469238916E+03  0.86633995686E+02 0.  0.
    5000000    2    1    2    0    0  0.45787921035E+03  0.34326321182E+03 -0.50958236572E+03  0.97325855615E+03  0.60006251825E+03 0.  0.
        -24    2    4    4    0    0  0.48785037861E+03  0.43322293825E+03 -0.53430253399E+03  0.84708735110E+03  0.79985476304E+02 0.  0.
         24    2    4    4    0    0 -0.29971168261E+02 -0.89959726431E+02  0.24720168274E+02  0.12617120505E+03  0.79479953183E+02 0.  0.
         11    1    3    3    0    0 -0.48303161495E+02 -0.23035461298E+02  0.96008596131E+02  0.10991577875E+03  0.00000000000E+00 0. -1.
        -12    1    3    3    0    0 -0.40957604885E+03 -0.32022775052E+03  0.51922857702E+03  0.73477661040E+03  0.00000000000E+00 0.  1.
         11    1    5    5    0    0  0.52618903075E+02  0.66538488143E+02 -0.42303895162E+02  0.94793137468E+02  0.00000000000E+00 0. -1.
        -12    1    5    5    0    0  0.43523147553E+03  0.36668445011E+03 -0.49199863883E+03  0.75229421363E+03  0.00000000000E+00 0.  1.
          2    1    6    6  502    0 -0.19821307016E+02 -0.16698137272E+00 -0.17489280662E+02  0.26434580244E+02  0.00000000000E+00 0. -1.
         -1    1    6    6    0  502 -0.10149861246E+02 -0.89792745058E+02  0.42209448936E+02  0.99736624807E+02  0.00000000000E+00 0.  1.
<mgrwt>
<rscale>  0 0.66877077E+03</rscale>
<asrwt>0</asrwt>
<pdfrwt beam="1">  1        1 0.14796967E+00 0.66877077E+03</pdfrwt>
<pdfrwt beam="2">  1       -2 0.13171509E+00 0.66877077E+03</pdfrwt>
<totfact> 0.61861788E+00</totfact>
</mgrwt>
</event>
<event>
12    3  0.2212098E-007  0.1330658E+04  0.7818608E-02  0.9005600E-01
         -2   -1    0    0    0  501 -0.00000000000E+00  0.00000000000E+00  0.22124840520E+04  0.22124840520E+04  0.00000000000E+00 0.  1.
          1   -1    0    0  501    0  0.00000000000E+00 -0.00000000000E+00 -0.14216375365E+04  0.14216375365E+04  0.00000000000E+00 0. -1.
        -24    2    1    2    0    0  0.56908379727E+03 -0.11925657596E+04  0.15154179940E+04  0.20121644318E+04  0.79022431190E+02 0.  0.
    5000000    2    1    2    0    0 -0.56908379727E+03  0.11925657596E+04 -0.72457147844E+03  0.16219571567E+04  0.59972638053E+03 0.  0.
        -24    2    4    4    0    0 -0.29255018210E+03  0.80410656385E+03 -0.15176016807E+03  0.87245145119E+03  0.77249019298E+02 0.  0.
         24    2    4    4    0    0 -0.27653361517E+03  0.38845919579E+03 -0.57281131037E+03  0.74950570554E+03  0.79212487923E+02 0.  0.
         11    1    3    3    0    0  0.28448528474E+03 -0.60202948750E+03  0.70367357401E+03  0.96877648600E+03  0.00000000000E+00 0. -1.
        -12    1    3    3    0    0  0.28459851253E+03 -0.59053627215E+03  0.81174441994E+03  0.10433879458E+04  0.00000000000E+00 0.  1.
         13    1    5    5    0    0 -0.24722665158E+03  0.72182912988E+03 -0.15449149576E+03  0.77847667418E+03  0.00000000000E+00 0. -1.
        -14    1    5    5    0    0 -0.45323530529E+02  0.82277433979E+02  0.27313276918E+01  0.93974777003E+02  0.00000000000E+00 0.  1.
          2    1    6    6  502    0 -0.78062246741E+02  0.17442217031E+03 -0.24126846093E+03  0.30777796883E+03  0.00000000000E+00 0. -1.
         -1    1    6    6    0  502 -0.19847136842E+03  0.21403702549E+03 -0.33154284944E+03  0.44172773671E+03  0.00000000000E+00 0.  1.
<mgrwt>
<rscale>  0 0.13306579E+04</rscale>
<asrwt>0</asrwt>
<pdfrwt beam="1">  1        1 0.21871347E+00 0.13306579E+04</pdfrwt>
<pdfrwt beam="2">  1       -2 0.34038216E+00 0.13306579E+04</pdfrwt>
<totfact> 0.11227140E-01</totfact>
</mgrwt>
</event>
<event>
12    3  0.2212098E-007  0.4180521E+03  0.7818608E-02  0.1037702E+00
         -2   -1    0    0    0  501 -0.00000000000E+00  0.00000000000E+00  0.15184637650E+03  0.15184637650E+03  0.00000000000E+00 0.  1.
          1   -1    0    0  501    0  0.00000000000E+00 -0.00000000000E+00 -0.16977357886E+04  0.16977357886E+04  0.00000000000E+00 0. -1.
        -24    2    1    2    0    0 -0.20796429361E+03  0.46291792360E+02 -0.62015990247E+02  0.23498187254E+03  0.77320242619E+02 0.  0.
    5000000    2    1    2    0    0  0.20796429361E+03 -0.46291792360E+02 -0.14838734218E+04  0.16146002925E+04  0.59971801306E+03 0.  0.
        -24    2    4    4    0    0  0.29607997177E+03 -0.25116043378E+03 -0.83411162052E+03  0.92339384609E+03  0.78543531519E+02 0.  0.
         24    2    4    4    0    0 -0.88115678151E+02  0.20486864142E+03 -0.64976180129E+03  0.69120644642E+03  0.76422641814E+02 0.  0.
         11    1    5    5    0    0  0.10643392229E+03 -0.11470545895E+03 -0.41563693776E+03  0.44411663575E+03  0.00000000000E+00 0. -1.
        -12    1    5    5    0    0  0.18964604948E+03 -0.13645497484E+03 -0.41847468276E+03  0.47927721034E+03  0.00000000000E+00 0.  1.
         13    1    3    3    0    0 -0.15093550883E+03  0.19223550092E+02 -0.76367914109E+02  0.17024432739E+03  0.00000000000E+00 0. -1.
        -14    1    3    3    0    0 -0.57028784788E+02  0.27068242269E+02  0.14351923862E+02  0.64737545153E+02  0.00000000000E+00 0.  1.
          2    1    6    6  502    0 -0.17277271711E+02  0.40268553081E+01 -0.10141668242E+03  0.10295660812E+03  0.00000000000E+00 0. -1.
         -1    1    6    6    0  502 -0.70838406441E+02  0.20084178612E+03 -0.54834511887E+03  0.58824983830E+03  0.00000000000E+00 0.  1.
<mgrwt>
<rscale>  0 0.41805207E+03</rscale>
<asrwt>0</asrwt>
<pdfrwt beam="1">  1        1 0.26119012E+00 0.41805207E+03</pdfrwt>
<pdfrwt beam="2">  1       -2 0.23360981E-01 0.41805207E+03</pdfrwt>
<totfact> 0.72967932E+01</totfact>
</mgrwt>
</event>
<event>
12    3  0.2212098E-007  0.3832958E+03  0.7818608E-02  0.1049722E+00
         -2   -1    0    0    0  501 -0.00000000000E+00  0.00000000000E+00  0.39213300446E+03  0.39213300446E+03  0.00000000000E+00 0.  1.
          1   -1    0    0  501    0  0.00000000000E+00 -0.00000000000E+00 -0.14222719656E+04  0.14222719656E+04  0.00000000000E+00 0. -1.
        -24    2    1    2    0    0 -0.12180317504E+03 -0.34022560831E+03 -0.10503352546E+04  0.11136409393E+04  0.80015726974E+02 0.  0.
    5000000    2    1    2    0    0  0.12180317504E+03  0.34022560831E+03  0.20196293464E+02  0.70076403079E+03  0.60006071241E+03 0.  0.
        -24    2    4    4    0    0  0.86505263571E+02  0.50464697961E+02  0.27617415734E+03  0.30432326485E+03  0.79439524049E+02 0.  0.
         24    2    4    4    0    0  0.35297911471E+02  0.28976091035E+03 -0.25597786387E+03  0.39644076594E+03  0.80207770105E+02 0.  0.
         13    1    5    5    0    0  0.32611700091E+02  0.15572979176E+02  0.20626201422E+03  0.20940405721E+03  0.00000000000E+00 0. -1.
        -14    1    5    5    0    0  0.53893563481E+02  0.34891718785E+02  0.69912143112E+02  0.94919207640E+02  0.00000000000E+00 0.  1.
         13    1    3    3    0    0 -0.97018367073E+02 -0.20365179933E+03 -0.74133877821E+03  0.77489986643E+03  0.00000000000E+00 0. -1.
        -14    1    3    3    0    0 -0.24784807969E+02 -0.13657380898E+03 -0.30899647638E+03  0.33874107283E+03  0.00000000000E+00 0.  1.
          4    1    6    6  502    0 -0.90356533909E+01  0.21322225309E+03 -0.16709625878E+03  0.27104710282E+03  0.00000000000E+00 0. -1.
         -3    1    6    6    0  502  0.44333564862E+02  0.76538657259E+02 -0.88881605091E+02  0.12539366313E+03  0.00000000000E+00 0.  1.
<mgrwt>
<rscale>  0 0.38329582E+03</rscale>
<asrwt>0</asrwt>
<pdfrwt beam="1">  1        1 0.21881107E+00 0.38329582E+03</pdfrwt>
<pdfrwt beam="2">  1       -2 0.60328154E-01 0.38329582E+03</pdfrwt>
<totfact> 0.18242689E+01</totfact>
</mgrwt>
</event>
<event>
12    3  0.2212098E-007  0.1030320E+04  0.7818608E-02  0.9275901E-01
          1   -1    0    0  501    0  0.00000000000E+00  0.00000000000E+00  0.11920704903E+04  0.11920704903E+04  0.00000000000E+00 0. -1.
         -2   -1    0    0    0  501 -0.00000000000E+00 -0.00000000000E+00 -0.10220175368E+04  0.10220175368E+04  0.00000000000E+00 0.  1.
        -24    2    1    2    0    0  0.46102773245E+03 -0.82853260423E+03 -0.29973065618E+03  0.99767051113E+03  0.80592407575E+02 0.  0.
    5000000    2    1    2    0    0 -0.46102773245E+03  0.82853260423E+03  0.46978360974E+03  0.12164175160E+04  0.59996840488E+03 0.  0.
        -24    2    4    4    0    0  0.69205306612E+02  0.44568057432E+03  0.25382786679E+03  0.52316458403E+03  0.76498674760E+02 0.  0.
         24    2    4    4    0    0 -0.53023303907E+03  0.38285202991E+03  0.21595574295E+03  0.69325293195E+03  0.78993621391E+02 0.  0.
         13    1    3    3    0    0  0.25133460570E+03 -0.43259065205E+03 -0.19911392883E+03  0.53847015973E+03  0.00000000000E+00 0. -1.
        -14    1    3    3    0    0  0.20969312675E+03 -0.39594195218E+03 -0.10061672735E+03  0.45920035140E+03  0.00000000000E+00 0.  1.
         13    1    5    5    0    0  0.78923384145E+02  0.30235266317E+03  0.19208953049E+03  0.36680297329E+03  0.00000000000E+00 0. -1.
        -14    1    5    5    0    0 -0.97180775332E+01  0.14332791115E+03  0.61738336298E+02  0.15636161074E+03  0.00000000000E+00 0.  1.
          2    1    6    6  502    0 -0.28052341626E+03  0.16982305326E+03  0.13871615195E+03  0.35605537111E+03  0.00000000000E+00 0. -1.
         -1    1    6    6    0  502 -0.24970962281E+03  0.21302897665E+03  0.77239591003E+02  0.33719756084E+03  0.00000000000E+00 0.  1.
<mgrwt>
<rscale>  0 0.10303202E+04</rscale>
<asrwt>0</asrwt>
<pdfrwt beam="1">  1        1 0.18339546E+00 0.10303202E+04</pdfrwt>
<pdfrwt beam="2">  1       -2 0.15723347E+00 0.10303202E+04</pdfrwt>
<totfact> 0.24904258E+00</totfact>
</mgrwt>
</event>
<event>
12    3  0.2212098E-007  0.2104746E+03  0.7818608E-02  0.1141191E+00
          1   -1    0    0  501    0  0.00000000000E+00  0.00000000000E+00  0.19075058446E+04  0.19075058446E+04  0.00000000000E+00 0. -1.
         -2   -1    0    0    0  501 -0.00000000000E+00 -0.00000000000E+00 -0.75755432188E+02  0.75755432188E+02  0.00000000000E+00 0.  1.
        -24    2    1    2    0    0 -0.48040871031E+02  0.85841001870E+01  0.65145013924E+03  0.65823728877E+03  0.80668657784E+02 0.  0.
    5000000    2    1    2    0    0  0.48040871031E+02 -0.85841001870E+01  0.11803002732E+04  0.13250239880E+04  0.60016516218E+03 0.  0.
        -24    2    4    4    0    0  0.12225093563E+03 -0.13021797604E+03  0.11382405489E+04  0.11549421936E+04  0.79986941416E+02 0.  0.
         24    2    4    4    0    0 -0.74210064598E+02  0.12163387586E+03  0.42059724271E+02  0.17008179444E+03  0.82806177002E+02 0.  0.
         13    1    3    3    0    0 -0.26740798934E+02  0.22634201087E+02  0.59782660825E+03  0.59885226134E+03  0.00000000000E+00 0. -1.
        -14    1    3    3    0    0 -0.21300072097E+02 -0.14050100900E+02  0.53623530988E+02  0.59385027425E+02  0.00000000000E+00 0.  1.
         13    1    5    5    0    0  0.94819616091E+02 -0.42867963396E+02  0.58818985979E+03  0.59732380921E+03  0.00000000000E+00 0. -1.
        -14    1    5    5    0    0  0.27431319538E+02 -0.87350012647E+02  0.55005068909E+03  0.55761838436E+03  0.00000000000E+00 0.  1.
          2    1    6    6  502    0  0.67063792631E+01  0.66572288747E+02  0.18256936927E+02  0.69355323500E+02  0.00000000000E+00 0. -1.
         -1    1    6    6    0  502 -0.80916443861E+02  0.55061587109E+02  0.23802787343E+02  0.10072647094E+03  0.00000000000E+00 0.  1.
<mgrwt>
<rscale>  0 0.21047458E+03</rscale>
<asrwt>0</asrwt>
<pdfrwt beam="1">  1        1 0.29346240E+00 0.21047458E+03</pdfrwt>
<pdfrwt beam="2">  1       -2 0.11654683E-01 0.21047458E+03</pdfrwt>
<totfact> 0.17977154E+02</totfact>
</mgrwt>
</event>
<event>
12    3  0.2212098E-007  0.5436628E+03  0.7818608E-02  0.1002971E+00
         -4   -1    0    0    0  501 -0.00000000000E+00  0.00000000000E+00  0.19398269067E+04  0.19398269067E+04  0.00000000000E+00 0.  1.
          3   -1    0    0  501    0  0.00000000000E+00 -0.00000000000E+00 -0.18155182042E+03  0.18155182042E+03  0.00000000000E+00 0. -1.
        -24    2    1    2    0    0  0.35706719693E+03  0.25333239948E+03  0.66434869291E+03  0.79914218910E+03  0.74798160972E+02 0.  0.
    5000000    2    1    2    0    0 -0.35706719693E+03 -0.25333239948E+03  0.10939263934E+04  0.13222365381E+04  0.59996684958E+03 0.  0.
        -24    2    4    4    0    0 -0.46716205488E+03 -0.21080202765E+03  0.10532501929E+04  0.11740414371E+04  0.79746139025E+02 0.  0.
         24    2    4    4    0    0  0.11009485794E+03 -0.42530371826E+02  0.40676200491E+02  0.14819510098E+03  0.79859403922E+02 0.  0.
         11    1    3    3    0    0  0.15147560816E+03  0.15079578172E+03  0.29832255661E+03  0.36698852221E+03  0.00000000000E+00 0. -1.
        -12    1    3    3    0    0  0.20559158878E+03  0.10253661776E+03  0.36602613629E+03  0.43215366689E+03  0.00000000000E+00 0.  1.
         13    1    5    5    0    0 -0.14692209355E+03 -0.97176138715E+02  0.41848769677E+03  0.45404983852E+03  0.00000000000E+00 0. -1.
        -14    1    5    5    0    0 -0.32023996133E+03 -0.11362588894E+03  0.63476249615E+03  0.71999159855E+03  0.00000000000E+00 0.  1.
          2    1    6    6  502    0  0.24798258450E+02 -0.34123201145E+02  0.45883807915E+02  0.62327123368E+02  0.00000000000E+00 0. -1.
         -1    1    6    6    0  502  0.85296599494E+02 -0.84071706811E+01 -0.52076074247E+01  0.85867977612E+02  0.00000000000E+00 0.  1.
<mgrwt>
<rscale>  0 0.54366276E+03</rscale>
<asrwt>0</asrwt>
<pdfrwt beam="1">  1        3 0.27931051E-01 0.54366276E+03</pdfrwt>
<pdfrwt beam="2">  1       -4 0.29843489E+00 0.54366276E+03</pdfrwt>
<totfact> 0.93021945E-01</totfact>
</mgrwt>
</event>
<event>
12    3  0.2212098E-007  0.7262974E+03  0.7818608E-02  0.9673288E-01
          1   -1    0    0  501    0  0.00000000000E+00  0.00000000000E+00  0.11336170601E+04  0.11336170601E+04  0.00000000000E+00 0. -1.
         -2   -1    0    0    0  501 -0.00000000000E+00 -0.00000000000E+00 -0.10092788012E+04  0.10092788012E+04  0.00000000000E+00 0.  1.
        -24    2    1    2    0    0 -0.19867039792E+03 -0.58206240230E+03 -0.71223549320E+03  0.94366794080E+03  0.70450106698E+02 0.  0.
    5000000    2    1    2    0    0  0.19867039792E+03  0.58206240230E+03  0.83657375212E+03  0.11992279205E+04  0.60002116250E+03 0.  0.
        -24    2    4    4    0    0  0.25648898979E+03  0.67055906504E+03  0.66119978397E+03  0.97925354073E+03  0.79475034527E+02 0.  0.
         24    2    4    4    0    0 -0.57818591873E+02 -0.88496662739E+02  0.17537396815E+03  0.21997437980E+03  0.80361994630E+02 0.  0.
         11    1    5    5    0    0  0.17549078393E+03  0.35591220622E+03  0.34374318424E+03  0.52500465759E+03  0.00000000000E+00 0. -1.
        -12    1    5    5    0    0  0.80998205860E+02  0.31464685883E+03  0.31745659973E+03  0.45424888314E+03  0.00000000000E+00 0.  1.
         13    1    3    3    0    0 -0.10447611476E+03 -0.29505518987E+03 -0.41578065968E+03  0.52042903511E+03  0.00000000000E+00 0. -1.
        -14    1    3    3    0    0 -0.94194283163E+02 -0.28700721244E+03 -0.29645483352E+03  0.42323890569E+03  0.00000000000E+00 0.  1.
          4    1    6    6  502    0 -0.43401626248E+01  0.58831610197E+01 -0.54423519286E+01  0.91141532634E+01  0.00000000000E+00 0. -1.
         -3    1    6    6    0  502 -0.53478429248E+02 -0.94379823759E+02  0.18081632008E+03  0.21086022654E+03  0.00000000000E+00 0.  1.
<mgrwt>
<rscale>  0 0.72629739E+03</rscale>
<asrwt>0</asrwt>
<pdfrwt beam="1">  1        1 0.17440262E+00 0.72629739E+03</pdfrwt>
<pdfrwt beam="2">  1       -2 0.15527366E+00 0.72629739E+03</pdfrwt>
<totfact> 0.29590607E+00</totfact>
</mgrwt>
</event>
<event>
12    3  0.2212098E-007  0.1421698E+04  0.7818608E-02  0.8938260E-01
          1   -1    0    0  501    0  0.00000000000E+00  0.00000000000E+00  0.23919480240E+04  0.23919480240E+04  0.00000000000E+00 0. -1.
         -2   -1    0    0    0  501 -0.00000000000E+00 -0.00000000000E+00 -0.94246827362E+03  0.94246827362E+03  0.00000000000E+00 0.  1.
        -24    2    1    2    0    0 -0.13588769616E+04 -0.19736888122E+03  0.21255627627E+03  0.13914726575E+04  0.74262466978E+02 0.  0.
    5000000    2    1    2    0    0  0.13588769616E+04  0.19736888122E+03  0.12369234742E+04  0.19429436401E+04  0.59962424534E+03 0.  0.
        -24    2    4    4    0    0  0.76668129649E+03 -0.14655951302E+03  0.83151521171E+03  0.11432892098E+04  0.80079764119E+02 0.  0.
         24    2    4    4    0    0  0.59219566514E+03  0.34392839424E+03  0.40540826245E+03  0.79965443034E+03  0.78159468599E+02 0.  0.
         11    1    5    5    0    0  0.36191091602E+03 -0.10395945227E+03  0.36928666045E+03  0.52740849106E+03  0.00000000000E+00 0. -1.
        -12    1    5    5    0    0  0.40477038047E+03 -0.42600060748E+02  0.46222855126E+03  0.61588071871E+03  0.00000000000E+00 0.  1.
         11    1    3    3    0    0 -0.10885771771E+04 -0.13081827037E+03  0.18229264572E+03  0.11114604352E+04  0.00000000000E+00 0. -1.
        -12    1    3    3    0    0 -0.27029978450E+03 -0.66550610854E+02  0.30263630547E+02  0.28001222230E+03  0.00000000000E+00 0.  1.
          2    1    6    6  502    0  0.97167511386E+01  0.31166458526E+01 -0.32487295453E+01  0.10709013854E+02  0.00000000000E+00 0. -1.
         -1    1    6    6    0  502  0.58247891400E+03  0.34081174839E+03  0.40865699199E+03  0.78894541649E+03  0.00000000000E+00 0.  1.
<mgrwt>
<rscale>  0 0.14216984E+04</rscale>
<asrwt>0</asrwt>
<pdfrwt beam="1">  1        1 0.36799200E+00 0.14216984E+04</pdfrwt>
<pdfrwt beam="2">  1       -2 0.14499512E+00 0.14216984E+04</pdfrwt>
<totfact> 0.44188777E-01</totfact>
</mgrwt>
</event>
<event>
12    3  0.2212098E-007  0.6400614E+03  0.7818608E-02  0.9825609E-01
         -2   -1    0    0    0  501 -0.00000000000E+00  0.00000000000E+00  0.39103221853E+03  0.39103221853E+03  0.00000000000E+00 0.  1.
          1   -1    0    0  501    0  0.00000000000E+00 -0.00000000000E+00 -0.12887810592E+04  0.12887810592E+04  0.00000000000E+00 0. -1.
        -24    2    1    2    0    0 -0.37170579472E+03  0.43732192154E+03 -0.46756974077E+03  0.74458698274E+03  0.79828888836E+02 0.  0.
    5000000    2    1    2    0    0  0.37170579472E+03 -0.43732192154E+03 -0.43017909993E+03  0.93522629501E+03  0.60014873489E+03 0.  0.
        -24    2    4    4    0    0  0.64211334447E+02  0.60795498618E+02 -0.31518344786E+03  0.33511572022E+03  0.71712983552E+02 0.  0.
         24    2    4    4    0    0  0.30749446027E+03 -0.49811742015E+03 -0.11499565207E+03  0.60011057480E+03  0.65076067997E+02 0.  0.
         13    1    3    3    0    0 -0.65083534321E+02  0.12981506530E+03 -0.11668000698E+03  0.18628484009E+03  0.00000000000E+00 0. -1.
        -14    1    3    3    0    0 -0.30662226040E+03  0.30750685624E+03 -0.35088973379E+03  0.55830214265E+03  0.00000000000E+00 0.  1.
         13    1    5    5    0    0  0.73481718654E+02  0.26260420499E+02 -0.22111573227E+03  0.23448100076E+03  0.00000000000E+00 0. -1.
        -14    1    5    5    0    0 -0.92703842072E+01  0.34535078119E+02 -0.94067715588E+02  0.10063471946E+03  0.00000000000E+00 0.  1.
          4    1    6    6  502    0  0.10145093483E+03 -0.20290719973E+03 -0.19714818400E+02  0.22771099654E+03  0.00000000000E+00 0. -1.
         -3    1    6    6    0  502  0.20604352545E+03 -0.29521022042E+03 -0.95280833670E+02  0.37239957825E+03  0.00000000000E+00 0.  1.
<mgrwt>
<rscale>  0 0.64006136E+03</rscale>
<asrwt>0</asrwt>
<pdfrwt beam="1">  1        1 0.19827401E+00 0.64006136E+03</pdfrwt>
<pdfrwt beam="2">  1       -2 0.60158802E-01 0.64006136E+03</pdfrwt>
<totfact> 0.21678176E+01</totfact>
</mgrwt>
</event>
<event>
12    3  0.2212098E-007  0.6526643E+03  0.7818608E-02  0.9801793E-01
         -2   -1    0    0    0  501 -0.00000000000E+00  0.00000000000E+00  0.14459176615E+04  0.14459176615E+04  0.00000000000E+00 0.  1.
          1   -1    0    0  501    0  0.00000000000E+00 -0.00000000000E+00 -0.37229247688E+03  0.37229247688E+03  0.00000000000E+00 0. -1.
        -24    2    1    2    0    0 -0.51779053886E+03 -0.19085125239E+03  0.13299520835E+03  0.57340715158E+03  0.81097431327E+02 0.  0.
    5000000    2    1    2    0    0  0.51779053886E+03  0.19085125239E+03  0.94062997624E+03  0.12448029868E+04  0.60018203990E+03 0.  0.
        -24    2    4    4    0    0  0.48619190112E+03  0.34021071634E+03  0.53011014239E+03  0.79965208351E+03  0.79377549571E+02 0.  0.
         24    2    4    4    0    0  0.31598637738E+02 -0.14935946395E+03  0.41051983385E+03  0.44515090327E+03  0.79536591045E+02 0.  0.
         13    1    3    3    0    0 -0.22705002722E+03 -0.74708835081E+02  0.98156499491E+02  0.25839470446E+03  0.00000000000E+00 0. -1.
        -14    1    3    3    0    0 -0.29074051164E+03 -0.11614241731E+03  0.34838708860E+02  0.31501244712E+03  0.00000000000E+00 0.  1.
         13    1    5    5    0    0  0.29427423336E+03  0.25207635006E+03  0.34633416798E+03  0.51969911159E+03  0.00000000000E+00 0. -1.
        -14    1    5    5    0    0  0.19191766776E+03  0.88134366286E+02  0.18377597441E+03  0.27995297192E+03  0.00000000000E+00 0.  1.
          2    1    6    6  502    0  0.11412079981E+02 -0.10729071555E+03  0.36240768471E+03  0.37812810415E+03  0.00000000000E+00 0. -1.
         -1    1    6    6    0  502  0.20186557757E+02 -0.42068748400E+02  0.48112149140E+02  0.67022799113E+02  0.00000000000E+00 0.  1.
<mgrwt>
<rscale>  0 0.65266434E+03</rscale>
<asrwt>0</asrwt>
<pdfrwt beam="1">  1        1 0.57275767E-01 0.65266434E+03</pdfrwt>
<pdfrwt beam="2">  1       -2 0.22244887E+00 0.65266434E+03</pdfrwt>
<totfact> 0.57235942E+00</totfact>
</mgrwt>
</event>
<event>
12    3  0.2212098E-007  0.1050259E+04  0.7818608E-02  0.9255077E-01
         -2   -1    0    0    0  501 -0.00000000000E+00  0.00000000000E+00  0.12572010178E+04  0.12572010178E+04  0.00000000000E+00 0.  1.
          1   -1    0    0  501    0  0.00000000000E+00 -0.00000000000E+00 -0.10250135399E+04  0.10250135399E+04  0.00000000000E+00 0. -1.
        -24    2    1    2    0    0  0.91791496790E+03  0.43030069976E+03  0.40062654658E+03  0.10921621333E+04  0.67748912214E+02 0.  0.
    5000000    2    1    2    0    0 -0.91791496790E+03 -0.43030069976E+03 -0.16843906860E+03  0.11900524244E+04  0.60010538442E+03 0.  0.
        -24    2    4    4    0    0 -0.25974624033E+03  0.41467946048E+02  0.15406822060E+03  0.31472106322E+03  0.78260022487E+02 0.  0.
         24    2    4    4    0    0 -0.65816872758E+03 -0.47176864581E+03 -0.32250728920E+03  0.87533136116E+03  0.80264008794E+02 0.  0.
         13    1    3    3    0    0  0.50075318767E+03  0.24113226965E+03  0.18383451350E+03  0.58540042260E+03  0.00000000000E+00 0. -1.
        -14    1    3    3    0    0  0.41716178023E+03  0.18916843011E+03  0.21679203308E+03  0.50676171071E+03  0.00000000000E+00 0.  1.
         13    1    5    5    0    0 -0.17407770970E+03 -0.99244364796E+01  0.10324019693E+03  0.20263287422E+03  0.00000000000E+00 0. -1.
        -14    1    5    5    0    0 -0.85668530633E+02  0.51392382528E+02  0.50828023673E+02  0.11208818900E+03  0.00000000000E+00 0.  1.
          2    1    6    6  502    0 -0.73566354618E+02 -0.80020207523E+02 -0.26463356259E+02  0.11187292509E+03  0.00000000000E+00 0. -1.
         -1    1    6    6    0  502 -0.58460237296E+03 -0.39174843829E+03 -0.29604393294E+03  0.76345843606E+03  0.00000000000E+00 0.  1.
<mgrwt>
<rscale>  0 0.10502591E+04</rscale>
<asrwt>0</asrwt>
<pdfrwt beam="1">  1        1 0.15769439E+00 0.10502591E+04</pdfrwt>
<pdfrwt beam="2">  1       -2 0.19341554E+00 0.10502591E+04</pdfrwt>
<totfact> 0.18478417E+00</totfact>
</mgrwt>
</event>
<event>
12    3  0.2212098E-007  0.1395699E+04  0.7818608E-02  0.8956938E-01
         -2   -1    0    0    0  501 -0.00000000000E+00  0.00000000000E+00  0.83399661219E+03  0.83399661219E+03  0.00000000000E+00 0.  1.
          1   -1    0    0  501    0  0.00000000000E+00 -0.00000000000E+00 -0.25122678417E+04  0.25122678417E+04  0.00000000000E+00 0. -1.
        -24    2    1    2    0    0 -0.64088907477E+03 -0.12024256196E+04 -0.52260205112E+03  0.14615249706E+04  0.79850854317E+02 0.  0.
    5000000    2    1    2    0    0  0.64088907477E+03  0.12024256196E+04 -0.11556691784E+04  0.18847394833E+04  0.60008790470E+03 0.  0.
        -24    2    4    4    0    0  0.55514210449E+03  0.11953189364E+04 -0.11736226619E+04  0.17665469781E+04  0.79548458253E+02 0.  0.
         24    2    4    4    0    0  0.85746970283E+02  0.71066831446E+01  0.17953483510E+02  0.11819250527E+03  0.79019572719E+02 0.  0.
         11    1    5    5    0    0  0.23938219921E+03  0.43454851458E+03 -0.46534933872E+03  0.68021044969E+03  0.00000000000E+00 0. -1.
        -12    1    5    5    0    0  0.31575990528E+03  0.76077042186E+03 -0.70827332317E+03  0.10863365284E+04  0.00000000000E+00 0.  1.
         13    1    3    3    0    0 -0.44305809678E+03 -0.89082216319E+03 -0.40432889410E+03  0.10739396902E+04  0.00000000000E+00 0. -1.
        -14    1    3    3    0    0 -0.19783097799E+03 -0.31160345640E+03 -0.11827315702E+03  0.38758528037E+03  0.00000000000E+00 0.  1.
          2    1    6    6  502    0  0.42896562265E+02  0.35900185111E+02  0.32322881823E+02  0.64604233874E+02  0.00000000000E+00 0. -1.
         -1    1    6    6    0  502  0.42850408018E+02 -0.28793501966E+02 -0.14369398313E+02  0.53588271391E+02  0.00000000000E+00 0.  1.
<mgrwt>
<rscale>  0 0.13956992E+04</rscale>
<asrwt>0</asrwt>
<pdfrwt beam="1">  1        1 0.38650275E+00 0.13956992E+04</pdfrwt>
<pdfrwt beam="2">  1       -2 0.12830717E+00 0.13956992E+04</pdfrwt>
<totfact> 0.50270087E-01</totfact>
</mgrwt>
</event>
<event>
12    3  0.2212098E-007  0.6516655E+03  0.7818608E-02  0.9803659E-01
          1   -1    0    0  501    0  0.00000000000E+00  0.00000000000E+00  0.53203254726E+03  0.53203254726E+03  0.00000000000E+00 0. -1.
         -2   -1    0    0    0  501 -0.00000000000E+00 -0.00000000000E+00 -0.10044596349E+04  0.10044596349E+04  0.00000000000E+00 0.  1.
        -24    2    1    2    0    0 -0.39500719582E+03  0.33999191168E+03 -0.51948105499E+03  0.74031498783E+03  0.81120465727E+02 0.  0.
    5000000    2    1    2    0    0  0.39500719582E+03 -0.33999191168E+03  0.47053967302E+02  0.79617719437E+03  0.60004905153E+03 0.  0.
        -24    2    4    4    0    0 -0.13720233767E+03 -0.10873790240E+03 -0.55646437110E+02  0.20149360863E+03  0.82793329890E+02 0.  0.
         24    2    4    4    0    0  0.53220953349E+03 -0.23125400927E+03  0.10270040441E+03  0.59468358575E+03  0.79848542532E+02 0.  0.
         11    1    3    3    0    0 -0.21098569547E+03  0.14336077675E+03 -0.29257199676E+03  0.38815673290E+03  0.00000000000E+00 0. -1.
        -12    1    3    3    0    0 -0.18402150036E+03  0.19663113492E+03 -0.22690905822E+03  0.35215825493E+03  0.00000000000E+00 0.  1.
         11    1    5    5    0    0 -0.12976018426E+03 -0.57704824114E+02 -0.38384386893E+02  0.14710850860E+03  0.00000000000E+00 0. -1.
        -12    1    5    5    0    0 -0.74421534040E+01 -0.51033078291E+02 -0.17262050217E+02  0.54385100026E+02  0.00000000000E+00 0.  1.
          2    1    6    6  502    0  0.17809092412E+03 -0.38619773134E+02  0.42115752676E+02  0.18703368882E+03  0.00000000000E+00 0. -1.
         -1    1    6    6    0  502  0.35411860937E+03 -0.19263423614E+03  0.60584651736E+02  0.40764989692E+03  0.00000000000E+00 0.  1.
<mgrwt>
<rscale>  0 0.65166547E+03</rscale>
<asrwt>0</asrwt>
<pdfrwt beam="1">  1        1 0.81851162E-01 0.65166547E+03</pdfrwt>
<pdfrwt beam="2">  1       -2 0.15453225E+00 0.65166547E+03</pdfrwt>
<totfact> 0.10154443E+01</totfact>
</mgrwt>
</event>
<event>
12    3  0.2212098E-007  0.1171787E+04  0.7818608E-02  0.9137917E-01
         -2   -1    0    0    0  501 -0.00000000000E+00  0.00000000000E+00  0.14851332279E+04  0.14851332279E+04  0.00000000000E+00 0.  1.
          1   -1    0    0  501    0  0.00000000000E+00 -0.00000000000E+00 -0.21797351716E+04  0.21797351716E+04  0.00000000000E+00 0. -1.
        -24    2    1    2    0    0  0.88868841340E+03  0.65290633167E+03  0.10437560855E+04  0.15206398497E+04  0.82855370896E+02 0.  0.
    5000000    2    1    2    0    0 -0.88868841340E+03 -0.65290633167E+03 -0.17383580292E+04  0.21442285498E+04  0.59981135514E+03 0.  0.
        -24    2    4    4    0    0 -0.95403435212E+03 -0.63369973226E+03 -0.15562461022E+04  0.19338695641E+04  0.78693485756E+02 0.  0.
         24    2    4    4    0    0  0.65345938726E+02 -0.19206599411E+02 -0.18211192700E+03  0.21035898561E+03  0.80294232078E+02 0.  0.
         11    1    5    5    0    0 -0.56403500229E+03 -0.36525736769E+03 -0.84843592608E+03  0.10823086201E+04  0.00000000000E+00 0. -1.
        -12    1    5    5    0    0 -0.38999934983E+03 -0.26844236457E+03 -0.70781017616E+03  0.85156094406E+03  0.00000000000E+00 0.  1.
         11    1    3    3    0    0  0.50095855343E+03  0.40190799700E+03  0.64870726759E+03  0.91285849360E+03  0.00000000000E+00 0. -1.
        -12    1    3    3    0    0  0.38772985996E+03  0.25099833467E+03  0.39504881795E+03  0.60778135615E+03  0.00000000000E+00 0.  1.
          4    1    6    6  502    0  0.21235412776E+02  0.24149305646E+02 -0.22682771155E+02  0.39352761354E+02  0.00000000000E+00 0. -1.
         -3    1    6    6    0  502  0.44110525950E+02 -0.43355905057E+02 -0.15942915584E+03  0.17100622426E+03  0.00000000000E+00 0.  1.
<mgrwt>
<rscale>  0 0.11717866E+04</rscale>
<asrwt>0</asrwt>
<pdfrwt beam="1">  1        1 0.33534387E+00 0.11717866E+04</pdfrwt>
<pdfrwt beam="2">  1       -2 0.22848204E+00 0.11717866E+04</pdfrwt>
<totfact> 0.16920807E-01</totfact>
</mgrwt>
</event>
<event>
12    3  0.2212098E-007  0.1683269E+04  0.7818608E-02  0.8770965E-01
         -2   -1    0    0    0  501 -0.00000000000E+00  0.00000000000E+00  0.77665730547E+03  0.77665730547E+03  0.00000000000E+00 0.  1.
          1   -1    0    0  501    0  0.00000000000E+00 -0.00000000000E+00 -0.38140597557E+04  0.38140597557E+04  0.00000000000E+00 0. -1.
        -24    2    1    2    0    0 -0.16229838219E+03 -0.16544837233E+04 -0.12943863827E+04  0.21084192019E+04  0.79613236115E+02 0.  0.
    5000000    2    1    2    0    0  0.16229838219E+03  0.16544837233E+04 -0.17430160675E+04  0.24822978593E+04  0.60003374504E+03 0.  0.
        -24    2    4    4    0    0 -0.10861050554E+03  0.47388545460E+03 -0.82381187100E+03  0.95965645220E+03  0.76881996987E+02 0.  0.
         24    2    4    4    0    0  0.27090888772E+03  0.11805982687E+04 -0.91920419648E+03  0.15226414071E+04  0.79351132425E+02 0.  0.
         11    1    3    3    0    0 -0.14108930244E+03 -0.12921962504E+04 -0.97365138497E+03  0.16240918571E+04  0.00000000000E+00 0. -1.
        -12    1    3    3    0    0 -0.21209079748E+02 -0.36228747289E+03 -0.32073499776E+03  0.48432734474E+03  0.00000000000E+00 0.  1.
         13    1    5    5    0    0 -0.71782987660E+02  0.42230633797E+03 -0.70293904121E+03  0.82317600552E+03  0.00000000000E+00 0. -1.
        -14    1    5    5    0    0 -0.36827517876E+02  0.51579116626E+02 -0.12087282979E+03  0.13648044668E+03  0.00000000000E+00 0.  1.
          2    1    6    6  502    0  0.13871155325E+03  0.51118025616E+03 -0.44374271753E+03  0.69098028094E+03  0.00000000000E+00 0. -1.
         -1    1    6    6    0  502  0.13219733448E+03  0.66941801257E+03 -0.47546147894E+03  0.83166112615E+03  0.00000000000E+00 0.  1.
<mgrwt>
<rscale>  0 0.16832685E+04</rscale>
<asrwt>0</asrwt>
<pdfrwt beam="1">  1        1 0.58677842E+00 0.16832685E+04</pdfrwt>
<pdfrwt beam="2">  1       -2 0.11948574E+00 0.16832685E+04</pdfrwt>
<totfact> 0.61408460E-02</totfact>
</mgrwt>
</event>
<event>
12    3  0.2288216E-007  0.6518720E+03  0.7818608E-02  0.9803273E-01
         -2   -1    0    0    0  501 -0.00000000000E+00  0.00000000000E+00  0.48088728056E+03  0.48088728056E+03  0.00000000000E+00 0.  1.
          1   -1    0    0  501    0  0.00000000000E+00 -0.00000000000E+00 -0.10969011592E+04  0.10969011592E+04  0.00000000000E+00 0. -1.
        -24    2    1    2    0    0 -0.25091735295E+03  0.49446933392E+03 -0.50325984868E+03  0.75306677080E+03  0.79872684964E+02 0.  0.
    5000000    2    1    2    0    0  0.25091735295E+03 -0.49446933392E+03 -0.11275402995E+03  0.82472166894E+03  0.59999409976E+03 0.  0.
        -24    2    4    4    0    0  0.39361342796E+03 -0.27292493660E+03  0.77649549922E+02  0.49171184053E+03  0.79570910686E+02 0.  0.
         24    2    4    4    0    0 -0.14269607500E+03 -0.22154439731E+03 -0.19040357987E+03  0.33300982841E+03  0.72096690528E+02 0.  0.
         13    1    3    3    0    0 -0.20987962825E+03  0.33343907140E+03 -0.34971059694E+03  0.52680980847E+03  0.00000000000E+00 0. -1.
        -14    1    3    3    0    0 -0.41037724702E+02  0.16103026252E+03 -0.15354925173E+03  0.22625696233E+03  0.00000000000E+00 0.  1.
         13    1    5    5    0    0  0.23725308206E+03 -0.18212732914E+03  0.84389698743E+02  0.31077485455E+03  0.00000000000E+00 0. -1.
        -14    1    5    5    0    0  0.15636034589E+03 -0.90797607468E+02 -0.67401488210E+01  0.18093698598E+03  0.00000000000E+00 0.  1.
          2    1    6    6  502    0 -0.11258060807E+03 -0.18106386073E+03 -0.11489788296E+03  0.24219834534E+03  0.00000000000E+00 0. -1.
         -1    1    6    6    0  502 -0.30115466939E+02 -0.40480536581E+02 -0.75505696916E+02  0.90811483071E+02  0.00000000000E+00 0.  1.
<mgrwt>
<rscale>  0 0.65187201E+03</rscale>
<asrwt>0</asrwt>
<pdfrwt beam="1">  1        1 0.16875402E+00 0.65187201E+03</pdfrwt>
<pdfrwt beam="2">  1       -2 0.73982659E-01 0.65187201E+03</pdfrwt>
<totfact> 0.19073702E+01</totfact>
</mgrwt>
</event>
<event>
12    3  0.2212098E-007  0.5486363E+03  0.7818608E-02  0.1001810E+00
          1   -1    0    0  501    0  0.00000000000E+00  0.00000000000E+00  0.63886749771E+03  0.63886749771E+03  0.00000000000E+00 0. -1.
         -2   -1    0    0    0  501 -0.00000000000E+00 -0.00000000000E+00 -0.48465724380E+03  0.48465724380E+03  0.00000000000E+00 0.  1.
        -24    2    1    2    0    0  0.16686118212E+02 -0.38646907894E+03  0.10162455107E+03  0.40778362436E+03  0.79518295989E+02 0.  0.
    5000000    2    1    2    0    0 -0.16686118212E+02  0.38646907894E+03  0.52585702845E+02  0.71574111715E+03  0.59990275472E+03 0.  0.
        -24    2    4    4    0    0 -0.26433365767E+03  0.47956118281E+02 -0.21939449653E+02  0.28136867960E+03  0.80715070153E+02 0.  0.
         24    2    4    4    0    0  0.24764753946E+03  0.33851296066E+03  0.74525152498E+02  0.43437243756E+03  0.84882788708E+02 0.  0.
         11    1    3    3    0    0 -0.19603060608E+02 -0.36938310258E+02  0.22848539797E+02  0.47652644426E+02  0.00000000000E+00 0. -1.
        -12    1    3    3    0    0  0.36289178820E+02 -0.34953076868E+03  0.78776011270E+02  0.36013097993E+03  0.00000000000E+00 0.  1.
         13    1    5    5    0    0 -0.14811689904E+03 -0.10575645907E+02  0.46019269334E+01  0.14856526445E+03  0.00000000000E+00 0. -1.
        -14    1    5    5    0    0 -0.11621675862E+03  0.58531764188E+02 -0.26541376587E+02  0.13280341515E+03  0.00000000000E+00 0.  1.
          4    1    6    6  502    0  0.23660401687E+03  0.28323857362E+03  0.80348922750E+02  0.37770557286E+03  0.00000000000E+00 0. -1.
         -1    1    6    6    0  502  0.11043522585E+02  0.55274387044E+02 -0.58237702518E+01  0.56666864693E+02  0.00000000000E+00 0.  1.
<mgrwt>
<rscale>  0 0.54863627E+03</rscale>
<asrwt>0</asrwt>
<pdfrwt beam="1">  1        1 0.98287308E-01 0.54863627E+03</pdfrwt>
<pdfrwt beam="2">  1       -2 0.74562653E-01 0.54863627E+03</pdfrwt>
<totfact> 0.45879396E+01</totfact>
</mgrwt>
</event>
<event>
12    3  0.2212098E-007  0.4363108E+03  0.7818608E-02  0.1031885E+00
          1   -1    0    0  501    0  0.00000000000E+00  0.00000000000E+00  0.51996118627E+03  0.51996118627E+03  0.00000000000E+00 0. -1.
         -2   -1    0    0    0  501 -0.00000000000E+00 -0.00000000000E+00 -0.52144691806E+03  0.52144691806E+03  0.00000000000E+00 0.  1.
        -24    2    1    2    0    0  0.22640062360E+03  0.23007880163E+03  0.11283663880E+03  0.35059901186E+03  0.77421332565E+02 0.  0.
    5000000    2    1    2    0    0 -0.22640062360E+03 -0.23007880163E+03 -0.11432237059E+03  0.69080909247E+03  0.59996174919E+03 0.  0.
        -24    2    4    4    0    0  0.10875205746E+03  0.15667570377E+02 -0.21614332147E+03  0.25544976568E+03  0.80400028627E+02 0.  0.
         24    2    4    4    0    0 -0.33515268106E+03 -0.24574637201E+03  0.10182095088E+03  0.43535932679E+03  0.80322091635E+02 0.  0.
         11    1    5    5    0    0  0.83870078225E+01  0.28994915760E+02 -0.82056634385E+02  0.87431906571E+02  0.00000000000E+00 0. -1.
        -12    1    5    5    0    0  0.10036504964E+03 -0.13327345383E+02 -0.13408668709E+03  0.16801785911E+03  0.00000000000E+00 0.  1.
         13    1    3    3    0    0  0.43432226908E+02  0.67346828497E+02 -0.19570728099E+01  0.80160986625E+02  0.00000000000E+00 0. -1.
        -14    1    3    3    0    0  0.18296839669E+03  0.16273197313E+03  0.11479371161E+03  0.27043802524E+03  0.00000000000E+00 0.  1.
          2    1    6    6  502    0 -0.56873733314E+02 -0.31693154076E+02 -0.12170712248E+02  0.66235970537E+02  0.00000000000E+00 0. -1.
         -1    1    6    6    0  502 -0.27827894775E+03 -0.21405321793E+03  0.11399166313E+03  0.36912335625E+03  0.00000000000E+00 0.  1.
<mgrwt>
<rscale>  0 0.43631077E+03</rscale>
<asrwt>0</asrwt>
<pdfrwt beam="1">  1        1 0.79994028E-01 0.43631077E+03</pdfrwt>
<pdfrwt beam="2">  1       -2 0.80222603E-01 0.43631077E+03</pdfrwt>
<totfact> 0.52749299E+01</totfact>
</mgrwt>
</event>
<event>
12    3  0.2212098E-007  0.4680897E+03  0.7818608E-02  0.1022461E+00
         -2   -1    0    0    0  501 -0.00000000000E+00  0.00000000000E+00  0.11677440377E+04  0.11677440377E+04  0.00000000000E+00 0.  1.
          1   -1    0    0  501    0  0.00000000000E+00 -0.00000000000E+00 -0.33328682572E+03  0.33328682572E+03  0.00000000000E+00 0. -1.
        -24    2    1    2    0    0 -0.27549093156E+03 -0.36459119548E+03  0.16532157417E+03  0.49256862169E+03  0.80440232436E+02 0.  0.
    5000000    2    1    2    0    0  0.27549093156E+03  0.36459119548E+03  0.66913563782E+03  0.10084622417E+04  0.60035955729E+03 0.  0.
        -24    2    4    4    0    0  0.20632779967E+03  0.26010181092E+03  0.76119133677E+03  0.83416950572E+03  0.78755318155E+02 0.  0.
         24    2    4    4    0    0  0.69163131893E+02  0.10448938456E+03 -0.92055698948E+02  0.17429273603E+03  0.78753640074E+02 0.  0.
         11    1    3    3    0    0 -0.52964160760E+02 -0.12145995391E+03  0.27543701282E+02  0.13533801465E+03  0.00000000000E+00 0. -1.
        -12    1    3    3    0    0 -0.22252677080E+03 -0.24313124158E+03  0.13777787289E+03  0.35723060705E+03  0.00000000000E+00 0.  1.
         11    1    5    5    0    0  0.96564890455E+02  0.10154596929E+03  0.23319623868E+03  0.27206037506E+03  0.00000000000E+00 0. -1.
        -12    1    5    5    0    0  0.10976290921E+03  0.15855584164E+03  0.52799509810E+03  0.56210913066E+03  0.00000000000E+00 0.  1.
          2    1    6    6  502    0  0.47191444650E+02  0.15840331615E+02 -0.58927434534E+02  0.77138778151E+02  0.00000000000E+00 0. -1.
         -1    1    6    6    0  502  0.21971687242E+02  0.88649052946E+02 -0.33128264413E+02  0.97153957879E+02  0.00000000000E+00 0.  1.
<mgrwt>
<rscale>  0 0.46808966E+03</rscale>
<asrwt>0</asrwt>
<pdfrwt beam="1">  1        1 0.51274897E-01 0.46808966E+03</pdfrwt>
<pdfrwt beam="2">  1       -2 0.17965293E+00 0.46808966E+03</pdfrwt>
<totfact> 0.12826796E+01</totfact>
</mgrwt>
</event>
<event>
12    3  0.2212098E-007  0.7898605E+03  0.7818608E-02  0.9574811E-01
          1   -1    0    0  501    0  0.00000000000E+00  0.00000000000E+00  0.24865546265E+04  0.24865546265E+04  0.00000000000E+00 0. -1.
         -2   -1    0    0    0  501 -0.00000000000E+00 -0.00000000000E+00 -0.29359356520E+03  0.29359356520E+03  0.00000000000E+00 0.  1.
        -24    2    1    2    0    0 -0.74221627219E+03 -0.76822261167E+02  0.10107765751E+04  0.12588572843E+04  0.79156319233E+02 0.  0.
    5000000    2    1    2    0    0  0.74221627219E+03  0.76822261167E+02  0.11821844862E+04  0.15212909074E+04  0.59998267566E+03 0.  0.
        -24    2    4    4    0    0  0.37110305625E+03 -0.13010753017E+03  0.94744132163E+03  0.10288561512E+04  0.79085233520E+02 0.  0.
         24    2    4    4    0    0  0.37111321594E+03  0.20692979133E+03  0.23474316457E+03  0.49243475623E+03  0.82720482598E+02 0.  0.
         11    1    5    5    0    0  0.15288482042E+03 -0.12991959718E+02  0.35655173099E+03  0.38816452208E+03  0.00000000000E+00 0. -1.
        -12    1    5    5    0    0  0.21821823583E+03 -0.11711557045E+03  0.59088959064E+03  0.64069162911E+03  0.00000000000E+00 0.  1.
         13    1    3    3    0    0 -0.40215879282E+03 -0.73346819670E+02  0.51196333035E+03  0.65514723705E+03  0.00000000000E+00 0. -1.
        -14    1    3    3    0    0 -0.34005747937E+03 -0.34754414978E+01  0.49881324479E+03  0.60371004724E+03  0.00000000000E+00 0.  1.
          4    1    6    6  502    0  0.86320193323E+02  0.80971595307E+02  0.91839095685E+02  0.14980652362E+03  0.00000000000E+00 0. -1.
         -3    1    6    6    0  502  0.28479302262E+03  0.12595819603E+03  0.14290406888E+03  0.34262823261E+03  0.00000000000E+00 0.  1.
<mgrwt>
<rscale>  0 0.78986052E+03</rscale>
<asrwt>0</asrwt>
<pdfrwt beam="1">  1        1 0.38254685E+00 0.78986052E+03</pdfrwt>
<pdfrwt beam="2">  1       -2 0.45168242E-01 0.78986052E+03</pdfrwt>
<totfact> 0.59124651E+00</totfact>
</mgrwt>
</event>
<event>
12    3  0.2212098E-007  0.7824223E+03  0.7818608E-02  0.9585814E-01
         -2   -1    0    0    0  501 -0.00000000000E+00  0.00000000000E+00  0.64648284773E+03  0.64648284773E+03  0.00000000000E+00 0.  1.
          1   -1    0    0  501    0  0.00000000000E+00 -0.00000000000E+00 -0.13148882737E+04  0.13148882737E+04  0.00000000000E+00 0. -1.
        -24    2    1    2    0    0  0.48034564616E+03  0.53436958021E+03  0.12598681915E+03  0.73376467339E+03  0.79089375219E+02 0.  0.
    5000000    2    1    2    0    0 -0.48034564616E+03 -0.53436958021E+03 -0.79439224515E+03  0.12276064481E+04  0.59972974262E+03 0.  0.
        -24    2    4    4    0    0 -0.58954003801E+02  0.56075599522E+02  0.38324356446E+02  0.12042174559E+03  0.80078668115E+02 0.  0.
         24    2    4    4    0    0 -0.42139164235E+03 -0.59044517973E+03 -0.83271660160E+03  0.11071847025E+04  0.79022783745E+02 0.  0.
         13    1    3    3    0    0  0.35700950772E+03  0.34955590242E+03  0.10525092784E+03  0.51061029692E+03  0.00000000000E+00 0. -1.
        -14    1    3    3    0    0  0.12333613844E+03  0.18481367780E+03  0.20735891308E+02  0.22315437646E+03  0.00000000000E+00 0.  1.
         13    1    5    5    0    0 -0.67856629513E+02  0.12029816368E+02  0.18845072809E+02  0.71444911785E+02  0.00000000000E+00 0. -1.
        -14    1    5    5    0    0  0.89026257121E+01  0.44045783154E+02  0.19479283637E+02  0.48976833801E+02  0.00000000000E+00 0.  1.
          2    1    6    6  502    0 -0.16991475861E+03 -0.17788247097E+03 -0.26125014139E+03  0.35883817390E+03  0.00000000000E+00 0. -1.
         -1    1    6    6    0  502 -0.25147688374E+03 -0.41256270876E+03 -0.57146646021E+03  0.74834652860E+03  0.00000000000E+00 0.  1.
<mgrwt>
<rscale>  0 0.78242229E+03</rscale>
<asrwt>0</asrwt>
<pdfrwt beam="1">  1        1 0.20229050E+00 0.78242229E+03</pdfrwt>
<pdfrwt beam="2">  1       -2 0.99458899E-01 0.78242229E+03</pdfrwt>
<totfact> 0.66402786E+00</totfact>
</mgrwt>
</event>
<event>
12    3  0.2212098E-007  0.1295326E+04  0.7818608E-02  0.9033280E-01
         -2   -1    0    0    0  501 -0.00000000000E+00  0.00000000000E+00  0.16205902568E+04  0.16205902568E+04  0.00000000000E+00 0.  1.
          1   -1    0    0  501    0  0.00000000000E+00 -0.00000000000E+00 -0.24357438798E+04  0.24357438798E+04  0.00000000000E+00 0. -1.
        -24    2    1    2    0    0  0.22324653298E+03  0.12474901543E+04 -0.18988053971E+04  0.22842342921E+04  0.78699844401E+02 0.  0.
    5000000    2    1    2    0    0 -0.22324653298E+03 -0.12474901543E+04  0.10836517742E+04  0.17720998445E+04  0.59997165917E+03 0.  0.
        -24    2    4    4    0    0 -0.23017967758E+03 -0.38341015554E+03  0.67318273247E+03  0.81203633024E+03  0.79006195941E+02 0.  0.
         24    2    4    4    0    0  0.69331446046E+01 -0.86407999873E+03  0.41046904173E+03  0.96006351430E+03  0.80961747535E+02 0.  0.
         11    1    3    3    0    0  0.96716297045E+01  0.21306314162E+03 -0.30324492028E+03  0.37073835034E+03  0.00000000000E+00 0. -1.
        -12    1    3    3    0    0  0.21357490327E+03  0.10344270126E+04 -0.15955604769E+04  0.19134959418E+04  0.00000000000E+00 0.  1.
         13    1    5    5    0    0 -0.22721612608E+03 -0.38733904622E+03  0.66777098317E+03  0.80472156094E+03  0.00000000000E+00 0. -1.
        -14    1    5    5    0    0 -0.29635515043E+01  0.39288906798E+01  0.54117492964E+01  0.73147693019E+01  0.00000000000E+00 0.  1.
          4    1    6    6  502    0 -0.32409062348E+02 -0.31910251133E+03  0.17121867643E+03  0.36358299632E+03  0.00000000000E+00 0. -1.
         -3    1    6    6    0  502  0.39342206953E+02 -0.54497748741E+03  0.23925036531E+03  0.59648051798E+03  0.00000000000E+00 0.  1.
<mgrwt>
<rscale>  0 0.12953264E+04</rscale>
<asrwt>0</asrwt>
<pdfrwt beam="1">  1        1 0.37472983E+00 0.12953264E+04</pdfrwt>
<pdfrwt beam="2">  1       -2 0.24932158E+00 0.12953264E+04</pdfrwt>
<totfact> 0.82538092E-02</totfact>
</mgrwt>
</event>
<event>
12    3  0.2212098E-007  0.5911986E+03  0.7818608E-02  0.9923836E-01
         -2   -1    0    0    0  501 -0.00000000000E+00  0.00000000000E+00  0.30645430901E+03  0.30645430901E+03  0.00000000000E+00 0.  1.
          1   -1    0    0  501    0  0.00000000000E+00 -0.00000000000E+00 -0.17928335137E+04  0.17928335137E+04  0.00000000000E+00 0. -1.
        -24    2    1    2    0    0 -0.29332563534E+03 -0.33335879467E+03 -0.12293669839E+04  0.13098086491E+04  0.84187302300E+02 0.  0.
    5000000    2    1    2    0    0  0.29332563534E+03  0.33335879467E+03 -0.25701222080E+03  0.78947917360E+03  0.60004505629E+03 0.  0.
        -24    2    4    4    0    0  0.31408175058E+03 -0.66031623392E+02 -0.58216247319E+02  0.33585407860E+03  0.80008182898E+02 0.  0.
         24    2    4    4    0    0 -0.20756115232E+02  0.39939041806E+03 -0.19879597349E+03  0.45362509500E+03  0.79450395725E+02 0.  0.
         11    1    3    3    0    0 -0.22878898598E+03 -0.25642231170E+03 -0.83714926496E+03  0.90493960786E+03  0.00000000000E+00 0. -1.
        -12    1    3    3    0    0 -0.64536649365E+02 -0.76936482967E+02 -0.39221771892E+03  0.40486904124E+03  0.00000000000E+00 0.  1.
         13    1    5    5    0    0  0.14510342582E+03  0.10040091018E+02 -0.26728949641E+02  0.14788591671E+03  0.00000000000E+00 0. -1.
        -14    1    5    5    0    0  0.16897832475E+03 -0.76071714410E+02 -0.31487297678E+02  0.18796816189E+03  0.00000000000E+00 0.  1.
          4    1    6    6  502    0 -0.11351979104E+01  0.37991618434E+03 -0.18865053295E+03  0.42417758001E+03  0.00000000000E+00 0. -1.
         -3    1    6    6    0  502 -0.19620917322E+02  0.19474233717E+02 -0.10145440538E+02  0.29447514991E+02  0.00000000000E+00 0.  1.
<mgrwt>
<rscale>  0 0.59119864E+03</rscale>
<asrwt>0</asrwt>
<pdfrwt beam="1">  1        1 0.27582054E+00 0.59119864E+03</pdfrwt>
<pdfrwt beam="2">  1       -2 0.47146817E-01 0.59119864E+03</pdfrwt>
<totfact> 0.16361841E+01</totfact>
</mgrwt>
</event>
<event>
12    3  0.2212098E-007  0.1382997E+04  0.7818608E-02  0.8966219E-01
          1   -1    0    0  501    0  0.00000000000E+00  0.00000000000E+00  0.34219725092E+04  0.34219725092E+04  0.00000000000E+00 0. -1.
         -2   -1    0    0    0  501 -0.00000000000E+00 -0.00000000000E+00 -0.59336587749E+03  0.59336587749E+03  0.00000000000E+00 0.  1.
        -24    2    1    2    0    0 -0.10860879431E+04 -0.81670091285E+03  0.12570078025E+04  0.18528140324E+04  0.79144310594E+02 0.  0.
    5000000    2    1    2    0    0  0.10860879431E+04  0.81670091285E+03  0.15715988292E+04  0.21625243543E+04  0.60000108494E+03 0.  0.
        -24    2    4    4    0    0  0.10536860045E+04  0.73847350724E+03  0.15848891468E+04  0.20430041042E+04  0.79967774597E+02 0.  0.
         24    2    4    4    0    0  0.32401938557E+02  0.78227405613E+02 -0.13290317601E+02  0.11952025015E+03  0.83300930626E+02 0.  0.
         11    1    5    5    0    0  0.57590594628E+03  0.44765071193E+03  0.87088379845E+03  0.11360006203E+04  0.00000000000E+00 0. -1.
        -12    1    5    5    0    0  0.47778005823E+03  0.29082279531E+03  0.71400534840E+03  0.90700348393E+03  0.00000000000E+00 0.  1.
         13    1    3    3    0    0 -0.50250347436E+03 -0.41946525884E+03  0.57565269506E+03  0.87168622248E+03  0.00000000000E+00 0. -1.
        -14    1    3    3    0    0 -0.58358446870E+03 -0.39723565401E+03  0.68135510745E+03  0.98112780991E+03  0.00000000000E+00 0.  1.
          2    1    6    6  502    0  0.47373095443E+02  0.87218863160E+02 -0.31031190778E+01  0.99302414929E+02  0.00000000000E+00 0. -1.
         -1    1    6    6    0  502 -0.14971156886E+02 -0.89914575472E+01 -0.10187198524E+02  0.20217835222E+02  0.00000000000E+00 0.  1.
<mgrwt>
<rscale>  0 0.13829965E+04</rscale>
<asrwt>0</asrwt>
<pdfrwt beam="1">  1        1 0.52645730E+00 0.13829965E+04</pdfrwt>
<pdfrwt beam="2">  1       -2 0.91287060E-01 0.13829965E+04</pdfrwt>
<totfact> 0.25201787E-01</totfact>
</mgrwt>
</event>
<event>
12    3  0.2212098E-007  0.7711892E+03  0.7818608E-02  0.9602682E-01
          1   -1    0    0  501    0  0.00000000000E+00  0.00000000000E+00  0.18924148949E+04  0.18924148949E+04  0.00000000000E+00 0. -1.
         -2   -1    0    0    0  501 -0.00000000000E+00 -0.00000000000E+00 -0.42449178792E+03  0.42449178792E+03  0.00000000000E+00 0.  1.
        -24    2    1    2    0    0 -0.51024762547E+03  0.55834021620E+03  0.34243122686E+03  0.83405972962E+03  0.79372861330E+02 0.  0.
    5000000    2    1    2    0    0  0.51024762547E+03 -0.55834021620E+03  0.11254918801E+04  0.14828469532E+04  0.60000556505E+03 0.  0.
        -24    2    4    4    0    0  0.25813534748E+03 -0.39116380056E+03  0.10616510365E+04  0.11632327713E+04  0.79778321030E+02 0.  0.
         24    2    4    4    0    0  0.25211227799E+03 -0.16717641564E+03  0.63840843610E+02  0.31961418187E+03  0.81049474277E+02 0.  0.
         13    1    5    5    0    0  0.20362071674E+03 -0.29383503175E+03  0.88287330089E+03  0.95250495410E+03  0.00000000000E+00 0. -1.
        -14    1    5    5    0    0  0.54514630744E+02 -0.97328768807E+02  0.17877773561E+03  0.21072781723E+03  0.00000000000E+00 0.  1.
         13    1    3    3    0    0 -0.14926245831E+03  0.21741717614E+03  0.12949267073E+03  0.29379901585E+03  0.00000000000E+00 0. -1.
        -14    1    3    3    0    0 -0.36098516716E+03  0.34092304005E+03  0.21293855613E+03  0.54026071376E+03  0.00000000000E+00 0.  1.
          4    1    6    6  502    0  0.22095532978E+03 -0.10740487403E+03  0.53269202294E+02  0.25138550602E+03  0.00000000000E+00 0. -1.
         -3    1    6    6    0  502  0.31156948207E+02 -0.59771541610E+02  0.10571641317E+02  0.68228675849E+02  0.00000000000E+00 0.  1.
<mgrwt>
<rscale>  0 0.77118921E+03</rscale>
<asrwt>0</asrwt>
<pdfrwt beam="1">  1        1 0.29114075E+00 0.77118921E+03</pdfrwt>
<pdfrwt beam="2">  1       -2 0.65306430E-01 0.77118921E+03</pdfrwt>
<totfact> 0.69377489E+00</totfact>
</mgrwt>
</event>
<event>
12    3  0.2212098E-007  0.2324329E+03  0.7818608E-02  0.1124939E+00
          3   -1    0    0  501    0  0.00000000000E+00  0.00000000000E+00  0.81182112252E+03  0.81182112252E+03  0.00000000000E+00 0. -1.
         -4   -1    0    0    0  501 -0.00000000000E+00 -0.00000000000E+00 -0.30632362837E+03  0.30632362837E+03  0.00000000000E+00 0.  1.
        -24    2    1    2    0    0  0.35393054762E+02  0.13172630688E+03 -0.15086754240E+03  0.21844111867E+03  0.79693279045E+02 0.  0.
    5000000    2    1    2    0    0 -0.35393054762E+02 -0.13172630688E+03  0.65636503654E+03  0.89970363223E+03  0.60003922905E+03 0.  0.
        -24    2    4    4    0    0 -0.14474375399E+03 -0.81070170374E+02  0.71914303357E+03  0.74228381408E+03  0.79343752540E+02 0.  0.
         24    2    4    4    0    0  0.10935069922E+03 -0.50656136509E+02 -0.62777997033E+02  0.15741981814E+03  0.79475169997E+02 0.  0.
         11    1    3    3    0    0 -0.21855475297E+02  0.70625536114E+02 -0.77625742101E+02  0.10719787306E+03  0.00000000000E+00 0. -1.
        -12    1    3    3    0    0  0.57248530059E+02  0.61100770769E+02 -0.73241800297E+02  0.11124324561E+03  0.00000000000E+00 0.  1.
         11    1    5    5    0    0 -0.82799117211E+02 -0.95065863297E+01  0.43130075140E+03  0.43927941808E+03  0.00000000000E+00 0. -1.
        -12    1    5    5    0    0 -0.61944636775E+02 -0.71563584044E+02  0.28784228218E+03  0.30300439600E+03  0.00000000000E+00 0.  1.
          4    1    6    6  502    0  0.63828538378E+02 -0.38853042833E+01  0.39641647207E+01  0.64069435012E+02  0.00000000000E+00 0. -1.
         -3    1    6    6    0  502  0.45522160846E+02 -0.46770832226E+02 -0.66742161754E+02  0.93350383131E+02  0.00000000000E+00 0.  1.
<mgrwt>
<rscale>  0 0.23243290E+03</rscale>
<asrwt>0</asrwt>
<pdfrwt beam="1">  1        3 0.12489556E+00 0.23243290E+03</pdfrwt>
<pdfrwt beam="2">  1       -4 0.47126713E-01 0.23243290E+03</pdfrwt>
<totfact> 0.49477554E+00</totfact>
</mgrwt>
</event>
<event>
12    3  0.2212098E-007  0.1767577E+04  0.7818608E-02  0.8723734E-01
         -2   -1    0    0    0  501 -0.00000000000E+00  0.00000000000E+00  0.10307244601E+04  0.10307244601E+04  0.00000000000E+00 0.  1.
          1   -1    0    0  501    0  0.00000000000E+00 -0.00000000000E+00 -0.36296794247E+04  0.36296794247E+04  0.00000000000E+00 0. -1.
        -24    2    1    2    0    0  0.16279561846E+04  0.67447902388E+03 -0.45479186012E+03  0.18209344949E+04  0.61672571098E+02 0.  0.
    5000000    2    1    2    0    0 -0.16279561846E+04 -0.67447902388E+03 -0.21441631045E+04  0.28394693899E+04  0.59998975383E+03 0.  0.
        -24    2    4    4    0    0 -0.35582884611E+03 -0.17834713572E+03 -0.91441249291E+03  0.10001272545E+04  0.75382024071E+02 0.  0.
         24    2    4    4    0    0 -0.12721273385E+04 -0.49613188816E+03 -0.12297506116E+04  0.18393421353E+04  0.80237823305E+02 0.  0.
         13    1    5    5    0    0 -0.29574627516E+03 -0.11374279882E+03 -0.71788161882E+03  0.78470204676E+03  0.00000000000E+00 0. -1.
        -14    1    5    5    0    0 -0.60082570953E+02 -0.64604336896E+02 -0.19653087409E+03  0.21542520779E+03  0.00000000000E+00 0.  1.
         13    1    3    3    0    0  0.12990222384E+04  0.56025467875E+03 -0.37905130214E+03  0.14645900349E+04  0.00000000000E+00 0. -1.
        -14    1    3    3    0    0  0.32893394626E+03  0.11422434513E+03 -0.75740557977E+02  0.35634445996E+03  0.00000000000E+00 0.  1.
          4    1    6    6  502    0 -0.91361042030E+03 -0.32284865658E+03 -0.89673937607E+03  0.13202487507E+04  0.00000000000E+00 0. -1.
         -3    1    6    6    0  502 -0.35851691820E+03 -0.17328323158E+03 -0.33301123551E+03  0.51909338462E+03  0.00000000000E+00 0.  1.
<mgrwt>
<rscale>  0 0.17675773E+04</rscale>
<asrwt>0</asrwt>
<pdfrwt beam="1">  1        1 0.55841220E+00 0.17675773E+04</pdfrwt>
<pdfrwt beam="2">  1       -2 0.15857300E+00 0.17675773E+04</pdfrwt>
<totfact> 0.41119959E-02</totfact>
</mgrwt>
</event>
<event>
12    3  0.2212098E-007  0.8070035E+03  0.7818608E-02  0.9549935E-01
          1   -1    0    0  501    0  0.00000000000E+00  0.00000000000E+00  0.28280782200E+04  0.28280782200E+04  0.00000000000E+00 0. -1.
         -2   -1    0    0    0  501 -0.00000000000E+00 -0.00000000000E+00 -0.25493789827E+03  0.25493789827E+03  0.00000000000E+00 0.  1.
        -24    2    1    2    0    0 -0.23340766616E+03 -0.70102150305E+03  0.10342961428E+04  0.12735943646E+04  0.79773479469E+02 0.  0.
    5000000    2    1    2    0    0  0.23340766616E+03  0.70102150305E+03  0.15388441789E+04  0.18094217537E+04  0.60004615611E+03 0.  0.
        -24    2    4    4    0    0 -0.13550669546E+03  0.11466629866E+03  0.66008806180E+03  0.68761886158E+03  0.74786528984E+02 0.  0.
         24    2    4    4    0    0  0.36891436162E+03  0.58635520439E+03  0.87875611710E+03  0.11218028921E+04  0.79493292034E+02 0.  0.
         11    1    5    5    0    0 -0.77674313053E+02  0.55195160567E+02  0.21951925329E+03  0.23930839355E+03  0.00000000000E+00 0. -1.
        -12    1    5    5    0    0 -0.57832382407E+02  0.59471138088E+02  0.44056880850E+03  0.44831046803E+03  0.00000000000E+00 0.  1.
         13    1    3    3    0    0 -0.13377295020E+03 -0.37638152461E+03  0.49184122900E+03  0.63361348535E+03  0.00000000000E+00 0. -1.
        -14    1    3    3    0    0 -0.99634715958E+02 -0.32463997843E+03  0.54245491384E+03  0.63998087922E+03  0.00000000000E+00 0.  1.
          4    1    6    6  502    0  0.26479785768E+03  0.47811159068E+03  0.70756776592E+03  0.89406976347E+03  0.00000000000E+00 0. -1.
         -3    1    6    6    0  502  0.10411650394E+03  0.10824361371E+03  0.17118835118E+03  0.22773312865E+03  0.00000000000E+00 0.  1.
<mgrwt>
<rscale>  0 0.80700351E+03</rscale>
<asrwt>0</asrwt>
<pdfrwt beam="1">  1        1 0.43508894E+00 0.80700351E+03</pdfrwt>
<pdfrwt beam="2">  1       -2 0.39221217E-01 0.80700351E+03</pdfrwt>
<totfact> 0.45165144E+00</totfact>
</mgrwt>
</event>
<event>
12    3  0.2212098E-007  0.8280648E+03  0.7818608E-02  0.9520260E-01
         -4   -1    0    0    0  501 -0.00000000000E+00  0.00000000000E+00  0.67821373914E+03  0.67821373914E+03  0.00000000000E+00 0.  1.
          1   -1    0    0  501    0  0.00000000000E+00 -0.00000000000E+00 -0.15337423650E+04  0.15337423650E+04  0.00000000000E+00 0. -1.
        -24    2    1    2    0    0  0.10753412271E+03 -0.78025097043E+03  0.14426360184E+03  0.80459999874E+03  0.78828971506E+02 0.  0.
    5000000    2    1    2    0    0 -0.10753412271E+03  0.78025097043E+03 -0.99979222774E+03  0.14073561054E+04  0.60059266102E+03 0.  0.
        -24    2    4    4    0    0  0.12895505659E+03  0.28311489277E+03 -0.76453408932E+02  0.32939661517E+03  0.76639136329E+02 0.  0.
         24    2    4    4    0    0 -0.23648917930E+03  0.49713607766E+03 -0.92333881881E+03  0.10779594903E+04  0.79816519086E+02 0.  0.
         11    1    5    5    0    0  0.27681986045E+02  0.13240600380E+03 -0.85445543949E+01  0.13553837687E+03  0.00000000000E+00 0. -1.
        -12    1    5    5    0    0  0.10127307055E+03  0.15070888897E+03 -0.67908854537E+02  0.19385823830E+03  0.00000000000E+00 0.  1.
         13    1    3    3    0    0  0.28718899362E+02 -0.18406396436E+03  0.68438671555E+02  0.19846453064E+03  0.00000000000E+00 0. -1.
        -14    1    3    3    0    0  0.78815223349E+02 -0.59618700607E+03  0.75824930290E+02  0.60613546810E+03  0.00000000000E+00 0.  1.
          2    1    6    6  502    0 -0.10848039005E+03  0.18840494789E+03 -0.29751008124E+03  0.36847885673E+03  0.00000000000E+00 0. -1.
         -1    1    6    6    0  502 -0.12800878925E+03  0.30873112977E+03 -0.62582873757E+03  0.70948063355E+03  0.00000000000E+00 0.  1.
<mgrwt>
<rscale>  0 0.82806483E+03</rscale>
<asrwt>0</asrwt>
<pdfrwt beam="1">  1        1 0.23596036E+00 0.82806483E+03</pdfrwt>
<pdfrwt beam="2">  1       -4 0.10434058E+00 0.82806483E+03</pdfrwt>
<totfact> 0.22506217E+00</totfact>
</mgrwt>
</event>
<event>
12    3  0.2212098E-007  0.8515181E+03  0.7818608E-02  0.9488302E-01
          1   -1    0    0  501    0  0.00000000000E+00  0.00000000000E+00  0.17977552793E+04  0.17977552793E+04  0.00000000000E+00 0. -1.
         -2   -1    0    0    0  501 -0.00000000000E+00 -0.00000000000E+00 -0.51859737736E+03  0.51859737736E+03  0.00000000000E+00 0.  1.
        -24    2    1    2    0    0 -0.69511003502E+03  0.28064326640E+03  0.11088692667E+04  0.13410111523E+04  0.82348382694E+02 0.  0.
    5000000    2    1    2    0    0  0.69511003502E+03 -0.28064326640E+03  0.17028863521E+03  0.97534150437E+03  0.60029511668E+03 0.  0.
        -24    2    4    4    0    0  0.11480094578E+03 -0.33910215179E+03  0.21680209164E+02  0.36824702215E+03  0.83464431657E+02 0.  0.
         24    2    4    4    0    0  0.58030908924E+03  0.58458885388E+02  0.14860842605E+03  0.60709448222E+03  0.79392478956E+02 0.  0.
         11    1    5    5    0    0  0.12038142577E+03 -0.26026711691E+03  0.32020664569E+02  0.28854112839E+03  0.00000000000E+00 0. -1.
        -12    1    5    5    0    0 -0.55804799905E+01 -0.78835034879E+02 -0.10340455405E+02  0.79705893755E+02  0.00000000000E+00 0.  1.
         13    1    3    3    0    0 -0.19638952094E+03  0.48660261666E+02  0.25863729316E+03  0.32837465556E+03  0.00000000000E+00 0. -1.
        -14    1    3    3    0    0 -0.49872051408E+03  0.23198300474E+03  0.85023197356E+03  0.10126364967E+04  0.00000000000E+00 0.  1.
          4    1    6    6  502    0  0.98325232729E+02  0.26531830324E+02  0.44866443495E+00  0.10184297085E+03  0.00000000000E+00 0. -1.
         -3    1    6    6    0  502  0.48198385651E+03  0.31927055065E+02  0.14815976161E+03  0.50525151137E+03  0.00000000000E+00 0.  1.
<mgrwt>
<rscale>  0 0.85151810E+03</rscale>
<asrwt>0</asrwt>
<pdfrwt beam="1">  1        1 0.27657773E+00 0.85151810E+03</pdfrwt>
<pdfrwt beam="2">  1       -2 0.79784213E-01 0.85151810E+03</pdfrwt>
<totfact> 0.51096329E+00</totfact>
</mgrwt>
</event>
<event>
12    3  0.2212098E-007  0.7108815E+03  0.7818608E-02  0.9698802E-01
          1   -1    0    0  501    0  0.00000000000E+00  0.00000000000E+00  0.53773923429E+03  0.53773923429E+03  0.00000000000E+00 0. -1.
         -2   -1    0    0    0  501 -0.00000000000E+00 -0.00000000000E+00 -0.13847324488E+04  0.13847324488E+04  0.00000000000E+00 0.  1.
        -24    2    1    2    0    0  0.70178231457E+03  0.62740765287E+02 -0.67957129148E+03  0.98199937275E+03  0.77915384897E+02 0.  0.
    5000000    2    1    2    0    0 -0.70178231457E+03 -0.62740765287E+02 -0.16742192299E+03  0.94047231030E+03  0.60001937091E+03 0.  0.
        -24    2    4    4    0    0 -0.37798965674E+03 -0.52938062898E+02 -0.38033891853E+03  0.54458089714E+03  0.78943280085E+02 0.  0.
         24    2    4    4    0    0 -0.32379265783E+03 -0.98027023890E+01  0.21291699554E+03  0.39589141316E+03  0.80365327017E+02 0.  0.
         11    1    3    3    0    0  0.24477556437E+03  0.13344691013E+02 -0.28761329503E+03  0.37790814383E+03  0.00000000000E+00 0. -1.
        -12    1    3    3    0    0  0.45700675020E+03  0.49396074274E+02 -0.39195799645E+03  0.60409122892E+03  0.00000000000E+00 0.  1.
         13    1    5    5    0    0 -0.29002023926E+03 -0.25592237632E+02 -0.24312137307E+03  0.37930819113E+03  0.00000000000E+00 0. -1.
        -14    1    5    5    0    0 -0.87969417476E+02 -0.27345825267E+02 -0.13721754546E+03  0.16527270601E+03  0.00000000000E+00 0.  1.
          2    1    6    6  502    0 -0.25616299370E+03  0.25443376668E+02  0.16071997721E+03  0.30347612069E+03  0.00000000000E+00 0. -1.
         -1    1    6    6    0  502 -0.67629664131E+02 -0.35246079057E+02  0.52197018330E+02  0.92415292468E+02  0.00000000000E+00 0.  1.
<mgrwt>
<rscale>  0 0.71088153E+03</rscale>
<asrwt>0</asrwt>
<pdfrwt beam="1">  1        1 0.82729114E-01 0.71088153E+03</pdfrwt>
<pdfrwt beam="2">  1       -2 0.21303576E+00 0.71088153E+03</pdfrwt>
<totfact> 0.39643470E+00</totfact>
</mgrwt>
</event>
<event>
12    3  0.2212098E-007  0.8762607E+03  0.7818608E-02  0.9455753E-01
         -2   -1    0    0    0  501 -0.00000000000E+00  0.00000000000E+00  0.21337572963E+04  0.21337572963E+04  0.00000000000E+00 0.  1.
          1   -1    0    0  501    0  0.00000000000E+00 -0.00000000000E+00 -0.38418232437E+03  0.38418232437E+03  0.00000000000E+00 0. -1.
        -24    2    1    2    0    0  0.76416483677E+03 -0.18583970454E+03  0.54721251865E+03  0.96094724762E+03  0.74120028441E+02 0.  0.
    5000000    2    1    2    0    0 -0.76416483677E+03  0.18583970454E+03  0.12023624533E+04  0.15569923730E+04  0.60005457011E+03 0.  0.
        -24    2    4    4    0    0 -0.82918097733E+03  0.10296106290E+03  0.11251352589E+04  0.14041498504E+04  0.86979181113E+02 0.  0.
         24    2    4    4    0    0  0.65016140562E+02  0.82878641636E+02  0.77227194349E+02  0.15284252261E+03  0.79377763868E+02 0.  0.
         11    1    3    3    0    0  0.26141765308E+03 -0.81487319326E+02  0.22825261349E+03  0.35648089446E+03  0.00000000000E+00 0. -1.
        -12    1    3    3    0    0  0.50274718368E+03 -0.10435238521E+03  0.31895990516E+03  0.60446635316E+03  0.00000000000E+00 0.  1.
         13    1    5    5    0    0 -0.30878321409E+03  0.74376348575E+02  0.46385024239E+03  0.56217075866E+03  0.00000000000E+00 0. -1.
        -14    1    5    5    0    0 -0.52039776324E+03  0.28584714326E+02  0.66128501652E+03  0.84197909175E+03  0.00000000000E+00 0.  1.
          4    1    6    6  502    0  0.64385766502E+02  0.25810179226E+02  0.63726850920E+02  0.94195561508E+02  0.00000000000E+00 0. -1.
         -3    1    6    6    0  502  0.63037406041E+00  0.57068462410E+02  0.13500343428E+02  0.58646961098E+02  0.00000000000E+00 0.  1.
<mgrwt>
<rscale>  0 0.87626073E+03</rscale>
<asrwt>0</asrwt>
<pdfrwt beam="1">  1        1 0.59104974E-01 0.87626073E+03</pdfrwt>
<pdfrwt beam="2">  1       -2 0.32827035E+00 0.87626073E+03</pdfrwt>
<totfact> 0.12165299E+00</totfact>
</mgrwt>
</event>
<event>
12    3  0.2212098E-007  0.7306929E+03  0.7818608E-02  0.9666137E-01
         -2   -1    0    0    0  501 -0.00000000000E+00  0.00000000000E+00  0.29871766529E+03  0.29871766529E+03  0.00000000000E+00 0.  1.
          1   -1    0    0  501    0  0.00000000000E+00 -0.00000000000E+00 -0.18332717262E+04  0.18332717262E+04  0.00000000000E+00 0. -1.
        -24    2    1    2    0    0  0.39844534978E+03  0.46823832170E+03 -0.60366526309E+03  0.86526720685E+03  0.79181858523E+02 0.  0.
    5000000    2    1    2    0    0 -0.39844534978E+03 -0.46823832170E+03 -0.93088879778E+03  0.12667221846E+04  0.60002109668E+03 0.  0.
        -24    2    4    4    0    0 -0.38812687498E+03 -0.17790902564E+02 -0.35741793481E+03  0.53288152195E+03  0.72499303513E+02 0.  0.
         24    2    4    4    0    0 -0.10318474797E+02 -0.45044741914E+03 -0.57347086296E+03  0.73384066265E+03  0.81510362315E+02 0.  0.
         11    1    5    5    0    0 -0.50187870770E+02  0.22186199360E+02 -0.53200895957E+02  0.76428954886E+02  0.00000000000E+00 0. -1.
        -12    1    5    5    0    0 -0.33793900421E+03 -0.39977101924E+02 -0.30421703886E+03  0.45645256706E+03  0.00000000000E+00 0.  1.
         11    1    3    3    0    0  0.14567025537E+03  0.19510610402E+03 -0.28915183517E+03  0.37801454854E+03  0.00000000000E+00 0. -1.
        -12    1    3    3    0    0  0.25277509441E+03  0.27313221768E+03 -0.31451342792E+03  0.48725265831E+03  0.00000000000E+00 0.  1.
          4    1    6    6  502    0 -0.32401175981E+01 -0.21608722542E+03 -0.34063209911E+03  0.40340353778E+03  0.00000000000E+00 0. -1.
         -3    1    6    6    0  502 -0.70783571993E+01 -0.23436019371E+03 -0.23283876385E+03  0.33043712487E+03  0.00000000000E+00 0.  1.
<mgrwt>
<rscale>  0 0.73069286E+03</rscale>
<asrwt>0</asrwt>
<pdfrwt beam="1">  1        1 0.28204180E+00 0.73069286E+03</pdfrwt>
<pdfrwt beam="2">  1       -2 0.45956564E-01 0.73069286E+03</pdfrwt>
<totfact> 0.15842237E+01</totfact>
</mgrwt>
</event>
<event>
12    3  0.2212098E-007  0.6848844E+03  0.7818608E-02  0.9743437E-01
          1   -1    0    0  501    0  0.00000000000E+00  0.00000000000E+00  0.97784220819E+03  0.97784220819E+03  0.00000000000E+00 0. -1.
         -2   -1    0    0    0  501 -0.00000000000E+00 -0.00000000000E+00 -0.77047453590E+03  0.77047453590E+03  0.00000000000E+00 0.  1.
        -24    2    1    2    0    0  0.17496623353E+02  0.63071719307E+03 -0.33815566676E+03  0.72085077264E+03  0.84653836207E+02 0.  0.
    5000000    2    1    2    0    0 -0.17496623353E+02 -0.63071719307E+03  0.54552333905E+03  0.10274659715E+04  0.59998358276E+03 0.  0.
        -24    2    4    4    0    0 -0.16140209630E+03 -0.53998380169E+03  0.60452066590E+03  0.83056744595E+03  0.82242957063E+02 0.  0.
         24    2    4    4    0    0  0.14390547295E+03 -0.90733391376E+02 -0.58997326855E+02  0.19689852550E+03  0.79668132367E+02 0.  0.
         11    1    3    3    0    0  0.20621368233E+02  0.22086794954E+03 -0.16226856557E+03  0.27484355429E+03  0.00000000000E+00 0. -1.
        -12    1    3    3    0    0 -0.31247448799E+01  0.40984924353E+03 -0.17588710119E+03  0.44600721835E+03  0.00000000000E+00 0.  1.
         13    1    5    5    0    0 -0.70908258105E+02 -0.34582080494E+03  0.33924674802E+03  0.48960021062E+03  0.00000000000E+00 0. -1.
        -14    1    5    5    0    0 -0.90493838196E+02 -0.19416299676E+03  0.26527391788E+03  0.34096723533E+03  0.00000000000E+00 0.  1.
          4    1    6    6  502    0  0.92870346359E+02 -0.49509825100E+02  0.48484939407E+01  0.10535479063E+03  0.00000000000E+00 0. -1.
         -3    1    6    6    0  502  0.51035126588E+02 -0.41223566276E+02 -0.63845820796E+02  0.91543734878E+02  0.00000000000E+00 0.  1.
<mgrwt>
<rscale>  0 0.68488442E+03</rscale>
<asrwt>0</asrwt>
<pdfrwt beam="1">  1        1 0.15043726E+00 0.68488442E+03</pdfrwt>
<pdfrwt beam="2">  1       -2 0.11853454E+00 0.68488442E+03</pdfrwt>
<totfact> 0.78068209E+00</totfact>
</mgrwt>
</event>
<event>
12    3  0.2212098E-007  0.4618450E+03  0.7818608E-02  0.1024247E+00
         -4   -1    0    0    0  501 -0.00000000000E+00  0.00000000000E+00  0.11177348246E+04  0.11177348246E+04  0.00000000000E+00 0.  1.
          3   -1    0    0  501    0  0.00000000000E+00 -0.00000000000E+00 -0.41518905224E+03  0.41518905224E+03  0.00000000000E+00 0. -1.
        -24    2    1    2    0    0 -0.13976924481E+03 -0.25492780997E+03 -0.23535856607E+03  0.38222926544E+03  0.78625229053E+02 0.  0.
    5000000    2    1    2    0    0  0.13976924481E+03  0.25492780997E+03  0.93790433842E+03  0.11506946114E+04  0.59992492080E+03 0.  0.
        -24    2    4    4    0    0  0.20765929991E+03  0.39780005420E+03  0.81325548371E+03  0.93225494606E+03  0.79671417146E+02 0.  0.
         24    2    4    4    0    0 -0.67890055100E+02 -0.14287224423E+03  0.12464885471E+03  0.21843966534E+03  0.84599129195E+02 0.  0.
         13    1    3    3    0    0 -0.76594981624E+02 -0.10844275934E+03 -0.61643522847E+02  0.14637809663E+03  0.00000000000E+00 0. -1.
        -14    1    3    3    0    0 -0.63174263185E+02 -0.14648505063E+03 -0.17371504322E+03  0.23585116881E+03  0.00000000000E+00 0.  1.
         13    1    5    5    0    0  0.42577475970E+02  0.16257247661E+03  0.28319531453E+03  0.32930569048E+03  0.00000000000E+00 0. -1.
        -14    1    5    5    0    0  0.16508182394E+03  0.23522757760E+03  0.53006016918E+03  0.60294925558E+03  0.00000000000E+00 0.  1.
          4    1    6    6  502    0 -0.75109702203E+02 -0.69785775577E+02  0.93168934138E+02  0.13853509348E+03  0.00000000000E+00 0. -1.
         -3    1    6    6    0  502  0.72196471028E+01 -0.73086468654E+02  0.31479920574E+02  0.79904571859E+02  0.00000000000E+00 0.  1.
<mgrwt>
<rscale>  0 0.46184502E+03</rscale>
<asrwt>0</asrwt>
<pdfrwt beam="1">  1        3 0.63875239E-01 0.46184502E+03</pdfrwt>
<pdfrwt beam="2">  1       -4 0.17195920E+00 0.46184502E+03</pdfrwt>
<totfact> 0.11116905E+00</totfact>
</mgrwt>
</event>
<event>
12    3  0.2212098E-007  0.1674747E+04  0.7818608E-02  0.8775900E-01
          1   -1    0    0  501    0  0.00000000000E+00  0.00000000000E+00  0.15255198530E+04  0.15255198530E+04  0.00000000000E+00 0. -1.
         -2   -1    0    0    0  501 -0.00000000000E+00 -0.00000000000E+00 -0.19362644587E+04  0.19362644587E+04  0.00000000000E+00 0.  1.
        -24    2    1    2    0    0 -0.99143804278E+03  0.13216418462E+04 -0.40959418540E+03  0.17040084807E+04  0.78682547741E+02 0.  0.
    5000000    2    1    2    0    0  0.99143804278E+03 -0.13216418462E+04 -0.11504202525E+01  0.17577758310E+04  0.60007331740E+03 0.  0.
        -24    2    4    4    0    0  0.60524882753E+02 -0.28135487055E+03 -0.17952461552E+03  0.34892342472E+03  0.81820804942E+02 0.  0.
         24    2    4    4    0    0  0.93091316003E+03 -0.10402869756E+04  0.17837419527E+03  0.14088524063E+04  0.65203112860E+02 0.  0.
         11    1    3    3    0    0 -0.16960253039E+03  0.27768731083E+03 -0.76165680610E+02  0.33418029836E+03  0.00000000000E+00 0. -1.
        -12    1    3    3    0    0 -0.82183551240E+03  0.10439545353E+04 -0.33342850479E+03  0.13698281823E+04  0.00000000000E+00 0.  1.
         13    1    5    5    0    0  0.75026015047E+02 -0.26918010807E+03 -0.17405802320E+03  0.32921577871E+03  0.00000000000E+00 0. -1.
        -14    1    5    5    0    0 -0.14501132294E+02 -0.12174762483E+02 -0.54665923234E+01  0.19707646002E+02  0.00000000000E+00 0.  1.
          4    1    6    6  502    0  0.66180300337E+03 -0.70091330127E+03  0.10727226502E+03  0.96993299254E+03  0.00000000000E+00 0. -1.
         -3    1    6    6    0  502  0.26911015666E+03 -0.33937367435E+03  0.71101930246E+02  0.43891941372E+03  0.00000000000E+00 0.  1.
<mgrwt>
<rscale>  0 0.16747465E+04</rscale>
<asrwt>0</asrwt>
<pdfrwt beam="1">  1        1 0.23469536E+00 0.16747465E+04</pdfrwt>
<pdfrwt beam="2">  1       -2 0.29788684E+00 0.16747465E+04</pdfrwt>
<totfact> 0.16682984E-01</totfact>
</mgrwt>
</event>
<event>
12    3  0.2212098E-007  0.6170845E+03  0.7818608E-02  0.9870582E-01
          1   -1    0    0  501    0  0.00000000000E+00  0.00000000000E+00  0.10724534433E+04  0.10724534433E+04  0.00000000000E+00 0. -1.
         -2   -1    0    0    0  501 -0.00000000000E+00 -0.00000000000E+00 -0.72075820459E+03  0.72075820459E+03  0.00000000000E+00 0.  1.
        -24    2    1    2    0    0 -0.14040900454E+03  0.50054276928E+03 -0.43047535667E+03  0.67875075463E+03  0.71664508510E+02 0.  0.
    5000000    2    1    2    0    0  0.14040900454E+03 -0.50054276928E+03  0.78217059539E+03  0.11144608933E+04  0.59997874122E+03 0.  0.
        -24    2    4    4    0    0 -0.14397247732E+03 -0.35117580820E+03  0.17880216288E+03  0.42712321709E+03  0.80071884150E+02 0.  0.
         24    2    4    4    0    0  0.28438148185E+03 -0.14936696107E+03  0.60336843251E+03  0.68733767619E+03  0.72085362445E+02 0.  0.
         11    1    3    3    0    0 -0.12959157093E+03  0.40972308451E+03 -0.38332155532E+03  0.57584928237E+03  0.00000000000E+00 0. -1.
        -12    1    3    3    0    0 -0.10817433611E+02  0.90819684771E+02 -0.47153801353E+02  0.10290147226E+03  0.00000000000E+00 0.  1.
         13    1    5    5    0    0 -0.84935726244E+02 -0.10728860885E+03  0.57891178372E+02  0.14858099379E+03  0.00000000000E+00 0. -1.
        -14    1    5    5    0    0 -0.59036751071E+02 -0.24388719935E+03  0.12091098451E+03  0.27854222330E+03  0.00000000000E+00 0.  1.
          2    1    6    6  502    0  0.15550846945E+03 -0.53008424356E+02  0.35816635112E+03  0.39405064674E+03  0.00000000000E+00 0. -1.
         -1    1    6    6    0  502  0.12887301240E+03 -0.96358536718E+02  0.24520208139E+03  0.29328702945E+03  0.00000000000E+00 0.  1.
<mgrwt>
<rscale>  0 0.61708451E+03</rscale>
<asrwt>0</asrwt>
<pdfrwt beam="1">  1        1 0.16499284E+00 0.61708451E+03</pdfrwt>
<pdfrwt beam="2">  1       -2 0.11088588E+00 0.61708451E+03</pdfrwt>
<totfact> 0.78517525E+00</totfact>
</mgrwt>
</event>
<event>
12    3  0.2212098E-007  0.5143768E+03  0.7818608E-02  0.1010093E+00
         -4   -1    0    0    0  501 -0.00000000000E+00  0.00000000000E+00  0.87754145797E+03  0.87754145797E+03  0.00000000000E+00 0.  1.
          3   -1    0    0  501    0  0.00000000000E+00 -0.00000000000E+00 -0.42283359532E+03  0.42283359532E+03  0.00000000000E+00 0. -1.
        -24    2    1    2    0    0 -0.35332056752E+03 -0.18850796185E+03 -0.54674089879E+02  0.41758244302E+03  0.10495315863E+03 0.  0.
    5000000    2    1    2    0    0  0.35332056752E+03  0.18850796185E+03  0.50938195252E+03  0.88279261027E+03  0.59956829809E+03 0.  0.
        -24    2    4    4    0    0  0.44999775745E+03  0.89664052945E+02  0.54850083045E+03  0.71950787605E+03  0.79377569859E+02 0.  0.
         24    2    4    4    0    0 -0.96677189928E+02  0.98843908905E+02 -0.39118877927E+02  0.16328473422E+03  0.77556562835E+02 0.  0.
         11    1    5    5    0    0  0.19614432035E+03  0.12964125219E+02  0.18822616356E+03  0.27215758596E+03  0.00000000000E+00 0. -1.
        -12    1    5    5    0    0  0.25385343709E+03  0.76699927726E+02  0.36027466689E+03  0.44735029009E+03  0.00000000000E+00 0.  1.
         11    1    3    3    0    0 -0.23859883898E+03 -0.69524619045E+02 -0.26733493201E+02  0.24995551259E+03  0.00000000000E+00 0. -1.
        -12    1    3    3    0    0 -0.11472172854E+03 -0.11898334280E+03 -0.27940596678E+02  0.16762693043E+03  0.00000000000E+00 0.  1.
          4    1    6    6  502    0 -0.51088873733E+02  0.82206266772E+01  0.63173472027E+01  0.52130227297E+02  0.00000000000E+00 0. -1.
         -3    1    6    6    0  502 -0.45588316194E+02  0.90623282227E+02 -0.45436225130E+02  0.11115450692E+03  0.00000000000E+00 0.  1.
<mgrwt>
<rscale>  0 0.51437676E+03</rscale>
<asrwt>0</asrwt>
<pdfrwt beam="1">  1        3 0.65051322E-01 0.51437676E+03</pdfrwt>
<pdfrwt beam="2">  1       -4 0.13500638E+00 0.51437676E+03</pdfrwt>
<totfact> 0.20340527E+00</totfact>
</mgrwt>
</event>
<event>
12    3  0.2212098E-007  0.2529423E+04  0.7818608E-02  0.8392578E-01
          1   -1    0    0  501    0  0.00000000000E+00  0.00000000000E+00  0.24051241041E+04  0.24051241041E+04  0.00000000000E+00 0. -1.
         -2   -1    0    0    0  501 -0.00000000000E+00 -0.00000000000E+00 -0.28552928793E+04  0.28552928793E+04  0.00000000000E+00 0.  1.
        -24    2    1    2    0    0  0.15892172689E+04  0.19294731712E+04  0.44128759498E+03  0.25395431373E+04  0.77886829958E+02 0.  0.
    5000000    2    1    2    0    0 -0.15892172689E+04 -0.19294731712E+04 -0.89145637024E+03  0.27208738461E+04  0.59998481641E+03 0.  0.
        -24    2    4    4    0    0 -0.70513281030E+03 -0.12759903317E+04 -0.39790253605E+03  0.15131295343E+04  0.76622140953E+02 0.  0.
         24    2    4    4    0    0 -0.88408445863E+03 -0.65348283952E+03 -0.49355383420E+03  0.12077443118E+04  0.80036141578E+02 0.  0.
         11    1    5    5    0    0 -0.40118591069E+02 -0.10742741864E+03 -0.43700301957E+02  0.12271865390E+03  0.00000000000E+00 0. -1.
        -12    1    5    5    0    0 -0.66501421923E+03 -0.11685629131E+04 -0.35420223409E+03  0.13904108804E+04  0.00000000000E+00 0.  1.
         13    1    3    3    0    0  0.62064787116E+03  0.71714679414E+03  0.19778172901E+03  0.96882450251E+03  0.00000000000E+00 0. -1.
        -14    1    3    3    0    0  0.96856939778E+03  0.12123263771E+04  0.24350586596E+03  0.15707186348E+04  0.00000000000E+00 0.  1.
          2    1    6    6  502    0 -0.26172578992E+03 -0.20189849028E+03 -0.18841931846E+03  0.38048026106E+03  0.00000000000E+00 0. -1.
         -3    1    6    6    0  502 -0.62235866872E+03 -0.45158434924E+03 -0.30513451574E+03  0.82726405077E+03  0.00000000000E+00 0.  1.
<mgrwt>
<rscale>  0 0.25294231E+04</rscale>
<asrwt>0</asrwt>
<pdfrwt beam="1">  1        1 0.37001910E+00 0.25294231E+04</pdfrwt>
<pdfrwt beam="2">  1       -2 0.43927582E+00 0.25294231E+04</pdfrwt>
<totfact> 0.47111876E-03</totfact>
</mgrwt>
</event>
<event>
12    3  0.2212098E-007  0.4544157E+03  0.7818608E-02  0.1026413E+00
          1   -1    0    0  501    0  0.00000000000E+00  0.00000000000E+00  0.11780053255E+04  0.11780053255E+04  0.00000000000E+00 0. -1.
         -2   -1    0    0    0  501 -0.00000000000E+00 -0.00000000000E+00 -0.21764398289E+03  0.21764398289E+03  0.00000000000E+00 0.  1.
        -24    2    1    2    0    0 -0.14861568486E+03 -0.22630411479E+03  0.69009468976E+02  0.28759344337E+03  0.68172631612E+02 0.  0.
    5000000    2    1    2    0    0  0.14861568486E+03  0.22630411479E+03  0.89135187361E+03  0.11080558650E+04  0.59998288575E+03 0.  0.
        -24    2    4    4    0    0 -0.21352413894E+03  0.14295460946E+03  0.28190520531E+03  0.38975725305E+03  0.80072424999E+02 0.  0.
         24    2    4    4    0    0  0.36213982381E+03  0.83349505328E+02  0.60944666829E+03  0.71829861194E+03  0.80220087221E+02 0.  0.
         11    1    5    5    0    0 -0.13234724872E+03  0.84373181376E+02  0.11294777742E+03  0.19336966775E+03  0.00000000000E+00 0. -1.
        -12    1    5    5    0    0 -0.81176890224E+02  0.58581428088E+02  0.16895742789E+03  0.19638758531E+03  0.00000000000E+00 0.  1.
         13    1    3    3    0    0 -0.29700396443E+02 -0.10534768079E+03  0.31114761847E+02  0.11379093022E+03  0.00000000000E+00 0. -1.
        -14    1    3    3    0    0 -0.11891528842E+03 -0.12095643400E+03  0.37894707128E+02  0.17380251314E+03  0.00000000000E+00 0.  1.
          4    1    6    6  502    0  0.28459122535E+03  0.77342241734E+02  0.41717690494E+03  0.51089192391E+03  0.00000000000E+00 0. -1.
         -3    1    6    6    0  502  0.77548598457E+02  0.60072635935E+01  0.19226976335E+03  0.20740668802E+03  0.00000000000E+00 0.  1.
<mgrwt>
<rscale>  0 0.45441568E+03</rscale>
<asrwt>0</asrwt>
<pdfrwt beam="1">  1        1 0.18123158E+00 0.45441568E+03</pdfrwt>
<pdfrwt beam="2">  1       -2 0.33483690E-01 0.45441568E+03</pdfrwt>
<totfact> 0.85324933E+01</totfact>
</mgrwt>
</event>
<event>
12    3  0.2212098E-007  0.2094610E+04  0.7818608E-02  0.8563621E-01
         -2   -1    0    0    0  501 -0.00000000000E+00  0.00000000000E+00  0.16429874792E+04  0.16429874792E+04  0.00000000000E+00 0.  1.
          1   -1    0    0  501    0  0.00000000000E+00 -0.00000000000E+00 -0.28239321646E+04  0.28239321646E+04  0.00000000000E+00 0. -1.
        -24    2    1    2    0    0  0.19711091971E+04 -0.66678716767E+03 -0.20787043525E+03  0.20927208449E+04  0.79961383299E+02 0.  0.
    5000000    2    1    2    0    0 -0.19711091971E+04  0.66678716767E+03 -0.97307425011E+03  0.23741987989E+04  0.60005820248E+03 0.  0.
        -24    2    4    4    0    0 -0.18218636714E+04  0.66514290397E+03 -0.10277775881E+04  0.21964531177E+04  0.80481102330E+02 0.  0.
         24    2    4    4    0    0 -0.14924552571E+03  0.16442636942E+01  0.54703337952E+02  0.17774568116E+03  0.79524470707E+02 0.  0.
         11    1    3    3    0    0  0.10804514325E+04 -0.32424409978E+03 -0.10480080319E+03  0.11329133871E+04  0.00000000000E+00 0. -1.
        -12    1    3    3    0    0  0.89065776459E+03 -0.34254306788E+03 -0.10306963206E+03  0.95980745779E+03  0.00000000000E+00 0.  1.
         13    1    5    5    0    0 -0.14185674386E+04  0.52387414695E+03 -0.83807524033E+03  0.17289152114E+04  0.00000000000E+00 0. -1.
        -14    1    5    5    0    0 -0.40329623282E+03  0.14126875702E+03 -0.18970234773E+03  0.46753790633E+03  0.00000000000E+00 0.  1.
          4    1    6    6  502    0 -0.10697972562E+02 -0.24180197544E+02  0.18394136838E+02  0.32209825213E+02  0.00000000000E+00 0. -1.
         -3    1    6    6    0  502 -0.13854755315E+03  0.25824461238E+02  0.36309201114E+02  0.14553585595E+03  0.00000000000E+00 0.  1.
<mgrwt>
<rscale>  0 0.20946100E+04</rscale>
<asrwt>0</asrwt>
<pdfrwt beam="1">  1        1 0.43445109E+00 0.20946100E+04</pdfrwt>
<pdfrwt beam="2">  1       -2 0.25276731E+00 0.20946100E+04</pdfrwt>
<totfact> 0.38215790E-02</totfact>
</mgrwt>
</event>
<event>
12    3  0.2212098E-007  0.5988793E+03  0.7818608E-02  0.9907734E-01
         -2   -1    0    0    0  501 -0.00000000000E+00  0.00000000000E+00  0.83524892482E+03  0.83524892482E+03  0.00000000000E+00 0.  1.
          1   -1    0    0  501    0  0.00000000000E+00 -0.00000000000E+00 -0.78518330738E+03  0.78518330738E+03  0.00000000000E+00 0. -1.
        -24    2    1    2    0    0 -0.34357040706E+03 -0.37614198688E+03  0.49618034682E+03  0.71572313910E+03  0.80878033939E+02 0.  0.
    5000000    2    1    2    0    0  0.34357040706E+03  0.37614198688E+03 -0.44611472937E+03  0.90470909311E+03  0.59996397600E+03 0.  0.
        -24    2    4    4    0    0  0.40629271867E+03  0.42407819511E+03 -0.18460626512E+03  0.62045154117E+03  0.77230518612E+02 0.  0.
         24    2    4    4    0    0 -0.62722311614E+02 -0.47936208233E+02 -0.26150846425E+03  0.28425755194E+03  0.78636572441E+02 0.  0.
         13    1    3    3    0    0 -0.10069816498E+03 -0.71025787347E+02  0.15121419334E+03  0.19506541253E+03  0.00000000000E+00 0. -1.
        -14    1    3    3    0    0 -0.24287224208E+03 -0.30511619953E+03  0.34496615347E+03  0.52065772657E+03  0.00000000000E+00 0.  1.
         13    1    5    5    0    0  0.27337103868E+03  0.26015650099E+03 -0.83793430014E+02  0.38656754741E+03  0.00000000000E+00 0. -1.
        -14    1    5    5    0    0  0.13292167999E+03  0.16392169412E+03 -0.10081283511E+03  0.23388399376E+03  0.00000000000E+00 0.  1.
          4    1    6    6  502    0 -0.36061882843E+02 -0.57448711522E+02 -0.10358368200E+03  0.12381596435E+03  0.00000000000E+00 0. -1.
         -3    1    6    6    0  502 -0.26660428771E+02  0.95125032892E+01 -0.15792478225E+03  0.16044158759E+03  0.00000000000E+00 0.  1.
<mgrwt>
<rscale>  0 0.59887928E+03</rscale>
<asrwt>0</asrwt>
<pdfrwt beam="1">  1        1 0.12079743E+00 0.59887928E+03</pdfrwt>
<pdfrwt beam="2">  1       -2 0.12849984E+00 0.59887928E+03</pdfrwt>
<totfact> 0.92982453E+00</totfact>
</mgrwt>
</event>
<event>
12    3  0.2212098E-007  0.6248287E+03  0.7818608E-02  0.9855193E-01
          1   -1    0    0  501    0  0.00000000000E+00  0.00000000000E+00  0.77667097405E+03  0.77667097405E+03  0.00000000000E+00 0. -1.
         -4   -1    0    0    0  501 -0.00000000000E+00 -0.00000000000E+00 -0.12169755314E+04  0.12169755314E+04  0.00000000000E+00 0.  1.
        -24    2    1    2    0    0  0.28694010480E+03 -0.47763024111E+03  0.49573876152E+03  0.75005632187E+03  0.79763997754E+02 0.  0.
    5000000    2    1    2    0    0 -0.28694010480E+03  0.47763024111E+03 -0.93604331886E+03  0.12435901836E+04  0.59989513996E+03 0.  0.
        -24    2    4    4    0    0  0.94734342833E+02  0.16608266696E+03 -0.61736711621E+03  0.65112530920E+03  0.79145209116E+02 0.  0.
         24    2    4    4    0    0 -0.38167444763E+03  0.31154757414E+03 -0.31867620265E+03  0.59246487438E+03  0.81992867405E+02 0.  0.
         11    1    3    3    0    0  0.22804074029E+03 -0.30747607608E+03  0.33841243294E+03  0.51094724910E+03  0.00000000000E+00 0. -1.
        -12    1    3    3    0    0  0.58899364511E+02 -0.17015416503E+03  0.15732632857E+03  0.23910907277E+03  0.00000000000E+00 0.  1.
         13    1    5    5    0    0  0.88322744781E+02  0.14095699648E+03 -0.59170983872E+03  0.61464649624E+03  0.00000000000E+00 0. -1.
        -14    1    5    5    0    0  0.64115980520E+01  0.25125670484E+02 -0.25657277494E+02  0.36478812964E+02  0.00000000000E+00 0.  1.
          2    1    6    6  502    0 -0.34835244618E+03  0.29842241528E+03 -0.31503989709E+03  0.55646698147E+03  0.00000000000E+00 0. -1.
         -1    1    6    6    0  502 -0.33322001451E+02  0.13125158859E+02 -0.36363055581E+01  0.35997892909E+02  0.00000000000E+00 0.  1.
<mgrwt>
<rscale>  0 0.62482867E+03</rscale>
<asrwt>0</asrwt>
<pdfrwt beam="1">  1        1 0.11948784E+00 0.62482867E+03</pdfrwt>
<pdfrwt beam="2">  1       -4 0.18722700E+00 0.62482867E+03</pdfrwt>
<totfact> 0.18234498E+00</totfact>
</mgrwt>
</event>
<event>
12    3  0.2212098E-007  0.6298277E+03  0.7818608E-02  0.9845385E-01
         -2   -1    0    0    0  501 -0.00000000000E+00  0.00000000000E+00  0.10954087681E+04  0.10954087681E+04  0.00000000000E+00 0.  1.
          1   -1    0    0  501    0  0.00000000000E+00 -0.00000000000E+00 -0.55872617811E+03  0.55872617811E+03  0.00000000000E+00 0. -1.
        -24    2    1    2    0    0  0.13428721472E+03  0.47522936487E+03  0.69984154090E+03  0.86021280528E+03  0.79447358203E+02 0.  0.
    5000000    2    1    2    0    0 -0.13428721472E+03 -0.47522936487E+03 -0.16315895095E+03  0.79392214089E+03  0.59984624468E+03 0.  0.
        -24    2    4    4    0    0 -0.29449582400E+03 -0.61111092200E+02 -0.14206713878E+03  0.34200608346E+03  0.79515616476E+02 0.  0.
         24    2    4    4    0    0  0.16020860928E+03 -0.41411827267E+03 -0.21091812179E+02  0.45191605743E+03  0.81378843566E+02 0.  0.
         11    1    5    5    0    0 -0.21733428518E+03 -0.74743618943E+02 -0.12570631821E+03  0.26195968874E+03  0.00000000000E+00 0. -1.
        -12    1    5    5    0    0 -0.77161538820E+02  0.13632526743E+02 -0.16360820562E+02  0.80046394722E+02  0.00000000000E+00 0.  1.
         13    1    3    3    0    0  0.13104900257E+03  0.47814444076E+03  0.69483609938E+03  0.85357668214E+03  0.00000000000E+00 0. -1.
        -14    1    3    3    0    0  0.32382121486E+01 -0.29150758936E+01  0.50054415234E+01  0.66361231324E+01  0.00000000000E+00 0.  1.
          2    1    6    6  502    0  0.12857674845E+03 -0.22130384330E+03 -0.16372568976E+02  0.25646721489E+03  0.00000000000E+00 0. -1.
         -1    1    6    6    0  502  0.31631860823E+02 -0.19281442937E+03 -0.47192432034E+01  0.19544884254E+03  0.00000000000E+00 0.  1.
<mgrwt>
<rscale>  0 0.62982770E+03</rscale>
<asrwt>0</asrwt>
<pdfrwt beam="1">  1        1 0.85957873E-01 0.62982770E+03</pdfrwt>
<pdfrwt beam="2">  1       -2 0.16852443E+00 0.62982770E+03</pdfrwt>
<totfact> 0.75182788E+00</totfact>
</mgrwt>
</event>
<event>
12    3  0.2212098E-007  0.3856750E+03  0.7818608E-02  0.1048856E+00
         -2   -1    0    0    0  501 -0.00000000000E+00  0.00000000000E+00  0.23525298239E+03  0.23525298239E+03  0.00000000000E+00 0.  1.
          1   -1    0    0  501    0  0.00000000000E+00 -0.00000000000E+00 -0.74153936905E+03  0.74153936905E+03  0.00000000000E+00 0. -1.
        -24    2    1    2    0    0  0.40758178249E+02  0.18472906078E+03 -0.14478005950E+03  0.25121575018E+03  0.79762350247E+02 0.  0.
    5000000    2    1    2    0    0 -0.40758178249E+02 -0.18472906078E+03 -0.36150632716E+03  0.72557660127E+03  0.59999043721E+03 0.  0.
        -24    2    4    4    0    0  0.18064324184E+03  0.90401391886E+02 -0.27969455054E+03  0.35431212428E+03  0.80645194107E+02 0.  0.
         24    2    4    4    0    0 -0.22140142009E+03 -0.27513045267E+03 -0.81811776612E+02  0.37126447698E+03  0.80179737302E+02 0.  0.
         11    1    3    3    0    0 -0.18294691607E+02  0.10139987466E+03 -0.68227259428E+02  0.12357827176E+03  0.00000000000E+00 0. -1.
        -12    1    3    3    0    0  0.59052869857E+02  0.83329186123E+02 -0.76552800077E+02  0.12763747842E+03  0.00000000000E+00 0.  1.
         11    1    5    5    0    0  0.66159433417E+02  0.61124368745E+02 -0.71833566996E+02  0.11520989728E+03  0.00000000000E+00 0. -1.
        -12    1    5    5    0    0  0.11448380843E+03  0.29277023141E+02 -0.20786098355E+03  0.23910222700E+03  0.00000000000E+00 0.  1.
          4    1    6    6  502    0 -0.16075169151E+03 -0.15470100786E+03 -0.78097133542E+02  0.23637400539E+03  0.00000000000E+00 0. -1.
         -3    1    6    6    0  502 -0.60649728580E+02 -0.12042944481E+03 -0.37146430693E+01  0.13489047159E+03  0.00000000000E+00 0.  1.
<mgrwt>
<rscale>  0 0.38567502E+03</rscale>
<asrwt>0</asrwt>
<pdfrwt beam="1">  1        1 0.11408298E+00 0.38567502E+03</pdfrwt>
<pdfrwt beam="2">  1       -2 0.36192767E-01 0.38567502E+03</pdfrwt>
<totfact> 0.16342735E+02</totfact>
</mgrwt>
</event>
<event>
12    3  0.2212098E-007  0.6113520E+03  0.7818608E-02  0.9882130E-01
         -2   -1    0    0    0  501 -0.00000000000E+00  0.00000000000E+00  0.91860612664E+02  0.91860612664E+02  0.00000000000E+00 0.  1.
          1   -1    0    0  501    0  0.00000000000E+00 -0.00000000000E+00 -0.43539556722E+04  0.43539556722E+04  0.00000000000E+00 0. -1.
        -24    2    1    2    0    0 -0.23338908110E+03 -0.41158371648E+03 -0.20523970174E+04  0.21077296444E+04  0.79492880317E+02 0.  0.
    5000000    2    1    2    0    0  0.23338908110E+03  0.41158371648E+03 -0.22096980422E+04  0.23380866405E+04  0.60001006829E+03 0.  0.
        -24    2    4    4    0    0  0.20899382342E+03  0.55410907830E+03 -0.17799120904E+04  0.18775217379E+04  0.79281383915E+02 0.  0.
         24    2    4    4    0    0  0.24395257673E+02 -0.14252536183E+03 -0.42978595181E+03  0.46056490263E+03  0.80594403068E+02 0.  0.
         13    1    3    3    0    0 -0.18837512214E+03 -0.25964695177E+03 -0.14197846950E+04  0.14555721577E+04  0.00000000000E+00 0. -1.
        -14    1    3    3    0    0 -0.45013958954E+02 -0.15193676471E+03 -0.63261232239E+03  0.65215748666E+03  0.00000000000E+00 0.  1.
         13    1    5    5    0    0  0.11760962085E+03  0.31251224008E+03 -0.87801624113E+03  0.93936597916E+03  0.00000000000E+00 0. -1.
        -14    1    5    5    0    0  0.91384202568E+02  0.24159683823E+03 -0.90189584928E+03  0.93815575875E+03  0.00000000000E+00 0.  1.
          2    1    6    6  502    0  0.15040652577E+02 -0.92853500775E+01 -0.10593596163E+02  0.20607358774E+02  0.00000000000E+00 0. -1.
         -1    1    6    6    0  502  0.93546050966E+01 -0.13324001175E+03 -0.41919235564E+03  0.43995754386E+03  0.00000000000E+00 0.  1.
<mgrwt>
<rscale>  0 0.61135198E+03</rscale>
<asrwt>0</asrwt>
<pdfrwt beam="1">  1        1 0.66983939E+00 0.61135198E+03</pdfrwt>
<pdfrwt beam="2">  1       -2 0.14132401E-01 0.61135198E+03</pdfrwt>
<totfact> 0.17722509E+00</totfact>
</mgrwt>
</event>
<event>
12    3  0.2212098E-007  0.4315509E+03  0.7818608E-02  0.1033371E+00
         -2   -1    0    0    0  501 -0.00000000000E+00  0.00000000000E+00  0.21415666892E+03  0.21415666892E+03  0.00000000000E+00 0.  1.
          1   -1    0    0  501    0  0.00000000000E+00 -0.00000000000E+00 -0.12299220352E+04  0.12299220352E+04  0.00000000000E+00 0. -1.
        -24    2    1    2    0    0 -0.36136727193E+02 -0.31273211172E+03 -0.18969377113E+03  0.37567806571E+03  0.77737027846E+02 0.  0.
    5000000    2    1    2    0    0  0.36136727193E+02  0.31273211172E+03 -0.82607159518E+03  0.10684006384E+04  0.59998200565E+03 0.  0.
        -24    2    4    4    0    0 -0.18568902221E+01 -0.11037299913E+03 -0.52082731152E+01  0.14063921547E+03  0.86986296862E+02 0.  0.
         24    2    4    4    0    0  0.37993617415E+02  0.42310511085E+03 -0.82086332206E+03  0.92776142296E+03  0.80394120681E+02 0.  0.
         11    1    5    5    0    0 -0.26384463362E+01 -0.72193988414E+02  0.39100994773E+02  0.82145122523E+02  0.00000000000E+00 0. -1.
        -12    1    5    5    0    0  0.78155611412E+00 -0.38179010717E+02 -0.44309267888E+02  0.58494092950E+02  0.00000000000E+00 0.  1.
         11    1    3    3    0    0  0.53183414496E+01 -0.23691271830E+03 -0.12648869215E+03  0.26861740467E+03  0.00000000000E+00 0. -1.
        -12    1    3    3    0    0 -0.41455068642E+02 -0.75819393422E+02 -0.63205078974E+02  0.10706066104E+03  0.00000000000E+00 0.  1.
          2    1    6    6  502    0 -0.13778074560E+02  0.19018556674E+03 -0.31050977285E+03  0.36438537865E+03  0.00000000000E+00 0. -1.
         -1    1    6    6    0  502  0.51771691975E+02  0.23291954411E+03 -0.51035354921E+03  0.56337604432E+03  0.00000000000E+00 0.  1.
<mgrwt>
<rscale>  0 0.43155095E+03</rscale>
<asrwt>0</asrwt>
<pdfrwt beam="1">  1        1 0.18921877E+00 0.43155095E+03</pdfrwt>
<pdfrwt beam="2">  1       -2 0.32947180E-01 0.43155095E+03</pdfrwt>
<totfact> 0.81030177E+01</totfact>
</mgrwt>
</event>
<event>
12    3  0.2212098E-007  0.9149841E+03  0.7818608E-02  0.9407042E-01
          1   -1    0    0  501    0  0.00000000000E+00  0.00000000000E+00  0.11098714808E+04  0.11098714808E+04  0.00000000000E+00 0. -1.
         -2   -1    0    0    0  501 -0.00000000000E+00 -0.00000000000E+00 -0.84063555472E+03  0.84063555472E+03  0.00000000000E+00 0.  1.
        -24    2    1    2    0    0 -0.52003345804E+03  0.64042817297E+03  0.40331940781E+03  0.92168453857E+03  0.79074659165E+02 0.  0.
    5000000    2    1    2    0    0  0.52003345804E+03 -0.64042817297E+03 -0.13408348169E+03  0.10288224970E+04  0.59992858577E+03 0.  0.
        -24    2    4    4    0    0 -0.66798404254E+02  0.42407242460E+02 -0.44176282874E+02  0.12046404309E+03  0.79370275822E+02 0.  0.
         24    2    4    4    0    0  0.58683186229E+03 -0.68283541543E+03 -0.89907198818E+02  0.90835845389E+03  0.79974603461E+02 0.  0.
         11    1    3    3    0    0 -0.31345669143E+03  0.41708603828E+03  0.29082056380E+03  0.59732107033E+03  0.00000000000E+00 0. -1.
        -12    1    3    3    0    0 -0.20657676660E+03  0.22334213469E+03  0.11249884401E+03  0.32436346824E+03  0.00000000000E+00 0.  1.
         11    1    5    5    0    0  0.11219085693E+02  0.19120116722E+02 -0.30808163125E+02  0.37955100611E+02  0.00000000000E+00 0. -1.
        -12    1    5    5    0    0 -0.78017489947E+02  0.23287125738E+02 -0.13368119750E+02  0.82508942476E+02  0.00000000000E+00 0.  1.
          2    1    6    6  502    0  0.37635489412E+03 -0.44521443803E+03 -0.19995344641E+02  0.58331699440E+03  0.00000000000E+00 0. -1.
         -1    1    6    6    0  502  0.21047696817E+03 -0.23762097740E+03 -0.69911854177E+02  0.32504145949E+03  0.00000000000E+00 0.  1.
<mgrwt>
<rscale>  0 0.91498410E+03</rscale>
<asrwt>0</asrwt>
<pdfrwt beam="1">  1        1 0.17074946E+00 0.91498410E+03</pdfrwt>
<pdfrwt beam="2">  1       -2 0.12932855E+00 0.91498410E+03</pdfrwt>
<totfact> 0.48377633E+00</totfact>
</mgrwt>
</event>
<event>
12    3  0.2212098E-007  0.6988311E+03  0.7818608E-02  0.9719233E-01
          1   -1    0    0  501    0  0.00000000000E+00  0.00000000000E+00  0.15709952537E+04  0.15709952537E+04  0.00000000000E+00 0. -1.
         -2   -1    0    0    0  501 -0.00000000000E+00 -0.00000000000E+00 -0.43717454294E+03  0.43717454294E+03  0.00000000000E+00 0.  1.
        -24    2    1    2    0    0 -0.28674527754E+03  0.52688246745E+03  0.16842243020E+02  0.60545666835E+03  0.80412234157E+02 0.  0.
    5000000    2    1    2    0    0  0.28674527754E+03 -0.52688246745E+03  0.11169784678E+04  0.14027131283E+04  0.60011268456E+03 0.  0.
        -24    2    4    4    0    0 -0.11071266746E+03 -0.31861668792E+03  0.26508050844E+03  0.43669174604E+03  0.81597282687E+02 0.  0.
         24    2    4    4    0    0  0.39745794499E+03 -0.20826577953E+03  0.85189795931E+03  0.96602138226E+03  0.78228670867E+02 0.  0.
         13    1    5    5    0    0  0.17879250881E+01 -0.31247791417E+02  0.23341873389E+01  0.31385818057E+02  0.00000000000E+00 0. -1.
        -14    1    5    5    0    0 -0.11250059254E+03 -0.28736889651E+03  0.26274632110E+03  0.40530592798E+03  0.00000000000E+00 0.  1.
         13    1    3    3    0    0 -0.36137140885E+02  0.13630013488E+03  0.95343008484E+01  0.14133125137E+03  0.00000000000E+00 0. -1.
        -14    1    3    3    0    0 -0.25060813665E+03  0.39058233257E+03  0.73079421712E+01  0.46412541699E+03  0.00000000000E+00 0.  1.
          2    1    6    6  502    0  0.23497482184E+03 -0.89598507869E+02  0.52586694030E+03  0.58290402161E+03  0.00000000000E+00 0. -1.
         -1    1    6    6    0  502  0.16248312316E+03 -0.11866727166E+03  0.32603101901E+03  0.38311736065E+03  0.00000000000E+00 0.  1.
<mgrwt>
<rscale>  0 0.69883114E+03</rscale>
<asrwt>0</asrwt>
<pdfrwt beam="1">  1        1 0.24169157E+00 0.69883114E+03</pdfrwt>
<pdfrwt beam="2">  1       -2 0.67257623E-01 0.69883114E+03</pdfrwt>
<totfact> 0.10822433E+01</totfact>
</mgrwt>
</event>
<event>
12    3  0.2212098E-007  0.5829988E+03  0.7818608E-02  0.9941320E-01
          1   -1    0    0  501    0  0.00000000000E+00  0.00000000000E+00  0.21170455475E+04  0.21170455475E+04  0.00000000000E+00 0. -1.
         -2   -1    0    0    0  501 -0.00000000000E+00 -0.00000000000E+00 -0.22535489469E+03  0.22535489469E+03  0.00000000000E+00 0.  1.
        -24    2    1    2    0    0  0.55490167751E+03 -0.49724141021E+02  0.77012215269E+03  0.95376087245E+03  0.78634024761E+02 0.  0.
    5000000    2    1    2    0    0 -0.55490167751E+03  0.49724141021E+02  0.11215685001E+04  0.13886395697E+04  0.60001299341E+03 0.  0.
        -24    2    4    4    0    0 -0.16852905930E+03 -0.90528263226E+02  0.88172233493E+03  0.90570251877E+03  0.79154067053E+02 0.  0.
         24    2    4    4    0    0 -0.38637261822E+03  0.14025240425E+03  0.23984616515E+03  0.48293705093E+03  0.82143016832E+02 0.  0.
         11    1    3    3    0    0  0.21815906632E+03  0.13931992292E+02  0.26828176731E+03  0.34606731325E+03  0.00000000000E+00 0. -1.
        -12    1    3    3    0    0  0.33674261119E+03 -0.63656133314E+02  0.50184038537E+03  0.60769355920E+03  0.00000000000E+00 0.  1.
         13    1    5    5    0    0 -0.16285361186E+03 -0.79707494533E+02  0.68464237008E+03  0.70824413763E+03  0.00000000000E+00 0. -1.
        -14    1    5    5    0    0 -0.56754474381E+01 -0.10820768693E+02  0.19707996485E+03  0.19745838114E+03  0.00000000000E+00 0.  1.
          2    1    6    6  502    0 -0.20321542607E+03  0.78920431154E+02  0.79990786177E+02  0.23221427544E+03  0.00000000000E+00 0. -1.
         -1    1    6    6    0  502 -0.18315719215E+03  0.61331973093E+02  0.15985537897E+03  0.25072277548E+03  0.00000000000E+00 0.  1.
<mgrwt>
<rscale>  0 0.58299880E+03</rscale>
<asrwt>0</asrwt>
<pdfrwt beam="1">  1        1 0.32569930E+00 0.58299880E+03</pdfrwt>
<pdfrwt beam="2">  1       -2 0.34669985E-01 0.58299880E+03</pdfrwt>
<totfact> 0.18154259E+01</totfact>
</mgrwt>
</event>
<event>
12    3  0.2212098E-007  0.1435874E+04  0.7818608E-02  0.8928253E-01
         -2   -1    0    0    0  501 -0.00000000000E+00  0.00000000000E+00  0.63220698658E+03  0.63220698658E+03  0.00000000000E+00 0.  1.
          1   -1    0    0  501    0  0.00000000000E+00 -0.00000000000E+00 -0.34978288770E+04  0.34978288770E+04  0.00000000000E+00 0. -1.
        -24    2    1    2    0    0  0.13695773767E+04  0.23865901088E+03 -0.93848507076E+03  0.16792291692E+04  0.79724904817E+02 0.  0.
    5000000    2    1    2    0    0 -0.13695773767E+04 -0.23865901088E+03 -0.19271368196E+04  0.24508066943E+04  0.59991400798E+03 0.  0.
        -24    2    4    4    0    0 -0.17285264676E+03  0.13038377425E+03 -0.14999286209E+03  0.27526100625E+03  0.79954967341E+02 0.  0.
         24    2    4    4    0    0 -0.11967247300E+04 -0.36904278513E+03 -0.17771439575E+04  0.21755456881E+04  0.80098304866E+02 0.  0.
         11    1    5    5    0    0 -0.11192813609E+03  0.40194908672E+02 -0.55990177572E+02  0.13144747360E+03  0.00000000000E+00 0. -1.
        -12    1    5    5    0    0 -0.60924510665E+02  0.90188865580E+02 -0.94002684521E+02  0.14381353264E+03  0.00000000000E+00 0.  1.
         13    1    3    3    0    0  0.41079942089E+03  0.10101240500E+03 -0.31258578997E+03  0.52599386523E+03  0.00000000000E+00 0. -1.
        -14    1    3    3    0    0  0.95877795585E+03  0.13764660588E+03 -0.62589928079E+03  0.11532353040E+04  0.00000000000E+00 0.  1.
          4    1    6    6  502    0 -0.12121741819E+03 -0.36398774335E+02 -0.14051464527E+03  0.18911081085E+03  0.00000000000E+00 0. -1.
         -3    1    6    6    0  502 -0.10755073118E+04 -0.33264401080E+03 -0.16366293123E+04  0.19864348772E+04  0.00000000000E+00 0.  1.
<mgrwt>
<rscale>  0 0.14358742E+04</rscale>
<asrwt>0</asrwt>
<pdfrwt beam="1">  1        1 0.53812753E+00 0.14358742E+04</pdfrwt>
<pdfrwt beam="2">  1       -2 0.97262612E-01 0.14358742E+04</pdfrwt>
<totfact> 0.18825438E-01</totfact>
</mgrwt>
</event>
<event>
12    3  0.2212098E-007  0.7286970E+03  0.7818608E-02  0.9669377E-01
         -4   -1    0    0    0  501 -0.00000000000E+00  0.00000000000E+00  0.32034291973E+03  0.32034291973E+03  0.00000000000E+00 0.  1.
          3   -1    0    0  501    0  0.00000000000E+00 -0.00000000000E+00 -0.21482370537E+04  0.21482370537E+04  0.00000000000E+00 0. -1.
        -24    2    1    2    0    0  0.67584511353E+02 -0.60221169225E+03 -0.22184316478E+03  0.65015457401E+03  0.79120110532E+02 0.  0.
    5000000    2    1    2    0    0 -0.67584511353E+02  0.60221169225E+03 -0.16060509692E+04  0.18184253994E+04  0.60003718977E+03 0.  0.
        -24    2    4    4    0    0 -0.30531162619E+03  0.19203392307E+03 -0.76259150071E+03  0.84742343609E+03  0.80551017266E+02 0.  0.
         24    2    4    4    0    0  0.23772711483E+03  0.41017776918E+03 -0.84345946849E+03  0.97100196333E+03  0.81614669884E+02 0.  0.
         13    1    3    3    0    0  0.75112211793E+02 -0.35562080702E+03 -0.14998719732E+03  0.39319735770E+03  0.00000000000E+00 0. -1.
        -14    1    3    3    0    0 -0.75277004406E+01 -0.24659088523E+03 -0.71855967462E+02  0.25695721631E+03  0.00000000000E+00 0.  1.
         13    1    5    5    0    0 -0.14436029402E+03  0.13814079382E+03 -0.41741514426E+03  0.46277227236E+03  0.00000000000E+00 0. -1.
        -14    1    5    5    0    0 -0.16095133217E+03  0.53893129251E+02 -0.34517635645E+03  0.38465116373E+03  0.00000000000E+00 0.  1.
          4    1    6    6  502    0 -0.25023490821E+01  0.15045955608E+02 -0.53650967346E+02  0.55776956069E+02  0.00000000000E+00 0. -1.
         -3    1    6    6    0  502  0.24022946392E+03  0.39513181358E+03 -0.78980850115E+03  0.91522500726E+03  0.00000000000E+00 0.  1.
<mgrwt>
<rscale>  0 0.72869702E+03</rscale>
<asrwt>0</asrwt>
<pdfrwt beam="1">  1        3 0.33049799E+00 0.72869702E+03</pdfrwt>
<pdfrwt beam="2">  1       -4 0.49283528E-01 0.72869702E+03</pdfrwt>
<totfact> 0.24317717E-01</totfact>
</mgrwt>
</event>
<event>
12    3  0.2212098E-007  0.6508137E+03  0.7818608E-02  0.9805254E-01
          1   -1    0    0  501    0  0.00000000000E+00  0.00000000000E+00  0.46640129664E+03  0.46640129664E+03  0.00000000000E+00 0. -1.
         -2   -1    0    0    0  501 -0.00000000000E+00 -0.00000000000E+00 -0.15165461530E+04  0.15165461530E+04  0.00000000000E+00 0.  1.
        -24    2    1    2    0    0 -0.20104859621E+02 -0.63121120443E+03 -0.89447305509E+03  0.10979461979E+04  0.81067979528E+02 0.  0.
    5000000    2    1    2    0    0  0.20104859621E+02  0.63121120443E+03 -0.15567180125E+03  0.88500125168E+03  0.60013474803E+03 0.  0.
        -24    2    4    4    0    0 -0.80161311660E+02  0.25545722470E+03  0.20710774593E+03  0.34730109131E+03  0.77718723990E+02 0.  0.
         24    2    4    4    0    0  0.10026617128E+03  0.37575397973E+03 -0.36277954718E+03  0.53770016037E+03  0.79171359863E+02 0.  0.
         13    1    3    3    0    0 -0.16948436340E+01 -0.54046783698E+03 -0.71830441059E+03  0.89892690559E+03  0.00000000000E+00 0. -1.
        -14    1    3    3    0    0 -0.18410015987E+02 -0.90743367447E+02 -0.17616864450E+03  0.19901929236E+03  0.00000000000E+00 0.  1.
         13    1    5    5    0    0 -0.58403804577E+02  0.10913702680E+03  0.56071509859E+02  0.13588932713E+03  0.00000000000E+00 0. -1.
        -14    1    5    5    0    0 -0.21757507083E+02  0.14632019790E+03  0.15103623607E+03  0.21141176418E+03  0.00000000000E+00 0.  1.
          2    1    6    6  502    0 -0.36636241320E+01  0.12969374323E+03 -0.11582480120E+03  0.17392318346E+03  0.00000000000E+00 0. -1.
         -1    1    6    6    0  502  0.10392979541E+03  0.24606023650E+03 -0.24695474599E+03  0.36377697691E+03  0.00000000000E+00 0.  1.
<mgrwt>
<rscale>  0 0.65081367E+03</rscale>
<asrwt>0</asrwt>
<pdfrwt beam="1">  1        1 0.71754046E-01 0.65081367E+03</pdfrwt>
<pdfrwt beam="2">  1       -2 0.23331479E+00 0.65081367E+03</pdfrwt>
<totfact> 0.36364458E+00</totfact>
</mgrwt>
</event>
<event>
12    3  0.2212098E-007  0.1554887E+04  0.7818608E-02  0.8848752E-01
          1   -1    0    0  501    0  0.00000000000E+00  0.00000000000E+00  0.15748173230E+04  0.15748173230E+04  0.00000000000E+00 0. -1.
         -2   -1    0    0    0  501 -0.00000000000E+00 -0.00000000000E+00 -0.20683634942E+04  0.20683634942E+04  0.00000000000E+00 0.  1.
        -24    2    1    2    0    0 -0.14848030793E+04 -0.23147822984E+03 -0.11529583937E+04  0.18957639913E+04  0.79910562094E+02 0.  0.
    5000000    2    1    2    0    0  0.14848030793E+04  0.23147822984E+03  0.65941222248E+03  0.17474168259E+04  0.60034883960E+03 0.  0.
        -24    2    4    4    0    0  0.23769668724E+03  0.25849619001E+03  0.21901859927E+03  0.42202617801E+03  0.82564839523E+02 0.  0.
         24    2    4    4    0    0  0.12471063920E+04 -0.27017960173E+02  0.44039362321E+03  0.13253906479E+04  0.81911555640E+02 0.  0.
         11    1    5    5    0    0  0.23781899518E+03  0.26242756427E+03  0.22116983250E+03  0.41754304660E+03  0.00000000000E+00 0. -1.
        -12    1    5    5    0    0 -0.12230794401E+00 -0.39313742623E+01 -0.21512332261E+01  0.44831314075E+01  0.00000000000E+00 0.  1.
         11    1    3    3    0    0 -0.86414622418E+03 -0.16190104712E+03 -0.63767310497E+03  0.10860882260E+04  0.00000000000E+00 0. -1.
        -12    1    3    3    0    0 -0.62065685509E+03 -0.69577182713E+02 -0.51528528870E+03  0.80967576527E+03  0.00000000000E+00 0.  1.
          2    1    6    6  502    0  0.71555209262E+03  0.29840134781E+01  0.21418040194E+03  0.74692499367E+03  0.00000000000E+00 0. -1.
         -1    1    6    6    0  502  0.53155429942E+03 -0.30001973651E+02  0.22621322126E+03  0.57846565423E+03  0.00000000000E+00 0.  1.
<mgrwt>
<rscale>  0 0.15548869E+04</rscale>
<asrwt>0</asrwt>
<pdfrwt beam="1">  1        1 0.24227959E+00 0.15548869E+04</pdfrwt>
<pdfrwt beam="2">  1       -2 0.31820977E+00 0.15548869E+04</pdfrwt>
<totfact> 0.11715165E-01</totfact>
</mgrwt>
</event>
<event>
12    3  0.2212098E-007  0.6618504E+03  0.7818608E-02  0.9784793E-01
         -2   -1    0    0    0  501 -0.00000000000E+00  0.00000000000E+00  0.71188131319E+03  0.71188131319E+03  0.00000000000E+00 0.  1.
          1   -1    0    0  501    0  0.00000000000E+00 -0.00000000000E+00 -0.99076290693E+03  0.99076290693E+03  0.00000000000E+00 0. -1.
        -24    2    1    2    0    0  0.26265769949E+03 -0.56518640795E+03  0.26362798268E+03  0.68145005199E+03  0.80310131854E+02 0.  0.
    5000000    2    1    2    0    0 -0.26265769949E+03  0.56518640795E+03 -0.54250957642E+03  0.10211941681E+04  0.60008011604E+03 0.  0.
        -24    2    4    4    0    0 -0.24148413851E+03  0.19061122375E+03 -0.55244788831E+03  0.63742873461E+03  0.80433168691E+02 0.  0.
         24    2    4    4    0    0 -0.21173560973E+02  0.37457518420E+03  0.99383118968E+01  0.38376543352E+03  0.80138939455E+02 0.  0.
         11    1    3    3    0    0  0.11384273835E+03 -0.15706224901E+03  0.81212765433E+02  0.21029558342E+03  0.00000000000E+00 0. -1.
        -12    1    3    3    0    0  0.14881496114E+03 -0.40812415894E+03  0.18241521724E+03  0.47115446857E+03  0.00000000000E+00 0.  1.
         13    1    5    5    0    0 -0.70241449871E+02  0.10508965158E+03 -0.20943358981E+03  0.24462241248E+03  0.00000000000E+00 0. -1.
        -14    1    5    5    0    0 -0.17124268864E+03  0.85521572169E+02 -0.34301429851E+03  0.39280632212E+03  0.00000000000E+00 0.  1.
          2    1    6    6  502    0 -0.33979853666E+02  0.26128290899E+03  0.38364157538E+02  0.26626152101E+03  0.00000000000E+00 0. -1.
         -1    1    6    6    0  502  0.12806292693E+02  0.11329227520E+03 -0.28425845642E+02  0.11750391250E+03  0.00000000000E+00 0.  1.
<mgrwt>
<rscale>  0 0.66185035E+03</rscale>
<asrwt>0</asrwt>
<pdfrwt beam="1">  1        1 0.15242506E+00 0.66185035E+03</pdfrwt>
<pdfrwt beam="2">  1       -2 0.10952020E+00 0.66185035E+03</pdfrwt>
<totfact> 0.92765529E+00</totfact>
</mgrwt>
</event>
<event>
12    3  0.2212098E-007  0.5941514E+03  0.7818608E-02  0.9917615E-01
         -2   -1    0    0    0  501 -0.00000000000E+00  0.00000000000E+00  0.27180236988E+03  0.27180236988E+03  0.00000000000E+00 0.  1.
          1   -1    0    0  501    0  0.00000000000E+00 -0.00000000000E+00 -0.18661187659E+04  0.18661187659E+04  0.00000000000E+00 0. -1.
        -24    2    1    2    0    0  0.33549354858E+03 -0.31281867942E+03 -0.11973712452E+04  0.12847445766E+04  0.80369651657E+02 0.  0.
    5000000    2    1    2    0    0 -0.33549354858E+03  0.31281867942E+03 -0.39694515079E+03  0.85317655917E+03  0.59994444830E+03 0.  0.
        -24    2    4    4    0    0 -0.33100089099E+03 -0.66066525714E+02 -0.28913932078E+03  0.45148617384E+03  0.79447106208E+02 0.  0.
         24    2    4    4    0    0 -0.44926575813E+01  0.37888520514E+03 -0.10780583001E+03  0.40169038533E+03  0.78478570570E+02 0.  0.
         11    1    3    3    0    0  0.11050219317E+03 -0.10862227795E+03 -0.51455092250E+03  0.53737527466E+03  0.00000000000E+00 0. -1.
        -12    1    3    3    0    0  0.22499135541E+03 -0.20419640147E+03 -0.68282032270E+03  0.74736930194E+03  0.00000000000E+00 0.  1.
         13    1    5    5    0    0 -0.76519924642E+02 -0.48933766652E+02 -0.62209072135E+02  0.11008987711E+03  0.00000000000E+00 0. -1.
        -14    1    5    5    0    0 -0.25448096635E+03 -0.17132759062E+02 -0.22693024865E+03  0.34139629673E+03  0.00000000000E+00 0.  1.
          2    1    6    6  502    0 -0.31705336972E+02  0.24177295874E+03 -0.93574832459E+02  0.26118124213E+03  0.00000000000E+00 0. -1.
         -1    1    6    6    0  502  0.27212679391E+02  0.13711224639E+03 -0.14230997547E+02  0.14050914320E+03  0.00000000000E+00 0.  1.
<mgrwt>
<rscale>  0 0.59415140E+03</rscale>
<asrwt>0</asrwt>
<pdfrwt beam="1">  1        1 0.28709521E+00 0.59415140E+03</pdfrwt>
<pdfrwt beam="2">  1       -2 0.41815747E-01 0.59415140E+03</pdfrwt>
<totfact> 0.18540848E+01</totfact>
</mgrwt>
</event>
<event>
12    3  0.2212098E-007  0.4261814E+03  0.7818608E-02  0.1035073E+00
          1   -1    0    0  501    0  0.00000000000E+00  0.00000000000E+00  0.26191114797E+04  0.26191114797E+04  0.00000000000E+00 0. -1.
         -2   -1    0    0    0  501 -0.00000000000E+00 -0.00000000000E+00 -0.11575066793E+03  0.11575066793E+03  0.00000000000E+00 0.  1.
        -24    2    1    2    0    0 -0.24852069831E+01  0.37589259205E+03  0.72227494173E+03  0.81819539550E+03  0.80381569801E+02 0.  0.
    5000000    2    1    2    0    0  0.24852069831E+01 -0.37589259205E+03  0.17810858700E+04  0.19166667521E+04  0.60003595330E+03 0.  0.
        -24    2    4    4    0    0  0.97309391784E+02 -0.79404739014E+02  0.67145360597E+02  0.17297330240E+03  0.98168394020E+02 0.  0.
         24    2    4    4    0    0 -0.94824184801E+02 -0.29648785303E+03  0.17139405094E+04  0.17436934497E+04  0.77318197878E+02 0.  0.
         11    1    5    5    0    0  0.62324176693E+02  0.96439732585E+01  0.18988594651E+02  0.65862553454E+02  0.00000000000E+00 0. -1.
        -12    1    5    5    0    0  0.34985215091E+02 -0.89048712273E+02  0.48156765946E+02  0.10711074894E+03  0.00000000000E+00 0.  1.
         11    1    3    3    0    0 -0.19486392961E+02  0.21137100778E+03  0.48006967804E+03  0.52490410382E+03  0.00000000000E+00 0. -1.
        -12    1    3    3    0    0  0.17001185978E+02  0.16452158427E+03  0.24220526369E+03  0.29329129168E+03  0.00000000000E+00 0.  1.
          4    1    6    6  502    0 -0.26161121083E+02 -0.17030281933E+03  0.78294484991E+03  0.80167954478E+03  0.00000000000E+00 0. -1.
         -3    1    6    6    0  502 -0.68663063718E+02 -0.12618503370E+03  0.93099565949E+03  0.94201390491E+03  0.00000000000E+00 0.  1.
<mgrwt>
<rscale>  0 0.42618143E+03</rscale>
<asrwt>0</asrwt>
<pdfrwt beam="1">  1        1 0.40294018E+00 0.42618143E+03</pdfrwt>
<pdfrwt beam="2">  1       -2 0.17807797E-01 0.42618143E+03</pdfrwt>
<totfact> 0.28537699E+01</totfact>
</mgrwt>
</event>
<event>
12    3  0.2212098E-007  0.4903701E+03  0.7818608E-02  0.1016323E+00
         -2   -1    0    0    0  501 -0.00000000000E+00  0.00000000000E+00  0.39192852233E+03  0.39192852233E+03  0.00000000000E+00 0.  1.
          1   -1    0    0  501    0  0.00000000000E+00 -0.00000000000E+00 -0.68342790106E+03  0.68342790106E+03  0.00000000000E+00 0. -1.
        -24    2    1    2    0    0 -0.30225570620E+03  0.12467078564E+03 -0.18409453347E+03  0.38369921054E+03  0.80205798972E+02 0.  0.
    5000000    2    1    2    0    0  0.30225570620E+03 -0.12467078564E+03 -0.10740484526E+03  0.69165721285E+03  0.59996048418E+03 0.  0.
        -24    2    4    4    0    0  0.14921569582E+03 -0.33943445043E+03 -0.16117980990E+03  0.41082164197E+03  0.72900071149E+02 0.  0.
         24    2    4    4    0    0  0.15304001038E+03  0.21476366479E+03  0.53774964646E+02  0.28083557088E+03  0.80200963577E+02 0.  0.
         13    1    3    3    0    0 -0.20413165472E+03  0.11527597417E+03 -0.10302397557E+03  0.25607073676E+03  0.00000000000E+00 0. -1.
        -14    1    3    3    0    0 -0.98124051475E+02  0.93948114731E+01 -0.81070557902E+02  0.12762847378E+03  0.00000000000E+00 0.  1.
         13    1    5    5    0    0  0.69564108899E+02 -0.19695560136E+03 -0.12567826681E+03  0.24377387248E+03  0.00000000000E+00 0. -1.
        -14    1    5    5    0    0  0.79651586919E+02 -0.14247884907E+03 -0.35501543096E+02  0.16704776949E+03  0.00000000000E+00 0.  1.
          2    1    6    6  502    0  0.20338908220E+02  0.94077886625E+02  0.20166128806E+02  0.98341205455E+02  0.00000000000E+00 0. -1.
         -1    1    6    6    0  502  0.13270110216E+03  0.12068577816E+03  0.33608835840E+02  0.18249436542E+03  0.00000000000E+00 0.  1.
<mgrwt>
<rscale>  0 0.49037007E+03</rscale>
<asrwt>0</asrwt>
<pdfrwt beam="1">  1        1 0.10514275E+00 0.49037007E+03</pdfrwt>
<pdfrwt beam="2">  1       -2 0.60296696E-01 0.49037007E+03</pdfrwt>
<totfact> 0.66027743E+01</totfact>
</mgrwt>
</event>
<event>
12    3  0.2212098E-007  0.1765902E+04  0.7818608E-02  0.8724646E-01
          1   -1    0    0  501    0  0.00000000000E+00  0.00000000000E+00  0.39798920766E+04  0.39798920766E+04  0.00000000000E+00 0. -1.
         -2   -1    0    0    0  501 -0.00000000000E+00 -0.00000000000E+00 -0.79528694446E+03  0.79528694446E+03  0.00000000000E+00 0.  1.
        -24    2    1    2    0    0 -0.15254287163E+04 -0.79411678477E+03  0.17678149136E+04  0.24676099029E+04  0.79842519816E+02 0.  0.
    5000000    2    1    2    0    0  0.15254287163E+04  0.79411678477E+03  0.14167902185E+04  0.23075691182E+04  0.60002206246E+03 0.  0.
        -24    2    4    4    0    0  0.14215951995E+04  0.86456969951E+03  0.13581608421E+04  0.21493486472E+04  0.81762201812E+02 0.  0.
         24    2    4    4    0    0  0.10383351674E+03 -0.70452914735E+02  0.58629376495E+02  0.15822047097E+03  0.76493798790E+02 0.  0.
         13    1    3    3    0    0 -0.13741031113E+04 -0.69492278979E+03  0.16048754481E+04  0.22241183080E+04  0.00000000000E+00 0. -1.
        -14    1    3    3    0    0 -0.15132560501E+03 -0.99193994986E+02  0.16293946554E+03  0.24349159493E+03  0.00000000000E+00 0.  1.
         13    1    5    5    0    0  0.98054469607E+02  0.83586987744E+02  0.95562788922E+02  0.16041730005E+03  0.00000000000E+00 0. -1.
        -14    1    5    5    0    0  0.13235407299E+04  0.78098271176E+03  0.12625980531E+04  0.19889313471E+04  0.00000000000E+00 0.  1.
          4    1    6    6  502    0 -0.88536437131E+01  0.46360620443E+01 -0.14117169269E+01  0.10093216680E+02  0.00000000000E+00 0. -1.
         -3    1    6    6    0  502  0.11268716045E+03 -0.75088976780E+02  0.60041093422E+02  0.14812725429E+03  0.00000000000E+00 0.  1.
<mgrwt>
<rscale>  0 0.17659017E+04</rscale>
<asrwt>0</asrwt>
<pdfrwt beam="1">  1        1 0.61229108E+00 0.17659017E+04</pdfrwt>
<pdfrwt beam="2">  1       -2 0.12235184E+00 0.17659017E+04</pdfrwt>
<totfact> 0.41350515E-02</totfact>
</mgrwt>
</event>
<event>
12    3  0.2212098E-007  0.1543539E+04  0.7818608E-02  0.8856005E-01
          1   -1    0    0  501    0  0.00000000000E+00  0.00000000000E+00  0.14585218107E+04  0.14585218107E+04  0.00000000000E+00 0. -1.
         -2   -1    0    0    0  501 -0.00000000000E+00 -0.00000000000E+00 -0.21717765281E+04  0.21717765281E+04  0.00000000000E+00 0.  1.
        -24    2    1    2    0    0  0.12563224558E+04 -0.83245194717E+03  0.51596721969E+03  0.15949715022E+04  0.79934746296E+02 0.  0.
    5000000    2    1    2    0    0 -0.12563224558E+04  0.83245194717E+03 -0.12292219371E+04  0.20353268366E+04  0.60020530160E+03 0.  0.
        -24    2    4    4    0    0 -0.12110878907E+04  0.85936653041E+03 -0.10155139212E+04  0.18007790422E+04  0.79321637436E+02 0.  0.
         24    2    4    4    0    0 -0.45234565048E+02 -0.26914583243E+02 -0.21370801590E+03  0.23454779440E+03  0.81061650190E+02 0.  0.
         13    1    5    5    0    0 -0.52923079574E+03  0.34841305134E+03 -0.39401257665E+03  0.74613859306E+03  0.00000000000E+00 0. -1.
        -14    1    5    5    0    0 -0.68185709499E+03  0.51095347907E+03 -0.62150134455E+03  0.10546404492E+04  0.00000000000E+00 0.  1.
         13    1    3    3    0    0  0.10136510777E+04 -0.70317099455E+03  0.40471898820E+03  0.12983587387E+04  0.00000000000E+00 0. -1.
        -14    1    3    3    0    0  0.24267137807E+03 -0.12928095262E+03  0.11124823149E+03  0.29661276347E+03  0.00000000000E+00 0.  1.
          2    1    6    6  502    0  0.13357370091E+01 -0.43360842888E+02 -0.67642623264E+02  0.80358393285E+02  0.00000000000E+00 0. -1.
         -1    1    6    6    0  502 -0.46570302057E+02  0.16446259646E+02 -0.14606539264E+03  0.15418940112E+03  0.00000000000E+00 0.  1.
<mgrwt>
<rscale>  0 0.15435394E+04</rscale>
<asrwt>0</asrwt>
<pdfrwt beam="1">  1        1 0.22438797E+00 0.15435394E+04</pdfrwt>
<pdfrwt beam="2">  1       -2 0.33411947E+00 0.15435394E+04</pdfrwt>
<totfact> 0.11266208E-01</totfact>
</mgrwt>
</event>
<event>
12    3  0.2212098E-007  0.5195649E+03  0.7818608E-02  0.1008795E+00
         -2   -1    0    0    0  501 -0.00000000000E+00  0.00000000000E+00  0.96698541859E+03  0.96698541859E+03  0.00000000000E+00 0.  1.
          1   -1    0    0  501    0  0.00000000000E+00 -0.00000000000E+00 -0.56969210293E+03  0.56969210293E+03  0.00000000000E+00 0. -1.
        -24    2    1    2    0    0 -0.36886616309E+03  0.17706637064E+03  0.64606574010E+03  0.76898514375E+03  0.80761778635E+02 0.  0.
    5000000    2    1    2    0    0  0.36886616309E+03 -0.17706637064E+03 -0.24877242444E+03  0.76769237778E+03  0.60004093349E+03 0.  0.
        -24    2    4    4    0    0  0.11870531447E+03 -0.30526905835E+03 -0.32295072053E+03  0.46598459245E+03  0.74594388806E+02 0.  0.
         24    2    4    4    0    0  0.25016084862E+03  0.12820268770E+03  0.74178296090E+02  0.30170778534E+03  0.80677064922E+02 0.  0.
         11    1    5    5    0    0  0.12448776106E+03 -0.24036896990E+03 -0.25639502284E+03  0.37284427323E+03  0.00000000000E+00 0. -1.
        -12    1    5    5    0    0 -0.57824465883E+01 -0.64900088447E+02 -0.66555697687E+02  0.93140319215E+02  0.00000000000E+00 0.  1.
         13    1    3    3    0    0 -0.14836911628E+03  0.51158926413E+02  0.31330072520E+03  0.35041115112E+03  0.00000000000E+00 0. -1.
        -14    1    3    3    0    0 -0.22049704681E+03  0.12590744423E+03  0.33276501490E+03  0.41857399263E+03  0.00000000000E+00 0.  1.
          4    1    6    6  502    0  0.17613652166E+03  0.46488929826E+02  0.44458458488E+02  0.18751493111E+03  0.00000000000E+00 0. -1.
         -3    1    6    6    0  502  0.74024326959E+02  0.81713757879E+02  0.29719837601E+02  0.11419285422E+03  0.00000000000E+00 0.  1.
<mgrwt>
<rscale>  0 0.51956488E+03</rscale>
<asrwt>0</asrwt>
<pdfrwt beam="1">  1        1 0.87644939E-01 0.51956488E+03</pdfrwt>
<pdfrwt beam="2">  1       -2 0.14876699E+00 0.51956488E+03</pdfrwt>
<totfact> 0.10385892E+01</totfact>
</mgrwt>
</event>
<event>
12    3  0.2212098E-007  0.1204697E+04  0.7818608E-02  0.9108755E-01
         -2   -1    0    0    0  501 -0.00000000000E+00  0.00000000000E+00  0.10599149661E+04  0.10599149661E+04  0.00000000000E+00 0.  1.
          1   -1    0    0  501    0  0.00000000000E+00 -0.00000000000E+00 -0.19617753059E+04  0.19617753059E+04  0.00000000000E+00 0. -1.
        -24    2    1    2    0    0  0.97082838225E+03  0.59311050619E+03  0.38353661020E+03  0.12030549659E+04  0.77156330161E+02 0.  0.
    5000000    2    1    2    0    0 -0.97082838225E+03 -0.59311050619E+03 -0.12853969500E+04  0.18186353061E+04  0.60075056161E+03 0.  0.
        -24    2    4    4    0    0 -0.44572171928E+03 -0.59517126909E+03 -0.65121263288E+03  0.99146465070E+03  0.77637425086E+02 0.  0.
         24    2    4    4    0    0 -0.52510666296E+03  0.20607628939E+01 -0.63418431707E+03  0.82717065539E+03  0.79248286336E+02 0.  0.
         11    1    3    3    0    0  0.26095831508E+03  0.12023777700E+03  0.95162966147E+02  0.30267532994E+03  0.00000000000E+00 0. -1.
        -12    1    3    3    0    0  0.70987006717E+03  0.47287272919E+03  0.28837364405E+03  0.90037963596E+03  0.00000000000E+00 0.  1.
         13    1    5    5    0    0 -0.18844689411E+03 -0.27266989319E+03 -0.24209018569E+03  0.41044946164E+03  0.00000000000E+00 0. -1.
        -14    1    5    5    0    0 -0.25727482517E+03 -0.32250137590E+03 -0.40912244719E+03  0.58101518906E+03  0.00000000000E+00 0.  1.
          4    1    6    6  502    0 -0.70952105399E+02  0.91014656220E+00 -0.48128466808E+02  0.85740182789E+02  0.00000000000E+00 0. -1.
         -3    1    6    6    0  502 -0.45415455756E+03  0.11506163317E+01 -0.58605585027E+03  0.74143047260E+03  0.00000000000E+00 0.  1.
<mgrwt>
<rscale>  0 0.12046967E+04</rscale>
<asrwt>0</asrwt>
<pdfrwt beam="1">  1        1 0.30181159E+00 0.12046967E+04</pdfrwt>
<pdfrwt beam="2">  1       -2 0.16306384E+00 0.12046967E+04</pdfrwt>
<totfact> 0.64764040E-01</totfact>
</mgrwt>
</event>
<event>
12    3  0.3348206E-007  0.7840151E+03  0.7818608E-02  0.9583447E-01
          1   -1    0    0  501    0  0.00000000000E+00  0.00000000000E+00  0.73637616134E+03  0.73637616134E+03  0.00000000000E+00 0. -1.
         -2   -1    0    0    0  501 -0.00000000000E+00 -0.00000000000E+00 -0.98339632949E+03  0.98339632949E+03  0.00000000000E+00 0.  1.
        -24    2    1    2    0    0 -0.19923356626E+03 -0.65265362042E+03 -0.40499607086E+03  0.79750582443E+03  0.79642704682E+02 0.  0.
    5000000    2    1    2    0    0  0.19923356626E+03  0.65265362042E+03  0.15797590272E+03  0.92226666640E+03  0.59997387938E+03 0.  0.
        -24    2    4    4    0    0  0.67061689034E+02  0.72340604783E+03  0.74443404542E+02  0.73402001867E+03  0.73688446582E+02 0.  0.
         24    2    4    4    0    0  0.13217187722E+03 -0.70752427408E+02  0.83532498178E+02  0.18824664773E+03  0.77355096890E+02 0.  0.
         11    1    3    3    0    0 -0.93962539877E+02 -0.18526838723E+03 -0.13115887483E+03  0.24567455028E+03  0.00000000000E+00 0. -1.
        -12    1    3    3    0    0 -0.10527102638E+03 -0.46738523319E+03 -0.27383719603E+03  0.55183127415E+03  0.00000000000E+00 0.  1.
         11    1    5    5    0    0  0.71782070563E+02  0.47928888845E+03  0.27717180640E+02  0.48542635523E+03  0.00000000000E+00 0. -1.
        -12    1    5    5    0    0 -0.47203815286E+01  0.24411715938E+03  0.46726223902E+02  0.24859366345E+03  0.00000000000E+00 0.  1.
          2    1    6    6  502    0  0.60623402879E+02 -0.48003086295E+02  0.19166741249E+01  0.77350933480E+02  0.00000000000E+00 0. -1.
         -1    1    6    6    0  502  0.71548474345E+02 -0.22749341113E+02  0.81615824053E+02  0.11089571425E+03  0.00000000000E+00 0.  1.
<mgrwt>
<rscale>  0 0.78401507E+03</rscale>
<asrwt>0</asrwt>
<pdfrwt beam="1">  1        1 0.11328864E+00 0.78401507E+03</pdfrwt>
<pdfrwt beam="2">  1       -2 0.15129174E+00 0.78401507E+03</pdfrwt>
<totfact> 0.65844671E+00</totfact>
</mgrwt>
</event>
<event>
12    3  0.2212098E-007  0.7330110E+03  0.7818608E-02  0.9662387E-01
         -2   -1    0    0    0  501 -0.00000000000E+00  0.00000000000E+00  0.67037006070E+03  0.67037006070E+03  0.00000000000E+00 0.  1.
          1   -1    0    0  501    0  0.00000000000E+00 -0.00000000000E+00 -0.90077030754E+03  0.90077030754E+03  0.00000000000E+00 0. -1.
        -24    2    1    2    0    0  0.38848993099E+03  0.51684594397E+03 -0.22466181858E+03  0.68907067739E+03  0.79317775034E+02 0.  0.
    5000000    2    1    2    0    0 -0.38848993099E+03 -0.51684594397E+03 -0.57384282704E+01  0.88206969085E+03  0.59996654379E+03 0.  0.
        -24    2    4    4    0    0 -0.14863767283E+03 -0.55377608242E+03 -0.13544933654E+03  0.59449434787E+03  0.79472634545E+02 0.  0.
         24    2    4    4    0    0 -0.23985225815E+03  0.36930138440E+02  0.12971090827E+03  0.28757534297E+03  0.83556671168E+02 0.  0.
         11    1    5    5    0    0 -0.74596163524E+02 -0.31821860348E+03 -0.11596174961E+03  0.34680656653E+03  0.00000000000E+00 0. -1.
        -12    1    5    5    0    0 -0.74041509310E+02 -0.23555747894E+03 -0.19487586930E+02  0.24768778135E+03  0.00000000000E+00 0.  1.
         11    1    3    3    0    0  0.85074829570E+02  0.14469212005E+03 -0.89618971193E+02  0.19027636803E+03  0.00000000000E+00 0. -1.
        -12    1    3    3    0    0  0.30341510142E+03  0.37215382392E+03 -0.13504284738E+03  0.49879430937E+03  0.00000000000E+00 0.  1.
          2    1    6    6  502    0 -0.19771654652E+02 -0.45437139026E+01 -0.11007647251E+02  0.23080987018E+02  0.00000000000E+00 0. -1.
         -1    1    6    6    0  502 -0.22008060350E+03  0.41473852343E+02  0.14071855552E+03  0.26449435596E+03  0.00000000000E+00 0.  1.
<mgrwt>
<rscale>  0 0.73301096E+03</rscale>
<asrwt>0</asrwt>
<pdfrwt beam="1">  1        1 0.13858005E+00 0.73301096E+03</pdfrwt>
<pdfrwt beam="2">  1       -2 0.10313386E+00 0.73301096E+03</pdfrwt>
<totfact> 0.12521172E+01</totfact>
</mgrwt>
</event>
<event>
12    3  0.2212098E-007  0.5235149E+03  0.7818608E-02  0.1007817E+00
          1   -1    0    0  501    0  0.00000000000E+00  0.00000000000E+00  0.37257983147E+03  0.37257983147E+03  0.00000000000E+00 0. -1.
         -2   -1    0    0    0  501 -0.00000000000E+00 -0.00000000000E+00 -0.94996218226E+03  0.94996218226E+03  0.00000000000E+00 0.  1.
        -24    2    1    2    0    0  0.18110895001E+03  0.34672615597E+03  0.47723851895E+01  0.39960747807E+03  0.81510010779E+02 0.  0.
    5000000    2    1    2    0    0 -0.18110895001E+03 -0.34672615597E+03 -0.58215473599E+03  0.92293453566E+03  0.59990377685E+03 0.  0.
        -24    2    4    4    0    0  0.16638704602E+03 -0.30196072617E+02 -0.34004833455E+03  0.38804918356E+03  0.79704749822E+02 0.  0.
         24    2    4    4    0    0 -0.34749599603E+03 -0.31653008335E+03 -0.24210640144E+03  0.53488535211E+03  0.80883059750E+02 0.  0.
         11    1    5    5    0    0  0.12107455615E+03 -0.51544993797E+02 -0.28321639840E+03  0.31229387259E+03  0.00000000000E+00 0. -1.
        -12    1    5    5    0    0  0.45312489868E+02  0.21348921179E+02 -0.56831936150E+02  0.75755310969E+02  0.00000000000E+00 0.  1.
         13    1    3    3    0    0  0.56404134231E+02  0.16885518635E+03 -0.27008843567E+02  0.18006381632E+03  0.00000000000E+00 0. -1.
        -14    1    3    3    0    0  0.12470481578E+03  0.17787096962E+03  0.31781228756E+02  0.21954366175E+03  0.00000000000E+00 0.  1.
          4    1    6    6  502    0 -0.47627665127E+02 -0.40414130057E+02 -0.35100586527E+01  0.62562104388E+02  0.00000000000E+00 0. -1.
         -3    1    6    6    0  502 -0.29986833091E+03 -0.27611595330E+03 -0.23859634278E+03  0.47232324772E+03  0.00000000000E+00 0.  1.
<mgrwt>
<rscale>  0 0.52351494E+03</rscale>
<asrwt>0</asrwt>
<pdfrwt beam="1">  1        1 0.57319974E-01 0.52351494E+03</pdfrwt>
<pdfrwt beam="2">  1       -2 0.14614803E+00 0.52351494E+03</pdfrwt>
<totfact> 0.19247511E+01</totfact>
</mgrwt>
</event>
<event>
12    3  0.2212098E-007  0.6189370E+03  0.7818608E-02  0.9866878E-01
          1   -1    0    0  501    0  0.00000000000E+00  0.00000000000E+00  0.12317409993E+04  0.12317409993E+04  0.00000000000E+00 0. -1.
         -2   -1    0    0    0  501 -0.00000000000E+00 -0.00000000000E+00 -0.32504192247E+03  0.32504192247E+03  0.00000000000E+00 0.  1.
        -24    2    1    2    0    0  0.45105106745E+03  0.18103595316E+03  0.32234155484E+03  0.58858788502E+03  0.79438898722E+02 0.  0.
    5000000    2    1    2    0    0 -0.45105106745E+03 -0.18103595316E+03  0.58435752196E+03  0.96819503672E+03  0.59975564513E+03 0.  0.
        -24    2    4    4    0    0  0.10017517182E+03 -0.14914133125E+03  0.67424804013E+02  0.20761013787E+03  0.79231707124E+02 0.  0.
         24    2    4    4    0    0 -0.55122623927E+03 -0.31894621904E+02  0.51693271795E+03  0.76058489885E+03  0.80014496825E+02 0.  0.
         11    1    5    5    0    0  0.81333762636E+02 -0.66232943685E+02  0.63251015499E+02  0.12248540621E+03  0.00000000000E+00 0. -1.
        -12    1    5    5    0    0  0.18841409181E+02 -0.82908387567E+02  0.41737885146E+01  0.85124731656E+02  0.00000000000E+00 0.  1.
         11    1    3    3    0    0  0.10510371965E+03  0.14459158916E+02  0.46629069585E+02  0.11588843468E+03  0.00000000000E+00 0. -1.
        -12    1    3    3    0    0  0.34594734780E+03  0.16657679424E+03  0.27571248526E+03  0.47269945035E+03  0.00000000000E+00 0.  1.
          4    1    6    6  502    0 -0.36462999788E+03  0.16942945617E+02  0.33596032595E+03  0.49609619972E+03  0.00000000000E+00 0. -1.
         -3    1    6    6    0  502 -0.18659624139E+03 -0.48837567522E+02  0.18097239199E+03  0.26448869912E+03  0.00000000000E+00 0.  1.
<mgrwt>
<rscale>  0 0.61893699E+03</rscale>
<asrwt>0</asrwt>
<pdfrwt beam="1">  1        1 0.18949861E+00 0.61893699E+03</pdfrwt>
<pdfrwt beam="2">  1       -2 0.50006450E-01 0.61893699E+03</pdfrwt>
<totfact> 0.34973652E+01</totfact>
</mgrwt>
</event>
<event>
12    3  0.2212098E-007  0.1230736E+04  0.7818608E-02  0.9086371E-01
          1   -1    0    0  501    0  0.00000000000E+00  0.00000000000E+00  0.19592922877E+04  0.19592922877E+04  0.00000000000E+00 0. -1.
         -2   -1    0    0    0  501 -0.00000000000E+00 -0.00000000000E+00 -0.85687557885E+03  0.85687557885E+03  0.00000000000E+00 0.  1.
        -24    2    1    2    0    0  0.97333913935E+03 -0.63290150610E+03  0.97518241514E+02  0.11676010942E+04  0.76348615884E+02 0.  0.
    5000000    2    1    2    0    0 -0.97333913935E+03  0.63290150610E+03  0.10048984673E+04  0.16485667723E+04  0.59999839716E+03 0.  0.
        -24    2    4    4    0    0 -0.57462610102E+03  0.31268679331E+02  0.46674913243E+03  0.74527008035E+03  0.79999085958E+02 0.  0.
         24    2    4    4    0    0 -0.39871303833E+03  0.60163282677E+03  0.53814933486E+03  0.90329669196E+03  0.73525926864E+02 0.  0.
         11    1    3    3    0    0  0.32754665265E+03 -0.19361946939E+03  0.64066063877E+02  0.38584941250E+03  0.00000000000E+00 0. -1.
        -12    1    3    3    0    0  0.64579248670E+03 -0.43928203671E+03  0.33452177638E+02  0.78175168170E+03  0.00000000000E+00 0.  1.
         13    1    5    5    0    0 -0.30839889317E+03  0.41873592605E+02  0.21146392155E+03  0.37627153119E+03  0.00000000000E+00 0. -1.
        -14    1    5    5    0    0 -0.26622720785E+03 -0.10604913274E+02  0.25528521088E+03  0.36899854916E+03  0.00000000000E+00 0.  1.
          4    1    6    6  502    0 -0.74008670391E+01  0.56588835438E+01 -0.10883543358E+01  0.93797820365E+01  0.00000000000E+00 0. -1.
         -3    1    6    6    0  502 -0.39131217129E+03  0.59597394323E+03  0.53923768920E+03  0.89391690993E+03  0.00000000000E+00 0.  1.
<mgrwt>
<rscale>  0 0.12307356E+04</rscale>
<asrwt>0</asrwt>
<pdfrwt beam="1">  1        1 0.30142958E+00 0.12307356E+04</pdfrwt>
<pdfrwt beam="2">  1       -2 0.13182701E+00 0.12307356E+04</pdfrwt>
<totfact> 0.11391947E+00</totfact>
</mgrwt>
</event>
<event>
12    3  0.2212098E-007  0.9944087E+03  0.7818608E-02  0.9314699E-01
         -2   -1    0    0    0  501 -0.00000000000E+00  0.00000000000E+00  0.57876476261E+03  0.57876476261E+03  0.00000000000E+00 0.  1.
          1   -1    0    0  501    0  0.00000000000E+00 -0.00000000000E+00 -0.19255492835E+04  0.19255492835E+04  0.00000000000E+00 0. -1.
        -24    2    1    2    0    0 -0.40635597632E+03 -0.84812303828E+03 -0.89406873837E+03  0.13000551518E+04  0.79665683788E+02 0.  0.
    5000000    2    1    2    0    0  0.40635597632E+03  0.84812303828E+03 -0.45271578257E+03  0.12042588944E+04  0.60070794684E+03 0.  0.
        -24    2    4    4    0    0 -0.58291412573E+02  0.38659148280E+03 -0.36119809467E+03  0.53812396417E+03  0.79135793870E+02 0.  0.
         24    2    4    4    0    0  0.46464738889E+03  0.46153155548E+03 -0.91517687900E+02  0.66613493022E+03  0.80322383926E+02 0.  0.
         13    1    3    3    0    0 -0.17119043513E+03 -0.30080472346E+03 -0.36991581318E+03  0.50658400643E+03  0.00000000000E+00 0. -1.
        -14    1    3    3    0    0 -0.23516554119E+03 -0.54731831482E+03 -0.52415292519E+03  0.79347114534E+03  0.00000000000E+00 0.  1.
         13    1    5    5    0    0 -0.42020625105E+02  0.20767645933E+03 -0.24617439400E+03  0.32480313569E+03  0.00000000000E+00 0. -1.
        -14    1    5    5    0    0 -0.16270787468E+02  0.17891502347E+03 -0.11502370067E+03  0.21332082848E+03  0.00000000000E+00 0.  1.
          2    1    6    6  502    0  0.33649269486E+03  0.31682787132E+03 -0.99140035400E+02  0.47269015259E+03  0.00000000000E+00 0. -1.
         -1    1    6    6    0  502  0.12815469403E+03  0.14470368416E+03  0.76223474994E+01  0.19344477763E+03  0.00000000000E+00 0.  1.
<mgrwt>
<rscale>  0 0.99440866E+03</rscale>
<asrwt>0</asrwt>
<pdfrwt beam="1">  1        1 0.29623835E+00 0.99440866E+03</pdfrwt>
<pdfrwt beam="2">  1       -2 0.89040732E-01 0.99440866E+03</pdfrwt>
<totfact> 0.32040006E+00</totfact>
</mgrwt>
</event>
<event>
12    3  0.2212098E-007  0.1221643E+04  0.7818608E-02  0.9094121E-01
         -4   -1    0    0    0  501 -0.00000000000E+00  0.00000000000E+00  0.11726655377E+04  0.11726655377E+04  0.00000000000E+00 0.  1.
          3   -1    0    0  501    0  0.00000000000E+00 -0.00000000000E+00 -0.13809704329E+04  0.13809704329E+04  0.00000000000E+00 0. -1.
        -24    2    1    2    0    0  0.81160172307E+01  0.12000652027E+04 -0.12839205385E+03  0.12095072741E+04  0.78746212912E+02 0.  0.
    5000000    2    1    2    0    0 -0.81160172307E+01 -0.12000652027E+04 -0.79912841321E+02  0.13441286966E+04  0.60006127203E+03 0.  0.
        -24    2    4    4    0    0 -0.70140343606E+02 -0.11309755551E+03  0.16495949057E+03  0.22564789278E+03  0.77424886982E+02 0.  0.
         24    2    4    4    0    0  0.62024326375E+02 -0.10869676472E+04 -0.24487233189E+03  0.11184808038E+04  0.75439819424E+02 0.  0.
         11    1    5    5    0    0 -0.82906118383E+02 -0.10953102321E+03  0.13369326330E+03  0.19168817951E+03  0.00000000000E+00 0. -1.
        -12    1    5    5    0    0  0.12765774777E+02 -0.35665323070E+01  0.31266227265E+02  0.33959713275E+02  0.00000000000E+00 0.  1.
         13    1    3    3    0    0 -0.23429671920E+02  0.98731908880E+03 -0.10665437049E+03  0.99333936164E+03  0.00000000000E+00 0. -1.
        -14    1    3    3    0    0  0.31545689150E+02  0.21274611392E+03 -0.21737683354E+02  0.21616791245E+03  0.00000000000E+00 0.  1.
          2    1    6    6  502    0  0.49097917971E+02 -0.41420632904E+03 -0.66695522266E+02  0.42240475998E+03  0.00000000000E+00 0. -1.
         -1    1    6    6    0  502  0.12926408404E+02 -0.67276131817E+03 -0.17817680962E+03  0.69607604380E+03  0.00000000000E+00 0.  1.
<mgrwt>
<rscale>  0 0.12216426E+04</rscale>
<asrwt>0</asrwt>
<pdfrwt beam="1">  1        3 0.21245699E+00 0.12216426E+04</pdfrwt>
<pdfrwt beam="2">  1       -4 0.18041008E+00 0.12216426E+04</pdfrwt>
<totfact> 0.47607058E-02</totfact>
</mgrwt>
</event>
<event>
12    3  0.2212098E-007  0.3659663E+03  0.7818608E-02  0.1056246E+00
         -2   -1    0    0    0  501 -0.00000000000E+00  0.00000000000E+00  0.29289895384E+03  0.29289895384E+03  0.00000000000E+00 0.  1.
          1   -1    0    0  501    0  0.00000000000E+00 -0.00000000000E+00 -0.60756922287E+03  0.60756922287E+03  0.00000000000E+00 0. -1.
        -24    2    1    2    0    0  0.19128201203E+03 -0.38217318612E+02 -0.10588834411E+03  0.23586162552E+03  0.79805973477E+02 0.  0.
    5000000    2    1    2    0    0 -0.19128201203E+03  0.38217318612E+02 -0.20878192492E+03  0.66460655119E+03  0.60005216785E+03 0.  0.
        -24    2    4    4    0    0  0.16320723205E+03  0.53372898079E+02  0.74269383682E+02  0.20390920243E+03  0.81103357775E+02 0.  0.
         24    2    4    4    0    0 -0.35448924408E+03 -0.15155579467E+02 -0.28305130860E+03  0.46069734876E+03  0.78941041848E+02 0.  0.
         11    1    3    3    0    0  0.15797811392E+03 -0.31758059915E+02 -0.11812484592E+03  0.19979774291E+03  0.00000000000E+00 0. -1.
        -12    1    3    3    0    0  0.33303898112E+02 -0.64592586971E+01  0.12236501806E+02  0.36063882609E+02  0.00000000000E+00 0.  1.
         11    1    5    5    0    0  0.85997819552E+02  0.46189495548E+02  0.15894697686E+01  0.97630020387E+02  0.00000000000E+00 0. -1.
        -12    1    5    5    0    0  0.77209412497E+02  0.71834025302E+01  0.72679913913E+02  0.10627918205E+03  0.00000000000E+00 0.  1.
          4    1    6    6  502    0 -0.17126127015E+03  0.27827610358E+02 -0.15857672980E+03  0.23505611625E+03  0.00000000000E+00 0. -1.
         -3    1    6    6    0  502 -0.18322797393E+03 -0.42983189825E+02 -0.12447457881E+03  0.22564123251E+03  0.00000000000E+00 0.  1.
<mgrwt>
<rscale>  0 0.36596628E+03</rscale>
<asrwt>0</asrwt>
<pdfrwt beam="1">  1        1 0.93472186E-01 0.36596628E+03</pdfrwt>
<pdfrwt beam="2">  1       -2 0.45061378E-01 0.36596628E+03</pdfrwt>
<totfact> 0.14344353E+02</totfact>
</mgrwt>
</event>
<event>
12    3  0.2212098E-007  0.5957542E+03  0.7818608E-02  0.9914254E-01
         -2   -1    0    0    0  501 -0.00000000000E+00  0.00000000000E+00  0.28497746655E+03  0.28497746655E+03  0.00000000000E+00 0.  1.
          1   -1    0    0  501    0  0.00000000000E+00 -0.00000000000E+00 -0.24972118722E+04  0.24972118722E+04  0.00000000000E+00 0. -1.
        -24    2    1    2    0    0 -0.56517794508E+03  0.12315464946E+03 -0.17154341960E+04  0.18119874615E+04  0.77400919983E+02 0.  0.
    5000000    2    1    2    0    0  0.56517794508E+03 -0.12315464946E+03 -0.49680020962E+03  0.97020187725E+03  0.59990670697E+03 0.  0.
        -24    2    4    4    0    0  0.49023206866E+03 -0.86063246500E+02 -0.46989465213E+02  0.50617001170E+03  0.79156221221E+02 0.  0.
         24    2    4    4    0    0  0.74945876412E+02 -0.37091402962E+02 -0.44981074440E+03  0.46403186555E+03  0.77480383999E+02 0.  0.
         11    1    5    5    0    0  0.46639836380E+03 -0.63272538039E+02 -0.48472132792E+02  0.47316001045E+03  0.00000000000E+00 0. -1.
        -12    1    5    5    0    0  0.23833704860E+02 -0.22790708461E+02  0.14826675793E+01  0.33010001252E+02  0.00000000000E+00 0.  1.
         13    1    3    3    0    0 -0.42508760490E+03  0.96763967119E+02 -0.11820835773E+04  0.12599144102E+04  0.00000000000E+00 0. -1.
        -14    1    3    3    0    0 -0.14009034018E+03  0.26390682344E+02 -0.53335061869E+03  0.55207305131E+03  0.00000000000E+00 0.  1.
          2    1    6    6  502    0 -0.13873611338E+02 -0.71976136172E+01 -0.12495326758E+03  0.12592697015E+03  0.00000000000E+00 0. -1.
         -1    1    6    6    0  502  0.88819487750E+02 -0.29893789345E+02 -0.32485747682E+03  0.33810489540E+03  0.00000000000E+00 0.  1.
<mgrwt>
<rscale>  0 0.59575419E+03</rscale>
<asrwt>0</asrwt>
<pdfrwt beam="1">  1        1 0.38418644E+00 0.59575419E+03</pdfrwt>
<pdfrwt beam="2">  1       -2 0.43842687E-01 0.59575419E+03</pdfrwt>
<totfact> 0.63909691E+00</totfact>
</mgrwt>
</event>
<event>
12    3  0.2212098E-007  0.7383392E+03  0.7818608E-02  0.9653824E-01
         -2   -1    0    0    0  501 -0.00000000000E+00  0.00000000000E+00  0.76998017279E+03  0.76998017279E+03  0.00000000000E+00 0.  1.
          1   -1    0    0  501    0  0.00000000000E+00 -0.00000000000E+00 -0.73726883825E+03  0.73726883825E+03  0.00000000000E+00 0. -1.
        -24    2    1    2    0    0 -0.48252123208E+03  0.40291974319E+03  0.72130446565E+02  0.63748772691E+03  0.77567659357E+02 0.  0.
    5000000    2    1    2    0    0  0.48252123208E+03 -0.40291974319E+03 -0.39419112024E+02  0.86976128413E+03  0.59979977169E+03 0.  0.
        -24    2    4    4    0    0  0.51936961921E+03 -0.50684014796E+03 -0.48702694917E+02  0.73169197246E+03  0.79808853708E+02 0.  0.
         24    2    4    4    0    0 -0.36848387130E+02  0.10392040478E+03  0.92835828923E+01  0.13806931167E+03  0.82581449190E+02 0.  0.
         11    1    5    5    0    0  0.34014467102E+03 -0.28021861933E+03 -0.17028493925E+02  0.44103383255E+03  0.00000000000E+00 0. -1.
        -12    1    5    5    0    0  0.17922494819E+03 -0.22662152863E+03 -0.31674200992E+02  0.29065813991E+03  0.00000000000E+00 0.  1.
         11    1    3    3    0    0 -0.39834784035E+03  0.36630411410E+03  0.53299230705E+02  0.54378351751E+03  0.00000000000E+00 0. -1.
        -12    1    3    3    0    0 -0.84173391728E+02  0.36615629087E+02  0.18831215860E+02  0.93704209399E+02  0.00000000000E+00 0.  1.
          4    1    6    6  502    0  0.31140096965E+01  0.29088183823E+02 -0.32310808354E+02  0.43586785050E+02  0.00000000000E+00 0. -1.
         -3    1    6    6    0  502 -0.39962396827E+02  0.74832220953E+02  0.41594391247E+02  0.94482526618E+02  0.00000000000E+00 0.  1.
<mgrwt>
<rscale>  0 0.73833922E+03</rscale>
<asrwt>0</asrwt>
<pdfrwt beam="1">  1        1 0.11342597E+00 0.73833922E+03</pdfrwt>
<pdfrwt beam="2">  1       -2 0.11845849E+00 0.73833922E+03</pdfrwt>
<totfact> 0.12349039E+01</totfact>
</mgrwt>
</event>
<event>
12    3  0.2212098E-007  0.2805856E+03  0.7818608E-02  0.1095370E+00
         -2   -1    0    0    0  501 -0.00000000000E+00  0.00000000000E+00  0.19881926847E+04  0.19881926847E+04  0.00000000000E+00 0.  1.
          1   -1    0    0  501    0  0.00000000000E+00 -0.00000000000E+00 -0.16538175787E+03  0.16538175787E+03  0.00000000000E+00 0. -1.
        -24    2    1    2    0    0 -0.10547507229E+03  0.21671695283E+03  0.12927571603E+04  0.13174482999E+04  0.79735304780E+02 0.  0.
    5000000    2    1    2    0    0  0.10547507229E+03 -0.21671695283E+03  0.53005376647E+03  0.83612614263E+03  0.60004891677E+03 0.  0.
        -24    2    4    4    0    0  0.12083770170E+03 -0.57809605642E+02  0.61807941762E+03  0.63730119941E+03  0.78657177850E+02 0.  0.
         24    2    4    4    0    0 -0.15362629409E+02 -0.15890734719E+03 -0.88025651156E+02  0.19882494321E+03  0.79342847238E+02 0.  0.
         11    1    5    5    0    0  0.39869680502E+02 -0.35490809315E+02  0.10931523531E+03  0.12165118018E+03  0.00000000000E+00 0. -1.
        -12    1    5    5    0    0  0.80968021194E+02 -0.22318796327E+02  0.50876418232E+03  0.51565001923E+03  0.00000000000E+00 0.  1.
         13    1    3    3    0    0 -0.31172684806E+02  0.11810130759E+03  0.47656674989E+03  0.49197105833E+03  0.00000000000E+00 0. -1.
        -14    1    3    3    0    0 -0.74302387480E+02  0.98615645244E+02  0.81619041043E+03  0.82547724157E+03  0.00000000000E+00 0.  1.
          4    1    6    6  502    0 -0.39079195332E+02 -0.36406630645E+02 -0.29330415964E+02  0.60933566803E+02  0.00000000000E+00 0. -1.
         -3    1    6    6    0  502  0.23716565922E+02 -0.12250071655E+03 -0.58695235192E+02  0.13789137641E+03  0.00000000000E+00 0.  1.
<mgrwt>
<rscale>  0 0.28058563E+03</rscale>
<asrwt>0</asrwt>
<pdfrwt beam="1">  1        1 0.25443349E-01 0.28058563E+03</pdfrwt>
<pdfrwt beam="2">  1       -2 0.30587578E+00 0.28058563E+03</pdfrwt>
<totfact> 0.55627741E+00</totfact>
</mgrwt>
</event>
<event>
12    3  0.2212098E-007  0.3745311E+03  0.7818608E-02  0.1052974E+00
         -2   -1    0    0    0  501 -0.00000000000E+00  0.00000000000E+00  0.68612162157E+02  0.68612162157E+02  0.00000000000E+00 0.  1.
          1   -1    0    0  501    0  0.00000000000E+00 -0.00000000000E+00 -0.26861604991E+04  0.26861604991E+04  0.00000000000E+00 0. -1.
        -24    2    1    2    0    0  0.19884229748E+03  0.56258422208E+02 -0.71801299664E+03  0.75204083968E+03  0.85554028907E+02 0.  0.
    5000000    2    1    2    0    0 -0.19884229748E+03 -0.56258422208E+02 -0.18995353403E+04  0.20027318215E+04  0.59999747564E+03 0.  0.
        -24    2    4    4    0    0 -0.19888625961E+03 -0.26000235323E+03 -0.15814429708E+04  0.16166702518E+04  0.74188039091E+02 0.  0.
         24    2    4    4    0    0  0.43962130211E-01  0.20374393102E+03 -0.31809236949E+03  0.38606156979E+03  0.79681797056E+02 0.  0.
         11    1    5    5    0    0 -0.15656350331E+03 -0.23204107159E+03 -0.12210076564E+04  0.12526830750E+04  0.00000000000E+00 0. -1.
        -12    1    5    5    0    0 -0.42322756296E+02 -0.27961281632E+02 -0.36043531436E+03  0.36398717671E+03  0.00000000000E+00 0.  1.
         13    1    3    3    0    0  0.49380363819E+02  0.24842570281E+02 -0.89142541707E+02  0.10489025870E+03  0.00000000000E+00 0. -1.
        -14    1    3    3    0    0  0.14946193366E+03  0.31415851927E+02 -0.62887045493E+03  0.64715058097E+03  0.00000000000E+00 0.  1.
          2    1    6    6  502    0 -0.25883613652E+02  0.11937453777E+03 -0.13052763442E+03  0.17876718119E+03  0.00000000000E+00 0. -1.
         -1    1    6    6    0  502  0.25927575782E+02  0.84369393248E+02 -0.18756473507E+03  0.20729438860E+03  0.00000000000E+00 0.  1.
<mgrwt>
<rscale>  0 0.37453113E+03</rscale>
<asrwt>0</asrwt>
<pdfrwt beam="1">  1        1 0.41325547E+00 0.37453113E+03</pdfrwt>
<pdfrwt beam="2">  1       -2 0.10555717E-01 0.37453113E+03</pdfrwt>
<totfact> 0.61912667E+01</totfact>
</mgrwt>
</event>
<event>
12    3  0.2212098E-007  0.5478401E+03  0.7818608E-02  0.1001995E+00
          1   -1    0    0  501    0  0.00000000000E+00  0.00000000000E+00  0.14414687250E+04  0.14414687250E+04  0.00000000000E+00 0. -1.
         -2   -1    0    0    0  501 -0.00000000000E+00 -0.00000000000E+00 -0.23682108838E+03  0.23682108838E+03  0.00000000000E+00 0.  1.
        -24    2    1    2    0    0 -0.14778006561E+03 -0.35810299658E+03  0.70057568513E+03  0.80416288302E+03  0.76124555008E+02 0.  0.
    5000000    2    1    2    0    0  0.14778006561E+03  0.35810299658E+03  0.50407195149E+03  0.87412693035E+03  0.59994387582E+03 0.  0.
        -24    2    4    4    0    0  0.10788506809E+03 -0.14636532894E+03  0.95887207548E+02  0.21923213330E+03  0.76199568686E+02 0.  0.
         24    2    4    4    0    0  0.39894997524E+02  0.50446832552E+03  0.40818474394E+03  0.65489479705E+03  0.78692488418E+02 0.  0.
         11    1    5    5    0    0  0.98154761568E+02 -0.71930426044E+02  0.65979291934E+02  0.13842546866E+03  0.00000000000E+00 0. -1.
        -12    1    5    5    0    0  0.97303065224E+01 -0.74434902898E+02  0.29907915615E+02  0.80806664644E+02  0.00000000000E+00 0.  1.
         13    1    3    3    0    0 -0.61780386947E+02 -0.22496196853E+03  0.46482933491E+03  0.52008750618E+03  0.00000000000E+00 0. -1.
        -14    1    3    3    0    0 -0.85999678667E+02 -0.13314102805E+03  0.23574635022E+03  0.28407537684E+03  0.00000000000E+00 0.  1.
          2    1    6    6  502    0  0.31229542324E+02  0.19049718607E+03  0.11199408133E+03  0.22317512510E+03  0.00000000000E+00 0. -1.
         -1    1    6    6    0  502  0.86654551995E+01  0.31397113946E+03  0.29619066261E+03  0.43171967194E+03  0.00000000000E+00 0.  1.
<mgrwt>
<rscale>  0 0.54784011E+03</rscale>
<asrwt>0</asrwt>
<pdfrwt beam="1">  1        1 0.22176441E+00 0.54784011E+03</pdfrwt>
<pdfrwt beam="2">  1       -2 0.36434014E-01 0.54784011E+03</pdfrwt>
<totfact> 0.46995391E+01</totfact>
</mgrwt>
</event>
<event>
12    3  0.2212098E-007  0.9411491E+03  0.7818608E-02  0.9375556E-01
         -2   -1    0    0    0  501 -0.00000000000E+00  0.00000000000E+00  0.55339657643E+03  0.55339657643E+03  0.00000000000E+00 0.  1.
          1   -1    0    0  501    0  0.00000000000E+00 -0.00000000000E+00 -0.23241788269E+04  0.23241788269E+04  0.00000000000E+00 0. -1.
        -24    2    1    2    0    0  0.81598827280E+03 -0.23324599375E+03 -0.16156137065E+04  0.18266967218E+04  0.79829253143E+02 0.  0.
    5000000    2    1    2    0    0 -0.81598827280E+03  0.23324599375E+03 -0.15516854389E+03  0.10508786815E+04  0.60002347564E+03 0.  0.
        -24    2    4    4    0    0 -0.70961686891E+03 -0.60025687506E+02 -0.11424548009E+03  0.72571859225E+03  0.80350865726E+02 0.  0.
         24    2    4    4    0    0 -0.10637140389E+03  0.29327168125E+03 -0.40923063809E+02  0.32516008927E+03  0.82044085165E+02 0.  0.
         13    1    3    3    0    0  0.37465363868E+03 -0.66114608001E+02 -0.71100215863E+03  0.80638735106E+03  0.00000000000E+00 0. -1.
        -14    1    3    3    0    0  0.44133463412E+03 -0.16713138575E+03 -0.90461154789E+03  0.10203093707E+04  0.00000000000E+00 0.  1.
         13    1    5    5    0    0 -0.41056625016E+03 -0.74486754354E+02 -0.65855351624E+02  0.42243324878E+03  0.00000000000E+00 0. -1.
        -14    1    5    5    0    0 -0.29905061875E+03  0.14461066848E+02 -0.48390128461E+02  0.30328534347E+03  0.00000000000E+00 0.  1.
          4    1    6    6  502    0 -0.45118670943E+02  0.16599725888E+03  0.16239961049E+02  0.17278460799E+03  0.00000000000E+00 0. -1.
         -3    1    6    6    0  502 -0.61252732947E+02  0.12727442238E+03 -0.57163024858E+02  0.15237548128E+03  0.00000000000E+00 0.  1.
<mgrwt>
<rscale>  0 0.94114913E+03</rscale>
<asrwt>0</asrwt>
<pdfrwt beam="1">  1        1 0.35756597E+00 0.94114913E+03</pdfrwt>
<pdfrwt beam="2">  1       -2 0.85137937E-01 0.94114913E+03</pdfrwt>
<totfact> 0.19257735E+00</totfact>
</mgrwt>
</event>
<event>
12    3  0.2212098E-007  0.3921163E+03  0.7818608E-02  0.1046544E+00
         -2   -1    0    0    0  501 -0.00000000000E+00  0.00000000000E+00  0.10178229087E+04  0.10178229087E+04  0.00000000000E+00 0.  1.
          1   -1    0    0  501    0  0.00000000000E+00 -0.00000000000E+00 -0.26479084760E+03  0.26479084760E+03  0.00000000000E+00 0. -1.
        -24    2    1    2    0    0  0.10100180485E+03  0.28880885834E+03  0.43496792355E+03  0.53775579558E+03  0.79826561505E+02 0.  0.
    5000000    2    1    2    0    0 -0.10100180485E+03 -0.28880885834E+03  0.31806413751E+03  0.74485796067E+03  0.60003055320E+03 0.  0.
        -24    2    4    4    0    0  0.97405522238E+01 -0.33907158014E+03  0.43555284332E+03  0.55789981227E+03  0.80507803328E+02 0.  0.
         24    2    4    4    0    0 -0.11074235707E+03  0.50262721794E+02 -0.11748870581E+03  0.18695814840E+03  0.79746739179E+02 0.  0.
         11    1    3    3    0    0  0.96515319688E+02  0.29168975991E+03  0.41068287833E+03  0.51289233717E+03  0.00000000000E+00 0. -1.
        -12    1    3    3    0    0  0.44864851577E+01 -0.28809015659E+01  0.24285045220E+02  0.24863458413E+02  0.00000000000E+00 0.  1.
         13    1    5    5    0    0  0.40893553679E+02 -0.18408110468E+03  0.26624618035E+03  0.32625935141E+03  0.00000000000E+00 0. -1.
        -14    1    5    5    0    0 -0.31153001456E+02 -0.15499047546E+03  0.16930666297E+03  0.23164046087E+03  0.00000000000E+00 0.  1.
          2    1    6    6  502    0 -0.46382918511E+02  0.36891968278E+02 -0.10422926286E+03  0.11990050746E+03  0.00000000000E+00 0. -1.
         -1    1    6    6    0  502 -0.64359438558E+02  0.13370753517E+02 -0.13259442947E+02  0.67057640940E+02  0.00000000000E+00 0.  1.
<mgrwt>
<rscale>  0 0.39211634E+03</rscale>
<asrwt>0</asrwt>
<pdfrwt beam="1">  1        1 0.40737054E-01 0.39211634E+03</pdfrwt>
<pdfrwt beam="2">  1       -2 0.15658814E+00 0.39211634E+03</pdfrwt>
<totfact> 0.25325521E+01</totfact>
</mgrwt>
</event>
<event>
12    3  0.2212098E-007  0.7233202E+03  0.7818608E-02  0.9678162E-01
          1   -1    0    0  501    0  0.00000000000E+00  0.00000000000E+00  0.18822409041E+04  0.18822409041E+04  0.00000000000E+00 0. -1.
         -2   -1    0    0    0  501 -0.00000000000E+00 -0.00000000000E+00 -0.30453456143E+03  0.30453456143E+03  0.00000000000E+00 0.  1.
        -24    2    1    2    0    0  0.36154787929E+02  0.60032614056E+03  0.96294259116E+03  0.11382442802E+04  0.81504379368E+02 0.  0.
    5000000    2    1    2    0    0 -0.36154787929E+02 -0.60032614056E+03  0.61476375148E+03  0.10485311853E+04  0.59982041699E+03 0.  0.
        -24    2    4    4    0    0 -0.29340728161E+03 -0.43911712625E+03  0.35609094011E+03  0.64176179915E+03  0.78394934498E+02 0.  0.
         24    2    4    4    0    0  0.25725249368E+03 -0.16120901432E+03  0.25867281136E+03  0.40676938613E+03  0.79890664967E+02 0.  0.
         11    1    3    3    0    0  0.72778914732E+01  0.63820784972E+02  0.62096671452E+02  0.89342357839E+02  0.00000000000E+00 0. -1.
        -12    1    3    3    0    0  0.28876896456E+02  0.53650535559E+03  0.90084591970E+03  0.10489019224E+04  0.00000000000E+00 0.  1.
         13    1    5    5    0    0 -0.66770497988E+02 -0.16526423814E+03  0.11081275755E+03  0.20988100211E+03  0.00000000000E+00 0. -1.
        -14    1    5    5    0    0 -0.22663678362E+03 -0.27385288811E+03  0.24527818256E+03  0.43188079704E+03  0.00000000000E+00 0.  1.
          4    1    6    6  502    0  0.16306255283E+03 -0.13987140125E+03  0.15386092981E+03  0.26424721520E+03  0.00000000000E+00 0. -1.
         -3    1    6    6    0  502  0.94189940851E+02 -0.21337613071E+02  0.10481188156E+03  0.14252217092E+03  0.00000000000E+00 0.  1.
<mgrwt>
<rscale>  0 0.72332019E+03</rscale>
<asrwt>0</asrwt>
<pdfrwt beam="1">  1        1 0.28957552E+00 0.72332019E+03</pdfrwt>
<pdfrwt beam="2">  1       -2 0.46851472E-01 0.72332019E+03</pdfrwt>
<totfact> 0.14149228E+01</totfact>
</mgrwt>
</event>
<event>
12    3  0.2212098E-007  0.1062028E+04  0.7818608E-02  0.9243013E-01
          1   -1    0    0  501    0  0.00000000000E+00  0.00000000000E+00  0.17564902364E+04  0.17564902364E+04  0.00000000000E+00 0. -1.
         -2   -1    0    0    0  501 -0.00000000000E+00 -0.00000000000E+00 -0.71464963861E+03  0.71464963861E+03  0.00000000000E+00 0.  1.
        -24    2    1    2    0    0 -0.50788096382E+03 -0.90065435899E+03  0.37830151053E+03  0.11040258584E+04  0.81484449015E+02 0.  0.
    5000000    2    1    2    0    0  0.50788096382E+03  0.90065435899E+03  0.66353908729E+03  0.13671140166E+04  0.59966262707E+03 0.  0.
        -24    2    4    4    0    0  0.50253525432E+03  0.85248689979E+03  0.74526937770E+03  0.12419577393E+04  0.88073745935E+02 0.  0.
         24    2    4    4    0    0  0.53457094976E+01  0.48167459194E+02 -0.81730290411E+02  0.12515627732E+03  0.81459024336E+02 0.  0.
         11    1    3    3    0    0 -0.42451711843E+03 -0.79991138697E+03  0.31549873566E+03  0.95896426578E+03  0.00000000000E+00 0. -1.
        -12    1    3    3    0    0 -0.83363845384E+02 -0.10074297202E+03  0.62802774873E+02  0.14506159264E+03  0.00000000000E+00 0.  1.
         13    1    5    5    0    0  0.27978508319E+03  0.39401743778E+03  0.34246060137E+03  0.59229105813E+03  0.00000000000E+00 0. -1.
        -14    1    5    5    0    0  0.22275017113E+03  0.45846946201E+03  0.40280877633E+03  0.64966668117E+03  0.00000000000E+00 0.  1.
          4    1    6    6  502    0  0.21263030374E+02 -0.17276544951E+02 -0.25218397947E+02  0.37236582297E+02  0.00000000000E+00 0. -1.
         -3    1    6    6    0  502 -0.15917320876E+02  0.65444004145E+02 -0.56511892463E+02  0.87919695019E+02  0.00000000000E+00 0.  1.
<mgrwt>
<rscale>  0 0.10620280E+04</rscale>
<asrwt>0</asrwt>
<pdfrwt beam="1">  1        1 0.27022927E+00 0.10620280E+04</pdfrwt>
<pdfrwt beam="2">  1       -2 0.10994610E+00 0.10620280E+04</pdfrwt>
<totfact> 0.25050534E+00</totfact>
</mgrwt>
</event>
<event>
12    3  0.2212098E-007  0.1594358E+04  0.7818608E-02  0.8824021E-01
         -2   -1    0    0    0  501 -0.00000000000E+00  0.00000000000E+00  0.17555104858E+04  0.17555104858E+04  0.00000000000E+00 0.  1.
          1   -1    0    0  501    0  0.00000000000E+00 -0.00000000000E+00 -0.27325017321E+04  0.27325017321E+04  0.00000000000E+00 0. -1.
        -24    2    1    2    0    0  0.41750312238E+02  0.15830097027E+04 -0.19670000811E+04  0.25264342774E+04  0.78217846962E+02 0.  0.
    5000000    2    1    2    0    0 -0.41750312238E+02 -0.15830097027E+04  0.99000883482E+03  0.19615779404E+04  0.60000642989E+03 0.  0.
        -24    2    4    4    0    0 -0.96325836307E+02 -0.45910979000E+03  0.60466710948E+03  0.76947300996E+03  0.80037077348E+02 0.  0.
         24    2    4    4    0    0  0.54575524069E+02 -0.11238999127E+04  0.38534172534E+03  0.11921049305E+04  0.80600361962E+02 0.  0.
         13    1    5    5    0    0 -0.31699958949E+02 -0.37743313004E+02  0.71333040067E+02  0.86705522772E+02  0.00000000000E+00 0. -1.
        -14    1    5    5    0    0 -0.64625877358E+02 -0.42136647699E+03  0.53333406941E+03  0.68276748718E+03  0.00000000000E+00 0.  1.
         13    1    3    3    0    0 -0.23122993883E+02  0.45635878375E+03 -0.57389308090E+03  0.73358795019E+03  0.00000000000E+00 0. -1.
        -14    1    3    3    0    0  0.64873306121E+02  0.11266509190E+04 -0.13931070002E+04  0.17928463272E+04  0.00000000000E+00 0.  1.
          2    1    6    6  502    0 -0.89885822622E+00 -0.71785186252E+03  0.22934113711E+03  0.75359767890E+03  0.00000000000E+00 0. -1.
         -1    1    6    6    0  502  0.55474382295E+02 -0.40604805020E+03  0.15600058823E+03  0.43850725158E+03  0.00000000000E+00 0.  1.
<mgrwt>
<rscale>  0 0.15943584E+04</rscale>
<asrwt>0</asrwt>
<pdfrwt beam="1">  1        1 0.42038488E+00 0.15943584E+04</pdfrwt>
<pdfrwt beam="2">  1       -2 0.27007854E+00 0.15943584E+04</pdfrwt>
<totfact> 0.36713679E-02</totfact>
</mgrwt>
</event>
<event>
12    3  0.2212098E-007  0.1182745E+04  0.7818608E-02  0.9128095E-01
          1   -1    0    0  501    0  0.00000000000E+00  0.00000000000E+00  0.12356801761E+04  0.12356801761E+04  0.00000000000E+00 0. -1.
         -2   -1    0    0    0  501 -0.00000000000E+00 -0.00000000000E+00 -0.17787878100E+04  0.17787878100E+04  0.00000000000E+00 0.  1.
        -24    2    1    2    0    0  0.93514347638E+03 -0.60065785216E+03  0.63910681491E+03  0.12844603122E+04  0.78087104267E+02 0.  0.
    5000000    2    1    2    0    0 -0.93514347638E+03  0.60065785216E+03 -0.11822144488E+04  0.17300076739E+04  0.60001030990E+03 0.  0.
        -24    2    4    4    0    0 -0.52871764882E+03  0.79636983281E+01 -0.57918253430E+03  0.78841815732E+03  0.80901236645E+02 0.  0.
         24    2    4    4    0    0 -0.40642582756E+03  0.59269415383E+03 -0.60303191453E+03  0.94158951659E+03  0.80467474865E+02 0.  0.
         11    1    5    5    0    0 -0.20168219889E+03  0.12416747487E+02 -0.16635977225E+03  0.26173547485E+03  0.00000000000E+00 0. -1.
        -12    1    5    5    0    0 -0.32703544993E+03 -0.44530491585E+01 -0.41282276205E+03  0.52668268248E+03  0.00000000000E+00 0.  1.
         13    1    3    3    0    0  0.63806341555E+03 -0.37391255333E+03  0.40004957536E+03  0.84081816259E+03  0.00000000000E+00 0. -1.
        -14    1    3    3    0    0  0.29708006083E+03 -0.22674529883E+03  0.23905723955E+03  0.44364214956E+03  0.00000000000E+00 0.  1.
          4    1    6    6  502    0 -0.26386724130E+03  0.31482820101E+03 -0.33640226540E+03  0.53095122314E+03  0.00000000000E+00 0. -1.
         -3    1    6    6    0  502 -0.14255858626E+03  0.27786595282E+03 -0.26662964913E+03  0.41063829345E+03  0.00000000000E+00 0.  1.
<mgrwt>
<rscale>  0 0.11827450E+04</rscale>
<asrwt>0</asrwt>
<pdfrwt beam="1">  1        1 0.19010464E+00 0.11827450E+04</pdfrwt>
<pdfrwt beam="2">  1       -2 0.27365966E+00 0.11827450E+04</pdfrwt>
<totfact> 0.39806383E-01</totfact>
</mgrwt>
</event>
<event>
12    3  0.2212098E-007  0.5010745E+03  0.7818608E-02  0.1013499E+00
         -2   -1    0    0    0  501 -0.00000000000E+00  0.00000000000E+00  0.12279585639E+04  0.12279585639E+04  0.00000000000E+00 0.  1.
          1   -1    0    0  501    0  0.00000000000E+00 -0.00000000000E+00 -0.35136095298E+03  0.35136095298E+03  0.00000000000E+00 0. -1.
        -24    2    1    2    0    0 -0.34589386096E+02 -0.44751345538E+03  0.65491046934E+03  0.79792264641E+03  0.79423601171E+02 0.  0.
    5000000    2    1    2    0    0  0.34589386096E+02  0.44751345538E+03  0.22168714156E+03  0.78139687046E+03  0.59997596790E+03 0.  0.
        -24    2    4    4    0    0 -0.11533362582E+03  0.65115857086E+02 -0.15408095750E+03  0.21950433280E+03  0.83061968213E+02 0.  0.
         24    2    4    4    0    0  0.14992301192E+03  0.38239759829E+03  0.37576809906E+03  0.56189253766E+03  0.76267469640E+02 0.  0.
         11    1    3    3    0    0 -0.66751178117E+01 -0.17109366433E+03  0.31862477033E+03  0.36171721474E+03  0.00000000000E+00 0. -1.
        -12    1    3    3    0    0 -0.27914268284E+02 -0.27641979105E+03  0.33628569901E+03  0.43620543167E+03  0.00000000000E+00 0.  1.
         13    1    5    5    0    0 -0.19483790320E+02 -0.21710633421E+01  0.65906755375E+01  0.20682567668E+02  0.00000000000E+00 0. -1.
        -14    1    5    5    0    0 -0.95849835502E+02  0.67286920429E+02 -0.16067163304E+03  0.19882176513E+03  0.00000000000E+00 0.  1.
          2    1    6    6  502    0  0.47830275776E+02  0.52358996177E+02  0.81962770711E+02  0.10838401886E+03  0.00000000000E+00 0. -1.
         -1    1    6    6    0  502  0.10209273614E+03  0.33003860212E+03  0.29380532835E+03  0.45350851881E+03  0.00000000000E+00 0.  1.
<mgrwt>
<rscale>  0 0.50107449E+03</rscale>
<asrwt>0</asrwt>
<pdfrwt beam="1">  1        1 0.54055532E-01 0.50107449E+03</pdfrwt>
<pdfrwt beam="2">  1       -2 0.18891670E+00 0.50107449E+03</pdfrwt>
<totfact> 0.10332606E+01</totfact>
</mgrwt>
</event>
<event>
12    3  0.2212098E-007  0.4332055E+03  0.7818608E-02  0.1032852E+00
         -2   -1    0    0    0  501 -0.00000000000E+00  0.00000000000E+00  0.20058090668E+03  0.20058090668E+03  0.00000000000E+00 0.  1.
          1   -1    0    0  501    0  0.00000000000E+00 -0.00000000000E+00 -0.15968472128E+04  0.15968472128E+04  0.00000000000E+00 0. -1.
        -24    2    1    2    0    0  0.20708012285E+03  0.27343399196E+03 -0.17261210432E+03  0.39231079177E+03  0.80402074240E+02 0.  0.
    5000000    2    1    2    0    0 -0.20708012285E+03 -0.27343399196E+03 -0.12236542018E+04  0.14051173278E+04  0.59948041988E+03 0.  0.
        -24    2    4    4    0    0  0.51348809419E+02 -0.23521481563E+03 -0.14270716893E+03  0.29117620431E+03  0.80346351322E+02 0.  0.
         24    2    4    4    0    0 -0.25842893227E+03 -0.38219176332E+02 -0.10809470329E+04  0.11139411234E+04  0.64591950467E+02 0.  0.
         11    1    5    5    0    0  0.71126581439E+02 -0.16285144474E+03 -0.11238923293E+03  0.21026393728E+03  0.00000000000E+00 0. -1.
        -12    1    5    5    0    0 -0.19777772019E+02 -0.72363370892E+02 -0.30317936001E+02  0.80912267032E+02  0.00000000000E+00 0.  1.
         11    1    3    3    0    0  0.66263097776E+02  0.15366477999E+03 -0.77558557963E+02  0.18444238301E+03  0.00000000000E+00 0. -1.
        -12    1    3    3    0    0  0.14081702507E+03  0.11976921197E+03 -0.95053546355E+02  0.20786840876E+03  0.00000000000E+00 0.  1.
          2    1    6    6  502    0 -0.68504892110E+02 -0.15167093856E+02 -0.42159035567E+03  0.42738903703E+03  0.00000000000E+00 0. -1.
         -1    1    6    6    0  502 -0.18992404016E+03 -0.23052082475E+02 -0.65935667725E+03  0.68655208642E+03  0.00000000000E+00 0.  1.
<mgrwt>
<rscale>  0 0.43320547E+03</rscale>
<asrwt>0</asrwt>
<pdfrwt beam="1">  1        1 0.24566880E+00 0.43320547E+03</pdfrwt>
<pdfrwt beam="2">  1       -2 0.30858601E-01 0.43320547E+03</pdfrwt>
<totfact> 0.51354158E+01</totfact>
</mgrwt>
</event>
<event>
12    3  0.2212098E-007  0.4525041E+03  0.7818608E-02  0.1026978E+00
         -2   -1    0    0    0  501 -0.00000000000E+00  0.00000000000E+00  0.39228148425E+03  0.39228148425E+03  0.00000000000E+00 0.  1.
          1   -1    0    0  501    0  0.00000000000E+00 -0.00000000000E+00 -0.69712613370E+03  0.69712613370E+03  0.00000000000E+00 0. -1.
        -24    2    1    2    0    0  0.30953885846E+03  0.12078279562E+03 -0.71279498927E+01  0.34148129996E+03  0.78459428605E+02 0.  0.
    5000000    2    1    2    0    0 -0.30953885846E+03 -0.12078279562E+03 -0.29771669956E+03  0.74792631799E+03  0.60029638957E+03 0.  0.
        -24    2    4    4    0    0 -0.29885831881E+03 -0.26471146980E+03 -0.38563789519E+03  0.56079381437E+03  0.79904061634E+02 0.  0.
         24    2    4    4    0    0 -0.10680539649E+02  0.14392867418E+03  0.87921195630E+02  0.18713250362E+03  0.80367282468E+02 0.  0.
         11    1    3    3    0    0  0.22756250998E+03  0.69314854731E+02 -0.35722181023E+02  0.24055211338E+03  0.00000000000E+00 0. -1.
        -12    1    3    3    0    0  0.81976348484E+02  0.51467940886E+02  0.28594231131E+02  0.10092918658E+03  0.00000000000E+00 0.  1.
         13    1    5    5    0    0 -0.12148326980E+03 -0.15394715684E+03 -0.21391897902E+03  0.29020551602E+03  0.00000000000E+00 0. -1.
        -14    1    5    5    0    0 -0.17737504901E+03 -0.11076431296E+03 -0.17171891617E+03  0.27058829836E+03  0.00000000000E+00 0.  1.
          4    1    6    6  502    0 -0.11460987786E+02 -0.74845439019E+01  0.56379271980E+01  0.14804015048E+02  0.00000000000E+00 0. -1.
         -3    1    6    6    0  502  0.78044813716E+00  0.15141321808E+03  0.82283268432E+02  0.17232848857E+03  0.00000000000E+00 0.  1.
<mgrwt>
<rscale>  0 0.45250408E+03</rscale>
<asrwt>0</asrwt>
<pdfrwt beam="1">  1        1 0.10725017E+00 0.45250408E+03</pdfrwt>
<pdfrwt beam="2">  1       -2 0.60350998E-01 0.45250408E+03</pdfrwt>
<totfact> 0.64261250E+01</totfact>
</mgrwt>
</event>
<event>
12    3  0.2212098E-007  0.2979652E+03  0.7818608E-02  0.1086262E+00
         -4   -1    0    0    0  501 -0.00000000000E+00  0.00000000000E+00  0.69971516790E+03  0.69971516790E+03  0.00000000000E+00 0.  1.
          3   -1    0    0  501    0  0.00000000000E+00 -0.00000000000E+00 -0.28005569510E+03  0.28005569510E+03  0.00000000000E+00 0. -1.
        -24    2    1    2    0    0 -0.14312200289E+03  0.69713667732E+02  0.29887642431E+03  0.34761635158E+03  0.78524567452E+02 0.  0.
    5000000    2    1    2    0    0  0.14312200289E+03 -0.69713667732E+02  0.12078304848E+03  0.63215451142E+03  0.59973900851E+03 0.  0.
        -24    2    4    4    0    0  0.27662124520E+03 -0.71286399590E+02  0.28158710707E+03  0.40709973995E+03  0.69554549376E+02 0.  0.
         24    2    4    4    0    0 -0.13349924231E+03  0.15727318580E+01 -0.16080405859E+03  0.22505477146E+03  0.83469657470E+02 0.  0.
         11    1    3    3    0    0  0.17169240931E+01  0.21886604862E+02  0.19738824677E+02  0.29522745475E+02  0.00000000000E+00 0. -1.
        -12    1    3    3    0    0 -0.14483892698E+03  0.47827062870E+02  0.27913759964E+03  0.31809360610E+03  0.00000000000E+00 0.  1.
         11    1    5    5    0    0  0.54083706741E+02 -0.28215329958E+01  0.92376189346E+02  0.10708113158E+03  0.00000000000E+00 0. -1.
        -12    1    5    5    0    0  0.22253753846E+03 -0.68464866594E+02  0.18921091772E+03  0.30001860837E+03  0.00000000000E+00 0.  1.
          2    1    6    6  502    0 -0.16106835658E+02  0.54406112907E+01  0.84918262122E+01  0.19003723807E+02  0.00000000000E+00 0. -1.
         -1    1    6    6    0  502 -0.11739240665E+03 -0.38678794326E+01 -0.16929588480E+03  0.20605104766E+03  0.00000000000E+00 0.  1.
<mgrwt>
<rscale>  0 0.29796524E+03</rscale>
<asrwt>0</asrwt>
<pdfrwt beam="1">  1        3 0.43085492E-01 0.29796524E+03</pdfrwt>
<pdfrwt beam="2">  1       -4 0.10764849E+00 0.29796524E+03</pdfrwt>
<totfact> 0.82012535E+00</totfact>
</mgrwt>
</event>
<event>
12    3  0.2212098E-007  0.6640665E+03  0.7818608E-02  0.9780737E-01
         -2   -1    0    0    0  501 -0.00000000000E+00  0.00000000000E+00  0.15832966654E+04  0.15832966654E+04  0.00000000000E+00 0.  1.
          1   -1    0    0  501    0  0.00000000000E+00 -0.00000000000E+00 -0.39719896700E+03  0.39719896700E+03  0.00000000000E+00 0. -1.
        -24    2    1    2    0    0  0.50338236719E+03  0.24788997478E+03  0.38995177615E+02  0.56956315482E+03  0.89656657581E+02 0.  0.
    5000000    2    1    2    0    0 -0.50338236719E+03 -0.24788997478E+03  0.11471025208E+04  0.14109324776E+04  0.60003584553E+03 0.  0.
        -24    2    4    4    0    0 -0.10154484486E+03 -0.32486534543E+03  0.78259473644E+03  0.85713785764E+03  0.79887028465E+02 0.  0.
         24    2    4    4    0    0 -0.40183752233E+03  0.76975370655E+02  0.36450778436E+03  0.55379461996E+03  0.80149573874E+02 0.  0.
         13    1    3    3    0    0  0.42794091783E+03  0.24405237536E+03  0.36292027408E+02  0.49397581148E+03  0.00000000000E+00 0. -1.
        -14    1    3    3    0    0  0.75441449361E+02  0.38375994125E+01  0.27031502067E+01  0.75587343332E+02  0.00000000000E+00 0.  1.
         13    1    5    5    0    0  0.60103415890E+01 -0.98267035284E+02  0.20400801508E+03  0.22652109096E+03  0.00000000000E+00 0. -1.
        -14    1    5    5    0    0 -0.10755518645E+03 -0.22659831015E+03  0.57858672135E+03  0.63061676668E+03  0.00000000000E+00 0.  1.
          2    1    6    6  502    0 -0.23561684502E+03  0.27322282850E+02  0.16249996417E+03  0.28752050910E+03  0.00000000000E+00 0. -1.
         -1    1    6    6    0  502 -0.16622067731E+03  0.49653087805E+02  0.20200782019E+03  0.26627411085E+03  0.00000000000E+00 0.  1.
<mgrwt>
<rscale>  0 0.66406651E+03</rscale>
<asrwt>0</asrwt>
<pdfrwt beam="1">  1        1 0.61107534E-01 0.66406651E+03</pdfrwt>
<pdfrwt beam="2">  1       -2 0.24358410E+00 0.66406651E+03</pdfrwt>
<totfact> 0.38934904E+00</totfact>
</mgrwt>
</event>
<event>
12    3  0.2212098E-007  0.1091676E+04  0.7818608E-02  0.9213343E-01
          1   -1    0    0  501    0  0.00000000000E+00  0.00000000000E+00  0.16478986300E+04  0.16478986300E+04  0.00000000000E+00 0. -1.
         -2   -1    0    0    0  501 -0.00000000000E+00 -0.00000000000E+00 -0.19578671257E+04  0.19578671257E+04  0.00000000000E+00 0.  1.
        -24    2    1    2    0    0  0.61871252177E+03  0.79990665745E+03 -0.15784593839E+04  0.18761281073E+04  0.75278171931E+02 0.  0.
    5000000    2    1    2    0    0 -0.61871252177E+03 -0.79990665745E+03  0.12684908883E+04  0.17296376484E+04  0.59993450971E+03 0.  0.
        -24    2    4    4    0    0 -0.62357594154E+03 -0.35228562184E+03  0.81109567938E+03  0.10848228758E+04  0.77539386492E+02 0.  0.
         24    2    4    4    0    0  0.48634197682E+01 -0.44762103561E+03  0.45739520889E+03  0.64481477264E+03  0.78660469938E+02 0.  0.
         11    1    3    3    0    0  0.22031156869E+03  0.33900383697E+03 -0.59998992917E+03  0.72349754933E+03  0.00000000000E+00 0. -1.
        -12    1    3    3    0    0  0.39840095308E+03  0.46090282048E+03 -0.97846945473E+03  0.11526305580E+04  0.00000000000E+00 0.  1.
         13    1    5    5    0    0 -0.46030677260E+03 -0.29416220138E+03  0.63731160785E+03  0.83939252505E+03  0.00000000000E+00 0. -1.
        -14    1    5    5    0    0 -0.16326916894E+03 -0.58123420462E+02  0.17378407154E+03  0.24543035072E+03  0.00000000000E+00 0.  1.
          4    1    6    6  502    0 -0.21840698621E+02 -0.20215821474E+03  0.25081366447E+03  0.32288148629E+03  0.00000000000E+00 0. -1.
         -1    1    6    6    0  502  0.26704118389E+02 -0.24546282087E+03  0.20658154442E+03  0.32193328636E+03  0.00000000000E+00 0.  1.
<mgrwt>
<rscale>  0 0.10916762E+04</rscale>
<asrwt>0</asrwt>
<pdfrwt beam="1">  1        1 0.25352287E+00 0.10916762E+04</pdfrwt>
<pdfrwt beam="2">  1       -2 0.30121033E+00 0.10916762E+04</pdfrwt>
<totfact> 0.14130689E-01</totfact>
</mgrwt>
</event>
<event>
12    3  0.2212098E-007  0.1252728E+04  0.7818608E-02  0.9067916E-01
          1   -1    0    0  501    0  0.00000000000E+00  0.00000000000E+00  0.17873079673E+04  0.17873079673E+04  0.00000000000E+00 0. -1.
         -2   -1    0    0    0  501 -0.00000000000E+00 -0.00000000000E+00 -0.11134623535E+04  0.11134623535E+04  0.00000000000E+00 0.  1.
        -24    2    1    2    0    0 -0.10296567935E+04 -0.59907954143E+03  0.96515341521E+03  0.15353096549E+04  0.81025997352E+02 0.  0.
    5000000    2    1    2    0    0  0.10296567935E+04  0.59907954143E+03 -0.29130780142E+03  0.13654606658E+04  0.60044415663E+03 0.  0.
        -24    2    4    4    0    0  0.48106804908E+03 -0.20489455866E+02 -0.20887184779E+03  0.53077278544E+03  0.79031736151E+02 0.  0.
         24    2    4    4    0    0  0.54858874446E+03  0.61956899729E+03 -0.82435953639E+02  0.83468788036E+03  0.71363984004E+02 0.  0.
         11    1    3    3    0    0 -0.31846941634E+03 -0.22295417092E+03  0.28950942990E+03  0.48471336011E+03  0.00000000000E+00 0. -1.
        -12    1    3    3    0    0 -0.71118737720E+03 -0.37612537050E+03  0.67564398531E+03  0.10505962948E+04  0.00000000000E+00 0.  1.
         13    1    5    5    0    0  0.11776973680E+03  0.15189847486E+02 -0.22333051281E+02  0.12082718051E+03  0.00000000000E+00 0. -1.
        -14    1    5    5    0    0  0.36329831228E+03 -0.35679303352E+02 -0.18653879650E+03  0.40994560492E+03  0.00000000000E+00 0.  1.
          4    1    6    6  502    0  0.31641591448E+03  0.32923231135E+03 -0.15066209447E+02  0.45688065886E+03  0.00000000000E+00 0. -1.
         -3    1    6    6    0  502  0.23217282998E+03  0.29033668595E+03 -0.67369744192E+02  0.37780722150E+03  0.00000000000E+00 0.  1.
<mgrwt>
<rscale>  0 0.12527276E+04</rscale>
<asrwt>0</asrwt>
<pdfrwt beam="1">  1        1 0.27497046E+00 0.12527276E+04</pdfrwt>
<pdfrwt beam="2">  1       -2 0.17130190E+00 0.12527276E+04</pdfrwt>
<totfact> 0.73712636E-01</totfact>
</mgrwt>
</event>
<event>
12    3  0.3953904E-007  0.6246499E+03  0.7818608E-02  0.9855545E-01
          1   -1    0    0  501    0  0.00000000000E+00  0.00000000000E+00  0.18498671650E+04  0.18498671650E+04  0.00000000000E+00 0. -1.
         -2   -1    0    0    0  501 -0.00000000000E+00 -0.00000000000E+00 -0.27201926673E+03  0.27201926673E+03  0.00000000000E+00 0.  1.
        -24    2    1    2    0    0 -0.46984793012E+03 -0.80667697442E+02  0.15919517801E+03  0.50947438062E+03  0.83406744094E+02 0.  0.
    5000000    2    1    2    0    0  0.46984793012E+03  0.80667697442E+02  0.14186527203E+04  0.16124120511E+04  0.60002727186E+03 0.  0.
        -24    2    4    4    0    0  0.48826453967E+02  0.27873482327E+03  0.51047681358E+03  0.58889203709E+03  0.78295145693E+02 0.  0.
         24    2    4    4    0    0  0.42102147615E+03 -0.19806712582E+03  0.90817590671E+03  0.10235200140E+04  0.79498879740E+02 0.  0.
         11    1    5    5    0    0 -0.20530780385E+02  0.88821802750E+02  0.17040499122E+03  0.19325808294E+03  0.00000000000E+00 0. -1.
        -12    1    5    5    0    0  0.69357234352E+02  0.18991302052E+03  0.34007182236E+03  0.39563395416E+03  0.00000000000E+00 0.  1.
         11    1    3    3    0    0 -0.17587994426E+03 -0.71423876991E+02  0.60107615793E+02  0.19911818217E+03  0.00000000000E+00 0. -1.
        -12    1    3    3    0    0 -0.29396798587E+03 -0.92438204513E+01  0.99087562213E+02  0.31035619845E+03  0.00000000000E+00 0.  1.
          2    1    6    6  502    0  0.15932384846E+03 -0.11825443856E+03  0.38583598683E+03  0.43386358417E+03  0.00000000000E+00 0. -1.
         -1    1    6    6    0  502  0.26169762769E+03 -0.79812687265E+02  0.52233991988E+03  0.58965642987E+03  0.00000000000E+00 0.  1.
<mgrwt>
<rscale>  0 0.62464985E+03</rscale>
<asrwt>0</asrwt>
<pdfrwt beam="1">  1        1 0.28459494E+00 0.62464985E+03</pdfrwt>
<pdfrwt beam="2">  1       -2 0.41849119E-01 0.62464985E+03</pdfrwt>
<totfact> 0.18884843E+01</totfact>
</mgrwt>
</event>
<event>
12    3  0.2212098E-007  0.6407202E+03  0.7818608E-02  0.9824350E-01
         -2   -1    0    0    0  501 -0.00000000000E+00  0.00000000000E+00  0.16362232119E+04  0.16362232119E+04  0.00000000000E+00 0.  1.
          1   -1    0    0  501    0  0.00000000000E+00 -0.00000000000E+00 -0.36621588891E+03  0.36621588891E+03  0.00000000000E+00 0. -1.
        -24    2    1    2    0    0  0.50044830316E+03  0.81803439445E+02  0.49609649546E+01  0.51332577214E+03  0.79614259603E+02 0.  0.
    5000000    2    1    2    0    0 -0.50044830316E+03 -0.81803439445E+02  0.12650463580E+04  0.14891133286E+04  0.59997992532E+03 0.  0.
        -24    2    4    4    0    0 -0.71203854138E+02 -0.28075831308E+03  0.57440997227E+03  0.64813572223E+03  0.78980244204E+02 0.  0.
         24    2    4    4    0    0 -0.42924444902E+03  0.19895487363E+03  0.69063638574E+03  0.84097760642E+03  0.80192757982E+02 0.  0.
         11    1    5    5    0    0 -0.18737210002E+02 -0.17517223256E+03  0.27780401969E+03  0.32895511464E+03  0.00000000000E+00 0. -1.
        -12    1    5    5    0    0 -0.52466644137E+02 -0.10558608052E+03  0.29660595259E+03  0.31918060758E+03  0.00000000000E+00 0.  1.
         13    1    3    3    0    0  0.21512455313E+03  0.75228615596E+02  0.31289705440E+01  0.22792039931E+03  0.00000000000E+00 0. -1.
        -14    1    3    3    0    0  0.28532375003E+03  0.65748238489E+01  0.18319944106E+01  0.28540537283E+03  0.00000000000E+00 0.  1.
          4    1    6    6  502    0 -0.21220153333E+03  0.11493958680E+03  0.28630501814E+03  0.37444781048E+03  0.00000000000E+00 0. -1.
         -3    1    6    6    0  502 -0.21704291569E+03  0.84015286835E+02  0.40433136760E+03  0.46652979594E+03  0.00000000000E+00 0.  1.
<mgrwt>
<rscale>  0 0.64072017E+03</rscale>
<asrwt>0</asrwt>
<pdfrwt beam="1">  1        1 0.56340907E-01 0.64072017E+03</pdfrwt>
<pdfrwt beam="2">  1       -2 0.25172664E+00 0.64072017E+03</pdfrwt>
<totfact> 0.38814887E+00</totfact>
</mgrwt>
</event>
<event>
12    3  0.2212098E-007  0.4660883E+03  0.7818608E-02  0.1023030E+00
          1   -1    0    0  501    0  0.00000000000E+00  0.00000000000E+00  0.60396167645E+03  0.60396167645E+03  0.00000000000E+00 0. -1.
         -2   -1    0    0    0  501 -0.00000000000E+00 -0.00000000000E+00 -0.79293501386E+03  0.79293501386E+03  0.00000000000E+00 0.  1.
        -24    2    1    2    0    0  0.28921745447E+03  0.32408499975E+03  0.27710377502E+03  0.52163838990E+03  0.81500212629E+02 0.  0.
    5000000    2    1    2    0    0 -0.28921745447E+03 -0.32408499975E+03 -0.46607711243E+03  0.87525830041E+03  0.60014281190E+03 0.  0.
        -24    2    4    4    0    0 -0.19626811398E+03 -0.82343464937E+02 -0.54673019216E+03  0.59208377936E+03  0.79672328844E+02 0.  0.
         24    2    4    4    0    0 -0.92949340483E+02 -0.24174153482E+03  0.80653079730E+02  0.28317452105E+03  0.81267093895E+02 0.  0.
         11    1    3    3    0    0  0.10234135015E+03  0.11746177872E+03  0.54559631102E+02  0.16506899998E+03  0.00000000000E+00 0. -1.
        -12    1    3    3    0    0  0.18687610432E+03  0.20662322103E+03  0.22254414391E+03  0.35656938992E+03  0.00000000000E+00 0.  1.
         11    1    5    5    0    0 -0.15803740554E+03 -0.97823861287E+02 -0.45563567459E+03  0.49208657505E+03  0.00000000000E+00 0. -1.
        -12    1    5    5    0    0 -0.38230708441E+02  0.15480396350E+02 -0.91094517573E+02  0.99997204316E+02  0.00000000000E+00 0.  1.
          4    1    6    6  502    0  0.11436313833E+02 -0.60111544761E+02  0.27264153257E+02  0.66988962826E+02  0.00000000000E+00 0. -1.
         -3    1    6    6    0  502 -0.10438565432E+03 -0.18162999005E+03  0.53388926473E+02  0.21618555822E+03  0.00000000000E+00 0.  1.
<mgrwt>
<rscale>  0 0.46608834E+03</rscale>
<asrwt>0</asrwt>
<pdfrwt beam="1">  1        1 0.92917181E-01 0.46608834E+03</pdfrwt>
<pdfrwt beam="2">  1       -2 0.12199000E+00 0.46608834E+03</pdfrwt>
<totfact> 0.15964605E+01</totfact>
</mgrwt>
</event>
<event>
12    3  0.2212098E-007  0.7276972E+03  0.7818608E-02  0.9671005E-01
         -2   -1    0    0    0  501 -0.00000000000E+00  0.00000000000E+00  0.76894422881E+03  0.76894422881E+03  0.00000000000E+00 0.  1.
          1   -1    0    0  501    0  0.00000000000E+00 -0.00000000000E+00 -0.10472804749E+04  0.10472804749E+04  0.00000000000E+00 0. -1.
        -24    2    1    2    0    0 -0.54038892035E+03 -0.47256567367E+03  0.22129736423E+03  0.75558595338E+03  0.81234896136E+02 0.  0.
    5000000    2    1    2    0    0  0.54038892035E+03  0.47256567367E+03 -0.49963361037E+03  0.10606387504E+04  0.59998526068E+03 0.  0.
        -24    2    4    4    0    0  0.18797201434E+03  0.21434476000E+03  0.10205322671E+03  0.31272342824E+03  0.78127633872E+02 0.  0.
         24    2    4    4    0    0  0.35241690601E+03  0.25822091367E+03 -0.60168683708E+03  0.74791532214E+03  0.80464671031E+02 0.  0.
         11    1    5    5    0    0  0.17634910185E+02  0.14041322282E+01  0.22592160553E+02  0.28694378596E+02  0.00000000000E+00 0. -1.
        -12    1    5    5    0    0  0.17033710415E+03  0.21294062777E+03  0.79461066154E+02  0.28402904964E+03  0.00000000000E+00 0.  1.
         11    1    3    3    0    0 -0.83918529827E+02 -0.11101229150E+03  0.58401768328E+02  0.15091989616E+03  0.00000000000E+00 0. -1.
        -12    1    3    3    0    0 -0.45647039053E+03 -0.36155338217E+03  0.16289559591E+03  0.60466605722E+03  0.00000000000E+00 0.  1.
          4    1    6    6  502    0  0.32724299527E+02  0.57208491597E+02 -0.10499902719E+03  0.12396970195E+03  0.00000000000E+00 0. -1.
         -3    1    6    6    0  502  0.31969260649E+03  0.20101242207E+03 -0.49668780989E+03  0.62394562019E+03  0.00000000000E+00 0.  1.
<mgrwt>
<rscale>  0 0.72769715E+03</rscale>
<asrwt>0</asrwt>
<pdfrwt beam="1">  1        1 0.16112007E+00 0.72769715E+03</pdfrwt>
<pdfrwt beam="2">  1       -2 0.11829911E+00 0.72769715E+03</pdfrwt>
<totfact> 0.68966281E+00</totfact>
</mgrwt>
</event>
<event>
12    3  0.2212098E-007  0.4954859E+03  0.7818608E-02  0.1014964E+00
         -2   -1    0    0    0  501 -0.00000000000E+00  0.00000000000E+00  0.31697276953E+03  0.31697276953E+03  0.00000000000E+00 0.  1.
          1   -1    0    0  501    0  0.00000000000E+00 -0.00000000000E+00 -0.12325815662E+04  0.12325815662E+04  0.00000000000E+00 0. -1.
        -24    2    1    2    0    0  0.71561902248E+01 -0.39618773861E+03 -0.25355905645E+02  0.40516733938E+03  0.80633216929E+02 0.  0.
    5000000    2    1    2    0    0 -0.71561902248E+01  0.39618773861E+03 -0.89025289099E+03  0.11443869963E+04  0.60004620831E+03 0.  0.
        -24    2    4    4    0    0 -0.17215151896E+03  0.38545342432E+03 -0.29375699790E+03  0.52018541796E+03  0.78033373889E+02 0.  0.
         24    2    4    4    0    0  0.16499532873E+03  0.10734314286E+02 -0.59649589309E+03  0.62420157835E+03  0.80508235181E+02 0.  0.
         11    1    5    5    0    0 -0.17339597934E+02  0.12195444491E+03 -0.95996805130E+02  0.15616957093E+03  0.00000000000E+00 0. -1.
        -12    1    5    5    0    0 -0.15481192102E+03  0.26349897941E+03 -0.19776019277E+03  0.36401584702E+03  0.00000000000E+00 0.  1.
         13    1    3    3    0    0  0.18478978682E+01 -0.30378850665E+03  0.15079702567E+02  0.30416815896E+03  0.00000000000E+00 0. -1.
        -14    1    3    3    0    0  0.53082923566E+01 -0.92399231961E+02 -0.40435608211E+02  0.10099918042E+03  0.00000000000E+00 0.  1.
          4    1    6    6  502    0  0.11297115025E+03  0.13268600571E+02 -0.26132216326E+03  0.28500492901E+03  0.00000000000E+00 0. -1.
         -3    1    6    6    0  502  0.52024178485E+02 -0.25342862850E+01 -0.33517372982E+03  0.33919664933E+03  0.00000000000E+00 0.  1.
<mgrwt>
<rscale>  0 0.49548591E+03</rscale>
<asrwt>0</asrwt>
<pdfrwt beam="1">  1        1 0.18962793E+00 0.49548591E+03</pdfrwt>
<pdfrwt beam="2">  1       -2 0.48765041E-01 0.49548591E+03</pdfrwt>
<totfact> 0.37379022E+01</totfact>
</mgrwt>
</event>
<event>
12    3  0.2499467E-007  0.1530597E+04  0.7818608E-02  0.8864357E-01
          1   -1    0    0  501    0  0.00000000000E+00  0.00000000000E+00  0.19166572818E+04  0.19166572818E+04  0.00000000000E+00 0. -1.
         -2   -1    0    0    0  501 -0.00000000000E+00 -0.00000000000E+00 -0.12999134106E+04  0.12999134106E+04  0.00000000000E+00 0.  1.
        -24    2    1    2    0    0 -0.41739339434E+03  0.14146372040E+04  0.67334929355E+03  0.16232541014E+04  0.78351401713E+02 0.  0.
    5000000    2    1    2    0    0  0.41739339434E+03 -0.14146372040E+04 -0.56605422386E+02  0.15933165910E+04  0.60003159988E+03 0.  0.
        -24    2    4    4    0    0  0.41660450575E+03 -0.42854928301E+03 -0.13864224227E+02  0.60311212050E+03  0.79612882141E+02 0.  0.
         24    2    4    4    0    0  0.78888859166E+00 -0.98608792094E+03 -0.42741198160E+02  0.99020447049E+03  0.79423379406E+02 0.  0.
         11    1    3    3    0    0 -0.10188972754E+03  0.45207205913E+03  0.18922957564E+03  0.50055818395E+03  0.00000000000E+00 0. -1.
        -12    1    3    3    0    0 -0.31550366680E+03  0.96256514483E+03  0.48411971791E+03  0.11226959175E+04  0.00000000000E+00 0.  1.
         13    1    5    5    0    0  0.13427100546E+03 -0.11483388017E+03 -0.36662032619E+02  0.18044286514E+03  0.00000000000E+00 0. -1.
        -14    1    5    5    0    0  0.28233350028E+03 -0.31371540284E+03  0.22797808392E+02  0.42266925536E+03  0.00000000000E+00 0.  1.
          4    1    6    6  502    0  0.22151593024E+01 -0.75432525968E+03 -0.66334890748E+02  0.75723960676E+03  0.00000000000E+00 0. -1.
         -3    1    6    6    0  502 -0.14262707107E+01 -0.23176266127E+03  0.23593692588E+02  0.23296486373E+03  0.00000000000E+00 0.  1.
<mgrwt>
<rscale>  0 0.15305969E+04</rscale>
<asrwt>0</asrwt>
<pdfrwt beam="1">  1        1 0.29487035E+00 0.15305969E+04</pdfrwt>
<pdfrwt beam="2">  1       -2 0.19998668E+00 0.15305969E+04</pdfrwt>
<totfact> 0.37185255E-01</totfact>
</mgrwt>
</event>
<event>
12    3  0.2212098E-007  0.7644273E+03  0.7818608E-02  0.9612984E-01
         -2   -1    0    0    0  501 -0.00000000000E+00  0.00000000000E+00  0.40839464276E+03  0.40839464276E+03  0.00000000000E+00 0.  1.
          1   -1    0    0  501    0  0.00000000000E+00 -0.00000000000E+00 -0.23856641280E+04  0.23856641280E+04  0.00000000000E+00 0. -1.
        -24    2    1    2    0    0 -0.71936390027E+03 -0.85893628015E+02 -0.15742608327E+03  0.74567210330E+03  0.79886028852E+02 0.  0.
    5000000    2    1    2    0    0  0.71936390027E+03  0.85893628015E+02 -0.18198434020E+04  0.20483866675E+04  0.59932945477E+03 0.  0.
        -24    2    4    4    0    0  0.71775381977E+02 -0.82242482195E+02 -0.27968713327E+02  0.13384830264E+03  0.72232872421E+02 0.  0.
         24    2    4    4    0    0  0.64758851829E+03  0.16813611021E+03 -0.17918746887E+04  0.19145383648E+04  0.83675623426E+02 0.  0.
         13    1    3    3    0    0 -0.21732038293E+03  0.91141285488E+01 -0.35746111414E+02  0.22042912842E+03  0.00000000000E+00 0. -1.
        -14    1    3    3    0    0 -0.50204351735E+03 -0.95007756564E+02 -0.12167997186E+03  0.52524297489E+03  0.00000000000E+00 0.  1.
         13    1    5    5    0    0  0.86555485686E+02 -0.68576709165E+02 -0.20145115415E+02  0.11225169405E+03  0.00000000000E+00 0. -1.
        -14    1    5    5    0    0 -0.14780103709E+02 -0.13665773030E+02 -0.78235979121E+01  0.21596608587E+02  0.00000000000E+00 0.  1.
          2    1    6    6  502    0  0.14825927132E+03  0.52553038580E+02 -0.33379304113E+03  0.36899922453E+03  0.00000000000E+00 0. -1.
         -1    1    6    6    0  502  0.49932924697E+03  0.11558307163E+03 -0.14580816475E+04  0.15455391403E+04  0.00000000000E+00 0.  1.
<mgrwt>
<rscale>  0 0.76442727E+03</rscale>
<asrwt>0</asrwt>
<pdfrwt beam="1">  1        1 0.36702526E+00 0.76442727E+03</pdfrwt>
<pdfrwt beam="2">  1       -2 0.62829944E-01 0.76442727E+03</pdfrwt>
<totfact> 0.35193507E+00</totfact>
</mgrwt>
</event>
<event>
12    3  0.2212098E-007  0.1331815E+04  0.7818608E-02  0.9004709E-01
          1   -1    0    0  501    0  0.00000000000E+00  0.00000000000E+00  0.18835570329E+04  0.18835570329E+04  0.00000000000E+00 0. -1.
         -2   -1    0    0    0  501 -0.00000000000E+00 -0.00000000000E+00 -0.99735012532E+03  0.99735012532E+03  0.00000000000E+00 0.  1.
        -24    2    1    2    0    0  0.30142971107E+03  0.12656425587E+04  0.50728039019E+03  0.13989209801E+04  0.83279992070E+02 0.  0.
    5000000    2    1    2    0    0 -0.30142971107E+03 -0.12656425587E+04  0.37892651741E+03  0.14819861782E+04  0.59998897464E+03 0.  0.
        -24    2    4    4    0    0 -0.15582399140E+03 -0.11863196581E+03 -0.93088454581E+02  0.23077954324E+03  0.78987831943E+02 0.  0.
         24    2    4    4    0    0 -0.14560571967E+03 -0.11470105929E+04  0.47201497199E+03  0.12512066350E+04  0.76717558574E+02 0.  0.
         11    1    3    3    0    0  0.24313967505E+03  0.91205744845E+03  0.39677532556E+03  0.10239122764E+04  0.00000000000E+00 0. -1.
        -12    1    3    3    0    0  0.58290036018E+02  0.35358511024E+03  0.11050506464E+03  0.37500870362E+03  0.00000000000E+00 0.  1.
         13    1    5    5    0    0 -0.45564252837E+02 -0.34456090752E+01  0.87085363238E+00  0.45702644831E+02  0.00000000000E+00 0. -1.
        -14    1    5    5    0    0 -0.11025973856E+03 -0.11518635673E+03 -0.93959308214E+02  0.18507689841E+03  0.00000000000E+00 0.  1.
          4    1    6    6  502    0 -0.30439262956E+02 -0.24146309358E+03  0.13376057185E+03  0.27771003740E+03  0.00000000000E+00 0. -1.
         -3    1    6    6    0  502 -0.11516645671E+03 -0.90554749930E+03  0.33825440015E+03  0.97349659756E+03  0.00000000000E+00 0.  1.
<mgrwt>
<rscale>  0 0.13318149E+04</rscale>
<asrwt>0</asrwt>
<pdfrwt beam="1">  1        1 0.28977800E+00 0.13318149E+04</pdfrwt>
<pdfrwt beam="2">  1       -2 0.15343848E+00 0.13318149E+04</pdfrwt>
<totfact> 0.85128583E-01</totfact>
</mgrwt>
</event>
<event>
12    3  0.2212098E-007  0.3393909E+03  0.7818608E-02  0.1067056E+00
         -2   -1    0    0    0  501 -0.00000000000E+00  0.00000000000E+00  0.74110104371E+03  0.74110104371E+03  0.00000000000E+00 0.  1.
          1   -1    0    0  501    0  0.00000000000E+00 -0.00000000000E+00 -0.48164861747E+03  0.48164861747E+03  0.00000000000E+00 0. -1.
        -24    2    1    2    0    0 -0.10428332051E+03  0.22413301002E+03 -0.27801999697E+03  0.38012319063E+03  0.78025023067E+02 0.  0.
    5000000    2    1    2    0    0  0.10428332051E+03 -0.22413301002E+03  0.53747242322E+03  0.84262647054E+03  0.60002678775E+03 0.  0.
        -24    2    4    4    0    0 -0.80575042986E+02  0.21113159434E+02  0.51107836460E+03  0.52424137578E+03  0.81791333666E+02 0.  0.
         24    2    4    4    0    0  0.18485836349E+03 -0.24524616945E+03  0.26394058622E+02  0.31838509476E+03  0.79712759657E+02 0.  0.
         11    1    3    3    0    0 -0.10742818724E+03  0.18635439015E+03 -0.20155374524E+03  0.29477565429E+03  0.00000000000E+00 0. -1.
        -12    1    3    3    0    0  0.31448667281E+01  0.37778619865E+02 -0.76466251735E+02  0.85347536344E+02  0.00000000000E+00 0.  1.
         11    1    5    5    0    0 -0.59707032796E+02 -0.25521089674E+02  0.25687944971E+03  0.26495906753E+03  0.00000000000E+00 0. -1.
        -12    1    5    5    0    0 -0.20868010190E+02  0.46634249108E+02  0.25419891489E+03  0.25928230825E+03  0.00000000000E+00 0.  1.
          2    1    6    6  502    0  0.30934916676E+02 -0.69821504184E+02  0.36802974705E+02  0.84773052696E+02  0.00000000000E+00 0. -1.
         -1    1    6    6    0  502  0.15392344682E+03 -0.17542466527E+03 -0.10408916083E+02  0.23361204207E+03  0.00000000000E+00 0.  1.
<mgrwt>
<rscale>  0 0.33939090E+03</rscale>
<asrwt>0</asrwt>
<pdfrwt beam="1">  1        1 0.74099787E-01 0.33939090E+03</pdfrwt>
<pdfrwt beam="2">  1       -2 0.11401555E+00 0.33939090E+03</pdfrwt>
<totfact> 0.26234311E+01</totfact>
</mgrwt>
</event>
<event>
12    3  0.3277514E-007  0.8510015E+03  0.7818608E-02  0.9488994E-01
         -2   -1    0    0    0  501 -0.00000000000E+00  0.00000000000E+00  0.10006705228E+04  0.10006705228E+04  0.00000000000E+00 0.  1.
          1   -1    0    0  501    0  0.00000000000E+00 -0.00000000000E+00 -0.74848047337E+03  0.74848047337E+03  0.00000000000E+00 0. -1.
        -24    2    1    2    0    0  0.35358009319E+03  0.66796202108E+03  0.40863973268E+02  0.76123906600E+03  0.81381247202E+02 0.  0.
    5000000    2    1    2    0    0 -0.35358009319E+03 -0.66796202108E+03  0.21132607621E+03  0.98791193021E+03  0.60009926468E+03 0.  0.
        -24    2    4    4    0    0  0.14747396974E+03 -0.22768471278E+03  0.13218433824E+03  0.31128634242E+03  0.76404106672E+02 0.  0.
         24    2    4    4    0    0 -0.50105406293E+03 -0.44027730830E+03  0.79141737966E+02  0.67662558779E+03  0.81605693319E+02 0.  0.
         11    1    3    3    0    0  0.19825971332E+03  0.45502823379E+03  0.17684292907E+02  0.49665918061E+03  0.00000000000E+00 0. -1.
        -12    1    3    3    0    0  0.15532037987E+03  0.21293378729E+03  0.23179680361E+02  0.26457988539E+03  0.00000000000E+00 0.  1.
         13    1    5    5    0    0  0.38032965050E+02 -0.97907845719E+02  0.84911913559E+02  0.13506474650E+03  0.00000000000E+00 0. -1.
        -14    1    5    5    0    0  0.10944100469E+03 -0.12977686706E+03  0.47272424682E+02  0.17622159592E+03  0.00000000000E+00 0.  1.
          2    1    6    6  502    0 -0.25820824756E+03 -0.21378935844E+03  0.79627307259E+02  0.34455463565E+03  0.00000000000E+00 0. -1.
         -1    1    6    6    0  502 -0.24284581538E+03 -0.22648794986E+03 -0.48556929232E+00  0.33207095214E+03  0.00000000000E+00 0.  1.
<mgrwt>
<rscale>  0 0.85100146E+03</rscale>
<asrwt>0</asrwt>
<pdfrwt beam="1">  1        1 0.11515084E+00 0.85100146E+03</pdfrwt>
<pdfrwt beam="2">  1       -2 0.15394931E+00 0.85100146E+03</pdfrwt>
<totfact> 0.60841503E+00</totfact>
</mgrwt>
</event>
<event>
12    3  0.2212098E-007  0.1556483E+04  0.7818608E-02  0.8847737E-01
          1   -1    0    0  501    0  0.00000000000E+00  0.00000000000E+00  0.15488062400E+04  0.15488062400E+04  0.00000000000E+00 0. -1.
         -2   -1    0    0    0  501 -0.00000000000E+00 -0.00000000000E+00 -0.16808816815E+04  0.16808816815E+04  0.00000000000E+00 0.  1.
        -24    2    1    2    0    0 -0.10458062617E+04 -0.10999978204E+04  0.28240158736E+03  0.15458498199E+04  0.78708748635E+02 0.  0.
    5000000    2    1    2    0    0  0.10458062617E+04  0.10999978204E+04 -0.41447702892E+03  0.16838381017E+04  0.59984464923E+03 0.  0.
        -24    2    4    4    0    0  0.67198167467E+02  0.36198956774E+03 -0.23098602944E+03  0.44194500220E+03  0.80054970499E+02 0.  0.
         24    2    4    4    0    0  0.97860809426E+03  0.73800825262E+03 -0.18349099947E+03  0.12418930995E+04  0.79369644740E+02 0.  0.
         11    1    5    5    0    0  0.39629876169E+02  0.19585003785E+03 -0.78267380849E+02  0.21460090241E+03  0.00000000000E+00 0. -1.
        -12    1    5    5    0    0  0.27568291297E+02  0.16613952990E+03 -0.15271864859E+03  0.22734409979E+03  0.00000000000E+00 0.  1.
         13    1    3    3    0    0 -0.49690979175E+03 -0.50459394421E+03  0.93892509493E+02  0.71438798493E+03  0.00000000000E+00 0. -1.
        -14    1    3    3    0    0 -0.54889646997E+03 -0.59540387616E+03  0.18850907787E+03  0.83146183492E+03  0.00000000000E+00 0.  1.
          2    1    6    6  502    0  0.30652609478E+03  0.20221409089E+03 -0.26650205662E+02  0.36818340375E+03  0.00000000000E+00 0. -1.
         -1    1    6    6    0  502  0.67208199948E+03  0.53579416173E+03 -0.15684079381E+03  0.87370969571E+03  0.00000000000E+00 0.  1.
<mgrwt>
<rscale>  0 0.15564834E+04</rscale>
<asrwt>0</asrwt>
<pdfrwt beam="1">  1        1 0.23827789E+00 0.15564834E+04</pdfrwt>
<pdfrwt beam="2">  1       -2 0.25859718E+00 0.15564834E+04</pdfrwt>
<totfact> 0.28280032E-01</totfact>
</mgrwt>
</event>
<event>
12    3  0.2212098E-007  0.5918451E+03  0.7818608E-02  0.9922471E-01
         -2   -1    0    0    0  501 -0.00000000000E+00  0.00000000000E+00  0.27169917438E+03  0.27169917438E+03  0.00000000000E+00 0.  1.
          1   -1    0    0  501    0  0.00000000000E+00 -0.00000000000E+00 -0.13234674156E+04  0.13234674156E+04  0.00000000000E+00 0. -1.
        -24    2    1    2    0    0  0.10634975582E+03  0.42758122877E+03 -0.31526228387E+03  0.54798345191E+03  0.82216653871E+02 0.  0.
    5000000    2    1    2    0    0 -0.10634975582E+03 -0.42758122877E+03 -0.73650595734E+03  0.10471831381E+04  0.60001293459E+03 0.  0.
        -24    2    4    4    0    0  0.21466632892E+03 -0.37664642333E+02 -0.19872636074E+03  0.30507482353E+03  0.77962962001E+02 0.  0.
         24    2    4    4    0    0 -0.32101608474E+03 -0.38991658644E+03 -0.53777959661E+03  0.74210831454E+03  0.80197162912E+02 0.  0.
         13    1    3    3    0    0 -0.55480789086E+01  0.10709263842E+03 -0.95495304051E+02  0.14359306208E+03  0.00000000000E+00 0. -1.
        -14    1    3    3    0    0  0.11189783472E+03  0.32048859035E+03 -0.21976697982E+03  0.40439038982E+03  0.00000000000E+00 0.  1.
         13    1    5    5    0    0  0.31554246620E+02  0.20926634830E+02 -0.45728277984E+02  0.59368930700E+02  0.00000000000E+00 0. -1.
        -14    1    5    5    0    0  0.18311208230E+03 -0.58591277163E+02 -0.15299808275E+03  0.24570589283E+03  0.00000000000E+00 0.  1.
          4    1    6    6  502    0 -0.16886938892E+03 -0.17147777898E+03 -0.20643981332E+03  0.31707869011E+03  0.00000000000E+00 0. -1.
         -3    1    6    6    0  502 -0.15214669582E+03 -0.21843880746E+03 -0.33133978329E+03  0.42502962443E+03  0.00000000000E+00 0.  1.
<mgrwt>
<rscale>  0 0.59184506E+03</rscale>
<asrwt>0</asrwt>
<pdfrwt beam="1">  1        1 0.20361037E+00 0.59184506E+03</pdfrwt>
<pdfrwt beam="2">  1       -2 0.41799872E-01 0.59184506E+03</pdfrwt>
<totfact> 0.43217339E+01</totfact>
</mgrwt>
</event>
<event>
12    3  0.2212098E-007  0.5890778E+03  0.7818608E-02  0.9928329E-01
         -2   -1    0    0    0  501 -0.00000000000E+00  0.00000000000E+00  0.68142100662E+03  0.68142100662E+03  0.00000000000E+00 0.  1.
          1   -1    0    0  501    0  0.00000000000E+00 -0.00000000000E+00 -0.55544745825E+03  0.55544745825E+03  0.00000000000E+00 0. -1.
        -24    2    1    2    0    0 -0.40147431062E+03  0.21509125778E+03 -0.42727533487E+02  0.46450251970E+03  0.80567223069E+02 0.  0.
    5000000    2    1    2    0    0  0.40147431062E+03 -0.21509125778E+03  0.16870108186E+03  0.77236594517E+03  0.60053578326E+03 0.  0.
        -24    2    4    4    0    0  0.43379638972E+03  0.58151388755E+02  0.19414978097E+03  0.48488152612E+03  0.76518397632E+02 0.  0.
         24    2    4    4    0    0 -0.32322079095E+02 -0.27324264653E+03 -0.25448699111E+02  0.28748441905E+03  0.79330915966E+02 0.  0.
         11    1    3    3    0    0 -0.31885913364E+03  0.18619271280E+03 -0.63214575634E+02  0.37461307503E+03  0.00000000000E+00 0. -1.
        -12    1    3    3    0    0 -0.82615176975E+02  0.28898544979E+02  0.20487042146E+02  0.89889444678E+02  0.00000000000E+00 0.  1.
         13    1    5    5    0    0  0.33052903836E+03  0.75611440982E+02  0.15812803631E+03  0.37412699859E+03  0.00000000000E+00 0. -1.
        -14    1    5    5    0    0  0.10326735135E+03 -0.17460052227E+02  0.36021744655E+02  0.11075452753E+03  0.00000000000E+00 0.  1.
          4    1    6    6  502    0 -0.38848355610E+02 -0.18123137319E+03 -0.50109211620E+02  0.19200244387E+03  0.00000000000E+00 0. -1.
         -3    1    6    6    0  502  0.65262765149E+01 -0.92011273344E+02  0.24660512508E+02  0.95481975182E+02  0.00000000000E+00 0.  1.
<mgrwt>
<rscale>  0 0.58907776E+03</rscale>
<asrwt>0</asrwt>
<pdfrwt beam="1">  1        1 0.85453455E-01 0.58907776E+03</pdfrwt>
<pdfrwt beam="2">  1       -2 0.10483400E+00 0.58907776E+03</pdfrwt>
<totfact> 0.25540006E+01</totfact>
</mgrwt>
</event>
<event>
12    3  0.2212098E-007  0.1132382E+04  0.7818608E-02  0.9174192E-01
          1   -1    0    0  501    0  0.00000000000E+00  0.00000000000E+00  0.35270806008E+04  0.35270806008E+04  0.00000000000E+00 0. -1.
         -2   -1    0    0    0  501 -0.00000000000E+00 -0.00000000000E+00 -0.43259890981E+03  0.43259890981E+03  0.00000000000E+00 0.  1.
        -24    2    1    2    0    0  0.20065667401E+03  0.10998294686E+04  0.19590924905E+04  0.22570297253E+04  0.79068538577E+02 0.  0.
    5000000    2    1    2    0    0 -0.20065667401E+03 -0.10998294686E+04  0.11353892005E+04  0.17026497853E+04  0.60001641144E+03 0.  0.
        -24    2    4    4    0    0 -0.16340522106E+03 -0.28343819208E+03  0.48622065404E+02  0.34057505034E+03  0.81171329123E+02 0.  0.
         24    2    4    4    0    0 -0.37251452953E+02 -0.81639127652E+03  0.10867671351E+04  0.13620747350E+04  0.79387597317E+02 0.  0.
         11    1    5    5    0    0 -0.76933148034E+01 -0.17836201391E+02 -0.16960043062E+02  0.25786822864E+02  0.00000000000E+00 0. -1.
        -12    1    5    5    0    0 -0.15571190625E+03 -0.26560199069E+03  0.65582108466E+02  0.31478822747E+03  0.00000000000E+00 0.  1.
         11    1    3    3    0    0  0.16442356062E+03  0.81495187994E+03  0.15164352976E+04  0.17293807232E+04  0.00000000000E+00 0. -1.
        -12    1    3    3    0    0  0.36233113386E+02  0.28487758866E+03  0.44265719294E+03  0.52764900217E+03  0.00000000000E+00 0.  1.
          4    1    6    6  502    0 -0.15868720670E+02 -0.55567447368E+02  0.10471698198E+03  0.11960436370E+03  0.00000000000E+00 0. -1.
         -3    1    6    6    0  502 -0.21382732282E+02 -0.76082382916E+03  0.98205015313E+03  0.12424703713E+04  0.00000000000E+00 0.  1.
<mgrwt>
<rscale>  0 0.11323823E+04</rscale>
<asrwt>0</asrwt>
<pdfrwt beam="1">  1        1 0.54262777E+00 0.11323823E+04</pdfrwt>
<pdfrwt beam="2">  1       -2 0.66553681E-01 0.11323823E+04</pdfrwt>
<totfact> 0.44012145E-01</totfact>
</mgrwt>
</event>
<event>
12    3  0.2212098E-007  0.6062617E+03  0.7818608E-02  0.9892499E-01
         -2   -1    0    0    0  501 -0.00000000000E+00  0.00000000000E+00  0.11778439975E+04  0.11778439975E+04  0.00000000000E+00 0.  1.
          1   -1    0    0  501    0  0.00000000000E+00 -0.00000000000E+00 -0.42782399027E+03  0.42782399027E+03  0.00000000000E+00 0. -1.
        -24    2    1    2    0    0  0.12643177807E+03  0.56396277483E+03  0.25568099459E+03  0.63692774182E+03  0.79152835707E+02 0.  0.
    5000000    2    1    2    0    0 -0.12643177807E+03 -0.56396277483E+03  0.49433901262E+03  0.96874024594E+03  0.60003966435E+03 0.  0.
        -24    2    4    4    0    0  0.47665505710E+02 -0.55463063753E+02 -0.11025208020E+03  0.15451090018E+03  0.79811936509E+02 0.  0.
         24    2    4    4    0    0 -0.17409728378E+03 -0.50849971108E+03  0.60459109282E+03  0.81422934576E+03  0.92505230103E+02 0.  0.
         13    1    3    3    0    0  0.33596084468E+02  0.32823223110E+03  0.14022597446E+03  0.35850860287E+03  0.00000000000E+00 0. -1.
        -14    1    3    3    0    0  0.92835693601E+02  0.23573054374E+03  0.11545502014E+03  0.27841913894E+03  0.00000000000E+00 0.  1.
         13    1    5    5    0    0  0.55039868047E+02 -0.29502239391E+02 -0.28922778032E+02  0.68820754812E+02  0.00000000000E+00 0. -1.
        -14    1    5    5    0    0 -0.73743623376E+01 -0.25960824361E+02 -0.81329302167E+02  0.85690145364E+02  0.00000000000E+00 0.  1.
          4    1    6    6  502    0 -0.79576923362E+02 -0.15998178302E+03  0.25701394556E+03  0.31302208523E+03  0.00000000000E+00 0. -1.
         -3    1    6    6    0  502 -0.94520360417E+02 -0.34851792806E+03  0.34757714726E+03  0.50120726053E+03  0.00000000000E+00 0.  1.
<mgrwt>
<rscale>  0 0.60626174E+03</rscale>
<asrwt>0</asrwt>
<pdfrwt beam="1">  1        1 0.65819076E-01 0.60626174E+03</pdfrwt>
<pdfrwt beam="2">  1       -2 0.18120677E+00 0.60626174E+03</pdfrwt>
<totfact> 0.88602216E+00</totfact>
</mgrwt>
</event>
<event>
12    3  0.2212098E-007  0.7049731E+03  0.7818608E-02  0.9708765E-01
         -2   -1    0    0    0  501 -0.00000000000E+00  0.00000000000E+00  0.22473787904E+03  0.22473787904E+03  0.00000000000E+00 0.  1.
          1   -1    0    0  501    0  0.00000000000E+00 -0.00000000000E+00 -0.23050100117E+04  0.23050100117E+04  0.00000000000E+00 0. -1.
        -24    2    1    2    0    0  0.77625671576E+02 -0.58561760561E+03 -0.92114914539E+03  0.10970136550E+04  0.77132912773E+02 0.  0.
    5000000    2    1    2    0    0 -0.77625671576E+02  0.58561760561E+03 -0.11591229873E+04  0.14327342358E+04  0.60015628453E+03 0.  0.
        -24    2    4    4    0    0 -0.31561268887E+03  0.38114901689E+03 -0.55949533481E+03  0.75105577134E+03  0.78509869108E+02 0.  0.
         24    2    4    4    0    0  0.23798701729E+03  0.20446858872E+03 -0.59962765249E+03  0.68167846445E+03  0.81773975648E+02 0.  0.
         11    1    5    5    0    0 -0.56306350338E+02  0.61754522166E+02 -0.14301858492E+03  0.16564522851E+03  0.00000000000E+00 0. -1.
        -12    1    5    5    0    0 -0.25930633853E+03  0.31939449473E+03 -0.41647674989E+03  0.58541054283E+03  0.00000000000E+00 0.  1.
         13    1    3    3    0    0  0.19691521938E+01 -0.29594937046E+03 -0.43750420164E+03  0.52820434861E+03  0.00000000000E+00 0. -1.
        -14    1    3    3    0    0  0.75656519382E+02 -0.28966823515E+03 -0.48364494375E+03  0.56880930635E+03  0.00000000000E+00 0.  1.
          4    1    6    6  502    0  0.30841579105E+02  0.35368880622E+01 -0.99850417366E+02  0.10456490055E+03  0.00000000000E+00 0. -1.
         -3    1    6    6    0  502  0.20714543819E+03  0.20093170065E+03 -0.49977723513E+03  0.57711356390E+03  0.00000000000E+00 0.  1.
<mgrwt>
<rscale>  0 0.70497314E+03</rscale>
<asrwt>0</asrwt>
<pdfrwt beam="1">  1        1 0.35461692E+00 0.70497314E+03</pdfrwt>
<pdfrwt beam="2">  1       -2 0.34575059E-01 0.70497314E+03</pdfrwt>
<totfact> 0.13383420E+01</totfact>
</mgrwt>
</event>
<event>
12    3  0.2212098E-007  0.1147660E+04  0.7818608E-02  0.9159945E-01
          1   -1    0    0  501    0  0.00000000000E+00  0.00000000000E+00  0.19623725713E+04  0.19623725713E+04  0.00000000000E+00 0. -1.
         -2   -1    0    0    0  501 -0.00000000000E+00 -0.00000000000E+00 -0.10057903764E+04  0.10057903764E+04  0.00000000000E+00 0.  1.
        -24    2    1    2    0    0 -0.10478156888E+04 -0.21726585697E+03 -0.39444926192E+03  0.11432742974E+04  0.79772981890E+02 0.  0.
    5000000    2    1    2    0    0  0.10478156888E+04  0.21726585697E+03  0.13510314567E+04  0.18248886503E+04  0.59984199456E+03 0.  0.
        -24    2    4    4    0    0  0.44874713441E+03  0.38661717423E+03  0.69603536521E+03  0.91783601286E+03  0.84326074455E+02 0.  0.
         24    2    4    4    0    0  0.59906855441E+03 -0.16935131726E+03  0.65499609152E+03  0.90705263740E+03  0.78495895215E+02 0.  0.
         11    1    3    3    0    0 -0.32843552872E+03 -0.78257560835E+02 -0.16286462062E+03  0.37485867604E+03  0.00000000000E+00 0. -1.
        -12    1    3    3    0    0 -0.71938016010E+03 -0.13900829614E+03 -0.23158464130E+03  0.76841562141E+03  0.00000000000E+00 0.  1.
         11    1    5    5    0    0  0.39003986011E+03  0.29589774652E+03  0.55310123602E+03  0.73865252058E+03  0.00000000000E+00 0. -1.
        -12    1    5    5    0    0  0.58707274303E+02  0.90719427710E+02  0.14293412919E+03  0.17918349229E+03  0.00000000000E+00 0.  1.
          2    1    6    6  502    0  0.52043771616E+03 -0.11860404852E+03  0.56323193616E+03  0.77598489072E+03  0.00000000000E+00 0. -1.
         -1    1    6    6    0  502  0.78630838246E+02 -0.50747268741E+02  0.91764155366E+02  0.13106774667E+03  0.00000000000E+00 0.  1.
<mgrwt>
<rscale>  0 0.11476599E+04</rscale>
<asrwt>0</asrwt>
<pdfrwt beam="1">  1        1 0.30190347E+00 0.11476599E+04</pdfrwt>
<pdfrwt beam="2">  1       -2 0.15473698E+00 0.11476599E+04</pdfrwt>
<totfact> 0.75179322E-01</totfact>
</mgrwt>
</event>
<event>
12    3  0.2212098E-007  0.6707421E+03  0.7818608E-02  0.9768618E-01
         -2   -1    0    0    0  501 -0.00000000000E+00  0.00000000000E+00  0.32474157571E+03  0.32474157571E+03  0.00000000000E+00 0.  1.
          1   -1    0    0  501    0  0.00000000000E+00 -0.00000000000E+00 -0.23427217401E+04  0.23427217401E+04  0.00000000000E+00 0. -1.
        -24    2    1    2    0    0  0.18572633607E+03  0.59256301076E+03 -0.15794032666E+04  0.16989233137E+04  0.78743595028E+02 0.  0.
    5000000    2    1    2    0    0 -0.18572633607E+03 -0.59256301076E+03 -0.43857689777E+03  0.96854000207E+03  0.60007903372E+03 0.  0.
        -24    2    4    4    0    0 -0.13059426639E+03 -0.22856997716E+02 -0.35165114137E+03  0.38421864528E+03  0.79925824349E+02 0.  0.
         24    2    4    4    0    0 -0.55132069685E+02 -0.56970601305E+03 -0.86925756399E+02  0.58432135678E+03  0.79188853117E+02 0.  0.
         11    1    3    3    0    0  0.11306724345E+03  0.23454690088E+03 -0.63288734609E+03  0.68435578692E+03  0.00000000000E+00 0. -1.
        -12    1    3    3    0    0  0.72659092624E+02  0.35801610988E+03 -0.94651592050E+03  0.10145675268E+04  0.00000000000E+00 0.  1.
         13    1    5    5    0    0 -0.84682079431E+02 -0.33164851134E+02 -0.30374675028E+03  0.31706947225E+03  0.00000000000E+00 0. -1.
        -14    1    5    5    0    0 -0.45912186955E+02  0.10307853418E+02 -0.47904391089E+02  0.67149173030E+02  0.00000000000E+00 0.  1.
          4    1    6    6  502    0 -0.44532427065E+02 -0.12057223132E+03 -0.21705341340E+02  0.13035306620E+03  0.00000000000E+00 0. -1.
         -3    1    6    6    0  502 -0.10599642620E+02 -0.44913378173E+03 -0.65220415059E+02  0.45396829058E+03  0.00000000000E+00 0.  1.
<mgrwt>
<rscale>  0 0.67074215E+03</rscale>
<asrwt>0</asrwt>
<pdfrwt beam="1">  1        1 0.36041874E+00 0.67074215E+03</pdfrwt>
<pdfrwt beam="2">  1       -2 0.49960241E-01 0.67074215E+03</pdfrwt>
<totfact> 0.61652439E+00</totfact>
</mgrwt>
</event>
<event>
12    3  0.2212098E-007  0.5594465E+03  0.7818608E-02  0.9993308E-01
          1   -1    0    0  501    0  0.00000000000E+00  0.00000000000E+00  0.12105594594E+04  0.12105594594E+04  0.00000000000E+00 0. -1.
         -2   -1    0    0    0  501 -0.00000000000E+00 -0.00000000000E+00 -0.27840198718E+03  0.27840198718E+03  0.00000000000E+00 0.  1.
        -24    2    1    2    0    0 -0.82630178896E+01  0.40603528832E+03  0.20227418030E+03  0.46044834200E+03  0.78516869605E+02 0.  0.
    5000000    2    1    2    0    0  0.82630178896E+01 -0.40603528832E+03  0.72988329192E+03  0.10285131046E+04  0.60014719332E+03 0.  0.
        -24    2    4    4    0    0 -0.15020496042E+03 -0.49321986545E+03  0.46899528352E+03  0.70144429876E+03  0.78994699137E+02 0.  0.
         24    2    4    4    0    0  0.15846797831E+03  0.87184577128E+02  0.26088800840E+03  0.32706880582E+03  0.78728649021E+02 0.  0.
         11    1    5    5    0    0 -0.64769026999E+02 -0.26507166717E+03  0.19862036718E+03  0.33750269014E+03  0.00000000000E+00 0. -1.
        -12    1    5    5    0    0 -0.85435933422E+02 -0.22814819828E+03  0.27037491634E+03  0.36394160862E+03  0.00000000000E+00 0.  1.
         13    1    3    3    0    0 -0.40227096608E+02  0.28310677173E+03  0.15205444990E+03  0.32386450752E+03  0.00000000000E+00 0. -1.
        -14    1    3    3    0    0  0.31964078719E+02  0.12292851659E+03  0.50219730407E+02  0.13658383448E+03  0.00000000000E+00 0.  1.
          2    1    6    6  502    0  0.13116275426E+03  0.93908716909E+02  0.18139359352E+03  0.24274709265E+03  0.00000000000E+00 0. -1.
         -1    1    6    6    0  502  0.27305224046E+02 -0.67241397809E+01  0.79494414883E+02  0.84321713180E+02  0.00000000000E+00 0.  1.
<mgrwt>
<rscale>  0 0.55944649E+03</rscale>
<asrwt>0</asrwt>
<pdfrwt beam="1">  1        1 0.18623991E+00 0.55944649E+03</pdfrwt>
<pdfrwt beam="2">  1       -2 0.42831076E-01 0.55944649E+03</pdfrwt>
<totfact> 0.49718062E+01</totfact>
</mgrwt>
</event>
<event>
12    3  0.2212098E-007  0.5730461E+03  0.7818608E-02  0.9962961E-01
          1   -1    0    0  501    0  0.00000000000E+00  0.00000000000E+00  0.85390438505E+03  0.85390438505E+03  0.00000000000E+00 0. -1.
         -2   -1    0    0    0  501 -0.00000000000E+00 -0.00000000000E+00 -0.40251102512E+03  0.40251102512E+03  0.00000000000E+00 0.  1.
        -24    2    1    2    0    0 -0.30820585825E+03 -0.29441671751E+03  0.10902205879E+03  0.44493380638E+03  0.66394488819E+02 0.  0.
    5000000    2    1    2    0    0  0.30820585825E+03  0.29441671751E+03  0.34237130114E+03  0.81148160379E+03  0.59967677196E+03 0.  0.
        -24    2    4    4    0    0 -0.18471189001E+02  0.36655892812E+03  0.94772426416E+02  0.38769782608E+03  0.81370504066E+02 0.  0.
         24    2    4    4    0    0  0.32667704726E+03 -0.72142210611E+02  0.24759887473E+03  0.42378377771E+03  0.79781550040E+02 0.  0.
         11    1    3    3    0    0 -0.14459906708E+03 -0.17061835648E+03  0.80980938593E+02  0.23786009792E+03  0.00000000000E+00 0. -1.
        -12    1    3    3    0    0 -0.16360679118E+03 -0.12379836103E+03  0.28041120197E+02  0.20707370846E+03  0.00000000000E+00 0.  1.
         13    1    5    5    0    0  0.26216558025E+02  0.13018992709E+03  0.12192104659E+02  0.13336181030E+03  0.00000000000E+00 0. -1.
        -14    1    5    5    0    0 -0.44687747026E+02  0.23636900103E+03  0.82580321757E+02  0.25433601578E+03  0.00000000000E+00 0.  1.
          2    1    6    6  502    0  0.20578370238E+03 -0.54696535247E+01  0.15004846255E+03  0.25473788565E+03  0.00000000000E+00 0. -1.
         -1    1    6    6    0  502  0.12089334487E+03 -0.66672557087E+02  0.97550412179E+02  0.16904589205E+03  0.00000000000E+00 0.  1.
<mgrwt>
<rscale>  0 0.57304610E+03</rscale>
<asrwt>0</asrwt>
<pdfrwt beam="1">  1        1 0.13136990E+00 0.57304610E+03</pdfrwt>
<pdfrwt beam="2">  1       -2 0.61924773E-01 0.57304610E+03</pdfrwt>
<totfact> 0.43795056E+01</totfact>
</mgrwt>
</event>
<event>
12    3  0.2212098E-007  0.7790167E+03  0.7818608E-02  0.9590896E-01
          1   -1    0    0  501    0  0.00000000000E+00  0.00000000000E+00  0.19397558822E+04  0.19397558822E+04  0.00000000000E+00 0. -1.
         -2   -1    0    0    0  501 -0.00000000000E+00 -0.00000000000E+00 -0.39648061509E+03  0.39648061509E+03  0.00000000000E+00 0.  1.
        -24    2    1    2    0    0  0.58166951316E+03  0.50266649007E+03  0.58449331349E+03  0.96872671977E+03  0.76065769690E+02 0.  0.
    5000000    2    1    2    0    0 -0.58166951316E+03 -0.50266649007E+03  0.95878195358E+03  0.13675097775E+04  0.59983925696E+03 0.  0.
        -24    2    4    4    0    0 -0.75699154014E+02 -0.14141173022E+03  0.63983099810E+03  0.66462000224E+03  0.81292077630E+02 0.  0.
         24    2    4    4    0    0 -0.50597035914E+03 -0.36125475985E+03  0.31895095547E+03  0.70288977523E+03  0.76245119692E+02 0.  0.
         11    1    5    5    0    0 -0.72710490371E+02 -0.98388507519E+02  0.33278887019E+03  0.35456388133E+03  0.00000000000E+00 0. -1.
        -12    1    5    5    0    0 -0.29886636438E+01 -0.43023222703E+02  0.30704212791E+03  0.31005612091E+03  0.00000000000E+00 0.  1.
         11    1    3    3    0    0  0.14846959852E+03  0.10943461761E+03  0.10466559797E+03  0.21207084810E+03  0.00000000000E+00 0. -1.
        -12    1    3    3    0    0  0.43319991464E+03  0.39323187246E+03  0.47982771551E+03  0.75665587167E+03  0.00000000000E+00 0.  1.
          4    1    6    6  502    0 -0.39705358407E+03 -0.30363775960E+03  0.28362094290E+03  0.57470712275E+03  0.00000000000E+00 0. -1.
         -3    1    6    6    0  502 -0.10891677507E+03 -0.57617000243E+02  0.35330012572E+02  0.12818265248E+03  0.00000000000E+00 0.  1.
<mgrwt>
<rscale>  0 0.77901672E+03</rscale>
<asrwt>0</asrwt>
<pdfrwt beam="1">  1        1 0.29842398E+00 0.77901672E+03</pdfrwt>
<pdfrwt beam="2">  1       -2 0.60997019E-01 0.77901672E+03</pdfrwt>
<totfact> 0.74535897E+00</totfact>
</mgrwt>
</event>
<event>
12    3  0.2212098E-007  0.7824641E+03  0.7818608E-02  0.9585752E-01
         -2   -1    0    0    0  501 -0.00000000000E+00  0.00000000000E+00  0.60247824315E+03  0.60247824315E+03  0.00000000000E+00 0.  1.
          1   -1    0    0  501    0  0.00000000000E+00 -0.00000000000E+00 -0.12214524701E+04  0.12214524701E+04  0.00000000000E+00 0. -1.
        -24    2    1    2    0    0 -0.31349079798E+03  0.65426586961E+03 -0.47609005382E+03  0.87166063624E+03  0.82402772220E+02 0.  0.
    5000000    2    1    2    0    0  0.31349079798E+03 -0.65426586961E+03 -0.14288417315E+03  0.95227007703E+03  0.60005175119E+03 0.  0.
        -24    2    4    4    0    0  0.24206491911E+02 -0.49697608855E+03  0.12327875900E+03  0.52140257537E+03  0.95350964035E+02 0.  0.
         24    2    4    4    0    0  0.28928430607E+03 -0.15728978106E+03 -0.26616293215E+03  0.43086750166E+03  0.79866216679E+02 0.  0.
         13    1    5    5    0    0  0.50381410680E+01 -0.43506206689E+02  0.41270764296E+02  0.60178475150E+02  0.00000000000E+00 0. -1.
        -14    1    5    5    0    0  0.19168350843E+02 -0.45346988186E+03  0.82007994704E+02  0.46122410022E+03  0.00000000000E+00 0.  1.
         13    1    3    3    0    0 -0.24655726339E+02  0.10666836758E+03 -0.51774659145E+02  0.12110599000E+03  0.00000000000E+00 0. -1.
        -14    1    3    3    0    0 -0.28883507165E+03  0.54759750203E+03 -0.42431539467E+03  0.75055464624E+03  0.00000000000E+00 0.  1.
          4    1    6    6  502    0  0.46936101109E+02  0.46996082223E+01 -0.32644035913E+02  0.57364771292E+02  0.00000000000E+00 0. -1.
         -3    1    6    6    0  502  0.24234820497E+03 -0.16198938928E+03 -0.23351889624E+03  0.37350273036E+03  0.00000000000E+00 0.  1.
<mgrwt>
<rscale>  0 0.78246409E+03</rscale>
<asrwt>0</asrwt>
<pdfrwt beam="1">  1        1 0.18791576E+00 0.78246409E+03</pdfrwt>
<pdfrwt beam="2">  1       -2 0.92688960E-01 0.78246409E+03</pdfrwt>
<totfact> 0.91325404E+00</totfact>
</mgrwt>
</event>
<event>
12    3  0.2212098E-007  0.5930771E+03  0.7818608E-02  0.9919874E-01
         -2   -1    0    0    0  501 -0.00000000000E+00  0.00000000000E+00  0.15898012552E+03  0.15898012552E+03  0.00000000000E+00 0.  1.
          1   -1    0    0  501    0  0.00000000000E+00 -0.00000000000E+00 -0.25482507713E+04  0.25482507713E+04  0.00000000000E+00 0. -1.
        -24    2    1    2    0    0  0.42781900621E+03 -0.17094066986E+03 -0.12946989337E+04  0.13767019238E+04  0.82541162761E+02 0.  0.
    5000000    2    1    2    0    0 -0.42781900621E+03  0.17094066986E+03 -0.10945717121E+04  0.13305289730E+04  0.59997524977E+03 0.  0.
        -24    2    4    4    0    0  0.98091794590E+02  0.16925522185E+03 -0.43142984861E+03  0.48037682997E+03  0.79754963536E+02 0.  0.
         24    2    4    4    0    0 -0.52591080080E+03  0.16854480149E+01 -0.66314186352E+03  0.85015214305E+03  0.80103208683E+02 0.  0.
         11    1    3    3    0    0  0.21883190294E+03 -0.10926468778E+03 -0.57831947574E+03  0.62791686532E+03  0.00000000000E+00 0. -1.
        -12    1    3    3    0    0  0.20898710327E+03 -0.61675982085E+02 -0.71637945795E+03  0.74878505853E+03  0.00000000000E+00 0.  1.
         13    1    5    5    0    0  0.48038186031E+02  0.11057472488E+03 -0.17432181687E+03  0.21194936408E+03  0.00000000000E+00 0. -1.
        -14    1    5    5    0    0  0.50053608559E+02  0.58680496968E+02 -0.25710803175E+03  0.26842746589E+03  0.00000000000E+00 0.  1.
          4    1    6    6  502    0 -0.10847431312E+03  0.36088763203E+01 -0.89363638392E+02  0.14059004396E+03  0.00000000000E+00 0. -1.
         -3    1    6    6    0  502 -0.41743648767E+03 -0.19234283054E+01 -0.57377822513E+03  0.70956209908E+03  0.00000000000E+00 0.  1.
<mgrwt>
<rscale>  0 0.59307711E+03</rscale>
<asrwt>0</asrwt>
<pdfrwt beam="1">  1        1 0.39203857E+00 0.59307711E+03</pdfrwt>
<pdfrwt beam="2">  1       -2 0.24458481E-01 0.59307711E+03</pdfrwt>
<totfact> 0.17671384E+01</totfact>
</mgrwt>
</event>
<event>
12    3  0.2212098E-007  0.6780195E+03  0.7818608E-02  0.9755578E-01
          1   -1    0    0  501    0  0.00000000000E+00  0.00000000000E+00  0.87428659899E+03  0.87428659899E+03  0.00000000000E+00 0. -1.
         -2   -1    0    0    0  501 -0.00000000000E+00 -0.00000000000E+00 -0.89446420936E+03  0.89446420936E+03  0.00000000000E+00 0.  1.
        -24    2    1    2    0    0  0.59946122308E+03 -0.21629816547E+03 -0.45921545905E+03  0.78949455365E+03  0.79272681575E+02 0.  0.
    5000000    2    1    2    0    0 -0.59946122308E+03  0.21629816547E+03  0.43903784868E+03  0.97925625471E+03  0.60004160309E+03 0.  0.
        -24    2    4    4    0    0 -0.59731540926E+03  0.13468557837E+03  0.54669973239E+03  0.82461861867E+03  0.78672521904E+02 0.  0.
         24    2    4    4    0    0 -0.21458138263E+01  0.81612587105E+02 -0.10766188372E+03  0.15463763603E+03  0.75209696064E+02 0.  0.
         11    1    3    3    0    0  0.45337333944E+03 -0.15353131540E+03 -0.38371236810E+03  0.61347732733E+03  0.00000000000E+00 0. -1.
        -12    1    3    3    0    0  0.14608788365E+03 -0.62766850076E+02 -0.75503090949E+02  0.17601722632E+03  0.00000000000E+00 0.  1.
         13    1    5    5    0    0 -0.50660492063E+03  0.13823890959E+03  0.48521070917E+03  0.71497410724E+03  0.00000000000E+00 0. -1.
        -14    1    5    5    0    0 -0.90710488626E+02 -0.35533312241E+01  0.61489023226E+02  0.10964451143E+03  0.00000000000E+00 0.  1.
          2    1    6    6  502    0 -0.29218961726E+02  0.63481555707E+02 -0.98533663718E+02  0.12079957999E+03  0.00000000000E+00 0. -1.
         -1    1    6    6    0  502  0.27073147900E+02  0.18131031398E+02 -0.91282199986E+01  0.33838056047E+02  0.00000000000E+00 0.  1.
<mgrwt>
<rscale>  0 0.67801954E+03</rscale>
<asrwt>0</asrwt>
<pdfrwt beam="1">  1        1 0.13450563E+00 0.67801954E+03</pdfrwt>
<pdfrwt beam="2">  1       -2 0.13760988E+00 0.67801954E+03</pdfrwt>
<totfact> 0.64979564E+00</totfact>
</mgrwt>
</event>
<event>
12    3  0.2212098E-007  0.5242583E+03  0.7818608E-02  0.1007634E+00
         -2   -1    0    0    0  501 -0.00000000000E+00  0.00000000000E+00  0.40441740500E+03  0.40441740500E+03  0.00000000000E+00 0.  1.
          1   -1    0    0  501    0  0.00000000000E+00 -0.00000000000E+00 -0.13052365745E+04  0.13052365745E+04  0.00000000000E+00 0. -1.
        -24    2    1    2    0    0  0.26322763070E+03 -0.39938107146E+03 -0.79891211327E+03  0.93505804382E+03  0.85316790700E+02 0.  0.
    5000000    2    1    2    0    0 -0.26322763070E+03  0.39938107146E+03 -0.10190705625E+03  0.77459593570E+03  0.60068276960E+03 0.  0.
        -24    2    4    4    0    0 -0.16998035477E+03  0.21891336797E+02  0.20050560380E+03  0.27558528232E+03  0.79826054905E+02 0.  0.
         24    2    4    4    0    0 -0.93247275926E+02  0.37748973466E+03 -0.30241266005E+03  0.49901065338E+03  0.79778825445E+02 0.  0.
         11    1    5    5    0    0 -0.65821528427E+01  0.45264967091E+01 -0.71913591089E+01  0.10748467534E+02  0.00000000000E+00 0. -1.
        -12    1    5    5    0    0 -0.16339820193E+03  0.17364840088E+02  0.20769696291E+03  0.26483681479E+03  0.00000000000E+00 0.  1.
         13    1    3    3    0    0  0.18035685870E+03 -0.22786712259E+03 -0.54498772586E+03  0.61762743088E+03  0.00000000000E+00 0. -1.
        -14    1    3    3    0    0  0.82870772003E+02 -0.17151394887E+03 -0.25392438741E+03  0.31743061294E+03  0.00000000000E+00 0.  1.
          2    1    6    6  502    0 -0.63051280206E+01  0.17042559394E+03 -0.15434496728E+03  0.23001523131E+03  0.00000000000E+00 0. -1.
         -1    1    6    6    0  502 -0.86942147905E+02  0.20706414072E+03 -0.14806769277E+03  0.26899542207E+03  0.00000000000E+00 0.  1.
<mgrwt>
<rscale>  0 0.52425830E+03</rscale>
<asrwt>0</asrwt>
<pdfrwt beam="1">  1        1 0.20080562E+00 0.52425830E+03</pdfrwt>
<pdfrwt beam="2">  1       -2 0.62218063E-01 0.52425830E+03</pdfrwt>
<totfact> 0.20003410E+01</totfact>
</mgrwt>
</event>
<event>
12    3  0.2212098E-007  0.7676717E+03  0.7818608E-02  0.9608027E-01
          1   -1    0    0  501    0  0.00000000000E+00  0.00000000000E+00  0.67288556443E+03  0.67288556443E+03  0.00000000000E+00 0. -1.
         -2   -1    0    0    0  501 -0.00000000000E+00 -0.00000000000E+00 -0.10563673932E+04  0.10563673932E+04  0.00000000000E+00 0.  1.
        -24    2    1    2    0    0 -0.30022212549E+03  0.66756292863E+03 -0.11106959369E+03  0.74442243731E+03  0.77812095619E+02 0.  0.
    5000000    2    1    2    0    0  0.30022212549E+03 -0.66756292863E+03 -0.27241223511E+03  0.98483052036E+03  0.59992427828E+03 0.  0.
        -24    2    4    4    0    0 -0.25282680396E+02 -0.10537831361E+02 -0.23178396026E+03  0.24614355707E+03  0.78183032912E+02 0.  0.
         24    2    4    4    0    0  0.32550480589E+03 -0.65702509726E+03 -0.40628274857E+02  0.73868696329E+03  0.79827413375E+02 0.  0.
         11    1    3    3    0    0 -0.16370417641E+03  0.45258210402E+03 -0.65565123556E+02  0.48572461712E+03  0.00000000000E+00 0. -1.
        -12    1    3    3    0    0 -0.13651794908E+03  0.21498082461E+03 -0.45504470133E+02  0.25869782019E+03  0.00000000000E+00 0.  1.
         13    1    5    5    0    0 -0.27242621615E+02 -0.33269291438E+02 -0.65836058489E+02  0.78634552091E+02  0.00000000000E+00 0. -1.
        -14    1    5    5    0    0  0.19599412184E+01  0.22731460077E+02 -0.16594790177E+03  0.16750900497E+03  0.00000000000E+00 0.  1.
          2    1    6    6  502    0  0.16122296363E+03 -0.35083371384E+03 -0.59659805213E+02  0.39068712690E+03  0.00000000000E+00 0. -1.
         -1    1    6    6    0  502  0.16428184226E+03 -0.30619138343E+03  0.19031530356E+02  0.34799983639E+03  0.00000000000E+00 0.  1.
<mgrwt>
<rscale>  0 0.76767173E+03</rscale>
<asrwt>0</asrwt>
<pdfrwt beam="1">  1        1 0.10352086E+00 0.76767173E+03</pdfrwt>
<pdfrwt beam="2">  1       -2 0.16251806E+00 0.76767173E+03</pdfrwt>
<totfact> 0.62387153E+00</totfact>
</mgrwt>
</event>
<event>
12    3  0.2212098E-007  0.7752189E+03  0.7818608E-02  0.9596596E-01
          1   -1    0    0  501    0  0.00000000000E+00  0.00000000000E+00  0.12058185189E+04  0.12058185189E+04  0.00000000000E+00 0. -1.
         -2   -1    0    0    0  501 -0.00000000000E+00 -0.00000000000E+00 -0.53959429189E+03  0.53959429189E+03  0.00000000000E+00 0.  1.
        -24    2    1    2    0    0  0.63548986151E+03 -0.24956642062E+03  0.16572092417E+03  0.70792512290E+03  0.86970066940E+02 0.  0.
    5000000    2    1    2    0    0 -0.63548986151E+03  0.24956642062E+03  0.50050330283E+03  0.10374876879E+04  0.59978861610E+03 0.  0.
        -24    2    4    4    0    0 -0.53843342575E+03  0.39738845735E+03  0.24393867185E+03  0.71683925653E+03  0.80773164389E+02 0.  0.
         24    2    4    4    0    0 -0.97056435757E+02 -0.14782203673E+03  0.25656463098E+03  0.32064843136E+03  0.75622089341E+02 0.  0.
         11    1    5    5    0    0 -0.50486896516E+02  0.70357403149E+02  0.28226607202E+02  0.91081459429E+02  0.00000000000E+00 0. -1.
        -12    1    5    5    0    0 -0.48794652923E+03  0.32703105420E+03  0.21571206465E+03  0.62575779710E+03  0.00000000000E+00 0.  1.
         13    1    3    3    0    0  0.91751687856E+02 -0.69827426191E+02  0.35341970002E+02  0.12059559078E+03  0.00000000000E+00 0. -1.
        -14    1    3    3    0    0  0.54373817365E+03 -0.17973899443E+03  0.13037895417E+03  0.58732953211E+03  0.00000000000E+00 0.  1.
          4    1    6    6  502    0  0.21414070296E+01 -0.46907126380E+02  0.94335519130E+02  0.10537577662E+03  0.00000000000E+00 0. -1.
         -3    1    6    6    0  502 -0.99197842786E+02 -0.10091491035E+03  0.16222911185E+03  0.21527265474E+03  0.00000000000E+00 0.  1.
<mgrwt>
<rscale>  0 0.77521890E+03</rscale>
<asrwt>0</asrwt>
<pdfrwt beam="1">  1        1 0.18551054E+00 0.77521890E+03</pdfrwt>
<pdfrwt beam="2">  1       -2 0.83014507E-01 0.77521890E+03</pdfrwt>
<totfact> 0.12081998E+01</totfact>
</mgrwt>
</event>
<event>
12    3  0.2212098E-007  0.1010673E+04  0.7818608E-02  0.9296916E-01
          1   -1    0    0  501    0  0.00000000000E+00  0.00000000000E+00  0.19551782574E+04  0.19551782574E+04  0.00000000000E+00 0. -1.
         -2   -1    0    0    0  501 -0.00000000000E+00 -0.00000000000E+00 -0.55454991138E+03  0.55454991138E+03  0.00000000000E+00 0.  1.
        -24    2    1    2    0    0 -0.67820156846E+02 -0.93621193160E+03  0.84189151234E+03  0.12634109217E+04  0.79583189413E+02 0.  0.
    5000000    2    1    2    0    0  0.67820156846E+02  0.93621193160E+03  0.55873683370E+03  0.12463172471E+04  0.60002289663E+03 0.  0.
        -24    2    4    4    0    0  0.27546671590E+03  0.28630006039E+03  0.32942493542E+03  0.52212958250E+03  0.79049836755E+02 0.  0.
         24    2    4    4    0    0 -0.20764655905E+03  0.64991187120E+03  0.22931189828E+03  0.72418766457E+03  0.79757714433E+02 0.  0.
         11    1    3    3    0    0 -0.56681875045E+02 -0.30080323351E+03  0.25594900350E+03  0.39900540428E+03  0.00000000000E+00 0. -1.
        -12    1    3    3    0    0 -0.11138281802E+02 -0.63540869809E+03  0.58594250884E+03  0.86440551745E+03  0.00000000000E+00 0.  1.
         11    1    5    5    0    0  0.13027914303E+03  0.13134229726E+03  0.10310542874E+03  0.21178806292E+03  0.00000000000E+00 0. -1.
        -12    1    5    5    0    0  0.14518757287E+03  0.15495776313E+03  0.22631950668E+03  0.31034151958E+03  0.00000000000E+00 0.  1.
          4    1    6    6  502    0 -0.17156090208E+03  0.52014038240E+03  0.14998364726E+03  0.56786816690E+03  0.00000000000E+00 0. -1.
         -3    1    6    6    0  502 -0.36085656972E+02  0.12977148880E+03  0.79328251018E+02  0.15631949768E+03  0.00000000000E+00 0.  1.
<mgrwt>
<rscale>  0 0.10106726E+04</rscale>
<asrwt>0</asrwt>
<pdfrwt beam="1">  1        1 0.30079665E+00 0.10106726E+04</pdfrwt>
<pdfrwt beam="2">  1       -2 0.85315372E-01 0.10106726E+04</pdfrwt>
<totfact> 0.33694684E+00</totfact>
</mgrwt>
</event>
<event>
12    3  0.2212098E-007  0.5472265E+03  0.7818608E-02  0.1002138E+00
         -2   -1    0    0    0  501 -0.00000000000E+00  0.00000000000E+00  0.13124692037E+04  0.13124692037E+04  0.00000000000E+00 0.  1.
          1   -1    0    0  501    0  0.00000000000E+00 -0.00000000000E+00 -0.49375706115E+03  0.49375706115E+03  0.00000000000E+00 0. -1.
        -24    2    1    2    0    0  0.16112050520E+03  0.37462531816E+03 -0.27166309751E+03  0.49656700091E+03  0.80461180940E+02 0.  0.
    5000000    2    1    2    0    0 -0.16112050520E+03 -0.37462531816E+03  0.10903752401E+04  0.13096592640E+04  0.59998773096E+03 0.  0.
        -24    2    4    4    0    0  0.11156637481E+03 -0.38414785268E+03  0.82741579014E+03  0.92278974031E+03  0.83110687253E+02 0.  0.
         24    2    4    4    0    0 -0.27268688001E+03  0.95225345190E+01  0.26295944997E+03  0.38686952368E+03  0.77920105430E+02 0.  0.
         11    1    5    5    0    0  0.11581021393E+03 -0.26552124968E+03  0.57423460800E+03  0.64316321778E+03  0.00000000000E+00 0. -1.
        -12    1    5    5    0    0 -0.42438391188E+01 -0.11862660301E+03  0.25318118214E+03  0.27962652253E+03  0.00000000000E+00 0.  1.
         13    1    3    3    0    0  0.11010858643E+03  0.21905345565E+03 -0.20578913860E+03  0.32008981053E+03  0.00000000000E+00 0. -1.
        -14    1    3    3    0    0  0.51011918765E+02  0.15557186251E+03 -0.65873958910E+02  0.17647719038E+03  0.00000000000E+00 0.  1.
          2    1    6    6  502    0 -0.17625201590E+03 -0.17260930118E+02  0.12647206438E+03  0.21761869378E+03  0.00000000000E+00 0. -1.
         -1    1    6    6    0  502 -0.96434864113E+02  0.26783464637E+02  0.13648738559E+03  0.16925082989E+03  0.00000000000E+00 0.  1.
<mgrwt>
<rscale>  0 0.54722647E+03</rscale>
<asrwt>0</asrwt>
<pdfrwt beam="1">  1        1 0.75962626E-01 0.54722647E+03</pdfrwt>
<pdfrwt beam="2">  1       -2 0.20191834E+00 0.54722647E+03</pdfrwt>
<totfact> 0.53798746E+00</totfact>
</mgrwt>
</event>
<event>
12    3  0.2212098E-007  0.1283118E+04  0.7818608E-02  0.9043061E-01
          1   -1    0    0  501    0  0.00000000000E+00  0.00000000000E+00  0.13806366461E+04  0.13806366461E+04  0.00000000000E+00 0. -1.
         -2   -1    0    0    0  501 -0.00000000000E+00 -0.00000000000E+00 -0.12347933039E+04  0.12347933039E+04  0.00000000000E+00 0.  1.
        -24    2    1    2    0    0  0.11434014926E+04 -0.43356931061E+03 -0.10725021206E+03  0.12301360982E+04  0.79893002806E+02 0.  0.
    5000000    2    1    2    0    0 -0.11434014926E+04  0.43356931061E+03  0.25309355435E+03  0.13852938518E+04  0.59969441230E+03 0.  0.
        -24    2    4    4    0    0 -0.10321681145E+04  0.16855294282E+03  0.28164631733E+03  0.10863921866E+04  0.84511678335E+02 0.  0.
         24    2    4    4    0    0 -0.11123337804E+03  0.26501636779E+03 -0.28552762989E+02  0.29890166519E+03  0.76944171930E+02 0.  0.
         13    1    5    5    0    0 -0.40823381979E+03  0.44813567101E+02  0.74212918981E+02  0.41733759088E+03  0.00000000000E+00 0. -1.
        -14    1    5    5    0    0 -0.62393429474E+03  0.12373937572E+03  0.20743339835E+03  0.66905459569E+03  0.00000000000E+00 0.  1.
         13    1    3    3    0    0  0.17926601021E+03 -0.76260933439E+02 -0.45575361722E+02  0.20007285168E+03  0.00000000000E+00 0. -1.
        -14    1    3    3    0    0  0.96413548236E+03 -0.35730837717E+03 -0.61674850343E+02  0.10300632466E+04  0.00000000000E+00 0.  1.
          4    1    6    6  502    0 -0.94406807871E+02  0.13158345044E+03 -0.28159697217E+01  0.16197153913E+03  0.00000000000E+00 0. -1.
         -3    1    6    6    0  502 -0.16826570165E+02  0.13343291735E+03 -0.25736793267E+02  0.13693012606E+03  0.00000000000E+00 0.  1.
<mgrwt>
<rscale>  0 0.12831185E+04</rscale>
<asrwt>0</asrwt>
<pdfrwt beam="1">  1        1 0.21240564E+00 0.12831185E+04</pdfrwt>
<pdfrwt beam="2">  1       -2 0.18996820E+00 0.12831185E+04</pdfrwt>
<totfact> 0.10409394E+00</totfact>
</mgrwt>
</event>
<event>
12    3  0.2212098E-007  0.7018961E+03  0.7818608E-02  0.9713995E-01
         -2   -1    0    0    0  501 -0.00000000000E+00  0.00000000000E+00  0.62905894005E+03  0.62905894005E+03  0.00000000000E+00 0.  1.
          1   -1    0    0  501    0  0.00000000000E+00 -0.00000000000E+00 -0.10279266555E+04  0.10279266555E+04  0.00000000000E+00 0. -1.
        -24    2    1    2    0    0 -0.46349391148E+03 -0.50763187411E+03 -0.22852098825E+03  0.72888701216E+03  0.80856099544E+02 0.  0.
    5000000    2    1    2    0    0  0.46349391148E+03  0.50763187411E+03 -0.17034672725E+03  0.92809858344E+03  0.59986018996E+03 0.  0.
        -24    2    4    4    0    0  0.39806942016E+03  0.39243256939E+03 -0.36988751831E+03  0.67482084928E+03  0.78126932859E+02 0.  0.
         24    2    4    4    0    0  0.65424491324E+02  0.11519930472E+03  0.19954079106E+03  0.25327773416E+03  0.82351924393E+02 0.  0.
         11    1    3    3    0    0 -0.85567793933E+02 -0.90782985304E+02 -0.75364991816E+02  0.14575074535E+03  0.00000000000E+00 0. -1.
        -12    1    3    3    0    0 -0.37792611755E+03 -0.41684888880E+03 -0.15315599643E+03  0.58313626681E+03  0.00000000000E+00 0.  1.
         13    1    5    5    0    0  0.11634658299E+03  0.16728849646E+03 -0.13569794789E+03  0.24481809877E+03  0.00000000000E+00 0. -1.
        -14    1    5    5    0    0  0.28172283716E+03  0.22514407293E+03 -0.23418957041E+03  0.43000275051E+03  0.00000000000E+00 0.  1.
          2    1    6    6  502    0  0.34694313222E+02  0.11615423783E+03  0.13287872357E+03  0.17986733309E+03  0.00000000000E+00 0. -1.
         -1    1    6    6    0  502  0.30730178102E+02 -0.95493310554E+00  0.66662067485E+02  0.73410401067E+02  0.00000000000E+00 0.  1.
<mgrwt>
<rscale>  0 0.70189605E+03</rscale>
<asrwt>0</asrwt>
<pdfrwt beam="1">  1        1 0.15814256E+00 0.70189605E+03</pdfrwt>
<pdfrwt beam="2">  1       -2 0.96778299E-01 0.70189605E+03</pdfrwt>
<totfact> 0.11601805E+01</totfact>
</mgrwt>
</event>
<event>
12    3  0.2212098E-007  0.5764093E+03  0.7818608E-02  0.9955595E-01
         -2   -1    0    0    0  501 -0.00000000000E+00  0.00000000000E+00  0.27327552275E+03  0.27327552275E+03  0.00000000000E+00 0.  1.
          1   -1    0    0  501    0  0.00000000000E+00 -0.00000000000E+00 -0.26587071148E+04  0.26587071148E+04  0.00000000000E+00 0. -1.
        -24    2    1    2    0    0  0.44547359291E+03 -0.31038927439E+03 -0.19231722778E+04  0.20000197131E+04  0.81847535777E+02 0.  0.
    5000000    2    1    2    0    0 -0.44547359291E+03  0.31038927439E+03 -0.46225931429E+03  0.93196292446E+03  0.60006915875E+03 0.  0.
        -24    2    4    4    0    0 -0.82787394906E+01  0.13346464481E+03  0.10418020450E+03  0.19040787608E+03  0.86719636300E+02 0.  0.
         24    2    4    4    0    0 -0.43719485342E+03  0.17692462958E+03 -0.56643951879E+03  0.74155504838E+03  0.81292662203E+02 0.  0.
         13    1    5    5    0    0 -0.82609508357E+01  0.90805244072E+02  0.16168698987E+02  0.92602713171E+02  0.00000000000E+00 0. -1.
        -14    1    5    5    0    0 -0.17788654833E-01  0.42659400737E+02  0.88011505516E+02  0.97805162905E+02  0.00000000000E+00 0.  1.
         13    1    3    3    0    0  0.32523403238E+03 -0.26231020657E+03 -0.15328335414E+04  0.15887613055E+04  0.00000000000E+00 0. -1.
        -14    1    3    3    0    0  0.12023956054E+03 -0.48079067816E+02 -0.39033873635E+03  0.41125840755E+03  0.00000000000E+00 0.  1.
          4    1    6    6  502    0 -0.41751245292E+03  0.16815031733E+03 -0.50513926113E+03  0.67657730578E+03  0.00000000000E+00 0. -1.
         -3    1    6    6    0  502 -0.19682400504E+02  0.87743122483E+01 -0.61300257659E+02  0.64977742605E+02  0.00000000000E+00 0.  1.
<mgrwt>
<rscale>  0 0.57640929E+03</rscale>
<asrwt>0</asrwt>
<pdfrwt beam="1">  1        1 0.40903186E+00 0.57640929E+03</pdfrwt>
<pdfrwt beam="2">  1       -2 0.42042388E-01 0.57640929E+03</pdfrwt>
<totfact> 0.54075961E+00</totfact>
</mgrwt>
</event>
<event>
12    3  0.2212098E-007  0.3878685E+03  0.7818608E-02  0.1048063E+00
          1   -1    0    0  501    0  0.00000000000E+00  0.00000000000E+00  0.75767308673E+03  0.75767308673E+03  0.00000000000E+00 0. -1.
         -2   -1    0    0    0  501 -0.00000000000E+00 -0.00000000000E+00 -0.50524844458E+03  0.50524844458E+03  0.00000000000E+00 0.  1.
        -24    2    1    2    0    0 -0.30254134081E+03 -0.22134835039E+03 -0.19077392924E+03  0.42798032074E+03  0.79032320874E+02 0.  0.
    5000000    2    1    2    0    0  0.30254134081E+03  0.22134835039E+03  0.44319857138E+03  0.83494121057E+03  0.60014622911E+03 0.  0.
        -24    2    4    4    0    0  0.19432527675E+03  0.16861268130E+03 -0.89354082969E+02  0.28373947392E+03  0.79570015936E+02 0.  0.
         24    2    4    4    0    0  0.10821606406E+03  0.52735669088E+02  0.53255265435E+03  0.55120173665E+03  0.75625772834E+02 0.  0.
         13    1    3    3    0    0 -0.17428702461E+03 -0.14479255408E+03 -0.15458291034E+03  0.27429314033E+03  0.00000000000E+00 0. -1.
        -14    1    3    3    0    0 -0.12825431620E+03 -0.76555796312E+02 -0.36191018903E+02  0.15368718041E+03  0.00000000000E+00 0.  1.
         13    1    5    5    0    0  0.15638091799E+03  0.16746399180E+03 -0.63343624284E+02  0.23772167507E+03  0.00000000000E+00 0. -1.
        -14    1    5    5    0    0  0.37944358766E+02  0.11486894960E+01 -0.26010458685E+02  0.46017798847E+02  0.00000000000E+00 0.  1.
          2    1    6    6  502    0  0.44570603976E+00  0.20085241404E+02  0.29444329381E+02  0.35645253665E+02  0.00000000000E+00 0. -1.
         -1    1    6    6    0  502  0.10777035802E+03  0.32650427684E+02  0.50310832497E+03  0.51555648299E+03  0.00000000000E+00 0.  1.
<mgrwt>
<rscale>  0 0.38786852E+03</rscale>
<asrwt>0</asrwt>
<pdfrwt beam="1">  1        1 0.11656509E+00 0.38786852E+03</pdfrwt>
<pdfrwt beam="2">  1       -2 0.77730530E-01 0.38786852E+03</pdfrwt>
<totfact> 0.33159962E+01</totfact>
</mgrwt>
</event>
<event>
12    3  0.2212098E-007  0.6187644E+03  0.7818608E-02  0.9867223E-01
          1   -1    0    0  501    0  0.00000000000E+00  0.00000000000E+00  0.33859652672E+04  0.33859652672E+04  0.00000000000E+00 0. -1.
         -2   -1    0    0    0  501 -0.00000000000E+00 -0.00000000000E+00 -0.11920403424E+03  0.11920403424E+03  0.00000000000E+00 0.  1.
        -24    2    1    2    0    0  0.71614926029E+02 -0.47996907545E+03  0.11683207605E+04  0.12693502985E+04  0.10381603827E+03 0.  0.
    5000000    2    1    2    0    0 -0.71614926029E+02  0.47996907545E+03  0.20984404724E+04  0.22358190029E+04  0.59994598636E+03 0.  0.
        -24    2    4    4    0    0 -0.77381592262E+02 -0.11695353314E+03  0.31891944471E+03  0.35706790969E+03  0.78242189259E+02 0.  0.
         24    2    4    4    0    0  0.57666662326E+01  0.59692260859E+03  0.17795210277E+04  0.18787510932E+04  0.81613278366E+02 0.  0.
         11    1    3    3    0    0 -0.10280885165E+02 -0.22532204576E+03  0.46325666725E+03  0.51524990117E+03  0.00000000000E+00 0. -1.
        -12    1    3    3    0    0  0.81895811195E+02 -0.25464702969E+03  0.70506409329E+03  0.75410039734E+03  0.00000000000E+00 0.  1.
         11    1    5    5    0    0 -0.35636240385E+01 -0.25896467194E+02  0.14497548806E+03  0.14731333466E+03  0.00000000000E+00 0. -1.
        -12    1    5    5    0    0 -0.73817968223E+02 -0.91057065949E+02  0.17394395665E+03  0.20975457503E+03  0.00000000000E+00 0.  1.
          4    1    6    6  502    0  0.27679897574E+02  0.10131593357E+03  0.36198121270E+03  0.37691045817E+03  0.00000000000E+00 0. -1.
         -3    1    6    6    0  502 -0.21913231341E+02  0.49560667502E+03  0.14175398150E+04  0.15018406350E+04  0.00000000000E+00 0.  1.
<mgrwt>
<rscale>  0 0.61876440E+03</rscale>
<asrwt>0</asrwt>
<pdfrwt beam="1">  1        1 0.52091766E+00 0.61876440E+03</pdfrwt>
<pdfrwt beam="2">  1       -2 0.18339085E-01 0.61876440E+03</pdfrwt>
<totfact> 0.73663404E+00</totfact>
</mgrwt>
</event>
<event>
12    3  0.2212098E-007  0.4754174E+03  0.7818608E-02  0.1020402E+00
          1   -1    0    0  501    0  0.00000000000E+00  0.00000000000E+00  0.13830954654E+04  0.13830954654E+04  0.00000000000E+00 0. -1.
         -2   -1    0    0    0  501 -0.00000000000E+00 -0.00000000000E+00 -0.19839162366E+03  0.19839162366E+03  0.00000000000E+00 0.  1.
        -24    2    1    2    0    0 -0.29640436798E+03 -0.14503048319E+03  0.24237303746E+03  0.41679668556E+03  0.78008957117E+02 0.  0.
    5000000    2    1    2    0    0  0.29640436798E+03  0.14503048319E+03  0.94233080424E+03  0.11646904035E+04  0.59968908687E+03 0.  0.
        -24    2    4    4    0    0  0.10381287580E+03  0.32479290275E+03  0.75703952806E+03  0.83396423283E+03  0.78230120445E+02 0.  0.
         24    2    4    4    0    0  0.19259149218E+03 -0.17976241955E+03  0.18529127618E+03  0.33072617064E+03  0.75106142040E+02 0.  0.
         11    1    5    5    0    0  0.13257584015E+02  0.16862658902E+03  0.35321459591E+03  0.39162640465E+03  0.00000000000E+00 0. -1.
        -12    1    5    5    0    0  0.90555291780E+02  0.15616631372E+03  0.40382493215E+03  0.44233782818E+03  0.00000000000E+00 0.  1.
         13    1    3    3    0    0 -0.27352228933E+03 -0.13803614208E+03  0.24558070011E+03  0.39265544634E+03  0.00000000000E+00 0. -1.
        -14    1    3    3    0    0 -0.22882078652E+02 -0.69943411128E+01 -0.32076626458E+01  0.24141239212E+02  0.00000000000E+00 0.  1.
          2    1    6    6  502    0  0.11715570181E+03 -0.66318695880E+02  0.67349516729E+02  0.15053101107E+03  0.00000000000E+00 0. -1.
         -1    1    6    6    0  502  0.75435790374E+02 -0.11344372367E+03  0.11794175945E+03  0.18019515957E+03  0.00000000000E+00 0.  1.
<mgrwt>
<rscale>  0 0.47541744E+03</rscale>
<asrwt>0</asrwt>
<pdfrwt beam="1">  1        1 0.21278391E+00 0.47541744E+03</pdfrwt>
<pdfrwt beam="2">  1       -2 0.30521789E-01 0.47541744E+03</pdfrwt>
<totfact> 0.72595933E+01</totfact>
</mgrwt>
</event>
<event>
12    3  0.2212098E-007  0.6372686E+03  0.7818608E-02  0.9830967E-01
          1   -1    0    0  501    0  0.00000000000E+00  0.00000000000E+00  0.62020219997E+03  0.62020219997E+03  0.00000000000E+00 0. -1.
         -4   -1    0    0    0  501 -0.00000000000E+00 -0.00000000000E+00 -0.96033451607E+03  0.96033451607E+03  0.00000000000E+00 0.  1.
        -24    2    1    2    0    0 -0.49449858123E+03 -0.10656959636E+03  0.27689818915E+03  0.58224654061E+03  0.80327462273E+02 0.  0.
    5000000    2    1    2    0    0  0.49449858123E+03  0.10656959636E+03 -0.61703050526E+03  0.99829017543E+03  0.59997558637E+03 0.  0.
        -24    2    4    4    0    0  0.20838523019E+03  0.33277876855E+03 -0.40475712640E+03  0.56934977805E+03  0.78515765551E+02 0.  0.
         24    2    4    4    0    0  0.28611335104E+03 -0.22620917219E+03 -0.21227337886E+03  0.42894039738E+03  0.76801288449E+02 0.  0.
         11    1    3    3    0    0 -0.29759841499E+02  0.97768693892E+00 -0.17076909403E+01  0.29824826004E+02  0.00000000000E+00 0. -1.
        -12    1    3    3    0    0 -0.46473873973E+03 -0.10754728330E+03  0.27860588009E+03  0.55242171461E+03  0.00000000000E+00 0.  1.
         13    1    5    5    0    0  0.19442825794E+03  0.33205216768E+03 -0.37927934619E+03  0.54029048852E+03  0.00000000000E+00 0. -1.
        -14    1    5    5    0    0  0.13956972252E+02  0.72660086571E+00 -0.25477780214E+02  0.29059289528E+02  0.00000000000E+00 0.  1.
          2    1    6    6  502    0  0.28773347500E+03 -0.21901857294E+03 -0.19654302178E+03  0.41156876380E+03  0.00000000000E+00 0. -1.
         -1    1    6    6    0  502 -0.16201239673E+01 -0.71905992509E+01 -0.15730357074E+02  0.17371633571E+02  0.00000000000E+00 0.  1.
<mgrwt>
<rscale>  0 0.63726856E+03</rscale>
<asrwt>0</asrwt>
<pdfrwt beam="1">  1        1 0.95415723E-01 0.63726856E+03</pdfrwt>
<pdfrwt beam="2">  1       -4 0.14774377E+00 0.63726856E+03</pdfrwt>
<totfact> 0.49165692E+00</totfact>
</mgrwt>
</event>
<event>
12    3  0.2212098E-007  0.9539588E+03  0.7818608E-02  0.9360535E-01
         -2   -1    0    0    0  501 -0.00000000000E+00  0.00000000000E+00  0.15930109011E+04  0.15930109011E+04  0.00000000000E+00 0.  1.
          1   -1    0    0  501    0  0.00000000000E+00 -0.00000000000E+00 -0.65951366929E+03  0.65951366929E+03  0.00000000000E+00 0. -1.
        -24    2    1    2    0    0 -0.87714151586E+03 -0.30285687880E+03  0.55682978654E+03  0.10850385650E+04  0.78420332483E+02 0.  0.
    5000000    2    1    2    0    0  0.87714151586E+03  0.30285687880E+03  0.37666744526E+03  0.11674860053E+04  0.60003806584E+03 0.  0.
        -24    2    4    4    0    0  0.24575346524E+03 -0.36893031146E+02 -0.12377716544E+03  0.28884590636E+03  0.79720195112E+02 0.  0.
         24    2    4    4    0    0  0.63138805062E+03  0.33974990995E+03  0.50044461070E+03  0.87864009898E+03  0.86502851901E+02 0.  0.
         11    1    5    5    0    0  0.16230559196E+03  0.10639410415E+02 -0.96010962072E+02  0.18887669807E+03  0.00000000000E+00 0. -1.
        -12    1    5    5    0    0  0.83447873280E+02 -0.47532441562E+02 -0.27766203369E+02  0.99969208285E+02  0.00000000000E+00 0.  1.
         11    1    3    3    0    0 -0.50666971300E+03 -0.17257464367E+03  0.36595006756E+03  0.64839467738E+03  0.00000000000E+00 0. -1.
        -12    1    3    3    0    0 -0.37047180286E+03 -0.13028223513E+03  0.19087971898E+03  0.43664388766E+03  0.00000000000E+00 0.  1.
          4    1    6    6  502    0  0.31094020602E+03  0.21176037038E+03  0.28327977106E+03  0.47092854540E+03  0.00000000000E+00 0. -1.
         -3    1    6    6    0  502  0.32044784460E+03  0.12798953957E+03  0.21716483964E+03  0.40771155359E+03  0.00000000000E+00 0.  1.
<mgrwt>
<rscale>  0 0.95395879E+03</rscale>
<asrwt>0</asrwt>
<pdfrwt beam="1">  1        1 0.10146364E+00 0.95395879E+03</pdfrwt>
<pdfrwt beam="2">  1       -2 0.24507860E+00 0.95395879E+03</pdfrwt>
<totfact> 0.18118388E+00</totfact>
</mgrwt>
</event>
<event>
12    3  0.2212098E-007  0.1144934E+04  0.7818608E-02  0.9162470E-01
         -2   -1    0    0    0  501 -0.00000000000E+00  0.00000000000E+00  0.16357426432E+04  0.16357426432E+04  0.00000000000E+00 0.  1.
          1   -1    0    0  501    0  0.00000000000E+00 -0.00000000000E+00 -0.12555893890E+04  0.12555893890E+04  0.00000000000E+00 0. -1.
        -24    2    1    2    0    0  0.95992488854E+03 -0.49277583008E+03 -0.66838969722E+03  0.12716093799E+04  0.77212805450E+02 0.  0.
    5000000    2    1    2    0    0 -0.95992488854E+03  0.49277583008E+03  0.10485429515E+04  0.16197226523E+04  0.59981275330E+03 0.  0.
        -24    2    4    4    0    0 -0.10106072632E+04  0.37933470758E+03  0.87660543460E+03  0.13928892280E+04  0.80507470364E+02 0.  0.
         24    2    4    4    0    0  0.50682374645E+02  0.11344112251E+03  0.17193751689E+03  0.22683342432E+03  0.80332442375E+02 0.  0.
         13    1    5    5    0    0 -0.62909029329E+03  0.26707502131E+03  0.52061028429E+03  0.85913836617E+03  0.00000000000E+00 0. -1.
        -14    1    5    5    0    0 -0.38151696990E+03  0.11225968627E+03  0.35599515030E+03  0.53375086185E+03  0.00000000000E+00 0.  1.
         13    1    3    3    0    0  0.97136341859E+02 -0.43689465360E+02 -0.93657451196E+02  0.14183073171E+03  0.00000000000E+00 0. -1.
        -14    1    3    3    0    0  0.86278854668E+03 -0.44908636472E+03 -0.57473224602E+03  0.11297786482E+04  0.00000000000E+00 0.  1.
          4    1    6    6  502    0  0.99489247551E+01  0.67240447903E+02  0.34502888873E+02  0.76228001932E+02  0.00000000000E+00 0. -1.
         -3    1    6    6    0  502  0.40733449890E+02  0.46200674605E+02  0.13743462801E+03  0.15060542238E+03  0.00000000000E+00 0.  1.
<mgrwt>
<rscale>  0 0.11449340E+04</rscale>
<asrwt>0</asrwt>
<pdfrwt beam="1">  1        1 0.19316760E+00 0.11449340E+04</pdfrwt>
<pdfrwt beam="2">  1       -2 0.25165271E+00 0.11449340E+04</pdfrwt>
<totfact> 0.52667062E-01</totfact>
</mgrwt>
</event>
<event>
12    3  0.2212098E-007  0.1100078E+04  0.7818608E-02  0.9205116E-01
         -2   -1    0    0    0  501 -0.00000000000E+00  0.00000000000E+00  0.13975777903E+04  0.13975777903E+04  0.00000000000E+00 0.  1.
          1   -1    0    0  501    0  0.00000000000E+00 -0.00000000000E+00 -0.10353357161E+04  0.10353357161E+04  0.00000000000E+00 0. -1.
        -24    2    1    2    0    0  0.98585348565E+02  0.10599866079E+04 -0.20304192055E+03  0.10867503492E+04  0.80682216961E+02 0.  0.
    5000000    2    1    2    0    0 -0.98585348565E+02 -0.10599866079E+04  0.56528399471E+03  0.13461631572E+04  0.59943187365E+03 0.  0.
        -24    2    4    4    0    0  0.58295307130E+02 -0.48002534752E+02 -0.77631359964E+02  0.13432972372E+03  0.79468612978E+02 0.  0.
         24    2    4    4    0    0 -0.15688065570E+03 -0.10119840732E+04  0.64291535468E+03  0.12118334335E+04  0.80478647468E+02 0.  0.
         13    1    3    3    0    0  0.59667216957E+02  0.62932499556E+03 -0.16078210356E+03  0.65227372448E+03  0.00000000000E+00 0. -1.
        -14    1    3    3    0    0  0.38918131609E+02  0.43066161236E+03 -0.42259816997E+02  0.43447662476E+03  0.00000000000E+00 0.  1.
         13    1    5    5    0    0  0.15091366506E+02 -0.62306287952E+02 -0.46192004067E+02  0.79015973709E+02  0.00000000000E+00 0. -1.
        -14    1    5    5    0    0  0.43203940624E+02  0.14303753200E+02 -0.31439355897E+02  0.55313750011E+02  0.00000000000E+00 0.  1.
          4    1    6    6  502    0 -0.13265649220E+03 -0.95331908457E+03  0.58796918167E+03  0.11278842053E+04  0.00000000000E+00 0. -1.
         -3    1    6    6    0  502 -0.24224163492E+02 -0.58664988601E+02  0.54946173004E+02  0.83949228181E+02  0.00000000000E+00 0.  1.
<mgrwt>
<rscale>  0 0.11000780E+04</rscale>
<asrwt>0</asrwt>
<pdfrwt beam="1">  1        1 0.15928242E+00 0.11000780E+04</pdfrwt>
<pdfrwt beam="2">  1       -2 0.21501197E+00 0.11000780E+04</pdfrwt>
<totfact> 0.13056722E+00</totfact>
</mgrwt>
</event>
<event>
12    3  0.2212098E-007  0.5681965E+03  0.7818608E-02  0.9973677E-01
         -2   -1    0    0    0  501 -0.00000000000E+00  0.00000000000E+00  0.59899380262E+03  0.59899380262E+03  0.00000000000E+00 0.  1.
          1   -1    0    0  501    0  0.00000000000E+00 -0.00000000000E+00 -0.86056132099E+03  0.86056132099E+03  0.00000000000E+00 0. -1.
        -24    2    1    2    0    0  0.63106854586E+02  0.42775137009E+03 -0.51562963622E+03  0.67755974766E+03  0.79117508759E+02 0.  0.
    5000000    2    1    2    0    0 -0.63106854586E+02 -0.42775137009E+03  0.25406211785E+03  0.78199537595E+03  0.60001291534E+03 0.  0.
        -24    2    4    4    0    0 -0.29366191363E+03 -0.33038836678E+03  0.26310294831E+03  0.51911371950E+03  0.69728759867E+02 0.  0.
         24    2    4    4    0    0  0.23055505904E+03 -0.97363003313E+02 -0.90408304573E+01  0.26288165645E+03  0.79936468642E+02 0.  0.
         11    1    5    5    0    0 -0.19441167260E+03 -0.21664172454E+03  0.21061758211E+03  0.35928999589E+03  0.00000000000E+00 0. -1.
        -12    1    5    5    0    0 -0.99250241030E+02 -0.11374664224E+03  0.52485366199E+02  0.15982372361E+03  0.00000000000E+00 0.  1.
         13    1    3    3    0    0  0.22228323226E+01  0.67663763324E+02 -0.42713430721E+02  0.80048504137E+02  0.00000000000E+00 0. -1.
        -14    1    3    3    0    0  0.60884022264E+02  0.36008760677E+03 -0.47291620550E+03  0.59751124352E+03  0.00000000000E+00 0.  1.
          4    1    6    6  502    0  0.54740205111E+02  0.97145042406E+01  0.86627756270E+01  0.56266378325E+02  0.00000000000E+00 0. -1.
         -1    1    6    6    0  502  0.17581485393E+03 -0.10707750755E+03 -0.17703606084E+02  0.20661527812E+03  0.00000000000E+00 0.  1.
<mgrwt>
<rscale>  0 0.56819653E+03</rscale>
<asrwt>0</asrwt>
<pdfrwt beam="1">  1        1 0.13239405E+00 0.56819653E+03</pdfrwt>
<pdfrwt beam="2">  1       -2 0.92152892E-01 0.56819653E+03</pdfrwt>
<totfact> 0.17960108E+01</totfact>
</mgrwt>
</event>
<event>
12    3  0.2212098E-007  0.2074228E+04  0.7818608E-02  0.8572682E-01
          1   -1    0    0  501    0  0.00000000000E+00  0.00000000000E+00  0.19045238880E+04  0.19045238880E+04  0.00000000000E+00 0. -1.
         -2   -1    0    0    0  501 -0.00000000000E+00 -0.00000000000E+00 -0.22981395536E+04  0.22981395536E+04  0.00000000000E+00 0.  1.
        -24    2    1    2    0    0  0.16578103643E+04 -0.11861429543E+04 -0.39452297233E+03  0.20777788229E+04  0.79032582461E+02 0.  0.
    5000000    2    1    2    0    0 -0.16578103643E+04  0.11861429543E+04  0.90730677943E+00  0.21248846187E+04  0.59988624538E+03 0.  0.
        -24    2    4    4    0    0 -0.10434018752E+04  0.42163630845E+03 -0.11652486877E+03  0.11341628235E+04  0.79262950830E+02 0.  0.
         24    2    4    4    0    0 -0.61440848913E+03  0.76450664587E+03  0.11743217555E+03  0.99072179520E+03  0.75968128435E+02 0.  0.
         11    1    3    3    0    0  0.60014430245E+03 -0.41663593289E+03 -0.10434087784E+03  0.73800115388E+03  0.00000000000E+00 0. -1.
        -12    1    3    3    0    0  0.10576660619E+04 -0.76950702144E+03 -0.29018209449E+03  0.13397776690E+04  0.00000000000E+00 0.  1.
         13    1    5    5    0    0 -0.90002006968E+03  0.33603129005E+03 -0.11079037052E+03  0.96707169327E+03  0.00000000000E+00 0. -1.
        -14    1    5    5    0    0 -0.14338180554E+03  0.85605018408E+02 -0.57344982582E+01  0.16709113024E+03  0.00000000000E+00 0.  1.
          4    1    6    6  502    0 -0.14713564886E+03  0.14887245350E+03  0.24163619042E+01  0.20932688643E+03  0.00000000000E+00 0. -1.
         -3    1    6    6    0  502 -0.46727284027E+03  0.61563419236E+03  0.11501581365E+03  0.78139490877E+03  0.00000000000E+00 0.  1.
<mgrwt>
<rscale>  0 0.20742284E+04</rscale>
<asrwt>0</asrwt>
<pdfrwt beam="1">  1        1 0.29300368E+00 0.20742284E+04</pdfrwt>
<pdfrwt beam="2">  1       -2 0.35355993E+00 0.20742284E+04</pdfrwt>
<totfact> 0.39585754E-02</totfact>
</mgrwt>
</event>
<event>
12    3  0.2212098E-007  0.7472820E+03  0.7818608E-02  0.9639624E-01
         -2   -1    0    0    0  501 -0.00000000000E+00  0.00000000000E+00  0.29701023978E+03  0.29701023978E+03  0.00000000000E+00 0.  1.
          1   -1    0    0  501    0  0.00000000000E+00 -0.00000000000E+00 -0.32093985721E+04  0.32093985721E+04  0.00000000000E+00 0. -1.
        -24    2    1    2    0    0  0.14728221538E+02  0.69131527068E+03 -0.33745614046E+03  0.77356204399E+03  0.79924121448E+02 0.  0.
    5000000    2    1    2    0    0 -0.14728221538E+02 -0.69131527068E+03 -0.25749321918E+04  0.27328467679E+04  0.60003494909E+03 0.  0.
        -24    2    4    4    0    0 -0.20237589985E+03 -0.26511847153E+03 -0.17410982640E+04  0.17745512080E+04  0.79781050234E+02 0.  0.
         24    2    4    4    0    0  0.18764767831E+03 -0.42619679915E+03 -0.83383392782E+03  0.95829555990E+03  0.78714662898E+02 0.  0.
         11    1    5    5    0    0 -0.91251418003E+02 -0.14164066603E+03 -0.10708203482E+04  0.10839949805E+04  0.00000000000E+00 0. -1.
        -12    1    5    5    0    0 -0.11112448185E+03 -0.12347780550E+03 -0.67027791581E+03  0.69055622750E+03  0.00000000000E+00 0.  1.
         11    1    3    3    0    0 -0.20835908099E+02  0.36864731804E+03 -0.14871759697E+03  0.39806017612E+03  0.00000000000E+00 0. -1.
        -12    1    3    3    0    0  0.35564129636E+02  0.32266795263E+03 -0.18873854349E+03  0.37550186787E+03  0.00000000000E+00 0.  1.
          2    1    6    6  502    0  0.17844419308E+03 -0.39236980376E+03 -0.80402504796E+03  0.91227883385E+03  0.00000000000E+00 0. -1.
         -1    1    6    6    0  502  0.92034852324E+01 -0.33826995389E+02 -0.29808879859E+02  0.46016726045E+02  0.00000000000E+00 0.  1.
<mgrwt>
<rscale>  0 0.74728205E+03</rscale>
<asrwt>0</asrwt>
<pdfrwt beam="1">  1        1 0.49375365E+00 0.74728205E+03</pdfrwt>
<pdfrwt beam="2">  1       -2 0.45693880E-01 0.74728205E+03</pdfrwt>
<totfact> 0.17955597E+00</totfact>
</mgrwt>
</event>
<event>
12    3  0.2212098E-007  0.9238656E+03  0.7818608E-02  0.9396230E-01
         -2   -1    0    0    0  501 -0.00000000000E+00  0.00000000000E+00  0.30370004987E+03  0.30370004987E+03  0.00000000000E+00 0.  1.
          1   -1    0    0  501    0  0.00000000000E+00 -0.00000000000E+00 -0.33008552977E+04  0.33008552977E+04  0.00000000000E+00 0. -1.
        -24    2    1    2    0    0  0.81307067523E+03 -0.29649243178E+03 -0.86330503428E+03  0.12249967521E+04  0.79559886091E+02 0.  0.
    5000000    2    1    2    0    0 -0.81307067523E+03  0.29649243178E+03 -0.21338502136E+04  0.23795585955E+04  0.59999224186E+03 0.  0.
        -24    2    4    4    0    0 -0.61390780647E+02 -0.88080349040E+02 -0.70746601920E+03  0.72004058905E+03  0.80145528394E+02 0.  0.
         24    2    4    4    0    0 -0.75167989458E+03  0.38457278082E+03 -0.14263841944E+04  0.16595180064E+04  0.80679960379E+02 0.  0.
         11    1    3    3    0    0  0.42168005442E+03 -0.19559964581E+03 -0.46952360791E+03  0.66070092184E+03  0.00000000000E+00 0. -1.
        -12    1    3    3    0    0  0.39139062081E+03 -0.10089278597E+03 -0.39378142637E+03  0.56429583028E+03  0.00000000000E+00 0.  1.
         11    1    5    5    0    0  0.79944705179E+01 -0.55113815345E+02 -0.24605344466E+03  0.25227711317E+03  0.00000000000E+00 0. -1.
        -12    1    5    5    0    0 -0.69385251165E+02 -0.32966533694E+02 -0.46141257454E+03  0.46776347588E+03  0.00000000000E+00 0.  1.
          2    1    6    6  502    0 -0.40691193292E+03  0.17677441681E+03 -0.69091187686E+03  0.82108814215E+03  0.00000000000E+00 0. -1.
         -1    1    6    6    0  502 -0.34476796167E+03  0.20779836401E+03 -0.73547231750E+03  0.83842986426E+03  0.00000000000E+00 0.  1.
<mgrwt>
<rscale>  0 0.92386564E+03</rscale>
<asrwt>0</asrwt>
<pdfrwt beam="1">  1        1 0.50782390E+00 0.92386564E+03</pdfrwt>
<pdfrwt beam="2">  1       -2 0.46723084E-01 0.92386564E+03</pdfrwt>
<totfact> 0.14211943E+00</totfact>
</mgrwt>
</event>
<event>
12    3  0.2212098E-007  0.6034887E+03  0.7818608E-02  0.9898194E-01
          1   -1    0    0  501    0  0.00000000000E+00  0.00000000000E+00  0.89711169957E+03  0.89711169957E+03  0.00000000000E+00 0. -1.
         -2   -1    0    0    0  501 -0.00000000000E+00 -0.00000000000E+00 -0.46436792290E+03  0.46436792290E+03  0.00000000000E+00 0.  1.
        -24    2    1    2    0    0 -0.48216493088E+03 -0.67765523619E+02  0.41808939925E+02  0.49537608404E+03  0.81081998169E+02 0.  0.
    5000000    2    1    2    0    0  0.48216493088E+03  0.67765523619E+02  0.39093483674E+03  0.86610353843E+03  0.60019172432E+03 0.  0.
        -24    2    4    4    0    0  0.31077835148E+03  0.29130958387E+03  0.83322866363E+02  0.44212281984E+03  0.84174998469E+02 0.  0.
         24    2    4    4    0    0  0.17138657940E+03 -0.22354406025E+03  0.30761197038E+03  0.42398071859E+03  0.76086917028E+02 0.  0.
         13    1    3    3    0    0 -0.68023635577E+02 -0.27348066565E+02 -0.16646433358E+02  0.75181350650E+02  0.00000000000E+00 0. -1.
        -14    1    3    3    0    0 -0.41414129530E+03 -0.40417457054E+02  0.58455373283E+02  0.42019473339E+03  0.00000000000E+00 0.  1.
         13    1    5    5    0    0  0.97065818600E+02  0.94937181068E+02 -0.12823002532E+02  0.13637914387E+03  0.00000000000E+00 0. -1.
        -14    1    5    5    0    0  0.21371253288E+03  0.19637240280E+03  0.96145868895E+02  0.30574367597E+03  0.00000000000E+00 0.  1.
          4    1    6    6  502    0  0.35183758690E+02 -0.10582468387E+03  0.12595392284E+03  0.16822946017E+03  0.00000000000E+00 0. -1.
         -3    1    6    6    0  502  0.13620282071E+03 -0.11771937638E+03  0.18165804754E+03  0.25575125841E+03  0.00000000000E+00 0.  1.
<mgrwt>
<rscale>  0 0.60348873E+03</rscale>
<asrwt>0</asrwt>
<pdfrwt beam="1">  1        1 0.13801718E+00 0.60348873E+03</pdfrwt>
<pdfrwt beam="2">  1       -2 0.71441219E-01 0.60348873E+03</pdfrwt>
<totfact> 0.29576041E+01</totfact>
</mgrwt>
</event>
<event>
12    3  0.2212098E-007  0.6279499E+03  0.7818608E-02  0.9849058E-01
         -2   -1    0    0    0  501 -0.00000000000E+00  0.00000000000E+00  0.92930779959E+03  0.92930779959E+03  0.00000000000E+00 0.  1.
          1   -1    0    0  501    0  0.00000000000E+00 -0.00000000000E+00 -0.93265280837E+03  0.93265280837E+03  0.00000000000E+00 0. -1.
        -24    2    1    2    0    0 -0.42159936270E+03  0.25753507660E+03  0.66815161249E+03  0.83478063928E+03  0.79760893443E+02 0.  0.
    5000000    2    1    2    0    0  0.42159936270E+03 -0.25753507660E+03 -0.67149662127E+03  0.10271799687E+04  0.60010052272E+03 0.  0.
        -24    2    4    4    0    0  0.44669253745E+03 -0.40435027894E+03 -0.49564882058E+03  0.78366160618E+03  0.73650448534E+02 0.  0.
         24    2    4    4    0    0 -0.25093174752E+02  0.14681520233E+03 -0.17584780069E+03  0.24351836250E+03  0.78704337956E+02 0.  0.
         11    1    5    5    0    0  0.42535679199E+03 -0.37016838197E+03 -0.44143285709E+03  0.71611172230E+03  0.00000000000E+00 0. -1.
        -12    1    5    5    0    0  0.21335745462E+02 -0.34181896966E+02 -0.54215963494E+02  0.67549883880E+02  0.00000000000E+00 0.  1.
         11    1    3    3    0    0 -0.27437575740E+03  0.12306131978E+03  0.38685878675E+03  0.48998557689E+03  0.00000000000E+00 0. -1.
        -12    1    3    3    0    0 -0.14722360531E+03  0.13447375682E+03  0.28129282575E+03  0.34479506239E+03  0.00000000000E+00 0.  1.
          2    1    6    6  502    0 -0.31488729825E+02  0.12376513674E+03 -0.94894243435E+02  0.15910457760E+03  0.00000000000E+00 0. -1.
         -1    1    6    6    0  502  0.63955550722E+01  0.23050065594E+02 -0.80953557251E+02  0.84413784894E+02  0.00000000000E+00 0.  1.
<mgrwt>
<rscale>  0 0.62794987E+03</rscale>
<asrwt>0</asrwt>
<pdfrwt beam="1">  1        1 0.14348505E+00 0.62794987E+03</pdfrwt>
<pdfrwt beam="2">  1       -2 0.14297043E+00 0.62794987E+03</pdfrwt>
<totfact> 0.53185206E+00</totfact>
</mgrwt>
</event>
<event>
12    3  0.2212098E-007  0.5255973E+03  0.7818608E-02  0.1007305E+00
          1   -1    0    0  501    0  0.00000000000E+00  0.00000000000E+00  0.68086002575E+03  0.68086002575E+03  0.00000000000E+00 0. -1.
         -2   -1    0    0    0  501 -0.00000000000E+00 -0.00000000000E+00 -0.68642785162E+03  0.68642785162E+03  0.00000000000E+00 0.  1.
        -24    2    1    2    0    0 -0.48852809908E+03  0.15150356180E+03 -0.20077634777E+03  0.55503070598E+03  0.78325665782E+02 0.  0.
    5000000    2    1    2    0    0  0.48852809908E+03 -0.15150356180E+03  0.19520852190E+03  0.81225717140E+03  0.60003525949E+03 0.  0.
        -24    2    4    4    0    0  0.28594690445E+03 -0.28822751620E+02  0.39343087782E+03  0.49332226423E+03  0.77347382549E+02 0.  0.
         24    2    4    4    0    0  0.20258119463E+03 -0.12268081018E+03 -0.19822235592E+03  0.31893490716E+03  0.79609365134E+02 0.  0.
         11    1    3    3    0    0 -0.28675806535E+03  0.11437840572E+03 -0.88507367930E+02  0.32116376183E+03  0.00000000000E+00 0. -1.
        -12    1    3    3    0    0 -0.20177003374E+03  0.37125156073E+02 -0.11226897984E+03  0.23386694414E+03  0.00000000000E+00 0.  1.
         13    1    5    5    0    0  0.23781031801E+03 -0.26516872135E+02  0.36766895207E+03  0.43867681747E+03  0.00000000000E+00 0. -1.
        -14    1    5    5    0    0  0.48136586439E+02 -0.23058794849E+01  0.25761925745E+02  0.54645446766E+02  0.00000000000E+00 0.  1.
          2    1    6    6  502    0  0.14021749271E+03 -0.12440003641E+03 -0.15048255260E+03  0.24037743853E+03  0.00000000000E+00 0. -1.
         -1    1    6    6    0  502  0.62363701919E+02  0.17192262315E+01 -0.47739803326E+02  0.78557468629E+02  0.00000000000E+00 0.  1.
<mgrwt>
<rscale>  0 0.52559730E+03</rscale>
<asrwt>0</asrwt>
<pdfrwt beam="1">  1        1 0.10474770E+00 0.52559730E+03</pdfrwt>
<pdfrwt beam="2">  1       -2 0.10560428E+00 0.52559730E+03</pdfrwt>
<totfact> 0.18870913E+01</totfact>
</mgrwt>
</event>
<event>
12    3  0.2212098E-007  0.4773531E+03  0.7818608E-02  0.1019865E+00
         -2   -1    0    0    0  501 -0.00000000000E+00  0.00000000000E+00  0.24330040723E+03  0.24330040723E+03  0.00000000000E+00 0.  1.
          1   -1    0    0  501    0  0.00000000000E+00 -0.00000000000E+00 -0.16273249938E+04  0.16273249938E+04  0.00000000000E+00 0. -1.
        -24    2    1    2    0    0 -0.35993275979E+03 -0.26812243220E+03 -0.27543592289E+03  0.53260912353E+03  0.79789100927E+02 0.  0.
    5000000    2    1    2    0    0  0.35993275979E+03  0.26812243220E+03 -0.11085886636E+04  0.13380162775E+04  0.59989791081E+03 0.  0.
        -24    2    4    4    0    0  0.84048922914E+02 -0.47561974675E+01  0.27566397349E+02  0.13468510278E+03  0.10145603871E+03 0.  0.
         24    2    4    4    0    0  0.27588383688E+03  0.27287862967E+03 -0.11361550610E+04  0.12033311747E+04  0.81135413833E+02 0.  0.
         11    1    3    3    0    0 -0.16347947163E+03 -0.92728558414E+02 -0.78129043952E+02  0.20353935909E+03  0.00000000000E+00 0. -1.
        -12    1    3    3    0    0 -0.19645328816E+03 -0.17539387379E+03 -0.19730687894E+03  0.32906976444E+03  0.00000000000E+00 0.  1.
         13    1    5    5    0    0  0.33332821499E+01  0.21815672265E+02  0.42986397774E+02  0.48320437910E+02  0.00000000000E+00 0. -1.
        -14    1    5    5    0    0  0.80715640764E+02 -0.26571869732E+02 -0.15420000425E+02  0.86364664870E+02  0.00000000000E+00 0.  1.
          2    1    6    6  502    0  0.44226998015E+02  0.93282185995E+02 -0.30627986428E+03  0.32321037861E+03  0.00000000000E+00 0. -1.
         -1    1    6    6    0  502  0.23165683886E+03  0.17959644367E+03 -0.82987519670E+03  0.88012079607E+03  0.00000000000E+00 0.  1.
<mgrwt>
<rscale>  0 0.47735314E+03</rscale>
<asrwt>0</asrwt>
<pdfrwt beam="1">  1        1 0.25035769E+00 0.47735314E+03</pdfrwt>
<pdfrwt beam="2">  1       -2 0.37430832E-01 0.47735314E+03</pdfrwt>
<totfact> 0.33814718E+01</totfact>
</mgrwt>
</event>
<event>
12    3  0.2212098E-007  0.5060098E+03  0.7818608E-02  0.1012222E+00
          1   -1    0    0  501    0  0.00000000000E+00  0.00000000000E+00  0.33278768784E+03  0.33278768784E+03  0.00000000000E+00 0. -1.
         -2   -1    0    0    0  501 -0.00000000000E+00 -0.00000000000E+00 -0.98029847537E+03  0.98029847537E+03  0.00000000000E+00 0.  1.
        -24    2    1    2    0    0 -0.13171484176E+03  0.32245316362E+03  0.88383546225E+01  0.35783372007E+03  0.81498542550E+02 0.  0.
    5000000    2    1    2    0    0  0.13171484176E+03 -0.32245316362E+03 -0.65634914215E+03  0.95525244314E+03  0.60032340572E+03 0.  0.
        -24    2    4    4    0    0  0.13959215142E+03  0.13117211289E+03 -0.33231689635E+03  0.39187541157E+03  0.80247907485E+02 0.  0.
         24    2    4    4    0    0 -0.78773096619E+01 -0.45362527651E+03 -0.32403224580E+03  0.56337703157E+03  0.80986664866E+02 0.  0.
         11    1    5    5    0    0  0.11763183868E+02  0.49322838266E+02 -0.49288292905E+02  0.70713864884E+02  0.00000000000E+00 0. -1.
        -12    1    5    5    0    0  0.12782896756E+03  0.81849274626E+02 -0.28302860344E+03  0.32116154669E+03  0.00000000000E+00 0.  1.
         11    1    3    3    0    0 -0.25171095359E+02  0.13194185889E+03 -0.25932303315E+02  0.13680176360E+03  0.00000000000E+00 0. -1.
        -12    1    3    3    0    0 -0.10654374640E+03  0.19051130473E+03  0.34770657938E+02  0.22103195647E+03  0.00000000000E+00 0.  1.
          4    1    6    6  502    0  0.23411856514E+02 -0.18016174159E+03 -0.93408922614E+02  0.20428312456E+03  0.00000000000E+00 0. -1.
         -3    1    6    6    0  502 -0.31289166176E+02 -0.27346353492E+03 -0.23062332319E+03  0.35909390701E+03  0.00000000000E+00 0.  1.
<mgrwt>
<rscale>  0 0.50600981E+03</rscale>
<asrwt>0</asrwt>
<pdfrwt beam="1">  1        1 0.51198107E-01 0.50600981E+03</pdfrwt>
<pdfrwt beam="2">  1       -2 0.15081515E+00 0.50600981E+03</pdfrwt>
<totfact> 0.20568639E+01</totfact>
</mgrwt>
</event>
<event>
12    3  0.2212098E-007  0.9164778E+03  0.7818608E-02  0.9405215E-01
          1   -1    0    0  501    0  0.00000000000E+00  0.00000000000E+00  0.12201280074E+04  0.12201280074E+04  0.00000000000E+00 0. -1.
         -2   -1    0    0    0  501 -0.00000000000E+00 -0.00000000000E+00 -0.12778157895E+04  0.12778157895E+04  0.00000000000E+00 0.  1.
        -24    2    1    2    0    0  0.68844514427E+03 -0.47849428565E+03  0.79641408341E+03  0.11591164506E+04  0.79762495439E+02 0.  0.
    5000000    2    1    2    0    0 -0.68844514427E+03  0.47849428565E+03 -0.85410186550E+03  0.13388273463E+04  0.60004597185E+03 0.  0.
        -24    2    4    4    0    0 -0.27240194895E+03 -0.75917855350E+02 -0.43586439855E+03  0.52532538043E+03  0.77605662466E+02 0.  0.
         24    2    4    4    0    0 -0.41604319532E+03  0.55441214100E+03 -0.41823746696E+03  0.81350196582E+03  0.79988168924E+02 0.  0.
         13    1    3    3    0    0  0.51757342966E+03 -0.39895520010E+03  0.60699584631E+03  0.89190328188E+03  0.00000000000E+00 0. -1.
        -14    1    3    3    0    0  0.17087171461E+03 -0.79539085552E+02  0.18941823710E+03  0.26721316871E+03  0.00000000000E+00 0.  1.
         13    1    5    5    0    0 -0.23025383782E+03 -0.92234532525E+02 -0.36941316026E+03  0.44496080928E+03  0.00000000000E+00 0. -1.
        -14    1    5    5    0    0 -0.42148111130E+02  0.16316677175E+02 -0.66451238290E+02  0.80364571151E+02  0.00000000000E+00 0.  1.
          4    1    6    6  502    0 -0.11824970423E+03  0.22148562998E+03 -0.14947467215E+03  0.29220122254E+03  0.00000000000E+00 0. -1.
         -3    1    6    6    0  502 -0.29779349109E+03  0.33292651102E+03 -0.26876279481E+03  0.52130074329E+03  0.00000000000E+00 0.  1.
<mgrwt>
<rscale>  0 0.91647780E+03</rscale>
<asrwt>0</asrwt>
<pdfrwt beam="1">  1        1 0.18771200E+00 0.91647780E+03</pdfrwt>
<pdfrwt beam="2">  1       -2 0.19658704E+00 0.91647780E+03</pdfrwt>
<totfact> 0.12797856E+00</totfact>
</mgrwt>
</event>
<event>
12    3  0.2212098E-007  0.6226510E+03  0.7818608E-02  0.9859496E-01
          1   -1    0    0  501    0  0.00000000000E+00  0.00000000000E+00  0.80757099564E+03  0.80757099564E+03  0.00000000000E+00 0. -1.
         -2   -1    0    0    0  501 -0.00000000000E+00 -0.00000000000E+00 -0.49864524319E+03  0.49864524319E+03  0.00000000000E+00 0.  1.
        -24    2    1    2    0    0  0.37991622104E+03  0.30346140312E+03  0.17266308913E+03  0.52201556322E+03  0.79136260362E+02 0.  0.
    5000000    2    1    2    0    0 -0.37991622104E+03 -0.30346140312E+03  0.13626266333E+03  0.78420067561E+03  0.59998168973E+03 0.  0.
        -24    2    4    4    0    0 -0.16681199927E+03 -0.45652809043E+03  0.43757578481E+02  0.49472004317E+03  0.81172994195E+02 0.  0.
         24    2    4    4    0    0 -0.21310422177E+03  0.15306668731E+03  0.92505084847E+02  0.28948063244E+03  0.79993910598E+02 0.  0.
         11    1    3    3    0    0  0.11398781783E+03  0.54117321183E+02  0.64817444488E+02  0.14185629410E+03  0.00000000000E+00 0. -1.
        -12    1    3    3    0    0  0.26592840321E+03  0.24934408194E+03  0.10784564464E+03  0.38015926912E+03  0.00000000000E+00 0.  1.
         11    1    5    5    0    0 -0.14343110386E+03 -0.44025119371E+03  0.49478424887E+02  0.46566265649E+03  0.00000000000E+00 0. -1.
        -12    1    5    5    0    0 -0.23380895414E+02 -0.16276896719E+02 -0.57208464065E+01  0.29057386682E+02  0.00000000000E+00 0.  1.
          4    1    6    6  502    0 -0.17968086272E+03  0.12013856815E+03  0.10589126893E+03  0.24068952786E+03  0.00000000000E+00 0. -1.
         -3    1    6    6    0  502 -0.33423359052E+02  0.32928119156E+02 -0.13386184084E+02  0.48791104576E+02  0.00000000000E+00 0.  1.
<mgrwt>
<rscale>  0 0.62265104E+03</rscale>
<asrwt>0</asrwt>
<pdfrwt beam="1">  1        1 0.12424169E+00 0.62265104E+03</pdfrwt>
<pdfrwt beam="2">  1       -2 0.76714653E-01 0.62265104E+03</pdfrwt>
<totfact> 0.29948071E+01</totfact>
</mgrwt>
</event>
<event>
12    3  0.2212098E-007  0.8376742E+03  0.7818608E-02  0.9507031E-01
         -2   -1    0    0    0  501 -0.00000000000E+00  0.00000000000E+00  0.32294248833E+03  0.32294248833E+03  0.00000000000E+00 0.  1.
          1   -1    0    0  501    0  0.00000000000E+00 -0.00000000000E+00 -0.24095777317E+04  0.24095777317E+04  0.00000000000E+00 0. -1.
        -24    2    1    2    0    0  0.24235180800E+03  0.71000114622E+03 -0.60638022900E+03  0.96788263806E+03  0.79144124655E+02 0.  0.
    5000000    2    1    2    0    0 -0.24235180800E+03 -0.71000114622E+03 -0.14802550144E+04  0.17646375820E+04  0.59996238353E+03 0.  0.
        -24    2    4    4    0    0 -0.36858738206E+03 -0.24827385989E+03 -0.50656102341E+03  0.67692869655E+03  0.64279250561E+02 0.  0.
         24    2    4    4    0    0  0.12623557406E+03 -0.46172728633E+03 -0.97369399099E+03  0.10877088854E+04  0.76831792156E+02 0.  0.
         11    1    5    5    0    0 -0.32836696651E+03 -0.21538203492E+03 -0.47429500469E+03  0.61576784354E+03  0.00000000000E+00 0. -1.
        -12    1    5    5    0    0 -0.40220415553E+02 -0.32891824968E+02 -0.32266018721E+02  0.61160853012E+02  0.00000000000E+00 0.  1.
         13    1    3    3    0    0  0.55226558414E+02  0.19358262826E+03 -0.12097406726E+03  0.23485938701E+03  0.00000000000E+00 0. -1.
        -14    1    3    3    0    0  0.18712524959E+03  0.51641851795E+03 -0.48540616174E+03  0.73302325104E+03  0.00000000000E+00 0.  1.
          4    1    6    6  502    0  0.97981435026E+02 -0.40564182841E+03 -0.89089171941E+03  0.98378539849E+03  0.00000000000E+00 0. -1.
         -3    1    6    6    0  502  0.28254139034E+02 -0.56085457911E+02 -0.82802271580E+02  0.10392348695E+03  0.00000000000E+00 0.  1.
<mgrwt>
<rscale>  0 0.83767425E+03</rscale>
<asrwt>0</asrwt>
<pdfrwt beam="1">  1        1 0.37070428E+00 0.83767425E+03</pdfrwt>
<pdfrwt beam="2">  1       -2 0.49683459E-01 0.83767425E+03</pdfrwt>
<totfact> 0.54650439E+00</totfact>
</mgrwt>
</event>
<event>
12    3  0.2212098E-007  0.1108515E+04  0.7818608E-02  0.9196932E-01
          1   -1    0    0  501    0  0.00000000000E+00  0.00000000000E+00  0.72801225977E+03  0.72801225977E+03  0.00000000000E+00 0. -1.
         -2   -1    0    0    0  501 -0.00000000000E+00 -0.00000000000E+00 -0.22694759484E+04  0.22694759484E+04  0.00000000000E+00 0.  1.
        -24    2    1    2    0    0 -0.14857259000E+03  0.10224113797E+04 -0.14728396131E+04  0.18007646734E+04  0.78089943766E+02 0.  0.
    5000000    2    1    2    0    0  0.14857259000E+03 -0.10224113797E+04 -0.68624075537E+02  0.11967235348E+04  0.60003259168E+03 0.  0.
        -24    2    4    4    0    0 -0.21978546068E+03 -0.32861954603E+03 -0.54171593854E+02  0.40696856256E+03  0.79952451977E+02 0.  0.
         24    2    4    4    0    0  0.36835805068E+03 -0.69379183366E+03 -0.14452481684E+02  0.78975497219E+03  0.80431833995E+02 0.  0.
         11    1    3    3    0    0 -0.53266661864E+02  0.47332870066E+03 -0.61683529740E+03  0.77933508855E+03  0.00000000000E+00 0. -1.
        -12    1    3    3    0    0 -0.95305928131E+02  0.54908267903E+03 -0.85600431571E+03  0.10214295849E+04  0.00000000000E+00 0.  1.
         13    1    5    5    0    0 -0.15455841678E+03 -0.19634106385E+03 -0.67638515660E+02  0.25886885937E+03  0.00000000000E+00 0. -1.
        -14    1    5    5    0    0 -0.65227043907E+02 -0.13227848218E+03  0.13466921807E+02  0.14809970320E+03  0.00000000000E+00 0.  1.
          2    1    6    6  502    0  0.23834084571E+03 -0.41854194587E+03  0.27674860620E+02  0.48244130949E+03  0.00000000000E+00 0. -1.
         -1    1    6    6    0  502  0.13001720496E+03 -0.27524988779E+03 -0.42127342304E+02  0.30731366270E+03  0.00000000000E+00 0.  1.
<mgrwt>
<rscale>  0 0.11085154E+04</rscale>
<asrwt>0</asrwt>
<pdfrwt beam="1">  1        1 0.11200188E+00 0.11085154E+04</pdfrwt>
<pdfrwt beam="2">  1       -2 0.34915015E+00 0.11085154E+04</pdfrwt>
<totfact> 0.35422210E-01</totfact>
</mgrwt>
</event>
<event>
12    3  0.2212098E-007  0.9938998E+03  0.7818608E-02  0.9315261E-01
          1   -1    0    0  501    0  0.00000000000E+00  0.00000000000E+00  0.11589491104E+04  0.11589491104E+04  0.00000000000E+00 0. -1.
         -2   -1    0    0    0  501 -0.00000000000E+00 -0.00000000000E+00 -0.97178728638E+03  0.97178728638E+03  0.00000000000E+00 0.  1.
        -24    2    1    2    0    0  0.61124921001E+03  0.74245528062E+03  0.24549537223E+03  0.99575924927E+03  0.80019149376E+02 0.  0.
    5000000    2    1    2    0    0 -0.61124921001E+03 -0.74245528062E+03 -0.58333548218E+02  0.11349771475E+04  0.59992072980E+03 0.  0.
        -24    2    4    4    0    0 -0.35367380032E+02 -0.27983112051E+03  0.19218765077E+03  0.35049491972E+03  0.79713788387E+02 0.  0.
         24    2    4    4    0    0 -0.57588182998E+03 -0.46262416010E+03 -0.25052119899E+03  0.78448222779E+03  0.83609203796E+02 0.  0.
         11    1    3    3    0    0  0.26161401585E+03  0.25681003136E+03  0.90626539665E+02  0.37763269878E+03  0.00000000000E+00 0. -1.
        -12    1    3    3    0    0  0.34963519416E+03  0.48564524926E+03  0.15486883257E+03  0.61812655049E+03  0.00000000000E+00 0.  1.
         13    1    5    5    0    0 -0.33838200297E+02 -0.22945332445E+03  0.11646943407E+03  0.25953608799E+03  0.00000000000E+00 0. -1.
        -14    1    5    5    0    0 -0.15291797351E+01 -0.50377796065E+02  0.75718216704E+02  0.90958831720E+02  0.00000000000E+00 0.  1.
          2    1    6    6  502    0 -0.37291467140E+03 -0.26775195022E+03 -0.18898172532E+03  0.49645800578E+03  0.00000000000E+00 0. -1.
         -1    1    6    6    0  502 -0.20296715857E+03 -0.19487220989E+03 -0.61539473668E+02  0.28802422201E+03  0.00000000000E+00 0.  1.
<mgrwt>
<rscale>  0 0.99389977E+03</rscale>
<asrwt>0</asrwt>
<pdfrwt beam="1">  1        1 0.17829986E+00 0.99389977E+03</pdfrwt>
<pdfrwt beam="2">  1       -2 0.14950574E+00 0.99389977E+03</pdfrwt>
<totfact> 0.30271744E+00</totfact>
</mgrwt>
</event>
<event>
12    3  0.2804075E-007  0.9987025E+03  0.7818608E-02  0.9309969E-01
          1   -1    0    0  501    0  0.00000000000E+00  0.00000000000E+00  0.20196464160E+04  0.20196464160E+04  0.00000000000E+00 0. -1.
         -2   -1    0    0    0  501 -0.00000000000E+00 -0.00000000000E+00 -0.57328378532E+03  0.57328378532E+03  0.00000000000E+00 0.  1.
        -24    2    1    2    0    0  0.44343920172E+03  0.87982542629E+03  0.54253803926E+03  0.11275390618E+04  0.79156208949E+02 0.  0.
    5000000    2    1    2    0    0 -0.44343920172E+03 -0.87982542629E+03  0.90382459142E+03  0.14653911396E+04  0.59978428911E+03 0.  0.
        -24    2    4    4    0    0 -0.25621181415E+03 -0.69817828530E+03  0.93245917872E+03  0.11952680673E+04  0.78027052813E+02 0.  0.
         24    2    4    4    0    0 -0.18722738757E+03 -0.18164714098E+03 -0.28634587303E+02  0.27012307224E+03  0.64005906632E+02 0.  0.
         13    1    5    5    0    0 -0.12079534796E+03 -0.34280754916E+03  0.39390338008E+03  0.53597425749E+03  0.00000000000E+00 0. -1.
        -14    1    5    5    0    0 -0.13541646620E+03 -0.35537073615E+03  0.53855579864E+03  0.65929380983E+03  0.00000000000E+00 0.  1.
         13    1    3    3    0    0  0.16069472056E+03  0.40087264256E+03  0.22194192700E+03  0.48557171224E+03  0.00000000000E+00 0. -1.
        -14    1    3    3    0    0  0.28274448117E+03  0.47895278373E+03  0.32059611226E+03  0.64196734953E+03  0.00000000000E+00 0.  1.
          2    1    6    6  502    0 -0.10052095807E+03 -0.13113049524E+03 -0.37353784379E+02  0.16939591200E+03  0.00000000000E+00 0. -1.
         -3    1    6    6    0  502 -0.86706429495E+02 -0.50516645740E+02  0.87191970758E+01  0.10072716024E+03  0.00000000000E+00 0.  1.
<mgrwt>
<rscale>  0 0.99870247E+03</rscale>
<asrwt>0</asrwt>
<pdfrwt beam="1">  1        1 0.31071483E+00 0.99870247E+03</pdfrwt>
<pdfrwt beam="2">  1       -2 0.88197506E-01 0.99870247E+03</pdfrwt>
<totfact> 0.28291351E+00</totfact>
</mgrwt>
</event>
<event>
12    3  0.2212098E-007  0.5082913E+03  0.7818608E-02  0.1011637E+00
         -2   -1    0    0    0  501 -0.00000000000E+00  0.00000000000E+00  0.18779439988E+04  0.18779439988E+04  0.00000000000E+00 0.  1.
          1   -1    0    0  501    0  0.00000000000E+00 -0.00000000000E+00 -0.26626361112E+03  0.26626361112E+03  0.00000000000E+00 0. -1.
        -24    2    1    2    0    0  0.63913736742E+02 -0.40719014622E+03  0.52528846689E+02  0.42349145186E+03  0.81834889485E+02 0.  0.
    5000000    2    1    2    0    0 -0.63913736742E+02  0.40719014622E+03  0.15591515410E+04  0.17207161581E+04  0.60001815632E+03 0.  0.
        -24    2    4    4    0    0 -0.15475181266E+03  0.44846948369E+03  0.68330266108E+03  0.83564843700E+03  0.79578780554E+02 0.  0.
         24    2    4    4    0    0  0.90838075921E+02 -0.41279337463E+02  0.87584887993E+03  0.88506772107E+03  0.79234277112E+02 0.  0.
         11    1    5    5    0    0 -0.70525605679E+02  0.29733819351E+03  0.47574988599E+03  0.56543948960E+03  0.00000000000E+00 0. -1.
        -12    1    5    5    0    0 -0.84226206984E+02  0.15113129018E+03  0.20755277509E+03  0.27020894741E+03  0.00000000000E+00 0.  1.
         11    1    3    3    0    0  0.62853005070E+02 -0.20060106800E+03 -0.43832598732E+00  0.21021769873E+03  0.00000000000E+00 0. -1.
        -12    1    3    3    0    0  0.10607316720E+01 -0.20658907822E+03  0.52967172676E+02  0.21327375313E+03  0.00000000000E+00 0.  1.
          2    1    6    6  502    0  0.63661875542E+02  0.87252296001E+01  0.32534543871E+03  0.33163024367E+03  0.00000000000E+00 0. -1.
         -1    1    6    6    0  502  0.27176200379E+02 -0.50004567063E+02  0.55050344122E+03  0.55343747740E+03  0.00000000000E+00 0.  1.
<mgrwt>
<rscale>  0 0.50829128E+03</rscale>
<asrwt>0</asrwt>
<pdfrwt beam="1">  1        1 0.40963634E-01 0.50829128E+03</pdfrwt>
<pdfrwt beam="2">  1       -2 0.28891445E+00 0.50829128E+03</pdfrwt>
<totfact> 0.35975408E+00</totfact>
</mgrwt>
</event>
<event>
12    3  0.2212098E-007  0.1043163E+04  0.7818608E-02  0.9262432E-01
         -2   -1    0    0    0  501 -0.00000000000E+00  0.00000000000E+00  0.16513011445E+04  0.16513011445E+04  0.00000000000E+00 0.  1.
          1   -1    0    0  501    0  0.00000000000E+00 -0.00000000000E+00 -0.13116431332E+04  0.13116431332E+04  0.00000000000E+00 0. -1.
        -24    2    1    2    0    0  0.10279458806E+04  0.11875095237E+03  0.11261512474E+04  0.15313662206E+04  0.78047084432E+02 0.  0.
    5000000    2    1    2    0    0 -0.10279458806E+04 -0.11875095237E+03 -0.78649323608E+03  0.14315780571E+04  0.60005799808E+03 0.  0.
        -24    2    4    4    0    0 -0.18308268064E+03 -0.38184983471E+01  0.78388637758E+02  0.21442782730E+03  0.79376732811E+02 0.  0.
         24    2    4    4    0    0 -0.84486320001E+03 -0.11493245402E+03 -0.86488187384E+03  0.12171502298E+04  0.80191836153E+02 0.  0.
         11    1    5    5    0    0 -0.83785196788E+02  0.33203547483E+02  0.16246385885E+02  0.91577179584E+02  0.00000000000E+00 0. -1.
        -12    1    5    5    0    0 -0.99297483852E+02 -0.37022045830E+02  0.62142251873E+02  0.12285064772E+03  0.00000000000E+00 0.  1.
         13    1    3    3    0    0  0.30254118330E+03  0.56138258825E+02  0.37788526233E+03  0.48731913895E+03  0.00000000000E+00 0. -1.
        -14    1    3    3    0    0  0.72540469734E+03  0.62612693546E+02  0.74826598504E+03  0.10440470816E+04  0.00000000000E+00 0.  1.
          4    1    6    6  502    0 -0.96763171220E+02  0.43903462351E+01 -0.12597218419E+03  0.15890682060E+03  0.00000000000E+00 0. -1.
         -3    1    6    6    0  502 -0.74810002879E+03 -0.11932280026E+03 -0.73890968965E+03  0.10582434092E+04  0.00000000000E+00 0.  1.
<mgrwt>
<rscale>  0 0.10431628E+04</rscale>
<asrwt>0</asrwt>
<pdfrwt beam="1">  1        1 0.20179125E+00 0.10431628E+04</pdfrwt>
<pdfrwt beam="2">  1       -2 0.25404633E+00 0.10431628E+04</pdfrwt>
<totfact> 0.47069125E-01</totfact>
</mgrwt>
</event>
<event>
12    3  0.2212098E-007  0.1475438E+04  0.7818608E-02  0.8900952E-01
          1   -1    0    0  501    0  0.00000000000E+00  0.00000000000E+00  0.77479365287E+03  0.77479365287E+03  0.00000000000E+00 0. -1.
         -2   -1    0    0    0  501 -0.00000000000E+00 -0.00000000000E+00 -0.30820097779E+04  0.30820097779E+04  0.00000000000E+00 0.  1.
        -24    2    1    2    0    0 -0.12066341239E+04 -0.84795338197E+03 -0.13375764065E+04  0.19926045791E+04  0.79821792569E+02 0.  0.
    5000000    2    1    2    0    0  0.12066341239E+04  0.84795338197E+03 -0.96963971853E+03  0.18641988516E+04  0.60003777198E+03 0.  0.
        -24    2    4    4    0    0  0.93347641331E+03  0.64593790343E+03 -0.41994627418E+03  0.12132060649E+04  0.83066800950E+02 0.  0.
         24    2    4    4    0    0  0.27315771058E+03  0.20201547854E+03 -0.54969344435E+03  0.65099278675E+03  0.78761267231E+02 0.  0.
         11    1    3    3    0    0 -0.40981298557E+03 -0.27765381226E+03 -0.49909957516E+03  0.70295000429E+03  0.00000000000E+00 0. -1.
        -12    1    3    3    0    0 -0.79682113831E+03 -0.57029956971E+03 -0.83847683131E+03  0.12896545748E+04  0.00000000000E+00 0.  1.
         11    1    5    5    0    0  0.14790058242E+03  0.94507102150E+02 -0.96995771284E+02  0.20053516969E+03  0.00000000000E+00 0. -1.
        -12    1    5    5    0    0  0.78557583089E+03  0.55143080128E+03 -0.32295050290E+03  0.10126708952E+04  0.00000000000E+00 0.  1.
          4    1    6    6  502    0  0.14276071959E+03  0.89949494219E+02 -0.20271969300E+03  0.26375520563E+03  0.00000000000E+00 0. -1.
         -3    1    6    6    0  502  0.13039699099E+03  0.11206598433E+03 -0.34697375135E+03  0.38723758112E+03  0.00000000000E+00 0.  1.
<mgrwt>
<rscale>  0 0.14754384E+04</rscale>
<asrwt>0</asrwt>
<pdfrwt beam="1">  1        1 0.11919903E+00 0.14754384E+04</pdfrwt>
<pdfrwt beam="2">  1       -2 0.47415534E+00 0.14754384E+04</pdfrwt>
<totfact> 0.46833294E-02</totfact>
</mgrwt>
</event>
<event>
12    3  0.2212098E-007  0.3878623E+03  0.7818608E-02  0.1048066E+00
         -2   -1    0    0    0  501 -0.00000000000E+00  0.00000000000E+00  0.14294437668E+04  0.14294437668E+04  0.00000000000E+00 0.  1.
          1   -1    0    0  501    0  0.00000000000E+00 -0.00000000000E+00 -0.29048418276E+03  0.29048418276E+03  0.00000000000E+00 0. -1.
        -24    2    1    2    0    0 -0.24291157999E+03 -0.16928011292E+03 -0.91026483195E+02  0.31977230286E+03  0.79414814195E+02 0.  0.
    5000000    2    1    2    0    0  0.24291157999E+03  0.16928011292E+03  0.12299860672E+04  0.14001556467E+04  0.59992359270E+03 0.  0.
        -24    2    4    4    0    0 -0.70535338781E+02 -0.68298993686E+01 -0.10289933637E+02  0.10585638844E+03  0.77960314888E+02 0.  0.
         24    2    4    4    0    0  0.31344691877E+03  0.17611001228E+03  0.12402760008E+04  0.12942992582E+04  0.87534589101E+02 0.  0.
         11    1    3    3    0    0 -0.13279617576E+03 -0.13700219558E+03 -0.69235433472E+02  0.20297283350E+03  0.00000000000E+00 0. -1.
        -12    1    3    3    0    0 -0.11011540422E+03 -0.32277917336E+02 -0.21791049722E+02  0.11679946936E+03  0.00000000000E+00 0.  1.
         13    1    5    5    0    0 -0.10683280355E+01 -0.29382483466E+02 -0.14330881835E+02  0.32708497880E+02  0.00000000000E+00 0. -1.
        -14    1    5    5    0    0 -0.69467010745E+02  0.22552584097E+02  0.40409481976E+01  0.73147890562E+02  0.00000000000E+00 0.  1.
          4    1    6    6  502    0  0.97462082249E+02  0.97592174635E+02  0.53683483958E+03  0.55426955086E+03  0.00000000000E+00 0. -1.
         -3    1    6    6    0  502  0.21598483652E+03  0.78517837649E+02  0.70344116125E+03  0.74002970736E+03  0.00000000000E+00 0.  1.
<mgrwt>
<rscale>  0 0.38786225E+03</rscale>
<asrwt>0</asrwt>
<pdfrwt beam="1">  1        1 0.44689875E-01 0.38786225E+03</pdfrwt>
<pdfrwt beam="2">  1       -2 0.21991442E+00 0.38786225E+03</pdfrwt>
<totfact> 0.85395532E+00</totfact>
</mgrwt>
</event>
<event>
12    3  0.2212098E-007  0.1191361E+04  0.7818608E-02  0.9120452E-01
          1   -1    0    0  501    0  0.00000000000E+00  0.00000000000E+00  0.10945579991E+04  0.10945579991E+04  0.00000000000E+00 0. -1.
         -2   -1    0    0    0  501 -0.00000000000E+00 -0.00000000000E+00 -0.14558991988E+04  0.14558991988E+04  0.00000000000E+00 0.  1.
        -24    2    1    2    0    0  0.78082568082E+03 -0.89142078491E+03 -0.64153536870E+02  0.11893413316E+04  0.78085639435E+02 0.  0.
    5000000    2    1    2    0    0 -0.78082568082E+03  0.89142078491E+03 -0.29718766282E+03  0.13611158663E+04  0.59999677908E+03 0.  0.
        -24    2    4    4    0    0 -0.35509841171E+03  0.34958402664E+03  0.16066880211E+03  0.52966813415E+03  0.80187247635E+02 0.  0.
         24    2    4    4    0    0 -0.42572726911E+03  0.54183675827E+03 -0.45785646493E+03  0.83144773213E+03  0.82716434345E+02 0.  0.
         11    1    3    3    0    0  0.35295919674E+03 -0.37083086424E+03 -0.60130989890E+02  0.51547207527E+03  0.00000000000E+00 0. -1.
        -12    1    3    3    0    0  0.42786648408E+03 -0.52058992066E+03 -0.40225469796E+01  0.67386925630E+03  0.00000000000E+00 0.  1.
         13    1    5    5    0    0 -0.19102923433E+03  0.13812378151E+03  0.56075367679E+02  0.24231135807E+03  0.00000000000E+00 0. -1.
        -14    1    5    5    0    0 -0.16406917738E+03  0.21146024513E+03  0.10459343443E+03  0.28735677609E+03  0.00000000000E+00 0.  1.
          4    1    6    6  502    0 -0.41186507212E+02  0.21320918497E+02 -0.38756678714E+02  0.60439970936E+02  0.00000000000E+00 0. -1.
         -3    1    6    6    0  502 -0.38454076190E+03  0.52051583977E+03 -0.41909978621E+03  0.77100776119E+03  0.00000000000E+00 0.  1.
<mgrwt>
<rscale>  0 0.11913606E+04</rscale>
<asrwt>0</asrwt>
<pdfrwt beam="1">  1        1 0.16839354E+00 0.11913606E+04</pdfrwt>
<pdfrwt beam="2">  1       -2 0.22398449E+00 0.11913606E+04</pdfrwt>
<totfact> 0.10217620E+00</totfact>
</mgrwt>
</event>
<event>
12    3  0.2212098E-007  0.3762945E+03  0.7818608E-02  0.1052312E+00
         -2   -1    0    0    0  501 -0.00000000000E+00  0.00000000000E+00  0.42832187185E+03  0.42832187185E+03  0.00000000000E+00 0.  1.
          1   -1    0    0  501    0  0.00000000000E+00 -0.00000000000E+00 -0.43132283317E+03  0.43132283317E+03  0.00000000000E+00 0. -1.
        -24    2    1    2    0    0  0.32632756735E+02  0.12853654656E+03 -0.16093671576E+03  0.22523076576E+03  0.85098359267E+02 0.  0.
    5000000    2    1    2    0    0 -0.32632756735E+02 -0.12853654656E+03  0.15793575443E+03  0.63441393926E+03  0.59995900125E+03 0.  0.
        -24    2    4    4    0    0  0.26517105631E+03  0.32483691901E+00  0.10031776281E+03  0.29522350077E+03  0.82325374261E+02 0.  0.
         24    2    4    4    0    0 -0.29780381305E+03 -0.12886138348E+03  0.57617991622E+02  0.33919043849E+03  0.80236858005E+02 0.  0.
         11    1    3    3    0    0 -0.19676977636E+02  0.30725819848E+02 -0.79979151836E+02  0.87908612676E+02  0.00000000000E+00 0. -1.
        -12    1    3    3    0    0  0.52309734371E+02  0.97810726716E+02 -0.80957563922E+02  0.13732215308E+03  0.00000000000E+00 0.  1.
         13    1    5    5    0    0  0.11034143694E+03  0.40663332751E+02  0.39394813636E+02  0.12401891258E+03  0.00000000000E+00 0. -1.
        -14    1    5    5    0    0  0.15482961937E+03 -0.40338495832E+02  0.60922949177E+02  0.17120458819E+03  0.00000000000E+00 0.  1.
          4    1    6    6  502    0 -0.98874153940E+02 -0.66332271901E+02  0.53738432830E+02  0.13062881679E+03  0.00000000000E+00 0. -1.
         -3    1    6    6    0  502 -0.19892965911E+03 -0.62529111581E+02  0.38795587925E+01  0.20856162170E+03  0.00000000000E+00 0.  1.
<mgrwt>
<rscale>  0 0.37629453E+03</rscale>
<asrwt>0</asrwt>
<pdfrwt beam="1">  1        1 0.66357359E-01 0.37629453E+03</pdfrwt>
<pdfrwt beam="2">  1       -2 0.65895672E-01 0.37629453E+03</pdfrwt>
<totfact> 0.10470069E+02</totfact>
</mgrwt>
</event>
<event>
12    3  0.2212098E-007  0.1167090E+04  0.7818608E-02  0.9142161E-01
         -2   -1    0    0    0  501 -0.00000000000E+00  0.00000000000E+00  0.64144989892E+03  0.64144989892E+03  0.00000000000E+00 0.  1.
          1   -1    0    0  501    0  0.00000000000E+00 -0.00000000000E+00 -0.21851484292E+04  0.21851484292E+04  0.00000000000E+00 0. -1.
        -24    2    1    2    0    0 -0.11033881901E+04 -0.73027639774E+02 -0.76217954574E+03  0.13455169013E+04  0.81850703456E+02 0.  0.
    5000000    2    1    2    0    0  0.11033881901E+04  0.73027639774E+02 -0.78151898456E+03  0.14810814268E+04  0.60002644567E+03 0.  0.
        -24    2    4    4    0    0  0.59844857519E+03 -0.21994022539E+03 -0.55806627678E+03  0.85100200941E+03  0.79069911088E+02 0.  0.
         24    2    4    4    0    0  0.50493961487E+03  0.29296786517E+03 -0.22345270778E+03  0.63007941741E+03  0.79213477061E+02 0.  0.
         13    1    3    3    0    0 -0.51234728770E+03 -0.38479834637E+02 -0.40349281479E+03  0.65328928698E+03  0.00000000000E+00 0. -1.
        -14    1    3    3    0    0 -0.59104090236E+03 -0.34547805137E+02 -0.35868673095E+03  0.69222761435E+03  0.00000000000E+00 0.  1.
         13    1    5    5    0    0  0.55712051321E+03 -0.21671771573E+03 -0.54074979977E+03  0.80607703137E+03  0.00000000000E+00 0. -1.
        -14    1    5    5    0    0  0.41328061981E+02 -0.32225096640E+01 -0.17316477014E+02  0.44924978039E+02  0.00000000000E+00 0.  1.
          4    1    6    6  502    0  0.35933338896E+03  0.24836789629E+03 -0.16833322911E+03  0.46812730358E+03  0.00000000000E+00 0. -1.
         -3    1    6    6    0  502  0.14560622591E+03  0.44599968871E+02 -0.55119478666E+02  0.16195211384E+03  0.00000000000E+00 0.  1.
<mgrwt>
<rscale>  0 0.11670897E+04</rscale>
<asrwt>0</asrwt>
<pdfrwt beam="1">  1        1 0.33617667E+00 0.11670897E+04</pdfrwt>
<pdfrwt beam="2">  1       -2 0.98684602E-01 0.11670897E+04</pdfrwt>
<totfact> 0.16476485E+00</totfact>
</mgrwt>
</event>
<event>
12    3  0.2212098E-007  0.1324841E+04  0.7818608E-02  0.9010095E-01
          1   -1    0    0  501    0  0.00000000000E+00  0.00000000000E+00  0.23469555572E+04  0.23469555572E+04  0.00000000000E+00 0. -1.
         -2   -1    0    0    0  501 -0.00000000000E+00 -0.00000000000E+00 -0.77958834228E+03  0.77958834228E+03  0.00000000000E+00 0.  1.
        -24    2    1    2    0    0  0.36404645393E+03  0.12298158590E+04  0.65657956984E+03  0.14429726909E+04  0.78080647098E+02 0.  0.
    5000000    2    1    2    0    0 -0.36404645393E+03 -0.12298158590E+04  0.91078764509E+03  0.16835712086E+04  0.59991750461E+03 0.  0.
        -24    2    4    4    0    0  0.95861536482E+02 -0.42703459072E+03  0.11300161860E+03  0.45933534255E+03  0.81679956279E+02 0.  0.
         24    2    4    4    0    0 -0.45990799041E+03 -0.80278126827E+03  0.79778602649E+03  0.12242358661E+04  0.79484510010E+02 0.  0.
         11    1    5    5    0    0  0.37417935702E+02 -0.88194393821E+02 -0.46611466180E+01  0.95917043853E+02  0.00000000000E+00 0. -1.
        -12    1    5    5    0    0  0.58443600779E+02 -0.33884019690E+03  0.11766276521E+03  0.36341829870E+03  0.00000000000E+00 0.  1.
         13    1    3    3    0    0  0.27025994830E+03  0.86720063103E+03  0.42733873305E+03  0.10038405087E+04  0.00000000000E+00 0. -1.
        -14    1    3    3    0    0  0.93786505633E+02  0.36261522797E+03  0.22924083679E+03  0.43913218220E+03  0.00000000000E+00 0.  1.
          2    1    6    6  502    0 -0.15912928296E+03 -0.33721353696E+03  0.28759275936E+03  0.47089775264E+03  0.00000000000E+00 0. -1.
         -1    1    6    6    0  502 -0.30077870746E+03 -0.46556773132E+03  0.51019326713E+03  0.75333811342E+03  0.00000000000E+00 0.  1.
<mgrwt>
<rscale>  0 0.13248408E+04</rscale>
<asrwt>0</asrwt>
<pdfrwt beam="1">  1        1 0.36107008E+00 0.13248408E+04</pdfrwt>
<pdfrwt beam="2">  1       -2 0.11993667E+00 0.13248408E+04</pdfrwt>
<totfact> 0.78088681E-01</totfact>
</mgrwt>
</event>
<event>
12    3  0.2212098E-007  0.5649268E+03  0.7818608E-02  0.9980968E-01
         -2   -1    0    0    0  501 -0.00000000000E+00  0.00000000000E+00  0.22452446441E+03  0.22452446441E+03  0.00000000000E+00 0.  1.
          1   -1    0    0  501    0  0.00000000000E+00 -0.00000000000E+00 -0.27703897867E+04  0.27703897867E+04  0.00000000000E+00 0. -1.
        -24    2    1    2    0    0 -0.51993371668E+03 -0.22521045419E+02 -0.28497360671E+03  0.59857160511E+03  0.78992041966E+02 0.  0.
    5000000    2    1    2    0    0  0.51993371668E+03  0.22521045419E+02 -0.22608917155E+04  0.23963426460E+04  0.59999038350E+03 0.  0.
        -24    2    4    4    0    0  0.42819218904E+01  0.73515712892E+02 -0.12784655286E+04  0.12828356033E+04  0.75961717001E+02 0.  0.
         24    2    4    4    0    0  0.51565179479E+03 -0.50994667473E+02 -0.98242618696E+03  0.11135070427E+04  0.78990453006E+02 0.  0.
         11    1    3    3    0    0 -0.45720710111E+03 -0.41715173800E+02 -0.23280590339E+03  0.51475924244E+03  0.00000000000E+00 0. -1.
        -12    1    3    3    0    0 -0.62726615568E+02  0.19194128381E+02 -0.52167703328E+02  0.83812362665E+02  0.00000000000E+00 0.  1.
         11    1    5    5    0    0 -0.16172636525E+02  0.51979421226E+02 -0.11361628580E+04  0.11374662432E+04  0.00000000000E+00 0. -1.
        -12    1    5    5    0    0  0.20454558415E+02  0.21536291666E+02 -0.14230267053E+03  0.14536936011E+03  0.00000000000E+00 0.  1.
          4    1    6    6  502    0  0.15692997433E+03 -0.40786581065E+02 -0.36438373481E+03  0.39883087673E+03  0.00000000000E+00 0. -1.
         -3    1    6    6    0  502  0.35872182046E+03 -0.10208086408E+02 -0.61804245215E+03  0.71467616594E+03  0.00000000000E+00 0.  1.
<mgrwt>
<rscale>  0 0.56492678E+03</rscale>
<asrwt>0</asrwt>
<pdfrwt beam="1">  1        1 0.42621384E+00 0.56492678E+03</pdfrwt>
<pdfrwt beam="2">  1       -2 0.34542223E-01 0.56492678E+03</pdfrwt>
<totfact> 0.66266536E+00</totfact>
</mgrwt>
</event>
<event>
12    3  0.2212098E-007  0.3729042E+03  0.7818608E-02  0.1053588E+00
          1   -1    0    0  501    0  0.00000000000E+00  0.00000000000E+00  0.12311390199E+04  0.12311390199E+04  0.00000000000E+00 0. -1.
         -2   -1    0    0    0  501 -0.00000000000E+00 -0.00000000000E+00 -0.30607190960E+03  0.30607190960E+03  0.00000000000E+00 0.  1.
        -24    2    1    2    0    0  0.18354112337E+03 -0.29715326553E+03  0.73425107478E+03  0.81725623410E+03  0.82436061126E+02 0.  0.
    5000000    2    1    2    0    0 -0.18354112337E+03  0.29715326553E+03  0.19081603549E+03  0.71995469538E+03  0.59994716168E+03 0.  0.
        -24    2    4    4    0    0 -0.14274755875E+03  0.24453535038E+03 -0.17288581768E+03  0.34090974757E+03  0.78457293598E+02 0.  0.
         24    2    4    4    0    0 -0.40793564623E+02  0.52617915150E+02  0.36370185318E+03  0.37904494781E+03  0.83446237461E+02 0.  0.
         11    1    5    5    0    0 -0.99815192214E+02  0.20696096230E+03 -0.10614283618E+03  0.25310514453E+03  0.00000000000E+00 0. -1.
        -12    1    5    5    0    0 -0.42932366533E+02  0.37574388074E+02 -0.66742981501E+02  0.87804603039E+02  0.00000000000E+00 0.  1.
         13    1    3    3    0    0 -0.40615634248E+01 -0.22034702735E+02  0.24081431493E+02  0.32892852793E+02  0.00000000000E+00 0. -1.
        -14    1    3    3    0    0  0.18760268679E+03 -0.27511856279E+03  0.71016964328E+03  0.78436338130E+03  0.00000000000E+00 0.  1.
          2    1    6    6  502    0 -0.21056680642E+02  0.72542628769E+02  0.21929319610E+03  0.23193818712E+03  0.00000000000E+00 0. -1.
         -1    1    6    6    0  502 -0.19736883981E+02 -0.19924713619E+02  0.14440865708E+03  0.14710676069E+03  0.00000000000E+00 0.  1.
<mgrwt>
<rscale>  0 0.37290423E+03</rscale>
<asrwt>0</asrwt>
<pdfrwt beam="1">  1        1 0.18940600E+00 0.37290423E+03</pdfrwt>
<pdfrwt beam="2">  1       -2 0.47087987E-01 0.37290423E+03</pdfrwt>
<totfact> 0.41064466E+01</totfact>
</mgrwt>
</event>
<event>
12    3  0.2212098E-007  0.6229471E+03  0.7818608E-02  0.9858909E-01
          1   -1    0    0  501    0  0.00000000000E+00  0.00000000000E+00  0.91372084221E+03  0.91372084221E+03  0.00000000000E+00 0. -1.
         -2   -1    0    0    0  501 -0.00000000000E+00 -0.00000000000E+00 -0.46794794248E+03  0.46794794248E+03  0.00000000000E+00 0.  1.
        -24    2    1    2    0    0 -0.46744957870E+03  0.11996310506E+03  0.35931537580E+03  0.60681768681E+03  0.78866409431E+02 0.  0.
    5000000    2    1    2    0    0  0.46744957870E+03 -0.11996310506E+03  0.86457523934E+02  0.77485109787E+03  0.60001588748E+03 0.  0.
        -24    2    4    4    0    0  0.52733067468E+03  0.82498260140E+02  0.10174751060E+03  0.54933020582E+03  0.80793042556E+02 0.  0.
         24    2    4    4    0    0 -0.59881095980E+02 -0.20246136520E+03 -0.15289986670E+02  0.22552089206E+03  0.77778782497E+02 0.  0.
         11    1    5    5    0    0  0.43800941512E+03  0.39037216913E+02  0.94113272883E+02  0.44970374712E+03  0.00000000000E+00 0. -1.
        -12    1    5    5    0    0  0.89321259554E+02  0.43461043226E+02  0.76342377209E+01  0.99626458696E+02  0.00000000000E+00 0.  1.
         13    1    3    3    0    0 -0.62414324295E+02  0.20948577611E+02  0.18767548288E+02  0.68458831788E+02  0.00000000000E+00 0. -1.
        -14    1    3    3    0    0 -0.40503525440E+03  0.99014527452E+02  0.34054782751E+03  0.53835885502E+03  0.00000000000E+00 0.  1.
          2    1    6    6  502    0  0.16249228498E+01 -0.12544149707E+03  0.19094497525E+01  0.12546655156E+03  0.00000000000E+00 0. -1.
         -1    1    6    6    0  502 -0.61506018830E+02 -0.77019868128E+02 -0.17199436422E+02  0.10005434050E+03  0.00000000000E+00 0.  1.
<mgrwt>
<rscale>  0 0.62294715E+03</rscale>
<asrwt>0</asrwt>
<pdfrwt beam="1">  1        1 0.14057244E+00 0.62294715E+03</pdfrwt>
<pdfrwt beam="2">  1       -2 0.71991991E-01 0.62294715E+03</pdfrwt>
<totfact> 0.28135728E+01</totfact>
</mgrwt>
</event>
<event>
12    3  0.2212098E-007  0.8378687E+03  0.7818608E-02  0.9506765E-01
          1   -1    0    0  501    0  0.00000000000E+00  0.00000000000E+00  0.36000499694E+04  0.36000499694E+04  0.00000000000E+00 0. -1.
         -2   -1    0    0    0  501 -0.00000000000E+00 -0.00000000000E+00 -0.22655589413E+03  0.22655589413E+03  0.00000000000E+00 0.  1.
        -24    2    1    2    0    0  0.56545476646E+03 -0.47762234091E+03  0.85523798691E+03  0.11341258353E+04  0.83349880012E+02 0.  0.
    5000000    2    1    2    0    0 -0.56545476646E+03  0.47762234091E+03  0.25182560884E+04  0.26924800283E+04  0.59997731840E+03 0.  0.
        -24    2    4    4    0    0 -0.67764362174E+03  0.42610208721E+03  0.20701562382E+04  0.22210439687E+04  0.82009717349E+02 0.  0.
         24    2    4    4    0    0  0.11218885529E+03  0.51520253705E+02  0.44809985023E+03  0.47143605958E+03  0.78853070365E+02 0.  0.
         13    1    5    5    0    0 -0.52935680471E+03  0.35180062745E+03  0.15564399629E+04  0.16812161272E+04  0.00000000000E+00 0. -1.
        -14    1    5    5    0    0 -0.14828681704E+03  0.74301459758E+02  0.51371627527E+03  0.53982784154E+03  0.00000000000E+00 0.  1.
         13    1    3    3    0    0  0.60060608858E+02 -0.40183315572E+02  0.12325283294E+03  0.14287489778E+03  0.00000000000E+00 0. -1.
        -14    1    3    3    0    0  0.50539415760E+03 -0.43743902534E+03  0.73198515397E+03  0.99125093748E+03  0.00000000000E+00 0.  1.
          4    1    6    6  502    0  0.71556980957E+02  0.58438901152E+02  0.20486194922E+03  0.22473078323E+03  0.00000000000E+00 0. -1.
         -3    1    6    6    0  502  0.40631874332E+02 -0.69186474465E+01  0.24323790101E+03  0.24670527636E+03  0.00000000000E+00 0.  1.
<mgrwt>
<rscale>  0 0.83786869E+03</rscale>
<asrwt>0</asrwt>
<pdfrwt beam="1">  1        1 0.55385380E+00 0.83786869E+03</pdfrwt>
<pdfrwt beam="2">  1       -2 0.34854755E-01 0.83786869E+03</pdfrwt>
<totfact> 0.15074276E+00</totfact>
</mgrwt>
</event>
<event>
12    3  0.2212098E-007  0.7109374E+03  0.7818608E-02  0.9698708E-01
         -2   -1    0    0    0  501 -0.00000000000E+00  0.00000000000E+00  0.84148998120E+03  0.84148998120E+03  0.00000000000E+00 0.  1.
          1   -1    0    0  501    0  0.00000000000E+00 -0.00000000000E+00 -0.67371898303E+03  0.67371898303E+03  0.00000000000E+00 0. -1.
        -24    2    1    2    0    0 -0.35072369164E+03 -0.52196102483E+03  0.11966441390E+03  0.64476914878E+03  0.77183313862E+02 0.  0.
    5000000    2    1    2    0    0  0.35072369164E+03  0.52196102483E+03  0.48106584270E+02  0.87043981545E+03  0.59991733560E+03 0.  0.
        -24    2    4    4    0    0  0.11945001985E+03  0.52898181329E+03 -0.13538805057E+03  0.56467989463E+03  0.80270748897E+02 0.  0.
         24    2    4    4    0    0  0.23127367179E+03 -0.70207884577E+01  0.18349463484E+03  0.30575992082E+03  0.79259355470E+02 0.  0.
         11    1    3    3    0    0 -0.33374255890E+03 -0.47165012551E+03  0.12577821942E+03  0.59131894692E+03  0.00000000000E+00 0. -1.
        -12    1    3    3    0    0 -0.16981132744E+02 -0.50310899329E+02 -0.61138055223E+01  0.53450201856E+02  0.00000000000E+00 0.  1.
         13    1    5    5    0    0  0.48443937103E+02  0.38086536013E+03 -0.96942547802E+02  0.39598370568E+03  0.00000000000E+00 0. -1.
        -14    1    5    5    0    0  0.71006082745E+02  0.14811645316E+03 -0.38445502771E+02  0.16869618895E+03  0.00000000000E+00 0.  1.
          4    1    6    6  502    0  0.81679299955E+02 -0.37908488131E+02  0.86200497753E+02  0.12465587562E+03  0.00000000000E+00 0. -1.
         -3    1    6    6    0  502  0.14959437184E+03  0.30887699673E+02  0.97294137091E+02  0.18110404520E+03  0.00000000000E+00 0.  1.
<mgrwt>
<rscale>  0 0.71093739E+03</rscale>
<asrwt>0</asrwt>
<pdfrwt beam="1">  1        1 0.10364907E+00 0.71093739E+03</pdfrwt>
<pdfrwt beam="2">  1       -2 0.12946000E+00 0.71093739E+03</pdfrwt>
<totfact> 0.11370588E+01</totfact>
</mgrwt>
</event>
<event>
12    3  0.2212098E-007  0.6943817E+03  0.7818608E-02  0.9726889E-01
          1   -1    0    0  501    0  0.00000000000E+00  0.00000000000E+00  0.67726652805E+03  0.67726652805E+03  0.00000000000E+00 0. -1.
         -2   -1    0    0    0  501 -0.00000000000E+00 -0.00000000000E+00 -0.94287216355E+03  0.94287216355E+03  0.00000000000E+00 0.  1.
        -24    2    1    2    0    0  0.59639868288E+03  0.87156573623E+02  0.21268521879E+03  0.64441447893E+03  0.82142322176E+02 0.  0.
    5000000    2    1    2    0    0 -0.59639868288E+03 -0.87156573623E+02 -0.47829085429E+03  0.97572421268E+03  0.59998995045E+03 0.  0.
        -24    2    4    4    0    0 -0.27794085701E+03  0.20242850498E+03 -0.39975377535E+03  0.53330728673E+03  0.79907205866E+02 0.  0.
         24    2    4    4    0    0 -0.31845782587E+03 -0.28958507861E+03 -0.78537078934E+02  0.44241692594E+03  0.65496251652E+02 0.  0.
         11    1    3    3    0    0  0.37094842715E+03  0.88974258038E+02  0.15450291765E+03  0.41157053559E+03  0.00000000000E+00 0. -1.
        -12    1    3    3    0    0  0.22545025573E+03 -0.18176844145E+01  0.58182301134E+02  0.23284394334E+03  0.00000000000E+00 0.  1.
         13    1    5    5    0    0 -0.16031948772E+03  0.14293762850E+03 -0.29517044732E+03  0.36504670489E+03  0.00000000000E+00 0. -1.
        -14    1    5    5    0    0 -0.11762136929E+03  0.59490876484E+02 -0.10458332803E+03  0.16826058184E+03  0.00000000000E+00 0.  1.
          4    1    6    6  502    0 -0.24777396653E+03 -0.25834720111E+03 -0.60111909826E+02  0.36297197758E+03  0.00000000000E+00 0. -1.
         -3    1    6    6    0  502 -0.70683859349E+02 -0.31237877500E+02 -0.18425169108E+02  0.79444948360E+02  0.00000000000E+00 0.  1.
<mgrwt>
<rscale>  0 0.69438165E+03</rscale>
<asrwt>0</asrwt>
<pdfrwt beam="1">  1        1 0.10419485E+00 0.69438165E+03</pdfrwt>
<pdfrwt beam="2">  1       -2 0.14505726E+00 0.69438165E+03</pdfrwt>
<totfact> 0.84399047E+00</totfact>
</mgrwt>
</event>
<event>
12    3  0.2212098E-007  0.5826322E+03  0.7818608E-02  0.9942109E-01
         -2   -1    0    0    0  501 -0.00000000000E+00  0.00000000000E+00  0.24774309382E+03  0.24774309382E+03  0.00000000000E+00 0.  1.
          1   -1    0    0  501    0  0.00000000000E+00 -0.00000000000E+00 -0.15010732071E+04  0.15010732071E+04  0.00000000000E+00 0. -1.
        -24    2    1    2    0    0  0.32289141552E+03 -0.29136224601E+03 -0.27116018658E+03  0.51852222490E+03  0.78655109916E+02 0.  0.
    5000000    2    1    2    0    0 -0.32289141552E+03  0.29136224601E+03 -0.98216992668E+03  0.12302940760E+04  0.59984575014E+03 0.  0.
        -24    2    4    4    0    0 -0.40951402264E+03 -0.22708629883E+01 -0.47422899912E+03  0.63170796058E+03  0.80342468790E+02 0.  0.
         24    2    4    4    0    0  0.86622607124E+02  0.29363310900E+03 -0.50794092756E+03  0.59858611543E+03  0.81101620984E+02 0.  0.
         11    1    3    3    0    0  0.23889296512E+03 -0.22870291623E+03 -0.24182159109E+03  0.40969812618E+03  0.00000000000E+00 0. -1.
        -12    1    3    3    0    0  0.83998450398E+02 -0.62659329781E+02 -0.29338595488E+02  0.10882409872E+03  0.00000000000E+00 0.  1.
         13    1    5    5    0    0 -0.16869751652E+03  0.36936056931E+02 -0.17936065736E+03  0.24898467782E+03  0.00000000000E+00 0. -1.
        -14    1    5    5    0    0 -0.24081650612E+03 -0.39206919919E+02 -0.29486834176E+03  0.38272328276E+03  0.00000000000E+00 0.  1.
          2    1    6    6  502    0  0.34884369630E+02  0.22189888038E+03 -0.40273774869E+03  0.46114393261E+03  0.00000000000E+00 0. -1.
         -1    1    6    6    0  502  0.51738237494E+02  0.71734228624E+02 -0.10520317887E+03  0.13744218283E+03  0.00000000000E+00 0.  1.
<mgrwt>
<rscale>  0 0.58263216E+03</rscale>
<asrwt>0</asrwt>
<pdfrwt beam="1">  1        1 0.23093434E+00 0.58263216E+03</pdfrwt>
<pdfrwt beam="2">  1       -2 0.38114323E-01 0.58263216E+03</pdfrwt>
<totfact> 0.39062400E+01</totfact>
</mgrwt>
</event>
<event>
12    3  0.2212098E-007  0.1176974E+04  0.7818608E-02  0.9133253E-01
         -2   -1    0    0    0  501 -0.00000000000E+00  0.00000000000E+00  0.48420194764E+03  0.48420194764E+03  0.00000000000E+00 0.  1.
          1   -1    0    0  501    0  0.00000000000E+00 -0.00000000000E+00 -0.29148399267E+04  0.29148399267E+04  0.00000000000E+00 0. -1.
        -24    2    1    2    0    0  0.15609937878E+03  0.10997704500E+04 -0.11430182247E+04  0.15957831907E+04  0.78557436608E+02 0.  0.
    5000000    2    1    2    0    0 -0.15609937878E+03 -0.10997704500E+04 -0.12876197543E+04  0.18032586836E+04  0.59992932043E+03 0.  0.
        -24    2    4    4    0    0  0.13459689251E+03 -0.81596158869E+03 -0.70791565293E+03  0.10910664015E+04  0.73291766714E+02 0.  0.
         24    2    4    4    0    0 -0.29069627130E+03 -0.28380886135E+03 -0.57970410141E+03  0.71219228217E+03  0.78161433319E+02 0.  0.
         11    1    3    3    0    0  0.69499051220E+02  0.66312123866E+03 -0.72775543912E+03  0.98700956148E+03  0.00000000000E+00 0. -1.
        -12    1    3    3    0    0  0.86600327563E+02  0.43664921139E+03 -0.41526278561E+03  0.60877362923E+03  0.00000000000E+00 0.  1.
         11    1    5    5    0    0  0.28247419112E+02 -0.39239950219E+03 -0.32682017626E+03  0.51145548547E+03  0.00000000000E+00 0. -1.
        -12    1    5    5    0    0  0.10634947340E+03 -0.42356208651E+03 -0.38109547667E+03  0.57961091601E+03  0.00000000000E+00 0.  1.
          2    1    6    6  502    0 -0.26672715582E+03 -0.22695362492E+03 -0.46733515972E+03  0.58399783820E+03  0.00000000000E+00 0. -1.
         -1    1    6    6    0  502 -0.23969115477E+02 -0.56855236433E+02 -0.11236894169E+03  0.12819444396E+03  0.00000000000E+00 0.  1.
<mgrwt>
<rscale>  0 0.11769744E+04</rscale>
<asrwt>0</asrwt>
<pdfrwt beam="1">  1        1 0.44843691E+00 0.11769744E+04</pdfrwt>
<pdfrwt beam="2">  1       -2 0.74492607E-01 0.11769744E+04</pdfrwt>
<totfact> 0.97879060E-01</totfact>
</mgrwt>
</event>
<event>
12    3  0.2212098E-007  0.6611428E+03  0.7818608E-02  0.9786092E-01
         -2   -1    0    0    0  501 -0.00000000000E+00  0.00000000000E+00  0.22329969720E+03  0.22329969720E+03  0.00000000000E+00 0.  1.
          1   -1    0    0  501    0  0.00000000000E+00 -0.00000000000E+00 -0.21113267363E+04  0.21113267363E+04  0.00000000000E+00 0. -1.
        -24    2    1    2    0    0 -0.44892066437E+03  0.27389239174E+03 -0.49306706915E+03  0.72764509613E+03  0.99022452429E+02 0.  0.
    5000000    2    1    2    0    0  0.44892066437E+03 -0.27389239174E+03 -0.13949599699E+04  0.16069813373E+04  0.59994074350E+03 0.  0.
        -24    2    4    4    0    0  0.39065279182E+02 -0.36103723616E+03 -0.65500361417E+03  0.75316750444E+03  0.79734391848E+02 0.  0.
         24    2    4    4    0    0  0.40985538519E+03  0.87144844411E+02 -0.73995635575E+03  0.85381383289E+03  0.76726736857E+02 0.  0.
         11    1    3    3    0    0 -0.34425691936E+03  0.20929576032E+03 -0.31588201239E+03  0.51195604066E+03  0.00000000000E+00 0. -1.
        -12    1    3    3    0    0 -0.10466374501E+03  0.64596631429E+02 -0.17718505676E+03  0.21568905547E+03  0.00000000000E+00 0.  1.
         11    1    5    5    0    0  0.52913099749E+02 -0.14207163622E+03 -0.29198284712E+03  0.32899563668E+03  0.00000000000E+00 0. -1.
        -12    1    5    5    0    0 -0.13847820566E+02 -0.21896559994E+03 -0.36302076705E+03  0.42417186776E+03  0.00000000000E+00 0.  1.
          4    1    6    6  502    0  0.10241907524E+03 -0.10181736410E+02 -0.19874329831E+03  0.22381294277E+03  0.00000000000E+00 0. -1.
         -3    1    6    6    0  502  0.30743630994E+03  0.97326580821E+02 -0.54121305744E+03  0.63000089012E+03  0.00000000000E+00 0.  1.
<mgrwt>
<rscale>  0 0.66114280E+03</rscale>
<asrwt>0</asrwt>
<pdfrwt beam="1">  1        1 0.32481950E+00 0.66114280E+03</pdfrwt>
<pdfrwt beam="2">  1       -2 0.34353799E-01 0.66114280E+03</pdfrwt>
<totfact> 0.18393381E+01</totfact>
</mgrwt>
</event>
<event>
12    3  0.2212098E-007  0.6027046E+03  0.7818608E-02  0.9899811E-01
          1   -1    0    0  501    0  0.00000000000E+00  0.00000000000E+00  0.14891919500E+04  0.14891919500E+04  0.00000000000E+00 0. -1.
         -2   -1    0    0    0  501 -0.00000000000E+00 -0.00000000000E+00 -0.51821961186E+03  0.51821961186E+03  0.00000000000E+00 0.  1.
        -24    2    1    2    0    0 -0.20313176712E+03 -0.42746714754E+03 -0.26963982311E+03  0.55036589123E+03  0.78780092511E+02 0.  0.
    5000000    2    1    2    0    0  0.20313176712E+03  0.42746714754E+03  0.12406121612E+04  0.14570456706E+04  0.59989405284E+03 0.  0.
        -24    2    4    4    0    0  0.24305746793E+03  0.54872874305E+03  0.90033356192E+03  0.10848975233E+04  0.78879320829E+02 0.  0.
         24    2    4    4    0    0 -0.39925700808E+02 -0.12126159551E+03  0.34027859931E+03  0.37214814728E+03  0.80039254408E+02 0.  0.
         13    1    3    3    0    0 -0.62843015525E+02 -0.14072873373E+03 -0.46833713941E+02  0.16108140134E+03  0.00000000000E+00 0. -1.
        -14    1    3    3    0    0 -0.14028875160E+03 -0.28673841382E+03 -0.22280610916E+03  0.38928448989E+03  0.00000000000E+00 0.  1.
         13    1    5    5    0    0  0.27279528035E+01  0.57158826544E+02  0.68846991600E+02  0.89523636157E+02  0.00000000000E+00 0. -1.
        -14    1    5    5    0    0  0.24032951513E+03  0.49156991651E+03  0.83148657032E+03  0.99537388718E+03  0.00000000000E+00 0.  1.
          2    1    6    6  502    0 -0.15988317103E+02 -0.50484046193E+02  0.51528652686E+02  0.73888207797E+02  0.00000000000E+00 0. -1.
         -1    1    6    6    0  502 -0.23937383705E+02 -0.70777549315E+02  0.28874994662E+03  0.29825993948E+03  0.00000000000E+00 0.  1.
<mgrwt>
<rscale>  0 0.60270463E+03</rscale>
<asrwt>0</asrwt>
<pdfrwt beam="1">  1        1 0.22910645E+00 0.60270463E+03</pdfrwt>
<pdfrwt beam="2">  1       -2 0.79726095E-01 0.60270463E+03</pdfrwt>
<totfact> 0.85903525E+00</totfact>
</mgrwt>
</event>
<event>
12    3  0.2212098E-007  0.8383974E+03  0.7818608E-02  0.9506043E-01
          1   -1    0    0  501    0  0.00000000000E+00  0.00000000000E+00  0.12512945041E+04  0.12512945041E+04  0.00000000000E+00 0. -1.
         -2   -1    0    0    0  501 -0.00000000000E+00 -0.00000000000E+00 -0.12320156513E+04  0.12320156513E+04  0.00000000000E+00 0.  1.
        -24    2    1    2    0    0 -0.75430092727E+03 -0.32224174502E+03 -0.82196340397E+03  0.11639686792E+04  0.79935083202E+02 0.  0.
    5000000    2    1    2    0    0  0.75430092727E+03  0.32224174502E+03  0.84124225674E+03  0.13193414763E+04  0.60013645561E+03 0.  0.
        -24    2    4    4    0    0  0.40307460827E+03  0.29622896568E+03  0.13275970802E+03  0.52420150016E+03  0.83314661175E+02 0.  0.
         24    2    4    4    0    0  0.35122631900E+03  0.26012779345E+02  0.70848254872E+03  0.79513997610E+03  0.79142074145E+02 0.  0.
         11    1    3    3    0    0 -0.32607552854E+03 -0.18244479870E+03 -0.36836317214E+03  0.52469303548E+03  0.00000000000E+00 0. -1.
        -12    1    3    3    0    0 -0.42822539872E+03 -0.13979694632E+03 -0.45360023183E+03  0.63927564370E+03  0.00000000000E+00 0.  1.
         13    1    5    5    0    0  0.11513135314E+03  0.76913004789E+02  0.75625409761E+02  0.15776578014E+03  0.00000000000E+00 0. -1.
        -14    1    5    5    0    0  0.28794325513E+03  0.21931596089E+03  0.57134298258E+02  0.36643572003E+03  0.00000000000E+00 0.  1.
          4    1    6    6  502    0  0.69561447786E+02  0.21399688070E+01  0.80135447897E+02  0.10613700813E+03  0.00000000000E+00 0. -1.
         -3    1    6    6    0  502  0.28166487121E+03  0.23872810538E+02  0.62834710083E+03  0.68900296797E+03  0.00000000000E+00 0.  1.
<mgrwt>
<rscale>  0 0.83839735E+03</rscale>
<asrwt>0</asrwt>
<pdfrwt beam="1">  1        1 0.19250685E+00 0.83839735E+03</pdfrwt>
<pdfrwt beam="2">  1       -2 0.18954087E+00 0.83839735E+03</pdfrwt>
<totfact> 0.13690787E+00</totfact>
</mgrwt>
</event>
<event>
12    3  0.2212098E-007  0.5890008E+03  0.7818608E-02  0.9928492E-01
         -2   -1    0    0    0  501 -0.00000000000E+00  0.00000000000E+00  0.82577215622E+03  0.82577215622E+03  0.00000000000E+00 0.  1.
          1   -1    0    0  501    0  0.00000000000E+00 -0.00000000000E+00 -0.65323288009E+03  0.65323288009E+03  0.00000000000E+00 0. -1.
        -24    2    1    2    0    0  0.22358583563E+02  0.46446990373E+03 -0.32362215308E+03  0.57214829514E+03  0.79938576005E+02 0.  0.
    5000000    2    1    2    0    0 -0.22358583563E+02 -0.46446990373E+03  0.49616142922E+03  0.90685674117E+03  0.59998398931E+03 0.  0.
        -24    2    4    4    0    0 -0.80786786591E+02  0.93206137822E+02  0.24840224896E+03  0.28852529033E+03  0.79556752430E+02 0.  0.
         24    2    4    4    0    0  0.58428203028E+02 -0.55767604156E+03  0.24775918025E+03  0.61833145084E+03  0.80825425831E+02 0.  0.
         11    1    5    5    0    0 -0.19044100631E+02  0.81700888954E+02  0.14672730477E+03  0.16901661158E+03  0.00000000000E+00 0. -1.
        -12    1    5    5    0    0 -0.61742685960E+02  0.11505248868E+02  0.10167494419E+03  0.11950867875E+03  0.00000000000E+00 0.  1.
         13    1    3    3    0    0 -0.86827122434E+00  0.40527923747E+03 -0.25618055734E+03  0.47945854063E+03  0.00000000000E+00 0. -1.
        -14    1    3    3    0    0  0.23226854788E+02  0.59190666260E+02 -0.67441595735E+02  0.92689754508E+02  0.00000000000E+00 0.  1.
          4    1    6    6  502    0  0.50728781545E+02 -0.27380448700E+03  0.85630736930E+02  0.29133302162E+03  0.00000000000E+00 0. -1.
         -3    1    6    6    0  502  0.76994214827E+01 -0.28387155456E+03  0.16212844332E+03  0.32699842922E+03  0.00000000000E+00 0.  1.
<mgrwt>
<rscale>  0 0.58900082E+03</rscale>
<asrwt>0</asrwt>
<pdfrwt beam="1">  1        1 0.10049737E+00 0.58900082E+03</pdfrwt>
<pdfrwt beam="2">  1       -2 0.12704187E+00 0.58900082E+03</pdfrwt>
<totfact> 0.12663877E+01</totfact>
</mgrwt>
</event>
<event>
12    3  0.2212098E-007  0.4813591E+03  0.7818608E-02  0.1018762E+00
          1   -1    0    0  501    0  0.00000000000E+00  0.00000000000E+00  0.19215130387E+04  0.19215130387E+04  0.00000000000E+00 0. -1.
         -2   -1    0    0    0  501 -0.00000000000E+00 -0.00000000000E+00 -0.18587628419E+03  0.18587628419E+03  0.00000000000E+00 0.  1.
        -24    2    1    2    0    0 -0.41305317369E+03  0.14640032172E+03  0.54410218562E+03  0.70320070940E+03  0.79987941707E+02 0.  0.
    5000000    2    1    2    0    0  0.41305317369E+03 -0.14640032172E+03  0.11915345689E+04  0.14041886135E+04  0.59995421065E+03 0.  0.
        -24    2    4    4    0    0  0.15939443408E+03 -0.20079307538E+03  0.11186710329E+03  0.29088386958E+03  0.79841919122E+02 0.  0.
         24    2    4    4    0    0  0.25365873961E+03  0.54392753660E+02  0.10796674656E+04  0.11133047439E+04  0.80400800162E+02 0.  0.
         11    1    3    3    0    0 -0.21866354832E+03  0.77032994030E+02  0.22430918165E+03  0.32258710220E+03  0.00000000000E+00 0. -1.
        -12    1    3    3    0    0 -0.19438962536E+03  0.69367327692E+02  0.31979300397E+03  0.38061360720E+03  0.00000000000E+00 0.  1.
         13    1    5    5    0    0  0.12302908785E+03 -0.17675059409E+03  0.12001114392E+03  0.24653519756E+03  0.00000000000E+00 0. -1.
        -14    1    5    5    0    0  0.36365346225E+02 -0.24042481289E+02 -0.81440406307E+01  0.44348672025E+02  0.00000000000E+00 0.  1.
          4    1    6    6  502    0  0.11776417393E+03  0.54215523575E+02  0.64458000847E+03  0.65748848733E+03  0.00000000000E+00 0. -1.
         -1    1    6    6    0  502  0.13589456567E+03  0.17723008490E+00  0.43508745717E+03  0.45581625659E+03  0.00000000000E+00 0.  1.
<mgrwt>
<rscale>  0 0.48135910E+03</rscale>
<asrwt>0</asrwt>
<pdfrwt beam="1">  1        1 0.29561738E+00 0.48135910E+03</pdfrwt>
<pdfrwt beam="2">  1       -2 0.28596353E-01 0.48135910E+03</pdfrwt>
<totfact> 0.35670181E+01</totfact>
</mgrwt>
</event>
<event>
12    3  0.2212098E-007  0.1155351E+04  0.7818608E-02  0.9152861E-01
         -2   -1    0    0    0  501 -0.00000000000E+00  0.00000000000E+00  0.21558460876E+04  0.21558460876E+04  0.00000000000E+00 0.  1.
          1   -1    0    0  501    0  0.00000000000E+00 -0.00000000000E+00 -0.74865902282E+03  0.74865902282E+03  0.00000000000E+00 0. -1.
        -24    2    1    2    0    0  0.76177120964E+03 -0.78037898328E+03  0.96480568922E+02  0.10970096090E+04  0.69533075734E+02 0.  0.
    5000000    2    1    2    0    0 -0.76177120964E+03  0.78037898328E+03  0.13107064959E+04  0.18074955015E+04  0.59983475738E+03 0.  0.
        -24    2    4    4    0    0 -0.63018944140E+03  0.84786673360E+03  0.12236027432E+04  0.16183273760E+04  0.75915037870E+02 0.  0.
         24    2    4    4    0    0 -0.13158176824E+03 -0.67487750324E+02  0.87103752735E+02  0.18916812545E+03  0.79556003986E+02 0.  0.
         11    1    3    3    0    0  0.37115559589E+03 -0.33081411001E+03  0.41099797202E+02  0.49888239603E+03  0.00000000000E+00 0. -1.
        -12    1    3    3    0    0  0.39061561375E+03 -0.44956487327E+03  0.55380771720E+02  0.59812721294E+03  0.00000000000E+00 0.  1.
         13    1    5    5    0    0 -0.51356696249E+03  0.68447376899E+03  0.10343758813E+04  0.13424562671E+04  0.00000000000E+00 0. -1.
        -14    1    5    5    0    0 -0.11662247891E+03  0.16339296461E+03  0.18922686188E+03  0.27587110890E+03  0.00000000000E+00 0.  1.
          2    1    6    6  502    0 -0.50094439872E+01 -0.28669393651E+02  0.38221887056E+02  0.48041037785E+02  0.00000000000E+00 0. -1.
         -1    1    6    6    0  502 -0.12657232425E+03 -0.38818356673E+02  0.48881865680E+02  0.14112708767E+03  0.00000000000E+00 0.  1.
<mgrwt>
<rscale>  0 0.11553511E+04</rscale>
<asrwt>0</asrwt>
<pdfrwt beam="1">  1        1 0.11517831E+00 0.11553511E+04</pdfrwt>
<pdfrwt beam="2">  1       -2 0.33166863E+00 0.11553511E+04</pdfrwt>
<totfact> 0.43283845E-01</totfact>
</mgrwt>
</event>
<event>
12    3  0.2212098E-007  0.1006780E+04  0.7818608E-02  0.9301139E-01
         -2   -1    0    0    0  501 -0.00000000000E+00  0.00000000000E+00  0.21986479343E+04  0.21986479343E+04  0.00000000000E+00 0.  1.
          1   -1    0    0  501    0  0.00000000000E+00 -0.00000000000E+00 -0.71739536930E+03  0.71739536930E+03  0.00000000000E+00 0. -1.
        -24    2    1    2    0    0 -0.91488590709E+03 -0.40543500025E+03 -0.32876453567E+02  0.10044938980E+04  0.80829248574E+02 0.  0.
    5000000    2    1    2    0    0  0.91488590709E+03  0.40543500025E+03  0.15141290186E+04  0.19115494057E+04  0.60003390149E+03 0.  0.
        -24    2    4    4    0    0  0.58628710176E+03  0.32915671664E+03  0.50480413761E+03  0.84437611802E+03  0.77891601223E+02 0.  0.
         24    2    4    4    0    0  0.32859880533E+03  0.76278283614E+02  0.10093248810E+04  0.10671732877E+04  0.79539669800E+02 0.  0.
         11    1    3    3    0    0 -0.35044367965E+03 -0.12459686636E+03 -0.39369184823E+02  0.37401214476E+03  0.00000000000E+00 0. -1.
        -12    1    3    3    0    0 -0.56444222744E+03 -0.28083813389E+03  0.64927312562E+01  0.63048175321E+03  0.00000000000E+00 0.  1.
         13    1    5    5    0    0  0.52322618422E+03  0.29278393693E+03  0.47802231330E+03  0.76680728061E+03  0.00000000000E+00 0. -1.
        -14    1    5    5    0    0  0.63060917537E+02  0.36372779710E+02  0.26781824305E+02  0.77568837412E+02  0.00000000000E+00 0.  1.
          4    1    6    6  502    0  0.24596139130E+03  0.70983386963E+02  0.65380522401E+03  0.70213739267E+03  0.00000000000E+00 0. -1.
         -3    1    6    6    0  502  0.82637414029E+02  0.52948966514E+01  0.35551965698E+03  0.36503589499E+03  0.00000000000E+00 0.  1.
<mgrwt>
<rscale>  0 0.10067804E+04</rscale>
<asrwt>0</asrwt>
<pdfrwt beam="1">  1        1 0.11036852E+00 0.10067804E+04</pdfrwt>
<pdfrwt beam="2">  1       -2 0.33825353E+00 0.10067804E+04</pdfrwt>
<totfact> 0.42976599E-01</totfact>
</mgrwt>
</event>
<event>
12    3  0.2212098E-007  0.7423958E+03  0.7818608E-02  0.9647356E-01
          1   -1    0    0  501    0  0.00000000000E+00  0.00000000000E+00  0.17771071583E+04  0.17771071583E+04  0.00000000000E+00 0. -1.
         -2   -1    0    0    0  501 -0.00000000000E+00 -0.00000000000E+00 -0.36596666847E+03  0.36596666847E+03  0.00000000000E+00 0.  1.
        -24    2    1    2    0    0  0.55135593871E+03 -0.32276106229E+03  0.96318760409E+03  0.11588078107E+04  0.83289297326E+02 0.  0.
    5000000    2    1    2    0    0 -0.55135593871E+03  0.32276106229E+03  0.44795288572E+03  0.98426601601E+03  0.59995810519E+03 0.  0.
        -24    2    4    4    0    0 -0.64722774999E+03  0.20839185900E+03  0.44197316077E+03  0.81475163773E+03  0.78415745174E+02 0.  0.
         24    2    4    4    0    0  0.95871811276E+02  0.11436920329E+03  0.59797249429E+01  0.16951437828E+03  0.80172616746E+02 0.  0.
         11    1    3    3    0    0  0.70113502839E+02 -0.70426935412E+02  0.17935765662E+03  0.20504883687E+03  0.00000000000E+00 0. -1.
        -12    1    3    3    0    0  0.48124243587E+03 -0.25233412688E+03  0.78382994747E+03  0.95375897386E+03  0.00000000000E+00 0.  1.
         11    1    5    5    0    0 -0.50484644004E+03  0.13122556018E+03  0.31933639050E+03  0.61160919381E+03  0.00000000000E+00 0. -1.
        -12    1    5    5    0    0 -0.14238130995E+03  0.77166298819E+02  0.12263677028E+03  0.20314244392E+03  0.00000000000E+00 0.  1.
          2    1    6    6  502    0  0.70676708287E+02  0.42896358919E+02 -0.26848331638E+02  0.86925989293E+02  0.00000000000E+00 0. -1.
         -1    1    6    6    0  502  0.25195102989E+02  0.71472844372E+02  0.32828056581E+02  0.82588388991E+02  0.00000000000E+00 0.  1.
<mgrwt>
<rscale>  0 0.74239585E+03</rscale>
<asrwt>0</asrwt>
<pdfrwt beam="1">  1        1 0.27340110E+00 0.74239585E+03</pdfrwt>
<pdfrwt beam="2">  1       -2 0.56302565E-01 0.74239585E+03</pdfrwt>
<totfact> 0.11392734E+01</totfact>
</mgrwt>
</event>
<event>
12    3  0.2212098E-007  0.5517344E+03  0.7818608E-02  0.1001093E+00
         -2   -1    0    0    0  501 -0.00000000000E+00  0.00000000000E+00  0.59473023930E+03  0.59473023930E+03  0.00000000000E+00 0.  1.
          1   -1    0    0  501    0  0.00000000000E+00 -0.00000000000E+00 -0.58019765727E+03  0.58019765727E+03  0.00000000000E+00 0. -1.
        -24    2    1    2    0    0 -0.26334010739E+03 -0.29427207429E+03  0.17469510035E+03  0.43901049180E+03  0.79169236176E+02 0.  0.
    5000000    2    1    2    0    0  0.26334010739E+03  0.29427207429E+03 -0.16016251832E+03  0.73591740477E+03  0.59998194014E+03 0.  0.
        -24    2    4    4    0    0  0.35620857181E+03  0.40986800536E+03 -0.13511173804E+03  0.56529838819E+03  0.80192003840E+02 0.  0.
         24    2    4    4    0    0 -0.92868464419E+02 -0.11559593107E+03 -0.25050780279E+02  0.17061901658E+03  0.80599852755E+02 0.  0.
         13    1    3    3    0    0 -0.15690025934E+03 -0.21997624562E+03  0.93578062341E+02  0.28594421444E+03  0.00000000000E+00 0. -1.
        -14    1    3    3    0    0 -0.10643984805E+03 -0.74295828673E+02  0.81117038008E+02  0.15306627737E+03  0.00000000000E+00 0.  1.
         13    1    5    5    0    0  0.30565419340E+03  0.36777870434E+03 -0.14278037570E+03  0.49907103402E+03  0.00000000000E+00 0. -1.
        -14    1    5    5    0    0  0.50554378409E+02  0.42089301024E+02  0.76686376588E+01  0.66227354172E+02  0.00000000000E+00 0.  1.
          4    1    6    6  502    0 -0.81131011583E+02 -0.12168362121E+03 -0.39038656728E+02  0.15137093985E+03  0.00000000000E+00 0. -1.
         -3    1    6    6    0  502 -0.11737452836E+02  0.60876901447E+01  0.13987876449E+02  0.19248076733E+02  0.00000000000E+00 0.  1.
<mgrwt>
<rscale>  0 0.55173435E+03</rscale>
<asrwt>0</asrwt>
<pdfrwt beam="1">  1        1 0.89261178E-01 0.55173435E+03</pdfrwt>
<pdfrwt beam="2">  1       -2 0.91496960E-01 0.55173435E+03</pdfrwt>
<totfact> 0.33193397E+01</totfact>
</mgrwt>
</event>
<event>
12    3  0.2212098E-007  0.6335745E+03  0.7818608E-02  0.9838098E-01
          1   -1    0    0  501    0  0.00000000000E+00  0.00000000000E+00  0.18169245237E+04  0.18169245237E+04  0.00000000000E+00 0. -1.
         -2   -1    0    0    0  501 -0.00000000000E+00 -0.00000000000E+00 -0.56029728631E+03  0.56029728631E+03  0.00000000000E+00 0.  1.
        -24    2    1    2    0    0  0.37853177030E+02  0.62058719586E+03 -0.22199940791E+03  0.66467225614E+03  0.77098250920E+02 0.  0.
    5000000    2    1    2    0    0 -0.37853177030E+02 -0.62058719586E+03  0.14786266453E+04  0.17125495539E+04  0.59993990334E+03 0.  0.
        -24    2    4    4    0    0  0.30147174397E+01 -0.50637069960E+03  0.47695549757E+03  0.70022958036E+03  0.80090852226E+02 0.  0.
         24    2    4    4    0    0 -0.40867894469E+02 -0.11421649625E+03  0.10016711477E+04  0.10123199735E+04  0.82042962955E+02 0.  0.
         11    1    5    5    0    0 -0.34248630087E+00 -0.18495771315E+03  0.22845904290E+03  0.29394388450E+03  0.00000000000E+00 0. -1.
        -12    1    5    5    0    0  0.33572037406E+01 -0.32141298646E+03  0.24849645466E+03  0.40628569586E+03  0.00000000000E+00 0.  1.
         11    1    3    3    0    0 -0.20262374214E+02  0.24707224299E+03 -0.73842906694E+02  0.25866586929E+03  0.00000000000E+00 0. -1.
        -12    1    3    3    0    0  0.58115551244E+02  0.37351495287E+03 -0.14815650122E+03  0.40600638685E+03  0.00000000000E+00 0.  1.
          2    1    6    6  502    0 -0.70935342544E+00 -0.85445395264E+02  0.80568574616E+03  0.81020425839E+03  0.00000000000E+00 0. -1.
         -1    1    6    6    0  502 -0.40158541044E+02 -0.28771100987E+02  0.19598540157E+03  0.20211571512E+03  0.00000000000E+00 0.  1.
<mgrwt>
<rscale>  0 0.63357445E+03</rscale>
<asrwt>0</asrwt>
<pdfrwt beam="1">  1        1 0.27952685E+00 0.63357445E+03</pdfrwt>
<pdfrwt beam="2">  1       -2 0.86199584E-01 0.63357445E+03</pdfrwt>
<totfact> 0.43116825E+00</totfact>
</mgrwt>
</event>
<event>
12    3  0.2212098E-007  0.4852161E+03  0.7818608E-02  0.1017711E+00
          1   -1    0    0  501    0  0.00000000000E+00  0.00000000000E+00  0.95467175497E+03  0.95467175497E+03  0.00000000000E+00 0. -1.
         -2   -1    0    0    0  501 -0.00000000000E+00 -0.00000000000E+00 -0.26837489848E+03  0.26837489848E+03  0.00000000000E+00 0.  1.
        -24    2    1    2    0    0 -0.31838595563E+03  0.18864613506E+02  0.18003521982E+03  0.37556067612E+03  0.83112277579E+02 0.  0.
    5000000    2    1    2    0    0  0.31838595563E+03 -0.18864613506E+02  0.50626163667E+03  0.84748597734E+03  0.60017176428E+03 0.  0.
        -24    2    4    4    0    0  0.43609651245E+03  0.10701175517E+03  0.22629150663E+03  0.50900115113E+03  0.79010391505E+02 0.  0.
         24    2    4    4    0    0 -0.11771055683E+03 -0.12587636867E+03  0.27997013004E+03  0.33848482620E+03  0.80548547325E+02 0.  0.
         11    1    3    3    0    0 -0.12655823641E+03  0.47692373998E+02  0.65271596844E+02  0.15017300389E+03  0.00000000000E+00 0. -1.
        -12    1    3    3    0    0 -0.19182771921E+03 -0.28827760492E+02  0.11476362298E+03  0.22538767223E+03  0.00000000000E+00 0.  1.
         13    1    5    5    0    0  0.29384261861E+03  0.92117791732E+02  0.11873183694E+03  0.33004002965E+03  0.00000000000E+00 0. -1.
        -14    1    5    5    0    0  0.14225389384E+03  0.14893963433E+02  0.10755966969E+03  0.17896112149E+03  0.00000000000E+00 0.  1.
          4    1    6    6  502    0 -0.86147233502E+01 -0.64461852466E+02  0.94686183542E+02  0.11486956619E+03  0.00000000000E+00 0. -1.
         -3    1    6    6    0  502 -0.10909583348E+03 -0.61414516206E+02  0.18528394650E+03  0.22361526002E+03  0.00000000000E+00 0.  1.
<mgrwt>
<rscale>  0 0.48521614E+03</rscale>
<asrwt>0</asrwt>
<pdfrwt beam="1">  1        1 0.14687258E+00 0.48521614E+03</pdfrwt>
<pdfrwt beam="2">  1       -2 0.41288446E-01 0.48521614E+03</pdfrwt>
<totfact> 0.83592753E+01</totfact>
</mgrwt>
</event>
<event>
12    3  0.2212098E-007  0.5667006E+03  0.7818608E-02  0.9977006E-01
          1   -1    0    0  501    0  0.00000000000E+00  0.00000000000E+00  0.28779956086E+04  0.28779956086E+04  0.00000000000E+00 0. -1.
         -2   -1    0    0    0  501 -0.00000000000E+00 -0.00000000000E+00 -0.11871980967E+03  0.11871980967E+03  0.00000000000E+00 0.  1.
        -24    2    1    2    0    0  0.28431059607E+03 -0.29663358377E+03  0.13099189981E+04  0.13751437972E+04  0.79427221020E+02 0.  0.
    5000000    2    1    2    0    0 -0.28431059607E+03  0.29663358377E+03  0.14493568009E+04  0.16215716211E+04  0.60002948928E+03 0.  0.
        -24    2    4    4    0    0 -0.24564005779E+03  0.46776962839E+03  0.10346549531E+04  0.11644642484E+04  0.79489940890E+02 0.  0.
         24    2    4    4    0    0 -0.38670538274E+02 -0.17113604463E+03  0.41470184778E+03  0.45710737263E+03  0.78654759964E+02 0.  0.
         11    1    3    3    0    0  0.10794210227E+03 -0.11587483200E+03  0.63715973509E+03  0.65654474498E+03  0.00000000000E+00 0. -1.
        -12    1    3    3    0    0  0.17636849380E+03 -0.18075875177E+03  0.67275926297E+03  0.71859905222E+03  0.00000000000E+00 0.  1.
         13    1    5    5    0    0 -0.55755303032E+02  0.17569369488E+03  0.31627482835E+03  0.36606924930E+03  0.00000000000E+00 0. -1.
        -14    1    5    5    0    0 -0.18988475476E+03  0.29207593352E+03  0.71838012472E+03  0.79839499913E+03  0.00000000000E+00 0.  1.
          2    1    6    6  502    0  0.13671756948E+02 -0.10283495858E+03  0.18971679638E+03  0.21622767740E+03  0.00000000000E+00 0. -1.
         -1    1    6    6    0  502 -0.52342295222E+02 -0.68301086046E+02  0.22498505140E+03  0.24087969523E+03  0.00000000000E+00 0.  1.
<mgrwt>
<rscale>  0 0.56670060E+03</rscale>
<asrwt>0</asrwt>
<pdfrwt beam="1">  1        1 0.44276850E+00 0.56670060E+03</pdfrwt>
<pdfrwt beam="2">  1       -2 0.18264588E-01 0.56670060E+03</pdfrwt>
<totfact> 0.17547830E+01</totfact>
</mgrwt>
</event>
<event>
12    3  0.2212098E-007  0.6742047E+03  0.7818608E-02  0.9762392E-01
         -2   -1    0    0    0  501 -0.00000000000E+00  0.00000000000E+00  0.83696143692E+03  0.83696143692E+03  0.00000000000E+00 0.  1.
          1   -1    0    0  501    0  0.00000000000E+00 -0.00000000000E+00 -0.55847837642E+03  0.55847837642E+03  0.00000000000E+00 0. -1.
        -24    2    1    2    0    0 -0.57772600516E+02 -0.54489155140E+03  0.85020397875E+02  0.56010615766E+03  0.79031409123E+02 0.  0.
    5000000    2    1    2    0    0  0.57772600516E+02  0.54489155140E+03  0.19346266262E+03  0.83533365568E+03  0.60009169160E+03 0.  0.
        -24    2    4    4    0    0 -0.20395335890E+03  0.46693378306E+03  0.19208529985E+03  0.55078906474E+03  0.82750837128E+02 0.  0.
         24    2    4    4    0    0  0.26172595942E+03  0.77957768345E+02  0.13773627643E+01  0.28454459095E+03  0.79911423660E+02 0.  0.
         11    1    5    5    0    0 -0.15946404784E+03  0.26626134918E+03  0.12477430189E+03  0.33450338569E+03  0.00000000000E+00 0. -1.
        -12    1    5    5    0    0 -0.44489311061E+02  0.20067243387E+03  0.67310997960E+02  0.21628567905E+03  0.00000000000E+00 0.  1.
         11    1    3    3    0    0 -0.74042883394E+02 -0.40226498882E+03  0.77924693288E+02  0.41637930741E+03  0.00000000000E+00 0. -1.
        -12    1    3    3    0    0  0.16270282877E+02 -0.14262656258E+03  0.70957045867E+01  0.14372685025E+03  0.00000000000E+00 0.  1.
          4    1    6    6  502    0  0.53757619983E+01 -0.79242791317E+01  0.10273992952E+02  0.14044498851E+02  0.00000000000E+00 0. -1.
         -3    1    6    6    0  502  0.25635019742E+03  0.85882047477E+02 -0.88966301873E+01  0.27050009209E+03  0.00000000000E+00 0.  1.
<mgrwt>
<rscale>  0 0.67420470E+03</rscale>
<asrwt>0</asrwt>
<pdfrwt beam="1">  1        1 0.85919750E-01 0.67420470E+03</pdfrwt>
<pdfrwt beam="2">  1       -2 0.12876330E+00 0.67420470E+03</pdfrwt>
<totfact> 0.15178008E+01</totfact>
</mgrwt>
</event>
<event>
12    3  0.2212098E-007  0.1048984E+04  0.7818608E-02  0.9256394E-01
         -2   -1    0    0    0  501 -0.00000000000E+00  0.00000000000E+00  0.24505070571E+03  0.24505070571E+03  0.00000000000E+00 0.  1.
          1   -1    0    0  501    0  0.00000000000E+00 -0.00000000000E+00 -0.46860276960E+04  0.46860276960E+04  0.00000000000E+00 0. -1.
        -24    2    1    2    0    0  0.82530254404E+03 -0.50300293871E+03 -0.16020593805E+04  0.18727201435E+04  0.79688340266E+02 0.  0.
    5000000    2    1    2    0    0 -0.82530254404E+03  0.50300293871E+03 -0.28389176098E+04  0.30583582582E+04  0.59997149512E+03 0.  0.
        -24    2    4    4    0    0 -0.83435006448E+03  0.58486818301E+03 -0.25706366286E+04  0.27663305882E+04  0.78749128260E+02 0.  0.
         24    2    4    4    0    0  0.90475204440E+01 -0.81865244300E+02 -0.26828098116E+03  0.29202767002E+03  0.80757039048E+02 0.  0.
         13    1    5    5    0    0 -0.24265400802E+03  0.18937957027E+03 -0.86664099776E+03  0.91968049248E+03  0.00000000000E+00 0. -1.
        -14    1    5    5    0    0 -0.59169605646E+03  0.39548861275E+03 -0.17039956309E+04  0.18466500957E+04  0.00000000000E+00 0.  1.
         13    1    3    3    0    0  0.15030523672E+03 -0.12712744098E+03 -0.34539885032E+03  0.39755932417E+03  0.00000000000E+00 0. -1.
        -14    1    3    3    0    0  0.67499730732E+03 -0.37587549773E+03 -0.12566605302E+04  0.14751608193E+04  0.00000000000E+00 0.  1.
          2    1    6    6  502    0 -0.29942639934E+02 -0.51565821050E+02 -0.19296282564E+03  0.20196595670E+03  0.00000000000E+00 0. -1.
         -1    1    6    6    0  502  0.38990160378E+02 -0.30299423250E+02 -0.75318155522E+02  0.90061713324E+02  0.00000000000E+00 0.  1.
<mgrwt>
<rscale>  0 0.10489840E+04</rscale>
<asrwt>0</asrwt>
<pdfrwt beam="1">  1        1 0.72092741E+00 0.10489840E+04</pdfrwt>
<pdfrwt beam="2">  1       -2 0.37700105E-01 0.10489840E+04</pdfrwt>
<totfact> 0.12716017E-01</totfact>
</mgrwt>
</event>
<event>
12    3  0.2212098E-007  0.1071030E+04  0.7818608E-02  0.9233897E-01
         -2   -1    0    0    0  501 -0.00000000000E+00  0.00000000000E+00  0.60628049682E+03  0.60628049682E+03  0.00000000000E+00 0.  1.
          1   -1    0    0  501    0  0.00000000000E+00 -0.00000000000E+00 -0.19324533938E+04  0.19324533938E+04  0.00000000000E+00 0. -1.
        -24    2    1    2    0    0  0.91943573411E+03  0.38714966600E+03 -0.60588566250E+03  0.11698301849E+04  0.78474788098E+02 0.  0.
    5000000    2    1    2    0    0 -0.91943573411E+03 -0.38714966600E+03 -0.72028723448E+03  0.13689037058E+04  0.59986391993E+03 0.  0.
        -24    2    4    4    0    0 -0.65303675374E+03  0.13884472990E+02 -0.53071859959E+03  0.84544446499E+03  0.80401064033E+02 0.  0.
         24    2    4    4    0    0 -0.26639898036E+03 -0.40103413899E+03 -0.18956863489E+03  0.52345924077E+03  0.79224440874E+02 0.  0.
         11    1    3    3    0    0  0.88392838248E+03  0.38584941300E+03 -0.59208630850E+03  0.11317134583E+04  0.00000000000E+00 0. -1.
        -12    1    3    3    0    0  0.35507351626E+02  0.13002530035E+01 -0.13799353997E+02  0.38116726618E+02  0.00000000000E+00 0.  1.
         13    1    5    5    0    0 -0.16732698817E+03  0.38393447516E+02 -0.14533129466E+03  0.22493012913E+03  0.00000000000E+00 0. -1.
        -14    1    5    5    0    0 -0.48570976557E+03 -0.24508974526E+02 -0.38538730493E+03  0.62051433586E+03  0.00000000000E+00 0.  1.
          4    1    6    6  502    0 -0.14692286274E+03 -0.26497069357E+03 -0.15015472509E+03  0.33814529054E+03  0.00000000000E+00 0. -1.
         -3    1    6    6    0  502 -0.11947611763E+03 -0.13606344542E+03 -0.39413909801E+02  0.18531395023E+03  0.00000000000E+00 0.  1.
<mgrwt>
<rscale>  0 0.10710299E+04</rscale>
<asrwt>0</asrwt>
<pdfrwt beam="1">  1        1 0.29730051E+00 0.10710299E+04</pdfrwt>
<pdfrwt beam="2">  1       -2 0.93273925E-01 0.10710299E+04</pdfrwt>
<totfact> 0.28193024E+00</totfact>
</mgrwt>
</event>
<event>
12    3  0.2212098E-007  0.1073141E+04  0.7818608E-02  0.9231773E-01
          1   -1    0    0  501    0  0.00000000000E+00  0.00000000000E+00  0.32664936030E+04  0.32664936030E+04  0.00000000000E+00 0. -1.
         -2   -1    0    0    0  501 -0.00000000000E+00 -0.00000000000E+00 -0.36911649838E+03  0.36911649838E+03  0.00000000000E+00 0.  1.
        -24    2    1    2    0    0  0.96727472089E+03 -0.22443899430E+03  0.99924848811E+03  0.14109889602E+04  0.79994106484E+02 0.  0.
    5000000    2    1    2    0    0 -0.96727472089E+03  0.22443899430E+03  0.18981286165E+04  0.22246211411E+04  0.60004477248E+03 0.  0.
        -24    2    4    4    0    0 -0.26722790990E+03 -0.19086815366E+03  0.46939456868E+03  0.57839353021E+03  0.79789766032E+02 0.  0.
         24    2    4    4    0    0 -0.70004681099E+03  0.41530714796E+03  0.14287340478E+04  0.16462276109E+04  0.78986092987E+02 0.  0.
         13    1    3    3    0    0  0.35225788275E+03 -0.49184292737E+02  0.32691440537E+03  0.48309185364E+03  0.00000000000E+00 0. -1.
        -14    1    3    3    0    0  0.61501683814E+03 -0.17525470156E+03  0.67233408274E+03  0.92789710660E+03  0.00000000000E+00 0.  1.
         13    1    5    5    0    0 -0.63140583850E+02 -0.87864962091E+02  0.12917827016E+03  0.16850522358E+03  0.00000000000E+00 0. -1.
        -14    1    5    5    0    0 -0.20408732605E+03 -0.10300319157E+03  0.34021629852E+03  0.40988830663E+03  0.00000000000E+00 0.  1.
          2    1    6    6  502    0 -0.31551906369E+03  0.17374081295E+03  0.70814323594E+03  0.79448410446E+03  0.00000000000E+00 0. -1.
         -1    1    6    6    0  502 -0.38452774729E+03  0.24156633501E+03  0.72059081185E+03  0.85174350644E+03  0.00000000000E+00 0.  1.
<mgrwt>
<rscale>  0 0.10731413E+04</rscale>
<asrwt>0</asrwt>
<pdfrwt beam="1">  1        1 0.50253746E+00 0.10731413E+04</pdfrwt>
<pdfrwt beam="2">  1       -2 0.56787156E-01 0.10731413E+04</pdfrwt>
<totfact> 0.98651103E-01</totfact>
</mgrwt>
</event>
<event>
12    3  0.2212098E-007  0.1309973E+04  0.7818608E-02  0.9021694E-01
          1   -1    0    0  501    0  0.00000000000E+00  0.00000000000E+00  0.16373779821E+04  0.16373779821E+04  0.00000000000E+00 0. -1.
         -2   -1    0    0    0  501 -0.00000000000E+00 -0.00000000000E+00 -0.10865506887E+04  0.10865506887E+04  0.00000000000E+00 0.  1.
        -24    2    1    2    0    0 -0.73967887574E+03  0.10191018861E+04  0.38546113395E+03  0.13192794868E+04  0.78896038916E+02 0.  0.
    5000000    2    1    2    0    0  0.73967887574E+03 -0.10191018861E+04  0.16536615942E+03  0.14046491841E+04  0.59999989186E+03 0.  0.
        -24    2    4    4    0    0  0.10773971017E+03 -0.56058816284E+03 -0.82131155669E+02  0.58172160429E+03  0.76076045522E+02 0.  0.
         24    2    4    4    0    0  0.63193916557E+03 -0.45851372324E+03  0.24749731509E+03  0.82292757979E+03  0.79830678453E+02 0.  0.
         11    1    3    3    0    0 -0.32513075421E+03  0.47294180690E+03  0.21380064309E+03  0.61244973265E+03  0.00000000000E+00 0. -1.
        -12    1    3    3    0    0 -0.41454812153E+03  0.54616007919E+03  0.17166049086E+03  0.70682975410E+03  0.00000000000E+00 0.  1.
         11    1    5    5    0    0  0.34366272767E+02 -0.37055516468E+03 -0.49677071949E+02  0.37544637734E+03  0.00000000000E+00 0. -1.
        -12    1    5    5    0    0  0.73373437403E+02 -0.19003299816E+03 -0.32454083719E+02  0.20627522696E+03  0.00000000000E+00 0.  1.
          2    1    6    6  502    0  0.36600936872E+03 -0.31165560192E+03  0.16310880621E+03  0.50763821257E+03  0.00000000000E+00 0. -1.
         -1    1    6    6    0  502  0.26592979685E+03 -0.14685812131E+03  0.84388508888E+02  0.31528936722E+03  0.00000000000E+00 0.  1.
<mgrwt>
<rscale>  0 0.13099730E+04</rscale>
<asrwt>0</asrwt>
<pdfrwt beam="1">  1        1 0.25190431E+00 0.13099730E+04</pdfrwt>
<pdfrwt beam="2">  1       -2 0.16716164E+00 0.13099730E+04</pdfrwt>
<totfact> 0.99274142E-01</totfact>
</mgrwt>
</event>
<event>
12    3  0.2212098E-007  0.2799371E+03  0.7818608E-02  0.1095723E+00
         -2   -1    0    0    0  501 -0.00000000000E+00  0.00000000000E+00  0.63482556248E+03  0.63482556248E+03  0.00000000000E+00 0.  1.
          1   -1    0    0  501    0  0.00000000000E+00 -0.00000000000E+00 -0.24500427094E+03  0.24500427094E+03  0.00000000000E+00 0. -1.
        -24    2    1    2    0    0  0.11313733584E+03  0.96096383061E+02  0.11011752946E+03  0.20147677414E+03  0.80202547501E+02 0.  0.
    5000000    2    1    2    0    0 -0.11313733584E+03 -0.96096383061E+02  0.27970376208E+03  0.67835305927E+03  0.59991174926E+03 0.  0.
        -24    2    4    4    0    0 -0.60856752409E+01  0.13817086015E+03  0.36299056430E+03  0.39617416990E+03  0.77869127933E+02 0.  0.
         24    2    4    4    0    0 -0.10705166060E+03 -0.23426724321E+03 -0.83286802217E+02  0.28217888938E+03  0.79668280456E+02 0.  0.
         11    1    3    3    0    0  0.52826604728E+02  0.60998268555E+02  0.12762200440E+02  0.81696466838E+02  0.00000000000E+00 0. -1.
        -12    1    3    3    0    0  0.60310731108E+02  0.35098114506E+02  0.97355329017E+02  0.11978030730E+03  0.00000000000E+00 0.  1.
         13    1    5    5    0    0 -0.27075700732E+02  0.11733624436E+03  0.22655279667E+03  0.25656784188E+03  0.00000000000E+00 0. -1.
        -14    1    5    5    0    0  0.20990025491E+02  0.20834615790E+02  0.13643776763E+03  0.13960632801E+03  0.00000000000E+00 0.  1.
          2    1    6    6  502    0 -0.72363353164E+02 -0.12142128406E+03 -0.68051792373E+01  0.14151287422E+03  0.00000000000E+00 0. -1.
         -1    1    6    6    0  502 -0.34688307432E+02 -0.11284595914E+03 -0.76481622980E+02  0.14066601516E+03  0.00000000000E+00 0.  1.
<mgrwt>
<rscale>  0 0.27993710E+03</rscale>
<asrwt>0</asrwt>
<pdfrwt beam="1">  1        1 0.37692965E-01 0.27993710E+03</pdfrwt>
<pdfrwt beam="2">  1       -2 0.97665470E-01 0.27993710E+03</pdfrwt>
<totfact> 0.90880795E+01</totfact>
</mgrwt>
</event>
<event>
12    3  0.2212098E-007  0.9271042E+03  0.7818608E-02  0.9392320E-01
          1   -1    0    0  501    0  0.00000000000E+00  0.00000000000E+00  0.10494178149E+04  0.10494178149E+04  0.00000000000E+00 0. -1.
         -2   -1    0    0    0  501 -0.00000000000E+00 -0.00000000000E+00 -0.88785903756E+03  0.88785903756E+03  0.00000000000E+00 0.  1.
        -24    2    1    2    0    0 -0.80350001459E+03  0.31044123357E+03 -0.50438210336E+02  0.86636740606E+03  0.77861648284E+02 0.  0.
    5000000    2    1    2    0    0  0.80350001459E+03 -0.31044123357E+03  0.21199698764E+03  0.10709094464E+04  0.59993190163E+03 0.  0.
        -24    2    4    4    0    0  0.50645052754E+03  0.58063398021E+02 -0.60071258953E+02  0.51951261942E+03  0.80133080284E+02 0.  0.
         24    2    4    4    0    0  0.29704948705E+03 -0.36850463159E+03  0.27206824659E+03  0.55139682694E+03  0.77351591421E+02 0.  0.
         11    1    3    3    0    0 -0.42047734063E+03  0.12216747181E+03 -0.35708505193E+02  0.43931899856E+03  0.00000000000E+00 0. -1.
        -12    1    3    3    0    0 -0.38302267396E+03  0.18827376176E+03 -0.14729705143E+02  0.42704840750E+03  0.00000000000E+00 0.  1.
         13    1    5    5    0    0  0.36908678393E+03  0.56967698032E+02 -0.76354230654E+02  0.38118281865E+03  0.00000000000E+00 0. -1.
        -14    1    5    5    0    0  0.13736374360E+03  0.10956999891E+01  0.16282971701E+02  0.13832980078E+03  0.00000000000E+00 0.  1.
          2    1    6    6  502    0  0.12954488346E+03 -0.21773653183E+03  0.16060574447E+03  0.29997546446E+03  0.00000000000E+00 0. -1.
         -1    1    6    6    0  502  0.16750460359E+03 -0.15076809976E+03  0.11146250211E+03  0.25142136247E+03  0.00000000000E+00 0.  1.
<mgrwt>
<rscale>  0 0.92710421E+03</rscale>
<asrwt>0</asrwt>
<pdfrwt beam="1">  1        1 0.16144889E+00 0.92710421E+03</pdfrwt>
<pdfrwt beam="2">  1       -2 0.13659370E+00 0.92710421E+03</pdfrwt>
<totfact> 0.46689437E+00</totfact>
</mgrwt>
</event>
<event>
12    3  0.2212098E-007  0.1201338E+04  0.7818608E-02  0.9111687E-01
         -2   -1    0    0    0  501 -0.00000000000E+00  0.00000000000E+00  0.94666784439E+03  0.94666784439E+03  0.00000000000E+00 0.  1.
          1   -1    0    0  501    0  0.00000000000E+00 -0.00000000000E+00 -0.15899804222E+04  0.15899804222E+04  0.00000000000E+00 0. -1.
        -24    2    1    2    0    0  0.18593095169E+02  0.11329511886E+04 -0.51781875240E+03  0.12483937141E+04  0.80165492140E+02 0.  0.
    5000000    2    1    2    0    0 -0.18593095169E+02 -0.11329511886E+04 -0.12549382542E+03  0.12882545525E+04  0.59993915764E+03 0.  0.
        -24    2    4    4    0    0 -0.23513753433E+03 -0.19872430477E+03 -0.18460668683E+02  0.32018949813E+03  0.86020399143E+02 0.  0.
         24    2    4    4    0    0  0.21654443916E+03 -0.93422688383E+03 -0.10703315674E+03  0.96806505436E+03  0.77604692166E+02 0.  0.
         11    1    3    3    0    0  0.37998761370E+02  0.98967225576E+03 -0.46854547565E+03  0.10956413384E+04  0.00000000000E+00 0. -1.
        -12    1    3    3    0    0 -0.19405666201E+02  0.14327893283E+03 -0.49273276746E+02  0.15275237568E+03  0.00000000000E+00 0.  1.
         13    1    5    5    0    0 -0.21626071675E+03 -0.17783009536E+03 -0.42464850014E+02  0.28318810694E+03  0.00000000000E+00 0. -1.
        -14    1    5    5    0    0 -0.18876817580E+02 -0.20894209409E+02  0.24004181332E+02  0.37001391192E+02  0.00000000000E+00 0.  1.
          4    1    6    6  502    0  0.15959494476E+03 -0.74638347444E+03 -0.11363167899E+03  0.77166767185E+03  0.00000000000E+00 0. -1.
         -3    1    6    6    0  502  0.56949494398E+02 -0.18784340939E+03  0.65985222537E+01  0.19639738251E+03  0.00000000000E+00 0.  1.
<mgrwt>
<rscale>  0 0.12013376E+04</rscale>
<asrwt>0</asrwt>
<pdfrwt beam="1">  1        1 0.24461237E+00 0.12013376E+04</pdfrwt>
<pdfrwt beam="2">  1       -2 0.14564121E+00 0.12013376E+04</pdfrwt>
<totfact> 0.15722484E+00</totfact>
</mgrwt>
</event>
<event>
12    3  0.2212098E-007  0.9052279E+03  0.7818608E-02  0.9419070E-01
         -2   -1    0    0    0  501 -0.00000000000E+00  0.00000000000E+00  0.18233232517E+04  0.18233232517E+04  0.00000000000E+00 0.  1.
          1   -1    0    0  501    0  0.00000000000E+00 -0.00000000000E+00 -0.54742620603E+03  0.54742620603E+03  0.00000000000E+00 0. -1.
        -24    2    1    2    0    0  0.14493796433E+03 -0.87335383363E+03  0.81614387812E+03  0.12067052353E+04  0.79326936364E+02 0.  0.
    5000000    2    1    2    0    0 -0.14493796433E+03  0.87335383363E+03  0.45975316758E+03  0.11640442225E+04  0.59989336100E+03 0.  0.
        -24    2    4    4    0    0 -0.14115675803E+03  0.21414432438E+03  0.42137141054E+03  0.49909327186E+03  0.75876257124E+02 0.  0.
         24    2    4    4    0    0 -0.37812062916E+01  0.65920950925E+03  0.38381757039E+02  0.66495095061E+03  0.78199314861E+02 0.  0.
         11    1    5    5    0    0 -0.83791838646E+02  0.15861794809E+03  0.22962706978E+03  0.29139203293E+03  0.00000000000E+00 0. -1.
        -12    1    5    5    0    0 -0.57364919388E+02  0.55526376293E+02  0.19174434076E+03  0.20770123894E+03  0.00000000000E+00 0.  1.
         13    1    3    3    0    0  0.91970541473E+02 -0.34518653441E+03  0.35355621315E+03  0.50260752073E+03  0.00000000000E+00 0. -1.
        -14    1    3    3    0    0  0.52967422852E+02 -0.52816729921E+03  0.46258766497E+03  0.70409771454E+03  0.00000000000E+00 0.  1.
          2    1    6    6  502    0 -0.27189474981E+02  0.57875427951E+03  0.23654956066E+02  0.57987528017E+03  0.00000000000E+00 0. -1.
         -1    1    6    6    0  502  0.23408268690E+02  0.80455229735E+02  0.14726800973E+02  0.85075670445E+02  0.00000000000E+00 0.  1.
<mgrwt>
<rscale>  0 0.90522793E+03</rscale>
<asrwt>0</asrwt>
<pdfrwt beam="1">  1        1 0.84219417E-01 0.90522793E+03</pdfrwt>
<pdfrwt beam="2">  1       -2 0.28051127E+00 0.90522793E+03</pdfrwt>
<totfact> 0.14569512E+00</totfact>
</mgrwt>
</event>
<event>
12    3  0.2212098E-007  0.1093424E+04  0.7818608E-02  0.9211625E-01
         -2   -1    0    0    0  501 -0.00000000000E+00  0.00000000000E+00  0.10559866120E+04  0.10559866120E+04  0.00000000000E+00 0.  1.
          1   -1    0    0  501    0  0.00000000000E+00 -0.00000000000E+00 -0.12567521213E+04  0.12567521213E+04  0.00000000000E+00 0. -1.
        -24    2    1    2    0    0  0.99410395896E+03  0.29714821067E+03  0.17793361921E+03  0.10557462367E+04  0.80000019148E+02 0.  0.
    5000000    2    1    2    0    0 -0.99410395896E+03 -0.29714821067E+03 -0.37869912857E+03  0.12569924967E+04  0.60006446853E+03 0.  0.
        -24    2    4    4    0    0 -0.85058958348E+01  0.87013063411E+02  0.26295475404E+02  0.12130971455E+03  0.79880982396E+02 0.  0.
         24    2    4    4    0    0 -0.98559806312E+03 -0.38416127408E+03 -0.40499460398E+03  0.11356827821E+04  0.82288066161E+02 0.  0.
         11    1    3    3    0    0  0.79254863562E+03  0.21359869666E+03  0.16448880107E+03  0.83714652763E+03  0.00000000000E+00 0. -1.
        -12    1    3    3    0    0  0.20155532334E+03  0.83549514003E+02  0.13444818143E+02  0.21859970904E+03  0.00000000000E+00 0.  1.
         13    1    5    5    0    0 -0.18822556180E+01  0.50166330627E+02 -0.26360458439E+02  0.56701652391E+02  0.00000000000E+00 0. -1.
        -14    1    5    5    0    0 -0.66236402168E+01  0.36846732785E+02  0.52655933843E+02  0.64608062156E+02  0.00000000000E+00 0.  1.
          2    1    6    6  502    0 -0.28479076957E+03 -0.14593941088E+03 -0.14286192057E+03  0.35044774565E+03  0.00000000000E+00 0. -1.
         -1    1    6    6    0  502 -0.70080729355E+03 -0.23822186320E+03 -0.26213268341E+03  0.78523503648E+03  0.00000000000E+00 0.  1.
<mgrwt>
<rscale>  0 0.10934241E+04</rscale>
<asrwt>0</asrwt>
<pdfrwt beam="1">  1        1 0.19334648E+00 0.10934241E+04</pdfrwt>
<pdfrwt beam="2">  1       -2 0.16245948E+00 0.10934241E+04</pdfrwt>
<totfact> 0.20301379E+00</totfact>
</mgrwt>
</event>
<event>
12    3  0.2212098E-007  0.6254149E+03  0.7818608E-02  0.9854037E-01
         -2   -1    0    0    0  501 -0.00000000000E+00  0.00000000000E+00  0.65659279131E+03  0.65659279131E+03  0.00000000000E+00 0.  1.
          1   -1    0    0  501    0  0.00000000000E+00 -0.00000000000E+00 -0.90517601734E+03  0.90517601734E+03  0.00000000000E+00 0. -1.
        -24    2    1    2    0    0  0.43408017971E+03 -0.38046579120E+03  0.20003608243E+03  0.61610205167E+03  0.79921731177E+02 0.  0.
    5000000    2    1    2    0    0 -0.43408017971E+03  0.38046579120E+03 -0.44861930846E+03  0.94566675698E+03  0.59987207857E+03 0.  0.
        -24    2    4    4    0    0 -0.16427215418E+03  0.34198233545E+03  0.30441510177E+02  0.38887879540E+03  0.79766995506E+02 0.  0.
         24    2    4    4    0    0 -0.26980802553E+03  0.38483455750E+02 -0.47906081863E+03  0.55678796158E+03  0.78969736007E+02 0.  0.
         11    1    3    3    0    0  0.34788330180E+03 -0.33929188787E+03  0.18187936012E+03  0.51886595425E+03  0.00000000000E+00 0. -1.
        -12    1    3    3    0    0  0.86196877908E+02 -0.41173903330E+02  0.18156722308E+02  0.97236097420E+02  0.00000000000E+00 0.  1.
         13    1    5    5    0    0 -0.69927644950E+02  0.69478393149E+02  0.18229045087E+02  0.10024679909E+03  0.00000000000E+00 0. -1.
        -14    1    5    5    0    0 -0.94344509229E+02  0.27250394230E+03  0.12212465090E+02  0.28863199631E+03  0.00000000000E+00 0.  1.
          2    1    6    6  502    0  0.16418594519E+01 -0.69883832570E+01 -0.54592136088E+01  0.90186593368E+01  0.00000000000E+00 0. -1.
         -1    1    6    6    0  502 -0.27144988498E+03  0.45471839007E+02 -0.47360160502E+03  0.54776930224E+03  0.00000000000E+00 0.  1.
<mgrwt>
<rscale>  0 0.62541493E+03</rscale>
<asrwt>0</asrwt>
<pdfrwt beam="1">  1        1 0.13925785E+00 0.62541493E+03</pdfrwt>
<pdfrwt beam="2">  1       -2 0.10101428E+00 0.62541493E+03</pdfrwt>
<totfact> 0.13221885E+01</totfact>
</mgrwt>
</event>
<event>
12    3  0.2212098E-007  0.7983641E+03  0.7818608E-02  0.9562388E-01
         -2   -1    0    0    0  501 -0.00000000000E+00  0.00000000000E+00  0.19190111462E+04  0.19190111462E+04  0.00000000000E+00 0.  1.
          1   -1    0    0  501    0  0.00000000000E+00 -0.00000000000E+00 -0.33636526563E+03  0.33636526563E+03  0.00000000000E+00 0. -1.
        -24    2    1    2    0    0  0.31875141190E+03 -0.60699320316E+03  0.77393906186E+03  0.10370085525E+04  0.79761239248E+02 0.  0.
    5000000    2    1    2    0    0 -0.31875141190E+03  0.60699320316E+03  0.80870681875E+03  0.12183678593E+04  0.60030851294E+03 0.  0.
        -24    2    4    4    0    0 -0.48433992156E+03  0.41605930218E+03  0.52758117650E+03  0.83214505932E+03  0.80205981122E+02 0.  0.
         24    2    4    4    0    0  0.16558850966E+03  0.19093390098E+03  0.28112564225E+03  0.38622280002E+03  0.79127210528E+02 0.  0.
         11    1    3    3    0    0  0.38074874934E+02 -0.13752063784E+03  0.14371862957E+03  0.20252571792E+03  0.00000000000E+00 0. -1.
        -12    1    3    3    0    0  0.28067653697E+03 -0.46947256531E+03  0.63022043229E+03  0.83448283461E+03  0.00000000000E+00 0.  1.
         11    1    5    5    0    0 -0.36593590560E+03  0.35156091574E+03  0.43731969208E+03  0.66989004886E+03  0.00000000000E+00 0. -1.
        -12    1    5    5    0    0 -0.11840401597E+03  0.64498386438E+02  0.90261484419E+02  0.16225501046E+03  0.00000000000E+00 0.  1.
          2    1    6    6  502    0  0.57094835376E+02  0.12600921926E+03  0.15084799014E+03  0.20467842997E+03  0.00000000000E+00 0. -1.
         -1    1    6    6    0  502  0.10849367429E+03  0.64924681720E+02  0.13027765211E+03  0.18154437005E+03  0.00000000000E+00 0.  1.
<mgrwt>
<rscale>  0 0.79836409E+03</rscale>
<asrwt>0</asrwt>
<pdfrwt beam="1">  1        1 0.51748504E-01 0.79836409E+03</pdfrwt>
<pdfrwt beam="2">  1       -2 0.29523248E+00 0.79836409E+03</pdfrwt>
<totfact> 0.23241096E+00</totfact>
</mgrwt>
</event>
<event>
12    3  0.2212098E-007  0.4235887E+03  0.7818608E-02  0.1035905E+00
         -4   -1    0    0    0  501 -0.00000000000E+00  0.00000000000E+00  0.18222966209E+04  0.18222966209E+04  0.00000000000E+00 0.  1.
          3   -1    0    0  501    0  0.00000000000E+00 -0.00000000000E+00 -0.14040512402E+03  0.14040512402E+03  0.00000000000E+00 0. -1.
        -24    2    1    2    0    0  0.21958234957E+03 -0.73284784570E+01  0.94779653563E+02  0.25171422003E+03  0.78145703628E+02 0.  0.
    5000000    2    1    2    0    0 -0.21958234957E+03  0.73284784570E+01  0.15871118433E+04  0.17109875249E+04  0.60023678020E+03 0.  0.
        -24    2    4    4    0    0 -0.41153594248E+03  0.65302392930E+01  0.89892504836E+03  0.99195607845E+03  0.80660665858E+02 0.  0.
         24    2    4    4    0    0  0.19195359291E+03  0.79823916397E+00  0.68818679493E+03  0.71903144642E+03  0.80983561407E+02 0.  0.
         13    1    5    5    0    0 -0.57958182302E+02  0.21464047433E+02  0.18652036949E+03  0.19649352270E+03  0.00000000000E+00 0. -1.
        -14    1    5    5    0    0 -0.35357776018E+03 -0.14933808140E+02  0.71240467887E+03  0.79546255575E+03  0.00000000000E+00 0.  1.
         13    1    3    3    0    0  0.14602679248E+03 -0.23342117654E+02  0.26811083694E+02  0.15029142620E+03  0.00000000000E+00 0. -1.
        -14    1    3    3    0    0  0.73555557092E+02  0.16013639197E+02  0.67968569868E+02  0.10142279384E+03  0.00000000000E+00 0.  1.
          4    1    6    6  502    0  0.60439305831E+02  0.38313439435E+02  0.24099328296E+03  0.25139330095E+03  0.00000000000E+00 0. -1.
         -3    1    6    6    0  502  0.13151428707E+03 -0.37515200271E+02  0.44719351197E+03  0.46763814548E+03  0.00000000000E+00 0.  1.
<mgrwt>
<rscale>  0 0.42358873E+03</rscale>
<asrwt>0</asrwt>
<pdfrwt beam="1">  1        3 0.21600790E-01 0.42358873E+03</pdfrwt>
<pdfrwt beam="2">  1       -4 0.28035331E+00 0.42358873E+03</pdfrwt>
<totfact> 0.19385427E+00</totfact>
</mgrwt>
</event>
<event>
12    3  0.2212098E-007  0.1438147E+04  0.7818608E-02  0.8926660E-01
         -2   -1    0    0    0  501 -0.00000000000E+00  0.00000000000E+00  0.71590085987E+03  0.71590085987E+03  0.00000000000E+00 0.  1.
          1   -1    0    0  501    0  0.00000000000E+00 -0.00000000000E+00 -0.29338086380E+04  0.29338086380E+04  0.00000000000E+00 0. -1.
        -24    2    1    2    0    0  0.13032187176E+04 -0.46678839798E+03 -0.97624540800E+03  0.16957446290E+04  0.78894333113E+02 0.  0.
    5000000    2    1    2    0    0 -0.13032187176E+04  0.46678839798E+03 -0.12416623701E+04  0.19539648689E+04  0.59998569391E+03 0.  0.
        -24    2    4    4    0    0 -0.10550914967E+04  0.12404028405E+03 -0.76477183303E+03  0.13114310941E+04  0.79821672884E+02 0.  0.
         24    2    4    4    0    0 -0.24812722089E+03  0.34274811393E+03 -0.47689053710E+03  0.64253377475E+03  0.79885417730E+02 0.  0.
         11    1    5    5    0    0 -0.85921945075E+03  0.11373353620E+03 -0.65736175285E+03  0.10878041441E+04  0.00000000000E+00 0. -1.
        -12    1    5    5    0    0 -0.19587204598E+03  0.10306747844E+02 -0.10741008018E+03  0.22362695001E+03  0.00000000000E+00 0.  1.
         13    1    3    3    0    0  0.59357963369E+03 -0.24913596252E+03 -0.43006367432E+03  0.77418361732E+03  0.00000000000E+00 0. -1.
        -14    1    3    3    0    0  0.70963908393E+03 -0.21765243546E+03 -0.54618173368E+03  0.92156101171E+03  0.00000000000E+00 0.  1.
          2    1    6    6  502    0 -0.11148859455E+03  0.10466744302E+03 -0.20903047533E+03  0.25899559834E+03  0.00000000000E+00 0. -1.
         -1    1    6    6    0  502 -0.13663862634E+03  0.23808067092E+03 -0.26786006177E+03  0.38353817641E+03  0.00000000000E+00 0.  1.
<mgrwt>
<rscale>  0 0.14381465E+04</rscale>
<asrwt>0</asrwt>
<pdfrwt beam="1">  1        1 0.45135516E+00 0.14381465E+04</pdfrwt>
<pdfrwt beam="2">  1       -2 0.11013860E+00 0.14381465E+04</pdfrwt>
<totfact> 0.36908719E-01</totfact>
</mgrwt>
</event>
<event>
12    3  0.2212098E-007  0.8554132E+03  0.7818608E-02  0.9483100E-01
          3   -1    0    0  501    0  0.00000000000E+00  0.00000000000E+00  0.89180152163E+03  0.89180152163E+03  0.00000000000E+00 0. -1.
         -4   -1    0    0    0  501 -0.00000000000E+00 -0.00000000000E+00 -0.12363460367E+04  0.12363460367E+04  0.00000000000E+00 0.  1.
        -24    2    1    2    0    0  0.82864554261E+03 -0.17898678343E+03  0.30341873073E+03  0.90401709408E+03  0.80587072808E+02 0.  0.
    5000000    2    1    2    0    0 -0.82864554261E+03  0.17898678343E+03 -0.64796324583E+03  0.12241304643E+04  0.59995776656E+03 0.  0.
        -24    2    4    4    0    0 -0.51546282257E+03  0.44504198468E+02 -0.69593587140E+03  0.87082963113E+03  0.79592488429E+02 0.  0.
         24    2    4    4    0    0 -0.31318272004E+03  0.13448258497E+03  0.47972625576E+02  0.35330083313E+03  0.79693940151E+02 0.  0.
         11    1    5    5    0    0 -0.21562285565E+03  0.34364753845E+02 -0.23425541831E+03  0.32023390387E+03  0.00000000000E+00 0. -1.
        -12    1    5    5    0    0 -0.29983996693E+03  0.10139444623E+02 -0.46168045309E+03  0.55059572726E+03  0.00000000000E+00 0.  1.
         13    1    3    3    0    0  0.34219254270E+03 -0.11444132371E+03  0.12430289898E+03  0.38163302209E+03  0.00000000000E+00 0. -1.
        -14    1    3    3    0    0  0.48645299991E+03 -0.64545459728E+02  0.17911583175E+03  0.52238407200E+03  0.00000000000E+00 0.  1.
          2    1    6    6  502    0 -0.19033097605E+03  0.77405839908E+02  0.67860768166E+02  0.21638537000E+03  0.00000000000E+00 0. -1.
         -1    1    6    6    0  502 -0.12285174399E+03  0.57076745057E+02 -0.19888142591E+02  0.13691546313E+03  0.00000000000E+00 0.  1.
<mgrwt>
<rscale>  0 0.85541318E+03</rscale>
<asrwt>0</asrwt>
<pdfrwt beam="1">  1        3 0.13720023E+00 0.85541318E+03</pdfrwt>
<pdfrwt beam="2">  1       -4 0.19020708E+00 0.85541318E+03</pdfrwt>
<totfact> 0.13887069E-01</totfact>
</mgrwt>
</event>
<event>
12    3  0.2212098E-007  0.6234320E+03  0.7818608E-02  0.9857950E-01
          1   -1    0    0  501    0  0.00000000000E+00  0.00000000000E+00  0.51646327017E+03  0.51646327017E+03  0.00000000000E+00 0. -1.
         -2   -1    0    0    0  501 -0.00000000000E+00 -0.00000000000E+00 -0.11611590683E+04  0.11611590683E+04  0.00000000000E+00 0.  1.
        -24    2    1    2    0    0 -0.49168264778E+03  0.82335008336E+02 -0.73434983644E+03  0.89232271251E+03  0.91865451967E+02 0.  0.
    5000000    2    1    2    0    0  0.49168264778E+03 -0.82335008336E+02  0.89654038307E+02  0.78529962597E+03  0.60010563756E+03 0.  0.
        -24    2    4    4    0    0  0.46952439319E+03 -0.27804848154E+03  0.13094078517E+03  0.56687492304E+03  0.80234501738E+02 0.  0.
         24    2    4    4    0    0  0.22158254587E+02  0.19571347320E+03 -0.41286746861E+02  0.21842470292E+03  0.84911739719E+02 0.  0.
         13    1    3    3    0    0 -0.23824782978E+03  0.18314905349E+02 -0.42268764050E+03  0.48555360732E+03  0.00000000000E+00 0. -1.
        -14    1    3    3    0    0 -0.25343481800E+03  0.64020102987E+02 -0.31166219595E+03  0.40676910520E+03  0.00000000000E+00 0.  1.
         13    1    5    5    0    0  0.31823886295E+03 -0.16979618130E+03  0.50576470590E+02  0.36423165218E+03  0.00000000000E+00 0. -1.
        -14    1    5    5    0    0  0.15128553024E+03 -0.10825230024E+03  0.80364314578E+02  0.20264327086E+03  0.00000000000E+00 0.  1.
          2    1    6    6  502    0  0.12845871751E+02  0.19637995816E+02 -0.34814083061E+02  0.41984374237E+02  0.00000000000E+00 0. -1.
         -1    1    6    6    0  502  0.93123828361E+01  0.17607547739E+03 -0.64726638006E+01  0.17644032869E+03  0.00000000000E+00 0.  1.
<mgrwt>
<rscale>  0 0.62343204E+03</rscale>
<asrwt>0</asrwt>
<pdfrwt beam="1">  1        1 0.79455889E-01 0.62343204E+03</pdfrwt>
<pdfrwt beam="2">  1       -2 0.17863985E+00 0.62343204E+03</pdfrwt>
<totfact> 0.71357303E+00</totfact>
</mgrwt>
</event>
<event>
12    3  0.2212098E-007  0.4444651E+03  0.7818608E-02  0.1029386E+00
         -2   -1    0    0    0  501 -0.00000000000E+00  0.00000000000E+00  0.25266818964E+03  0.25266818964E+03  0.00000000000E+00 0.  1.
          1   -1    0    0  501    0  0.00000000000E+00 -0.00000000000E+00 -0.13834450221E+04  0.13834450221E+04  0.00000000000E+00 0. -1.
        -24    2    1    2    0    0  0.19703941884E+03 -0.27206068536E+03 -0.80337735319E+03  0.87453845134E+03  0.80998655288E+02 0.  0.
    5000000    2    1    2    0    0 -0.19703941884E+03  0.27206068536E+03 -0.32739947929E+03  0.76157476042E+03  0.59997012223E+03 0.  0.
        -24    2    4    4    0    0 -0.32351990910E+03  0.14380464030E+03  0.18782567236E+02  0.36341998974E+03  0.79852350974E+02 0.  0.
         24    2    4    4    0    0  0.12648049026E+03  0.12825604507E+03 -0.34618204652E+03  0.39815477068E+03  0.78982811873E+02 0.  0.
         11    1    5    5    0    0 -0.63646635759E+02 -0.32594943143E+01 -0.46663927384E+01  0.63900655457E+02  0.00000000000E+00 0. -1.
        -12    1    5    5    0    0 -0.25987327334E+03  0.14706413461E+03  0.23448959974E+02  0.29951933428E+03  0.00000000000E+00 0.  1.
         13    1    3    3    0    0  0.10541130532E+03 -0.17691580366E+03 -0.39705813697E+03  0.44728727794E+03  0.00000000000E+00 0. -1.
        -14    1    3    3    0    0  0.91628113518E+02 -0.95144881701E+02 -0.40631921622E+03  0.42725117340E+03  0.00000000000E+00 0.  1.
          4    1    6    6  502    0  0.98413932860E+01 -0.53595199720E+01 -0.26145529304E+01  0.11507100554E+02  0.00000000000E+00 0. -1.
         -3    1    6    6    0  502  0.11663909697E+03  0.13361556504E+03 -0.34356749359E+03  0.38664767013E+03  0.00000000000E+00 0.  1.
<mgrwt>
<rscale>  0 0.44446511E+03</rscale>
<asrwt>0</asrwt>
<pdfrwt beam="1">  1        1 0.21283770E+00 0.44446511E+03</pdfrwt>
<pdfrwt beam="2">  1       -2 0.38872029E-01 0.44446511E+03</pdfrwt>
<totfact> 0.46226478E+01</totfact>
</mgrwt>
</event>
<event>
12    3  0.2212098E-007  0.7365651E+03  0.7818608E-02  0.9656667E-01
          1   -1    0    0  501    0  0.00000000000E+00  0.00000000000E+00  0.10161063283E+04  0.10161063283E+04  0.00000000000E+00 0. -1.
         -2   -1    0    0    0  501 -0.00000000000E+00 -0.00000000000E+00 -0.88969586239E+03  0.88969586239E+03  0.00000000000E+00 0.  1.
        -24    2    1    2    0    0  0.49011554720E+03 -0.39483945901E+03  0.63568845117E+03  0.89806355870E+03  0.79415996575E+02 0.  0.
    5000000    2    1    2    0    0 -0.49011554720E+03  0.39483945901E+03 -0.50927798524E+03  0.10077386320E+04  0.60005136129E+03 0.  0.
        -24    2    4    4    0    0  0.48566351879E+02  0.28003971086E+03 -0.27956893945E+03  0.40664304797E+03  0.80117703162E+02 0.  0.
         24    2    4    4    0    0 -0.53868189908E+03  0.11479974815E+03 -0.22970904579E+03  0.60109558404E+03  0.72058898536E+02 0.  0.
         11    1    3    3    0    0  0.31481639511E+03 -0.20943295494E+03  0.35351829776E+03  0.51763569438E+03  0.00000000000E+00 0. -1.
        -12    1    3    3    0    0  0.17529915210E+03 -0.18540650407E+03  0.28217015340E+03  0.38042786432E+03  0.00000000000E+00 0.  1.
         13    1    5    5    0    0  0.13241924118E+02  0.10365207545E+03 -0.52468166448E+02  0.11692736972E+03  0.00000000000E+00 0. -1.
        -14    1    5    5    0    0  0.35324427761E+02  0.17638763541E+03 -0.22710077300E+03  0.28971567824E+03  0.00000000000E+00 0.  1.
          2    1    6    6  502    0 -0.23155529578E+03  0.85955518566E+02 -0.10207446531E+03  0.26725531360E+03  0.00000000000E+00 0. -1.
         -1    1    6    6    0  502 -0.30712660330E+03  0.28844229584E+02 -0.12763458048E+03  0.33384027044E+03  0.00000000000E+00 0.  1.
<mgrwt>
<rscale>  0 0.73656512E+03</rscale>
<asrwt>0</asrwt>
<pdfrwt beam="1">  1        1 0.15632405E+00 0.73656512E+03</pdfrwt>
<pdfrwt beam="2">  1       -2 0.13687629E+00 0.73656512E+03</pdfrwt>
<totfact> 0.50414007E+00</totfact>
</mgrwt>
</event>
<event>
12    3  0.2212098E-007  0.7715004E+03  0.7818608E-02  0.9602211E-01
         -2   -1    0    0    0  501 -0.00000000000E+00  0.00000000000E+00  0.42604908166E+03  0.42604908166E+03  0.00000000000E+00 0.  1.
          1   -1    0    0  501    0  0.00000000000E+00 -0.00000000000E+00 -0.16462842659E+04  0.16462842659E+04  0.00000000000E+00 0. -1.
        -24    2    1    2    0    0  0.65086174224E+03  0.15606972908E+03 -0.18292349307E+03  0.69975829446E+03  0.90674685016E+02 0.  0.
    5000000    2    1    2    0    0 -0.65086174224E+03 -0.15606972908E+03 -0.10373116912E+04  0.13725750531E+04  0.59997330269E+03 0.  0.
        -24    2    4    4    0    0 -0.27604928843E+03 -0.33842732901E+03 -0.69405165361E+03  0.82703005498E+03  0.10739994089E+03 0.  0.
         24    2    4    4    0    0 -0.37481245381E+03  0.18235759993E+03 -0.34326003757E+03  0.54554499813E+03  0.77802453793E+02 0.  0.
         11    1    3    3    0    0  0.18561950538E+03  0.48521152119E+01 -0.62923972448E+02  0.19605501807E+03  0.00000000000E+00 0. -1.
        -12    1    3    3    0    0  0.46524223685E+03  0.15121761387E+03 -0.11999952062E+03  0.50370327639E+03  0.00000000000E+00 0.  1.
         11    1    5    5    0    0 -0.13958449529E+03 -0.24995238739E+03 -0.41822060441E+03  0.50682196208E+03  0.00000000000E+00 0. -1.
        -12    1    5    5    0    0 -0.13646479314E+03 -0.88474941616E+02 -0.27583104920E+03  0.32020809291E+03  0.00000000000E+00 0.  1.
          4    1    6    6  502    0 -0.32951409233E+02  0.31297906166E+02 -0.66220428412E+02  0.80315001338E+02  0.00000000000E+00 0. -1.
         -3    1    6    6    0  502 -0.34186104458E+03  0.15105969376E+03 -0.27703960916E+03  0.46522999680E+03  0.00000000000E+00 0.  1.
<mgrwt>
<rscale>  0 0.77150036E+03</rscale>
<asrwt>0</asrwt>
<pdfrwt beam="1">  1        1 0.25327451E+00 0.77150036E+03</pdfrwt>
<pdfrwt beam="2">  1       -2 0.65546012E-01 0.77150036E+03</pdfrwt>
<totfact> 0.10071770E+01</totfact>
</mgrwt>
</event>
<event>
12    3  0.2212098E-007  0.8620479E+03  0.7818608E-02  0.9474308E-01
         -2   -1    0    0    0  501 -0.00000000000E+00  0.00000000000E+00  0.86132751222E+03  0.86132751222E+03  0.00000000000E+00 0.  1.
          1   -1    0    0  501    0  0.00000000000E+00 -0.00000000000E+00 -0.91252082423E+03  0.91252082423E+03  0.00000000000E+00 0. -1.
        -24    2    1    2    0    0  0.80272783623E+02  0.76277878509E+03  0.13328206619E+03  0.78270687017E+03  0.81183376794E+02 0.  0.
    5000000    2    1    2    0    0 -0.80272783623E+02 -0.76277878509E+03 -0.18447537821E+03  0.99114146628E+03  0.60004587012E+03 0.  0.
        -24    2    4    4    0    0  0.77403242238E+02 -0.76856764462E+03 -0.75312529566E+02  0.78290412410E+03  0.10285623052E+03 0.  0.
         24    2    4    4    0    0 -0.15767602586E+03  0.57888595333E+01 -0.10916284864E+03  0.20823734218E+03  0.80938390949E+02 0.  0.
         11    1    5    5    0    0 -0.19645926021E+02 -0.76577148136E+02  0.67224526623E+01  0.79342380829E+02  0.00000000000E+00 0. -1.
        -12    1    5    5    0    0  0.97049168259E+02 -0.69199049649E+03 -0.82034982229E+02  0.70356174327E+03  0.00000000000E+00 0.  1.
         13    1    3    3    0    0  0.35495942038E+02  0.56865017292E+03  0.72114743461E+02  0.57430263563E+03  0.00000000000E+00 0. -1.
        -14    1    3    3    0    0  0.44776841584E+02  0.19412861217E+03  0.61167322728E+02  0.20840423454E+03  0.00000000000E+00 0.  1.
          2    1    6    6  502    0 -0.86143014283E+02 -0.37205015995E+02 -0.59915324317E+02  0.11133138916E+03  0.00000000000E+00 0. -1.
         -1    1    6    6    0  502 -0.71533011578E+02  0.42993875528E+02 -0.49247524322E+02  0.96905953017E+02  0.00000000000E+00 0.  1.
<mgrwt>
<rscale>  0 0.86204790E+03</rscale>
<asrwt>0</asrwt>
<pdfrwt beam="1">  1        1 0.14038782E+00 0.86204790E+03</pdfrwt>
<pdfrwt beam="2">  1       -2 0.13251192E+00 0.86204790E+03</pdfrwt>
<totfact> 0.65113318E+00</totfact>
</mgrwt>
</event>
<event>
12    3  0.2212098E-007  0.3700057E+03  0.7818608E-02  0.1054691E+00
         -2   -1    0    0    0  501 -0.00000000000E+00  0.00000000000E+00  0.45123717612E+03  0.45123717612E+03  0.00000000000E+00 0.  1.
          1   -1    0    0  501    0  0.00000000000E+00 -0.00000000000E+00 -0.79349525123E+03  0.79349525123E+03  0.00000000000E+00 0. -1.
        -24    2    1    2    0    0  0.15020570960E+03  0.11526528215E+03 -0.54604183619E+03  0.58336926921E+03  0.79436622045E+02 0.  0.
    5000000    2    1    2    0    0 -0.15020570960E+03 -0.11526528215E+03  0.20378376108E+03  0.66136315814E+03  0.60002130396E+03 0.  0.
        -24    2    4    4    0    0  0.14872554279E+02  0.18533592465E+03  0.23197166788E+03  0.30805659660E+03  0.80730503347E+02 0.  0.
         24    2    4    4    0    0 -0.16507826388E+03 -0.30060120680E+03 -0.28187906805E+02  0.35330656154E+03  0.80118971556E+02 0.  0.
         11    1    3    3    0    0  0.38574783402E+02  0.67922467478E+02 -0.14912332939E+03  0.16834263534E+03  0.00000000000E+00 0. -1.
        -12    1    3    3    0    0  0.11163092620E+03  0.47342814667E+02 -0.39691850680E+03  0.41502663388E+03  0.00000000000E+00 0.  1.
         11    1    5    5    0    0  0.38529637477E+02  0.75599991910E+02  0.65135671307E+02  0.10696984350E+03  0.00000000000E+00 0. -1.
        -12    1    5    5    0    0 -0.23657083198E+02  0.10973593274E+03  0.16683599658E+03  0.20108675311E+03  0.00000000000E+00 0.  1.
          2    1    6    6  502    0 -0.22389586334E+02 -0.56715229192E+02 -0.35679897386E+02  0.70646768334E+02  0.00000000000E+00 0. -1.
         -1    1    6    6    0  502 -0.14268867755E+03 -0.24388597761E+03  0.74919905810E+01  0.28265979321E+03  0.00000000000E+00 0.  1.
<mgrwt>
<rscale>  0 0.37000570E+03</rscale>
<asrwt>0</asrwt>
<pdfrwt beam="1">  1        1 0.12207619E+00 0.37000570E+03</pdfrwt>
<pdfrwt beam="2">  1       -2 0.69421105E-01 0.37000570E+03</pdfrwt>
<totfact> 0.39649554E+01</totfact>
</mgrwt>
</event>
<event>
12    3  0.2212098E-007  0.5768638E+03  0.7818608E-02  0.9954604E-01
         -2   -1    0    0    0  501 -0.00000000000E+00  0.00000000000E+00  0.35089286071E+03  0.35089286071E+03  0.00000000000E+00 0.  1.
          1   -1    0    0  501    0  0.00000000000E+00 -0.00000000000E+00 -0.21004036172E+04  0.21004036172E+04  0.00000000000E+00 0. -1.
        -24    2    1    2    0    0  0.13556339535E+03 -0.54094177439E+03 -0.51019229404E+02  0.56568784198E+03  0.80027091381E+02 0.  0.
    5000000    2    1    2    0    0 -0.13556339535E+03  0.54094177439E+03 -0.16984915270E+04  0.18856086359E+04  0.59970911523E+03 0.  0.
        -24    2    4    4    0    0 -0.11853826793E+03  0.14702306974E+03 -0.13125819015E+04  0.13282957362E+04  0.76362364745E+02 0.  0.
         24    2    4    4    0    0 -0.17025127412E+02  0.39391870466E+03 -0.38590962554E+03  0.55731289966E+03  0.78801194152E+02 0.  0.
         11    1    5    5    0    0 -0.13192872420E+02  0.51465172673E+02 -0.21173440877E+03  0.21829836403E+03  0.00000000000E+00 0. -1.
        -12    1    5    5    0    0 -0.10534539551E+03  0.95557897062E+02 -0.11008474927E+04  0.11099973722E+04  0.00000000000E+00 0.  1.
         11    1    3    3    0    0  0.41110380383E+02 -0.22656894526E+03 -0.57612092357E+02  0.23736618023E+03  0.00000000000E+00 0. -1.
        -12    1    3    3    0    0  0.94453014963E+02 -0.31437282913E+03  0.65928629527E+01  0.32832166174E+03  0.00000000000E+00 0.  1.
          2    1    6    6  502    0  0.12818703004E+01 -0.26032028015E+01 -0.10753522937E+02  0.11138137719E+02  0.00000000000E+00 0. -1.
         -1    1    6    6    0  502 -0.18306997712E+02  0.39652190746E+03 -0.37515610260E+03  0.54617476194E+03  0.00000000000E+00 0.  1.
<mgrwt>
<rscale>  0 0.57686384E+03</rscale>
<asrwt>0</asrwt>
<pdfrwt beam="1">  1        1 0.32313901E+00 0.57686384E+03</pdfrwt>
<pdfrwt beam="2">  1       -2 0.53983518E-01 0.57686384E+03</pdfrwt>
<totfact> 0.77833551E+00</totfact>
</mgrwt>
</event>
<event>
12    3  0.2212098E-007  0.9059768E+03  0.7818608E-02  0.9418141E-01
         -2   -1    0    0    0  501 -0.00000000000E+00  0.00000000000E+00  0.81591785323E+03  0.81591785323E+03  0.00000000000E+00 0.  1.
          1   -1    0    0  501    0  0.00000000000E+00 -0.00000000000E+00 -0.10537175218E+04  0.10537175218E+04  0.00000000000E+00 0. -1.
        -24    2    1    2    0    0 -0.19444680162E+03 -0.79574125095E+03 -0.23304360035E+03  0.85426409856E+03  0.66664333061E+02 0.  0.
    5000000    2    1    2    0    0  0.19444680162E+03  0.79574125095E+03 -0.47560682533E+01  0.10153712765E+04  0.59995209128E+03 0.  0.
        -24    2    4    4    0    0  0.24833401904E+03  0.62769980925E+02 -0.57827226932E+02  0.27448537784E+03  0.79927335465E+02 0.  0.
         24    2    4    4    0    0 -0.53887217418E+02  0.73297127003E+03  0.53071158678E+02  0.74088589866E+03  0.77101569827E+02 0.  0.
         11    1    5    5    0    0  0.17429997156E+03  0.33566272478E+02 -0.24329326841E+01  0.17751927754E+03  0.00000000000E+00 0. -1.
        -12    1    5    5    0    0  0.74034047477E+02  0.29203708448E+02 -0.55394294248E+02  0.96966100304E+02  0.00000000000E+00 0.  1.
         11    1    3    3    0    0 -0.10973326619E+03 -0.40718703993E+03 -0.86864733192E+02  0.43056725035E+03  0.00000000000E+00 0. -1.
        -12    1    3    3    0    0 -0.84713535436E+02 -0.38855421102E+03 -0.14617886715E+03  0.42369684822E+03  0.00000000000E+00 0.  1.
          2    1    6    6  502    0 -0.38050785991E+02  0.64226838083E+03  0.70262606662E+02  0.64721972252E+03  0.00000000000E+00 0. -1.
         -1    1    6    6    0  502 -0.15836431428E+02  0.90702889201E+02 -0.17191447984E+02  0.93666176145E+02  0.00000000000E+00 0.  1.
<mgrwt>
<rscale>  0 0.90597682E+03</rscale>
<asrwt>0</asrwt>
<pdfrwt beam="1">  1        1 0.16211039E+00 0.90597682E+03</pdfrwt>
<pdfrwt beam="2">  1       -2 0.12552582E+00 0.90597682E+03</pdfrwt>
<totfact> 0.57573950E+00</totfact>
</mgrwt>
</event>
<event>
12    3  0.2212098E-007  0.9074707E+03  0.7818608E-02  0.9416291E-01
         -2   -1    0    0    0  501 -0.00000000000E+00  0.00000000000E+00  0.47497282175E+03  0.47497282175E+03  0.00000000000E+00 0.  1.
          1   -1    0    0  501    0  0.00000000000E+00 -0.00000000000E+00 -0.23317306287E+04  0.23317306287E+04  0.00000000000E+00 0. -1.
        -24    2    1    2    0    0  0.24227020794E+02  0.90233073852E+03 -0.13097127834E+04  0.15926172315E+04  0.79337007860E+02 0.  0.
    5000000    2    1    2    0    0 -0.24227020794E+02 -0.90233073852E+03 -0.54704502357E+03  0.12140862190E+04  0.59996614828E+03 0.  0.
        -24    2    4    4    0    0  0.25026923454E+02 -0.16936805225E+03 -0.42553684447E+03  0.46553426045E+03  0.79552860592E+02 0.  0.
         24    2    4    4    0    0 -0.49253944248E+02 -0.73296268627E+03 -0.12150817910E+03  0.74855195853E+03  0.76847553927E+02 0.  0.
         11    1    3    3    0    0  0.27033406558E+02  0.22854656044E+03 -0.38343445410E+03  0.44719829601E+03  0.00000000000E+00 0. -1.
        -12    1    3    3    0    0 -0.28063857643E+01  0.67378417808E+03 -0.92627832933E+03  0.11454189355E+04  0.00000000000E+00 0.  1.
         11    1    5    5    0    0  0.81416629190E+01 -0.37540045481E+01 -0.95201265118E+02  0.95622487446E+02  0.00000000000E+00 0. -1.
        -12    1    5    5    0    0  0.16885260535E+02 -0.16561404770E+03 -0.33033557935E+03  0.36991177300E+03  0.00000000000E+00 0.  1.
          4    1    6    6  502    0 -0.44216622491E+02 -0.37832646113E+03 -0.96862821594E+02  0.39302471564E+03  0.00000000000E+00 0. -1.
         -3    1    6    6    0  502 -0.50373217563E+01 -0.35463622514E+03 -0.24645357505E+02  0.35552724289E+03  0.00000000000E+00 0.  1.
<mgrwt>
<rscale>  0 0.90747073E+03</rscale>
<asrwt>0</asrwt>
<pdfrwt beam="1">  1        1 0.35872779E+00 0.90747073E+03</pdfrwt>
<pdfrwt beam="2">  1       -2 0.73072742E-01 0.90747073E+03</pdfrwt>
<totfact> 0.26964775E+00</totfact>
</mgrwt>
</event>
<event>
12    3  0.2212098E-007  0.5181271E+03  0.7818608E-02  0.1009153E+00
          1   -1    0    0  501    0  0.00000000000E+00  0.00000000000E+00  0.13409679008E+04  0.13409679008E+04  0.00000000000E+00 0. -1.
         -2   -1    0    0    0  501 -0.00000000000E+00 -0.00000000000E+00 -0.95771711033E+03  0.95771711033E+03  0.00000000000E+00 0.  1.
        -24    2    1    2    0    0  0.42701271493E+03 -0.68619211063E+02 -0.79480426262E+03  0.90768778781E+03  0.71657863644E+02 0.  0.
    5000000    2    1    2    0    0 -0.42701271493E+03  0.68619211063E+02  0.11780550531E+04  0.13909972234E+04  0.60000926023E+03 0.  0.
        -24    2    4    4    0    0  0.62273801970E+02  0.67143480461E+02  0.10493638254E+02  0.12271279572E+03  0.81006422018E+02 0.  0.
         24    2    4    4    0    0 -0.48928651690E+03  0.14757306017E+01  0.11675614149E+04  0.12682844276E+04  0.77086046113E+02 0.  0.
         11    1    3    3    0    0  0.15586916129E+03 -0.50853010651E+02 -0.25149648414E+03  0.30021942920E+03  0.00000000000E+00 0. -1.
        -12    1    3    3    0    0  0.27114355365E+03 -0.17766200412E+02 -0.54330777848E+03  0.60746835862E+03  0.00000000000E+00 0.  1.
         13    1    5    5    0    0  0.59406231992E+02  0.18349585103E+02  0.31277350412E+02  0.69599427596E+02  0.00000000000E+00 0. -1.
        -14    1    5    5    0    0  0.28675699779E+01  0.48793895359E+02 -0.20783712158E+02  0.53113368119E+02  0.00000000000E+00 0.  1.
          4    1    6    6  502    0 -0.30903346581E+03  0.81974104451E+01  0.82722193298E+03  0.88309965855E+03  0.00000000000E+00 0. -1.
         -3    1    6    6    0  502 -0.18025305109E+03 -0.67216798433E+01  0.34033948190E+03  0.38518476910E+03  0.00000000000E+00 0.  1.
<mgrwt>
<rscale>  0 0.51812707E+03</rscale>
<asrwt>0</asrwt>
<pdfrwt beam="1">  1        1 0.20630276E+00 0.51812707E+03</pdfrwt>
<pdfrwt beam="2">  1       -2 0.14734109E+00 0.51812707E+03</pdfrwt>
<totfact> 0.25147621E+00</totfact>
</mgrwt>
</event>
<event>
12    3  0.2212098E-007  0.1639364E+04  0.7818608E-02  0.8796723E-01
          1   -1    0    0  501    0  0.00000000000E+00  0.00000000000E+00  0.22714881782E+04  0.22714881782E+04  0.00000000000E+00 0. -1.
         -2   -1    0    0    0  501 -0.00000000000E+00 -0.00000000000E+00 -0.13096484575E+04  0.13096484575E+04  0.00000000000E+00 0.  1.
        -24    2    1    2    0    0  0.15513358211E+04 -0.48735985053E+03  0.64339866366E+02  0.16292904877E+04  0.79280647664E+02 0.  0.
    5000000    2    1    2    0    0 -0.15513358211E+04  0.48735985053E+03  0.89749985425E+03  0.19518461480E+04  0.60002911890E+03 0.  0.
        -24    2    4    4    0    0 -0.76880390963E+03  0.38674300627E+03  0.75191976025E+03  0.11455152129E+04  0.78690360104E+02 0.  0.
         24    2    4    4    0    0 -0.78253191147E+03  0.10061684426E+03  0.14558009400E+03  0.80633093514E+03  0.80598209574E+02 0.  0.
         11    1    5    5    0    0 -0.66142152395E+03  0.34788974357E+03  0.61998646395E+03  0.97102467605E+03  0.00000000000E+00 0. -1.
        -12    1    5    5    0    0 -0.10738238569E+03  0.38853262701E+02  0.13193329630E+03  0.17449053685E+03  0.00000000000E+00 0.  1.
         13    1    3    3    0    0  0.84804423773E+03 -0.30726315594E+03  0.41520114717E+02  0.90294717236E+03  0.00000000000E+00 0. -1.
        -14    1    3    3    0    0  0.70329158337E+03 -0.18009669459E+03  0.22819751649E+02  0.72634331532E+03  0.00000000000E+00 0.  1.
          2    1    6    6  502    0 -0.87371985492E+02  0.49440004850E+01 -0.84279318222E+01  0.87916648164E+02  0.00000000000E+00 0. -1.
         -1    1    6    6    0  502 -0.69515992598E+03  0.95672843771E+02  0.15400802583E+03  0.71841428698E+03  0.00000000000E+00 0.  1.
<mgrwt>
<rscale>  0 0.16393644E+04</rscale>
<asrwt>0</asrwt>
<pdfrwt beam="1">  1        1 0.34945972E+00 0.16393644E+04</pdfrwt>
<pdfrwt beam="2">  1       -2 0.20148438E+00 0.16393644E+04</pdfrwt>
<totfact> 0.20595421E-01</totfact>
</mgrwt>
</event>
<event>
12    3  0.2212098E-007  0.7034707E+03  0.7818608E-02  0.9711315E-01
          1   -1    0    0  501    0  0.00000000000E+00  0.00000000000E+00  0.63663315778E+03  0.63663315778E+03  0.00000000000E+00 0. -1.
         -2   -1    0    0    0  501 -0.00000000000E+00 -0.00000000000E+00 -0.82317937602E+03  0.82317937602E+03  0.00000000000E+00 0.  1.
        -24    2    1    2    0    0 -0.57247167197E+03  0.13177700615E+03 -0.18144818037E+03  0.62001290857E+03  0.80022309893E+02 0.  0.
    5000000    2    1    2    0    0  0.57247167197E+03 -0.13177700615E+03 -0.50980378751E+01  0.83979962523E+03  0.60012367559E+03 0.  0.
        -24    2    4    4    0    0 -0.11130362828E+03 -0.22658032982E+02  0.26460736490E+02  0.14244106609E+03  0.81776540688E+02 0.  0.
         24    2    4    4    0    0  0.68377530024E+03 -0.10911897316E+03 -0.31558774365E+02  0.69735855914E+03  0.76533602082E+02 0.  0.
         11    1    3    3    0    0 -0.32076435212E+03  0.10079786273E+03 -0.13431199408E+03  0.36206310289E+03  0.00000000000E+00 0. -1.
        -12    1    3    3    0    0 -0.25170731984E+03  0.30979143420E+02 -0.47136186282E+02  0.25794980567E+03  0.00000000000E+00 0.  1.
         11    1    5    5    0    0 -0.39500441007E+02 -0.28891710777E+02 -0.23952614709E+02  0.54486177539E+02  0.00000000000E+00 0. -1.
        -12    1    5    5    0    0 -0.71803187269E+02  0.62336777951E+01  0.50413351198E+02  0.87954888550E+02  0.00000000000E+00 0.  1.
          2    1    6    6  502    0  0.29400299549E+03 -0.11231601325E+02  0.35039867479E+00  0.29421766263E+03  0.00000000000E+00 0. -1.
         -1    1    6    6    0  502  0.38977230476E+03 -0.97887371839E+02 -0.31909173039E+02  0.40314089652E+03  0.00000000000E+00 0.  1.
<mgrwt>
<rscale>  0 0.70347066E+03</rscale>
<asrwt>0</asrwt>
<pdfrwt beam="1">  1        1 0.97943563E-01 0.70347066E+03</pdfrwt>
<pdfrwt beam="2">  1       -2 0.12664298E+00 0.70347066E+03</pdfrwt>
<totfact> 0.13076345E+01</totfact>
</mgrwt>
</event>
<event>
12    3  0.2212098E-007  0.6401174E+03  0.7818608E-02  0.9825502E-01
          1   -1    0    0  501    0  0.00000000000E+00  0.00000000000E+00  0.14760428304E+04  0.14760428304E+04  0.00000000000E+00 0. -1.
         -2   -1    0    0    0  501 -0.00000000000E+00 -0.00000000000E+00 -0.34819057360E+03  0.34819057360E+03  0.00000000000E+00 0.  1.
        -24    2    1    2    0    0 -0.13657127780E+03  0.47949803384E+03  0.86362312803E+03  0.10006077903E+04  0.82467960104E+02 0.  0.
    5000000    2    1    2    0    0  0.13657127780E+03 -0.47949803384E+03  0.26422912875E+03  0.82362561364E+03  0.59997670004E+03 0.  0.
        -24    2    4    4    0    0  0.26499785363E+03  0.17666593168E+01  0.91106885859E+02  0.29042142396E+03  0.76270278167E+02 0.  0.
         24    2    4    4    0    0 -0.12842657582E+03 -0.48126469316E+03  0.17312224289E+03  0.53320418969E+03  0.78906949368E+02 0.  0.
         13    1    5    5    0    0  0.75531674679E+02 -0.27241287628E+02  0.54503952377E+01  0.80478745267E+02  0.00000000000E+00 0. -1.
        -14    1    5    5    0    0  0.18946617895E+03  0.29007946945E+02  0.85656490621E+02  0.20994267869E+03  0.00000000000E+00 0.  1.
         13    1    3    3    0    0 -0.43426424740E+02  0.28787523713E+03  0.53167845368E+03  0.60616828078E+03  0.00000000000E+00 0. -1.
        -14    1    3    3    0    0 -0.93144853064E+02  0.19162279671E+03  0.33194467435E+03  0.39443950956E+03  0.00000000000E+00 0.  1.
          4    1    6    6  502    0 -0.50244191777E+02 -0.32995150206E+03  0.10675833567E+03  0.35041377649E+03  0.00000000000E+00 0. -1.
         -3    1    6    6    0  502 -0.78182384046E+02 -0.15131319110E+03  0.66363907220E+02  0.18279041320E+03  0.00000000000E+00 0.  1.
<mgrwt>
<rscale>  0 0.64011738E+03</rscale>
<asrwt>0</asrwt>
<pdfrwt beam="1">  1        1 0.22708351E+00 0.64011738E+03</pdfrwt>
<pdfrwt beam="2">  1       -2 0.53567781E-01 0.64011738E+03</pdfrwt>
<totfact> 0.20470262E+01</totfact>
</mgrwt>
</event>
<event>
12    3  0.2212098E-007  0.7960700E+03  0.7818608E-02  0.9565723E-01
         -2   -1    0    0    0  501 -0.00000000000E+00  0.00000000000E+00  0.87784213342E+03  0.87784213342E+03  0.00000000000E+00 0.  1.
          1   -1    0    0  501    0  0.00000000000E+00 -0.00000000000E+00 -0.10792853674E+04  0.10792853674E+04  0.00000000000E+00 0. -1.
        -24    2    1    2    0    0 -0.68404109487E+03 -0.71236771779E+02 -0.64145112058E+03  0.94386031822E+03  0.80161481378E+02 0.  0.
    5000000    2    1    2    0    0  0.68404109487E+03  0.71236771779E+02  0.44000788657E+03  0.10132671826E+04  0.60009711382E+03 0.  0.
        -24    2    4    4    0    0  0.44759646460E+03  0.32163234107E+03  0.23193664223E+03  0.60322963712E+03  0.79381554182E+02 0.  0.
         24    2    4    4    0    0  0.23644463027E+03 -0.25039556929E+03  0.20807124434E+03  0.41003754551E+03  0.78950248277E+02 0.  0.
         13    1    5    5    0    0  0.25392746634E+02  0.11135383622E+02 -0.48300636794E+01  0.28144588560E+02  0.00000000000E+00 0. -1.
        -14    1    5    5    0    0  0.42220371797E+03  0.31049695744E+03  0.23676670591E+03  0.57508504856E+03  0.00000000000E+00 0.  1.
         13    1    3    3    0    0 -0.49070714819E+03 -0.49970831941E+02 -0.50744373594E+03  0.70766498746E+03  0.00000000000E+00 0. -1.
        -14    1    3    3    0    0 -0.19333394668E+03 -0.21265939838E+02 -0.13400738463E+03  0.23619533076E+03  0.00000000000E+00 0.  1.
          2    1    6    6  502    0  0.10320876679E+03 -0.57494128187E+02  0.57346587641E+02  0.13132499926E+03  0.00000000000E+00 0. -1.
         -1    1    6    6    0  502  0.13323586348E+03 -0.19290144110E+03  0.15072465670E+03  0.27871254625E+03  0.00000000000E+00 0.  1.
<mgrwt>
<rscale>  0 0.79607003E+03</rscale>
<asrwt>0</asrwt>
<pdfrwt beam="1">  1        1 0.16604390E+00 0.79607003E+03</pdfrwt>
<pdfrwt beam="2">  1       -2 0.13505264E+00 0.79607003E+03</pdfrwt>
<totfact> 0.46338646E+00</totfact>
</mgrwt>
</event>
<event>
12    3  0.2212098E-007  0.1142685E+04  0.7818608E-02  0.9164559E-01
          1   -1    0    0  501    0  0.00000000000E+00  0.00000000000E+00  0.73367737523E+03  0.73367737523E+03  0.00000000000E+00 0. -1.
         -2   -1    0    0    0  501 -0.00000000000E+00 -0.00000000000E+00 -0.18950382322E+04  0.18950382322E+04  0.00000000000E+00 0.  1.
        -24    2    1    2    0    0 -0.65342301789E+03  0.84639494363E+03 -0.83762756830E+03  0.13605056119E+04  0.77521197170E+02 0.  0.
    5000000    2    1    2    0    0  0.65342301789E+03 -0.84639494363E+03 -0.32373328870E+03  0.12682099955E+04  0.60017273316E+03 0.  0.
        -24    2    4    4    0    0  0.71887310765E+03 -0.57365283248E+03 -0.17027696082E+03  0.93875647992E+03  0.80083506953E+02 0.  0.
         24    2    4    4    0    0 -0.65450089762E+02 -0.27274211115E+03 -0.15345632788E+03  0.32945351561E+03  0.79490885853E+02 0.  0.
         11    1    5    5    0    0  0.28401378367E+03 -0.27496216689E+03 -0.85131889959E+02  0.40437045049E+03  0.00000000000E+00 0. -1.
        -12    1    5    5    0    0  0.43485932398E+03 -0.29869066559E+03 -0.85145070861E+02  0.53438602943E+03  0.00000000000E+00 0.  1.
         11    1    3    3    0    0 -0.28512526296E+03  0.42817544782E+03 -0.38382936489E+03  0.64183768279E+03  0.00000000000E+00 0. -1.
        -12    1    3    3    0    0 -0.36829775493E+03  0.41821949581E+03 -0.45379820341E+03  0.71866792915E+03  0.00000000000E+00 0.  1.
          4    1    6    6  502    0 -0.42605599396E+02 -0.45166882506E+02 -0.42488326061E+02  0.75236575060E+02  0.00000000000E+00 0. -1.
         -3    1    6    6    0  502 -0.22844490366E+02 -0.22757522865E+03 -0.11096800182E+03  0.25421694055E+03  0.00000000000E+00 0.  1.
<mgrwt>
<rscale>  0 0.11426850E+04</rscale>
<asrwt>0</asrwt>
<pdfrwt beam="1">  1        1 0.11287344E+00 0.11426850E+04</pdfrwt>
<pdfrwt beam="2">  1       -2 0.29154434E+00 0.11426850E+04</pdfrwt>
<totfact> 0.78694336E-01</totfact>
</mgrwt>
</event>
<event>
12    3  0.2212098E-007  0.1426607E+04  0.7818608E-02  0.8934781E-01
         -2   -1    0    0    0  501 -0.00000000000E+00  0.00000000000E+00  0.10443887497E+04  0.10443887497E+04  0.00000000000E+00 0.  1.
          1   -1    0    0  501    0  0.00000000000E+00 -0.00000000000E+00 -0.20066209265E+04  0.20066209265E+04  0.00000000000E+00 0. -1.
        -24    2    1    2    0    0  0.88747842169E+03 -0.10439964314E+04 -0.25376022734E+03  0.13958695523E+04  0.80691116713E+02 0.  0.
    5000000    2    1    2    0    0 -0.88747842169E+03  0.10439964314E+04 -0.70847194944E+03  0.16551401239E+04  0.60000819076E+03 0.  0.
        -24    2    4    4    0    0 -0.81813172959E+03  0.57389588493E+03 -0.38098491985E+03  0.10725837408E+04  0.81181020940E+02 0.  0.
         24    2    4    4    0    0 -0.69346692100E+02  0.47010054647E+03 -0.32748702959E+03  0.58255638315E+03  0.79502814358E+02 0.  0.
         11    1    3    3    0    0  0.54866856496E+03 -0.60791173492E+03 -0.11973839406E+03  0.82760567581E+03  0.00000000000E+00 0. -1.
        -12    1    3    3    0    0  0.33880985673E+03 -0.43608469648E+03 -0.13402183328E+03  0.56826387649E+03  0.00000000000E+00 0.  1.
         11    1    5    5    0    0 -0.73093875872E+03  0.53022403150E+03 -0.32243997024E+03  0.95884124181E+03  0.00000000000E+00 0. -1.
        -12    1    5    5    0    0 -0.87192970868E+02  0.43671853425E+02 -0.58544949607E+02  0.11374249898E+03  0.00000000000E+00 0.  1.
          4    1    6    6  502    0  0.85894555702E+01  0.20663519992E+03 -0.13179116938E+03  0.24523620638E+03  0.00000000000E+00 0. -1.
         -3    1    6    6    0  502 -0.77936147670E+02  0.26346534656E+03 -0.19569586021E+03  0.33732017677E+03  0.00000000000E+00 0.  1.
<mgrwt>
<rscale>  0 0.14266073E+04</rscale>
<asrwt>0</asrwt>
<pdfrwt beam="1">  1        1 0.30871091E+00 0.14266073E+04</pdfrwt>
<pdfrwt beam="2">  1       -2 0.16067519E+00 0.14266073E+04</pdfrwt>
<totfact> 0.61350283E-01</totfact>
</mgrwt>
</event>
<event>
12    3  0.2212098E-007  0.7357242E+03  0.7818608E-02  0.9658017E-01
          1   -1    0    0  501    0  0.00000000000E+00  0.00000000000E+00  0.10149972314E+04  0.10149972314E+04  0.00000000000E+00 0. -1.
         -2   -1    0    0    0  501 -0.00000000000E+00 -0.00000000000E+00 -0.75868082458E+03  0.75868082458E+03  0.00000000000E+00 0.  1.
        -24    2    1    2    0    0  0.52460766580E+03 -0.41794720618E+03  0.50119700599E+03  0.84113148874E+03  0.80066674454E+02 0.  0.
    5000000    2    1    2    0    0 -0.52460766580E+03  0.41794720618E+03 -0.24488059913E+03  0.93254656729E+03  0.59981957467E+03 0.  0.
        -24    2    4    4    0    0 -0.38690263218E+03  0.50088568894E+03 -0.11883819406E+02  0.63814624157E+03  0.80680110885E+02 0.  0.
         24    2    4    4    0    0 -0.13770503362E+03 -0.82938482759E+02 -0.23299677973E+03  0.29440032572E+03  0.80886242433E+02 0.  0.
         11    1    5    5    0    0 -0.26323417277E+03  0.28888675320E+03  0.15851442517E+02  0.39115093521E+03  0.00000000000E+00 0. -1.
        -12    1    5    5    0    0 -0.12366845941E+03  0.21199893575E+03 -0.27735261923E+02  0.24699530636E+03  0.00000000000E+00 0.  1.
         13    1    3    3    0    0  0.23854154008E+03 -0.21822171341E+03  0.28272331024E+03  0.42948254062E+03  0.00000000000E+00 0. -1.
        -14    1    3    3    0    0  0.28606612572E+03 -0.19972549277E+03  0.21847369576E+03  0.41164894812E+03  0.00000000000E+00 0.  1.
          2    1    6    6  502    0 -0.44509186451E+02 -0.42027843724E+02 -0.31935473834E+02  0.69045505398E+02  0.00000000000E+00 0. -1.
         -1    1    6    6    0  502 -0.93195847170E+02 -0.40910639036E+02 -0.20106130589E+03  0.22535482032E+03  0.00000000000E+00 0.  1.
<mgrwt>
<rscale>  0 0.73572419E+03</rscale>
<asrwt>0</asrwt>
<pdfrwt beam="1">  1        1 0.15615342E+00 0.73572419E+03</pdfrwt>
<pdfrwt beam="2">  1       -2 0.11672013E+00 0.73572419E+03</pdfrwt>
<totfact> 0.75368049E+00</totfact>
</mgrwt>
</event>
<event>
12    3  0.2964943E-007  0.9029519E+03  0.7818608E-02  0.9421899E-01
         -2   -1    0    0    0  501 -0.00000000000E+00  0.00000000000E+00  0.71696470291E+03  0.71696470291E+03  0.00000000000E+00 0.  1.
          1   -1    0    0  501    0  0.00000000000E+00 -0.00000000000E+00 -0.12496474315E+04  0.12496474315E+04  0.00000000000E+00 0. -1.
        -24    2    1    2    0    0  0.30277091277E+03  0.79179872168E+03 -0.29634344313E+03  0.90153160297E+03  0.79525804619E+02 0.  0.
    5000000    2    1    2    0    0 -0.30277091277E+03 -0.79179872168E+03 -0.23633928547E+03  0.10650805314E+04  0.59993736284E+03 0.  0.
        -24    2    4    4    0    0 -0.38314887034E+03 -0.43780237844E+03 -0.34163160987E+03  0.67927132408E+03  0.78888500053E+02 0.  0.
         24    2    4    4    0    0  0.80377957575E+02 -0.35399634325E+03  0.10529232440E+03  0.38580920737E+03  0.77383743873E+02 0.  0.
         11    1    5    5    0    0 -0.21717705359E+03 -0.19359585611E+03 -0.18838035844E+03  0.34660119382E+03  0.00000000000E+00 0. -1.
        -12    1    5    5    0    0 -0.16597181676E+03 -0.24420652232E+03 -0.15325125143E+03  0.33267013026E+03  0.00000000000E+00 0.  1.
         11    1    3    3    0    0  0.14735567777E+03  0.44611905450E+03 -0.12893578965E+03  0.48719641256E+03  0.00000000000E+00 0. -1.
        -12    1    3    3    0    0  0.15541523500E+03  0.34567966718E+03 -0.16740765347E+03  0.41433519041E+03  0.00000000000E+00 0.  1.
          4    1    6    6  502    0  0.60831801162E+02 -0.10692226310E+03  0.27632272769E+02  0.12608100919E+03  0.00000000000E+00 0. -1.
         -3    1    6    6    0  502  0.19546156412E+02 -0.24707408015E+03  0.77660051633E+02  0.25972819818E+03  0.00000000000E+00 0.  1.
<mgrwt>
<rscale>  0 0.90295193E+03</rscale>
<asrwt>0</asrwt>
<pdfrwt beam="1">  1        1 0.19225345E+00 0.90295193E+03</pdfrwt>
<pdfrwt beam="2">  1       -2 0.11030226E+00 0.90295193E+03</pdfrwt>
<totfact> 0.56795245E+00</totfact>
</mgrwt>
</event>
<event>
12    3  0.2212098E-007  0.4223115E+03  0.7818608E-02  0.1036317E+00
          1   -1    0    0  501    0  0.00000000000E+00  0.00000000000E+00  0.54501956083E+03  0.54501956083E+03  0.00000000000E+00 0. -1.
         -2   -1    0    0    0  501 -0.00000000000E+00 -0.00000000000E+00 -0.69693136904E+03  0.69693136904E+03  0.00000000000E+00 0.  1.
        -24    2    1    2    0    0 -0.26215632590E+03 -0.49726387214E+02  0.32692459480E+03  0.42927347876E+03  0.78723415058E+02 0.  0.
    5000000    2    1    2    0    0  0.26215632590E+03  0.49726387214E+02 -0.47883640302E+03  0.81267745112E+03  0.59996807073E+03 0.  0.
        -24    2    4    4    0    0  0.33057351510E+03 -0.13722905301E+03 -0.47656315673E+03  0.60138812291E+03  0.80278080148E+02 0.  0.
         24    2    4    4    0    0 -0.68417189194E+02  0.18695544022E+03 -0.22732462935E+01  0.21128932821E+03  0.70744357791E+02 0.  0.
         11    1    3    3    0    0 -0.64690030539E+01 -0.19690486671E+02  0.22731069349E+02  0.30761417061E+02  0.00000000000E+00 0. -1.
        -12    1    3    3    0    0 -0.25568732285E+03 -0.30035900543E+02  0.30419352545E+03  0.39851206169E+03  0.00000000000E+00 0.  1.
         13    1    5    5    0    0  0.14995873490E+03 -0.86082619155E+02 -0.28379149266E+03  0.33231829742E+03  0.00000000000E+00 0. -1.
        -14    1    5    5    0    0  0.18061478020E+03 -0.51146433854E+02 -0.19277166407E+03  0.26906982549E+03  0.00000000000E+00 0.  1.
          2    1    6    6  502    0 -0.38625789001E+02  0.38964868609E+02 -0.21869349480E+02  0.59063364350E+02  0.00000000000E+00 0. -1.
         -1    1    6    6    0  502 -0.29791400192E+02  0.14799057161E+03  0.19596103186E+02  0.15222596386E+03  0.00000000000E+00 0.  1.
<mgrwt>
<rscale>  0 0.42231152E+03</rscale>
<asrwt>0</asrwt>
<pdfrwt beam="1">  1        1 0.83849164E-01 0.42231152E+03</pdfrwt>
<pdfrwt beam="2">  1       -2 0.10722021E+00 0.42231152E+03</pdfrwt>
<totfact> 0.25369410E+01</totfact>
</mgrwt>
</event>
<event>
12    3  0.3077320E-007  0.1137028E+04  0.7818608E-02  0.9169835E-01
         -2   -1    0    0    0  501 -0.00000000000E+00  0.00000000000E+00  0.18752019823E+04  0.18752019823E+04  0.00000000000E+00 0.  1.
          1   -1    0    0  501    0  0.00000000000E+00 -0.00000000000E+00 -0.14264341450E+04  0.14264341450E+04  0.00000000000E+00 0. -1.
        -24    2    1    2    0    0  0.10134147881E+04 -0.35175955905E+03 -0.95351082155E+03  0.14369396603E+04  0.69773780540E+02 0.  0.
    5000000    2    1    2    0    0 -0.10134147881E+04  0.35175955905E+03  0.14022786588E+04  0.18646964670E+04  0.59996929662E+03 0.  0.
        -24    2    4    4    0    0 -0.83421373636E+03  0.41844216599E+02  0.11334959090E+04  0.14102148937E+04  0.78927651617E+02 0.  0.
         24    2    4    4    0    0 -0.17920105177E+03  0.30991534245E+03  0.26878274982E+03  0.45448157334E+03  0.78414268252E+02 0.  0.
         11    1    5    5    0    0 -0.28849307605E+03  0.37562690275E+02  0.44499624898E+03  0.53165860497E+03  0.00000000000E+00 0. -1.
        -12    1    5    5    0    0 -0.54572066030E+03  0.42815263231E+01  0.68849966003E+03  0.87855628870E+03  0.00000000000E+00 0.  1.
         11    1    3    3    0    0  0.47118218430E+03 -0.13244662663E+03 -0.45924062661E+03  0.67116072057E+03  0.00000000000E+00 0. -1.
        -12    1    3    3    0    0  0.54223260383E+03 -0.21931293242E+03 -0.49427019494E+03  0.76577893977E+03  0.00000000000E+00 0.  1.
          2    1    6    6  502    0 -0.11199524246E+03  0.24600487296E+03  0.22606916920E+03  0.35237565341E+03  0.00000000000E+00 0. -1.
         -1    1    6    6    0  502 -0.67205809313E+02  0.63910469491E+02  0.42713580619E+02  0.10210591993E+03  0.00000000000E+00 0.  1.
<mgrwt>
<rscale>  0 0.11370277E+04</rscale>
<asrwt>0</asrwt>
<pdfrwt beam="1">  1        1 0.21945141E+00 0.11370277E+04</pdfrwt>
<pdfrwt beam="2">  1       -2 0.28849261E+00 0.11370277E+04</pdfrwt>
<totfact> 0.23823120E-01</totfact>
</mgrwt>
</event>
<event>
12    3  0.2212098E-007  0.4712420E+03  0.7818608E-02  0.1021570E+00
         -2   -1    0    0    0  501 -0.00000000000E+00  0.00000000000E+00  0.26610372039E+03  0.26610372039E+03  0.00000000000E+00 0.  1.
          1   -1    0    0  501    0  0.00000000000E+00 -0.00000000000E+00 -0.19152328902E+04  0.19152328902E+04  0.00000000000E+00 0. -1.
        -24    2    1    2    0    0 -0.38740808408E+03 -0.61826672210E+02 -0.19541095059E+02  0.40100890652E+03  0.80738638252E+02 0.  0.
    5000000    2    1    2    0    0  0.38740808408E+03  0.61826672210E+02 -0.16295880747E+04  0.17803277041E+04  0.60008489357E+03 0.  0.
        -24    2    4    4    0    0  0.25744800084E+03 -0.14095118727E+03 -0.14201970369E+04  0.14515448237E+04  0.62257859622E+02 0.  0.
         24    2    4    4    0    0  0.12996008323E+03  0.20277785948E+03 -0.20939103783E+03  0.32878288040E+03  0.79025895718E+02 0.  0.
         11    1    3    3    0    0 -0.18592716531E+03 -0.68144529831E+02  0.39774607182E+01  0.19806162662E+03  0.00000000000E+00 0. -1.
        -12    1    3    3    0    0 -0.20148091876E+03  0.63178576212E+01 -0.23518555777E+02  0.20294727990E+03  0.00000000000E+00 0.  1.
         13    1    5    5    0    0  0.12102528328E+03 -0.74043763526E+02 -0.83360886609E+03  0.84559644023E+03  0.00000000000E+00 0. -1.
        -14    1    5    5    0    0  0.13642271757E+03 -0.66907423746E+02 -0.58658817082E+03  0.60594838342E+03  0.00000000000E+00 0.  1.
          2    1    6    6  502    0  0.80470426542E+02  0.17425009570E+03 -0.18530520744E+03  0.26678944002E+03  0.00000000000E+00 0. -1.
         -1    1    6    6    0  502  0.49489656690E+02  0.28527763778E+02 -0.24085830391E+02  0.61993440388E+02  0.00000000000E+00 0.  1.
<mgrwt>
<rscale>  0 0.47124201E+03</rscale>
<asrwt>0</asrwt>
<pdfrwt beam="1">  1        1 0.29465120E+00 0.47124201E+03</pdfrwt>
<pdfrwt beam="2">  1       -2 0.40939035E-01 0.47124201E+03</pdfrwt>
<totfact> 0.18355467E+01</totfact>
</mgrwt>
</event>
<event>
12    3  0.2212098E-007  0.6754811E+03  0.7818608E-02  0.9760107E-01
          1   -1    0    0  501    0  0.00000000000E+00  0.00000000000E+00  0.35080027166E+03  0.35080027166E+03  0.00000000000E+00 0. -1.
         -2   -1    0    0    0  501 -0.00000000000E+00 -0.00000000000E+00 -0.17482890219E+04  0.17482890219E+04  0.00000000000E+00 0.  1.
        -24    2    1    2    0    0 -0.32165428644E+03 -0.57314351690E+03 -0.45859417951E+03  0.80545344856E+03  0.80570871650E+02 0.  0.
    5000000    2    1    2    0    0  0.32165428644E+03  0.57314351690E+03 -0.93889457067E+03  0.12936358450E+04  0.60001309450E+03 0.  0.
        -24    2    4    4    0    0  0.14364735954E+03  0.12479566436E+03  0.29972456462E+02  0.20837873695E+03  0.79465892829E+02 0.  0.
         24    2    4    4    0    0  0.17800692690E+03  0.44834785254E+03 -0.96886702713E+03  0.10852571080E+04  0.79858695841E+02 0.  0.
         13    1    5    5    0    0  0.37384317678E+02  0.80749127895E+02  0.28165656350E+02  0.93334415206E+02  0.00000000000E+00 0. -1.
        -14    1    5    5    0    0  0.10626304186E+03  0.44046536462E+02  0.18068001117E+01  0.11504432175E+03  0.00000000000E+00 0.  1.
         13    1    3    3    0    0 -0.16468703487E+03 -0.32972981843E+03 -0.30006464763E+03  0.47527083371E+03  0.00000000000E+00 0. -1.
        -14    1    3    3    0    0 -0.15696725157E+03 -0.24341369848E+03 -0.15852953188E+03  0.33018261485E+03  0.00000000000E+00 0.  1.
          2    1    6    6  502    0  0.31627194186E+02  0.18286331494E+03 -0.38358363146E+03  0.42611697184E+03  0.00000000000E+00 0. -1.
         -1    1    6    6    0  502  0.14637973271E+03  0.26548453761E+03 -0.58528339567E+03  0.65914013616E+03  0.00000000000E+00 0.  1.
<mgrwt>
<rscale>  0 0.67548107E+03</rscale>
<asrwt>0</asrwt>
<pdfrwt beam="1">  1        1 0.53969273E-01 0.67548107E+03</pdfrwt>
<pdfrwt beam="2">  1       -2 0.26896754E+00 0.67548107E+03</pdfrwt>
<totfact> 0.32182489E+00</totfact>
</mgrwt>
</event>
<event>
12    3  0.2212098E-007  0.7882357E+03  0.7818608E-02  0.9577203E-01
          1   -1    0    0  501    0  0.00000000000E+00  0.00000000000E+00  0.76362422522E+03  0.76362422522E+03  0.00000000000E+00 0. -1.
         -2   -1    0    0    0  501 -0.00000000000E+00 -0.00000000000E+00 -0.14637056754E+04  0.14637056754E+04  0.00000000000E+00 0.  1.
        -24    2    1    2    0    0 -0.75138440931E+03  0.20661365662E+03 -0.93141239639E+03  0.12170068014E+04  0.79427758212E+02 0.  0.
    5000000    2    1    2    0    0  0.75138440931E+03 -0.20661365662E+03  0.23133094625E+03  0.10103230992E+04  0.59997585324E+03 0.  0.
        -24    2    4    4    0    0  0.50563691173E+03 -0.90496465509E+02  0.42116749384E+03  0.66957366892E+03  0.84193488316E+02 0.  0.
         24    2    4    4    0    0  0.24574749759E+03 -0.11611719111E+03 -0.18983654760E+03  0.34074943030E+03  0.78722454261E+02 0.  0.
         11    1    5    5    0    0  0.10113664943E+03 -0.53007814871E+02  0.86870903004E+02  0.14347475068E+03  0.00000000000E+00 0. -1.
        -12    1    5    5    0    0  0.40450026230E+03 -0.37488650638E+02  0.33429659084E+03  0.52609891824E+03  0.00000000000E+00 0.  1.
         13    1    3    3    0    0 -0.19992255798E+03  0.19156586076E+02 -0.23493881780E+03  0.30908292106E+03  0.00000000000E+00 0. -1.
        -14    1    3    3    0    0 -0.55146185133E+03  0.18745707054E+03 -0.69647357859E+03  0.90792388031E+03  0.00000000000E+00 0.  1.
          4    1    6    6  502    0  0.70301049345E+02 -0.21990752074E+02 -0.95010808386E+02  0.12022014983E+03  0.00000000000E+00 0. -1.
         -3    1    6    6    0  502  0.17544644824E+03 -0.94126439037E+02 -0.94825739210E+02  0.22052928047E+03  0.00000000000E+00 0.  1.
<mgrwt>
<rscale>  0 0.78823568E+03</rscale>
<asrwt>0</asrwt>
<pdfrwt beam="1">  1        1 0.11748065E+00 0.78823568E+03</pdfrwt>
<pdfrwt beam="2">  1       -2 0.22518549E+00 0.78823568E+03</pdfrwt>
<totfact> 0.19636375E+00</totfact>
</mgrwt>
</event>
<event>
12    3  0.2212098E-007  0.1372540E+04  0.7818608E-02  0.8973939E-01
          1   -1    0    0  501    0  0.00000000000E+00  0.00000000000E+00  0.34688847252E+04  0.34688847252E+04  0.00000000000E+00 0. -1.
         -2   -1    0    0    0  501 -0.00000000000E+00 -0.00000000000E+00 -0.62182647536E+03  0.62182647536E+03  0.00000000000E+00 0.  1.
        -24    2    1    2    0    0  0.13423617471E+04 -0.24168517642E+03  0.88990206034E+03  0.16309342235E+04  0.87601254700E+02 0.  0.
    5000000    2    1    2    0    0 -0.13423617471E+04  0.24168517642E+03  0.19571561895E+04  0.24597769770E+04  0.59974631489E+03 0.  0.
        -24    2    4    4    0    0 -0.96089234533E+03  0.11053832486E+03  0.89733649851E+03  0.13231005895E+04  0.99244939058E+02 0.  0.
         24    2    4    4    0    0 -0.38146940175E+03  0.13114685156E+03  0.10598196910E+04  0.11366763875E+04  0.78083489700E+02 0.  0.
         11    1    3    3    0    0  0.75546809184E+03 -0.17808530545E+03  0.48993846706E+03  0.91787042403E+03  0.00000000000E+00 0. -1.
        -12    1    3    3    0    0  0.58689365524E+03 -0.63599870974E+02  0.39996359328E+03  0.71306379946E+03  0.00000000000E+00 0.  1.
         13    1    5    5    0    0 -0.45339901822E+03  0.29082469997E+02  0.48099636406E+03  0.66164489118E+03  0.00000000000E+00 0. -1.
        -14    1    5    5    0    0 -0.50749332711E+03  0.81455854864E+02  0.41634013445E+03  0.66145569837E+03  0.00000000000E+00 0.  1.
          4    1    6    6  502    0 -0.27466502179E+03  0.12895115697E+03  0.75578814646E+03  0.81442310712E+03  0.00000000000E+00 0. -1.
         -3    1    6    6    0  502 -0.10680437996E+03  0.21956945932E+01  0.30403154452E+03  0.32225328038E+03  0.00000000000E+00 0.  1.
<mgrwt>
<rscale>  0 0.13725398E+04</rscale>
<asrwt>0</asrwt>
<pdfrwt beam="1">  1        1 0.53367456E+00 0.13725398E+04</pdfrwt>
<pdfrwt beam="2">  1       -2 0.95665614E-01 0.13725398E+04</pdfrwt>
<totfact> 0.20789405E-01</totfact>
</mgrwt>
</event>
<event>
12    3  0.2212098E-007  0.3925193E+03  0.7818608E-02  0.1046401E+00
          1   -1    0    0  501    0  0.00000000000E+00  0.00000000000E+00  0.13888971807E+04  0.13888971807E+04  0.00000000000E+00 0. -1.
         -2   -1    0    0    0  501 -0.00000000000E+00 -0.00000000000E+00 -0.12845654992E+03  0.12845654992E+03  0.00000000000E+00 0.  1.
        -24    2    1    2    0    0 -0.15324279196E+03  0.67687804090E+02  0.50642307805E+03  0.53931303828E+03  0.79556440122E+02 0.  0.
    5000000    2    1    2    0    0  0.15324279196E+03 -0.67687804090E+02  0.75401755277E+03  0.97804069238E+03  0.59996344385E+03 0.  0.
        -24    2    4    4    0    0  0.57933862441E+02  0.25555158074E+03  0.28538122852E+03  0.39549374763E+03  0.79434979641E+02 0.  0.
         24    2    4    4    0    0  0.95308929517E+02 -0.32323938483E+03  0.46863632425E+03  0.58254694474E+03  0.78571282743E+02 0.  0.
         11    1    3    3    0    0 -0.74015713109E+02  0.66087098235E+02  0.35236179867E+03  0.36606647962E+03  0.00000000000E+00 0. -1.
        -12    1    3    3    0    0 -0.79227078849E+02  0.16007058551E+01  0.15406127938E+03  0.17324655866E+03  0.00000000000E+00 0.  1.
         11    1    5    5    0    0 -0.56817254527E+01  0.11249664446E+03  0.84522352034E+02  0.14082544163E+03  0.00000000000E+00 0. -1.
        -12    1    5    5    0    0  0.63615587894E+02  0.14305493628E+03  0.20085887648E+03  0.25466830600E+03  0.00000000000E+00 0.  1.
          4    1    6    6  502    0  0.61629697328E+02 -0.18136796784E+03  0.20029432286E+03  0.27714684758E+03  0.00000000000E+00 0. -1.
         -3    1    6    6    0  502  0.33679232188E+02 -0.14187141699E+03  0.26834200139E+03  0.30540009716E+03  0.00000000000E+00 0.  1.
<mgrwt>
<rscale>  0 0.39251934E+03</rscale>
<asrwt>0</asrwt>
<pdfrwt beam="1">  1        1 0.21367648E+00 0.39251934E+03</pdfrwt>
<pdfrwt beam="2">  1       -2 0.19762547E-01 0.39251934E+03</pdfrwt>
<totfact> 0.15809263E+02</totfact>
</mgrwt>
</event>
<event>
12    3  0.2212098E-007  0.3925782E+03  0.7818608E-02  0.1046380E+00
         -2   -1    0    0    0  501 -0.00000000000E+00  0.00000000000E+00  0.29529325239E+03  0.29529325239E+03  0.00000000000E+00 0.  1.
          1   -1    0    0  501    0  0.00000000000E+00 -0.00000000000E+00 -0.75327903162E+03  0.75327903162E+03  0.00000000000E+00 0. -1.
        -24    2    1    2    0    0  0.84621266544E+01  0.26393523779E+03 -0.21679062100E+03  0.35010421120E+03  0.76428842814E+02 0.  0.
    5000000    2    1    2    0    0 -0.84621266544E+01 -0.26393523779E+03 -0.24119515824E+03  0.69846807281E+03  0.59995760437E+03 0.  0.
        -24    2    4    4    0    0 -0.16389631797E+03 -0.30478647412E+03  0.46629469281E+02  0.35815297962E+03  0.79639509985E+02 0.  0.
         24    2    4    4    0    0  0.15543419132E+03  0.40851236336E+02 -0.28782462752E+03  0.34031509319E+03  0.84514703488E+02 0.  0.
         11    1    3    3    0    0  0.40085899808E+02  0.17438010900E+03 -0.12713066969E+03  0.21949375607E+03  0.00000000000E+00 0. -1.
        -12    1    3    3    0    0 -0.31623773154E+02  0.89555128791E+02 -0.89659951306E+02  0.13061045513E+03  0.00000000000E+00 0.  1.
         13    1    5    5    0    0 -0.98761818300E+02 -0.21695190165E+03 -0.22291246190E+01  0.23838412988E+03  0.00000000000E+00 0. -1.
        -14    1    5    5    0    0 -0.65134499672E+02 -0.87834572477E+02  0.48858593900E+02  0.11976884974E+03  0.00000000000E+00 0.  1.
          4    1    6    6  502    0  0.13578579571E+03  0.45739673134E+02 -0.17733677369E+03  0.22798734903E+03  0.00000000000E+00 0. -1.
         -3    1    6    6    0  502  0.19648395609E+02 -0.48884367984E+01 -0.11048785383E+03  0.11232774416E+03  0.00000000000E+00 0.  1.
<mgrwt>
<rscale>  0 0.39257825E+03</rscale>
<asrwt>0</asrwt>
<pdfrwt beam="1">  1        1 0.11588908E+00 0.39257825E+03</pdfrwt>
<pdfrwt beam="2">  1       -2 0.45429731E-01 0.39257825E+03</pdfrwt>
<totfact> 0.10271054E+02</totfact>
</mgrwt>
</event>
<event>
12    3  0.2212098E-007  0.6330485E+03  0.7818608E-02  0.9839118E-01
          1   -1    0    0  501    0  0.00000000000E+00  0.00000000000E+00  0.56284058784E+03  0.56284058784E+03  0.00000000000E+00 0. -1.
         -2   -1    0    0    0  501 -0.00000000000E+00 -0.00000000000E+00 -0.10978417728E+04  0.10978417728E+04  0.00000000000E+00 0.  1.
        -24    2    1    2    0    0  0.58578618514E+03 -0.14869634579E+03 -0.53173800145E+03  0.80888956759E+03  0.79378664806E+02 0.  0.
    5000000    2    1    2    0    0 -0.58578618514E+03  0.14869634579E+03 -0.32631835431E+01  0.85179279307E+03  0.60023683326E+03 0.  0.
        -24    2    4    4    0    0 -0.47926752763E+03  0.19503163608E+03 -0.23992080188E+03  0.57593676485E+03  0.80040388633E+02 0.  0.
         24    2    4    4    0    0 -0.10651865751E+03 -0.46335290288E+02  0.23665761834E+03  0.27585602822E+03  0.81219064663E+02 0.  0.
         11    1    3    3    0    0  0.33222108869E+03 -0.11306462627E+03 -0.34368763384E+03  0.49119817908E+03  0.00000000000E+00 0. -1.
        -12    1    3    3    0    0  0.25356509646E+03 -0.35631719521E+02 -0.18805036761E+03  0.31769138851E+03  0.00000000000E+00 0.  1.
         11    1    5    5    0    0 -0.12084298823E+03  0.21381142750E+02 -0.81466451547E+02  0.14729889272E+03  0.00000000000E+00 0. -1.
        -12    1    5    5    0    0 -0.35842453940E+03  0.17365049333E+03 -0.15845435033E+03  0.42863787212E+03  0.00000000000E+00 0.  1.
          4    1    6    6  502    0 -0.31802780197E+02  0.20523279729E+02  0.95388648301E+02  0.10262366230E+03  0.00000000000E+00 0. -1.
         -3    1    6    6    0  502 -0.74715877314E+02 -0.66858570017E+02  0.14126897004E+03  0.17323236592E+03  0.00000000000E+00 0.  1.
<mgrwt>
<rscale>  0 0.63304845E+03</rscale>
<asrwt>0</asrwt>
<pdfrwt beam="1">  1        1 0.86590859E-01 0.63304845E+03</pdfrwt>
<pdfrwt beam="2">  1       -2 0.16889873E+00 0.63304845E+03</pdfrwt>
<totfact> 0.73926573E+00</totfact>
</mgrwt>
</event>
<event>
12    3  0.2212098E-007  0.4071591E+03  0.7818608E-02  0.1041329E+00
          1   -1    0    0  501    0  0.00000000000E+00  0.00000000000E+00  0.60032788691E+03  0.60032788691E+03  0.00000000000E+00 0. -1.
         -2   -1    0    0    0  501 -0.00000000000E+00 -0.00000000000E+00 -0.43229475519E+03  0.43229475519E+03  0.00000000000E+00 0.  1.
        -24    2    1    2    0    0  0.16651196484E+03 -0.16954760803E+03 -0.17149641244E+03  0.30337045861E+03  0.78421871031E+02 0.  0.
    5000000    2    1    2    0    0 -0.16651196484E+03  0.16954760803E+03  0.33952954415E+03  0.72925218349E+03  0.60004650648E+03 0.  0.
        -24    2    4    4    0    0  0.10643727628E+03  0.24450251257E+03 -0.25825951052E+01  0.27788511094E+03  0.78122292910E+02 0.  0.
         24    2    4    4    0    0 -0.27294924113E+03 -0.74954904537E+02  0.34211213926E+03  0.45136707255E+03  0.81067825951E+02 0.  0.
         11    1    5    5    0    0  0.10413232261E+03  0.20259094643E+03  0.22650232586E+02  0.22890973160E+03  0.00000000000E+00 0. -1.
        -12    1    5    5    0    0  0.23049536735E+01  0.41911566140E+02 -0.25232827691E+02  0.48975379335E+02  0.00000000000E+00 0.  1.
         13    1    3    3    0    0  0.53917491504E+02 -0.11084899088E+03 -0.83839594806E+02  0.14907606222E+03  0.00000000000E+00 0. -1.
        -14    1    3    3    0    0  0.11259447334E+03 -0.58698617151E+02 -0.87656817631E+02  0.15429439640E+03  0.00000000000E+00 0.  1.
          4    1    6    6  502    0 -0.20973190282E+01 -0.17258036002E+02  0.17287062620E+02  0.24516955108E+02  0.00000000000E+00 0. -1.
         -3    1    6    6    0  502 -0.27085192210E+03 -0.57696868536E+02  0.32482507664E+03  0.42685011744E+03  0.00000000000E+00 0.  1.
<mgrwt>
<rscale>  0 0.40715911E+03</rscale>
<asrwt>0</asrwt>
<pdfrwt beam="1">  1        1 0.92358137E-01 0.40715911E+03</pdfrwt>
<pdfrwt beam="2">  1       -2 0.66506885E-01 0.40715911E+03</pdfrwt>
<totfact> 0.65310213E+01</totfact>
</mgrwt>
</event>
<event>
12    3  0.2212098E-007  0.5085554E+03  0.7818608E-02  0.1011570E+00
          1   -1    0    0  501    0  0.00000000000E+00  0.00000000000E+00  0.43584461198E+03  0.43584461198E+03  0.00000000000E+00 0. -1.
         -2   -1    0    0    0  501 -0.00000000000E+00 -0.00000000000E+00 -0.76022600215E+03  0.76022600215E+03  0.00000000000E+00 0.  1.
        -24    2    1    2    0    0  0.36098168752E+03  0.11325534137E+03 -0.29468713516E+03  0.48616138182E+03  0.79861320259E+02 0.  0.
    5000000    2    1    2    0    0 -0.36098168752E+03 -0.11325534137E+03 -0.29694255012E+02  0.70990923232E+03  0.59996234738E+03 0.  0.
        -24    2    4    4    0    0  0.32032485594E+02  0.14905117795E+03 -0.13562183364E+03  0.21910919156E+03  0.79832463851E+02 0.  0.
         24    2    4    4    0    0 -0.39301417311E+03 -0.26230651932E+03  0.10592757863E+03  0.49080004076E+03  0.79994860732E+02 0.  0.
         11    1    5    5    0    0  0.19697901428E+02  0.13752746105E+03 -0.14414539667E+03  0.20019916395E+03  0.00000000000E+00 0. -1.
        -12    1    5    5    0    0  0.12334584166E+02  0.11523716901E+02  0.85235630271E+01  0.18910027616E+02  0.00000000000E+00 0.  1.
         13    1    3    3    0    0  0.22899084062E+03  0.43216839970E+02 -0.21379561564E+03  0.31624842389E+03  0.00000000000E+00 0. -1.
        -14    1    3    3    0    0  0.13199084690E+03  0.70038501404E+02 -0.80891519520E+02  0.16991295793E+03  0.00000000000E+00 0.  1.
          2    1    6    6  502    0 -0.33855462049E+03 -0.18968566770E+03  0.78047382488E+02  0.39584249077E+03  0.00000000000E+00 0. -1.
         -1    1    6    6    0  502 -0.54459552628E+02 -0.72620851624E+02  0.27880196145E+02  0.94957549990E+02  0.00000000000E+00 0.  1.
<mgrwt>
<rscale>  0 0.50855544E+03</rscale>
<asrwt>0</asrwt>
<pdfrwt beam="1">  1        1 0.67053018E-01 0.50855544E+03</pdfrwt>
<pdfrwt beam="2">  1       -2 0.11695785E+00 0.50855544E+03</pdfrwt>
<totfact> 0.27518612E+01</totfact>
</mgrwt>
</event>
<event>
12    3  0.2212098E-007  0.6056783E+03  0.7818608E-02  0.9893695E-01
          1   -1    0    0  501    0  0.00000000000E+00  0.00000000000E+00  0.39522222405E+03  0.39522222405E+03  0.00000000000E+00 0. -1.
         -2   -1    0    0    0  501 -0.00000000000E+00 -0.00000000000E+00 -0.10653964569E+04  0.10653964569E+04  0.00000000000E+00 0.  1.
        -24    2    1    2    0    0 -0.42173988351E+03  0.19765659152E+03 -0.48821863085E+03  0.67962191409E+03  0.81214882194E+02 0.  0.
    5000000    2    1    2    0    0  0.42173988351E+03 -0.19765659152E+03 -0.18195560204E+03  0.78099676689E+03  0.59992953859E+03 0.  0.
        -24    2    4    4    0    0  0.26663010705E+02 -0.31827224523E+03 -0.17141261801E+02  0.32966602269E+03  0.79860662637E+02 0.  0.
         24    2    4    4    0    0  0.39507687280E+03  0.12061565371E+03 -0.16481434023E+03  0.45133074420E+03  0.76823190300E+02 0.  0.
         11    1    5    5    0    0  0.43433719243E+02 -0.19606278078E+03  0.17394139110E+02  0.20156799857E+03  0.00000000000E+00 0. -1.
        -12    1    5    5    0    0 -0.16770708538E+02 -0.12220946446E+03 -0.34535400911E+02  0.12809802412E+03  0.00000000000E+00 0.  1.
         13    1    3    3    0    0 -0.21107188052E+03  0.67039248353E+02 -0.18965412530E+03  0.29157209539E+03  0.00000000000E+00 0. -1.
        -14    1    3    3    0    0 -0.21066800298E+03  0.13061734317E+03 -0.29856450555E+03  0.38804981870E+03  0.00000000000E+00 0.  1.
          2    1    6    6  502    0  0.70867698453E+02 -0.28520653095E+01 -0.10744081616E+02  0.71734233462E+02  0.00000000000E+00 0. -1.
         -1    1    6    6    0  502  0.32420917435E+03  0.12346771902E+03 -0.15407025862E+03  0.37959651074E+03  0.00000000000E+00 0.  1.
<mgrwt>
<rscale>  0 0.60567829E+03</rscale>
<asrwt>0</asrwt>
<pdfrwt beam="1">  1        1 0.60803420E-01 0.60567829E+03</pdfrwt>
<pdfrwt beam="2">  1       -2 0.16390715E+00 0.60567829E+03</pdfrwt>
<totfact> 0.13004035E+01</totfact>
</mgrwt>
</event>
<event>
12    3  0.2212098E-007  0.7134432E+03  0.7818608E-02  0.9694515E-01
         -2   -1    0    0    0  501 -0.00000000000E+00  0.00000000000E+00  0.37488779676E+03  0.37488779676E+03  0.00000000000E+00 0.  1.
          1   -1    0    0  501    0  0.00000000000E+00 -0.00000000000E+00 -0.17320653582E+04  0.17320653582E+04  0.00000000000E+00 0. -1.
        -24    2    1    2    0    0 -0.31410901842E+03  0.53532569575E+03 -0.98285353978E+03  0.11659503620E+04  0.90559870136E+02 0.  0.
    5000000    2    1    2    0    0  0.31410901842E+03 -0.53532569575E+03 -0.37432402167E+03  0.94100279293E+03  0.60010807952E+03 0.  0.
        -24    2    4    4    0    0 -0.99067558642E+02  0.19014783554E+02  0.35099094469E+02  0.13393032498E+03  0.80804964865E+02 0.  0.
         24    2    4    4    0    0  0.41317657707E+03 -0.55434047931E+03 -0.40942311614E+03  0.80707246795E+03  0.75699601471E+02 0.  0.
         11    1    5    5    0    0 -0.99587051961E+02  0.85288837119E+01  0.28249749575E+01  0.99991515936E+02  0.00000000000E+00 0. -1.
        -12    1    5    5    0    0  0.51949331939E+00  0.10485899842E+02  0.32274119512E+02  0.33938809040E+02  0.00000000000E+00 0.  1.
         13    1    3    3    0    0 -0.23603861703E+03  0.41909604333E+03 -0.82474918048E+03  0.95476014421E+03  0.00000000000E+00 0. -1.
        -14    1    3    3    0    0 -0.78070401393E+02  0.11622965242E+03 -0.15810435930E+03  0.21119021783E+03  0.00000000000E+00 0.  1.
          2    1    6    6  502    0  0.15066651338E+03 -0.26430694050E+03 -0.17278371601E+03  0.34987536291E+03  0.00000000000E+00 0. -1.
         -1    1    6    6    0  502  0.26251006368E+03 -0.29003353881E+03 -0.23663940013E+03  0.45719710504E+03  0.00000000000E+00 0.  1.
<mgrwt>
<rscale>  0 0.71344322E+03</rscale>
<asrwt>0</asrwt>
<pdfrwt beam="1">  1        1 0.26647159E+00 0.71344322E+03</pdfrwt>
<pdfrwt beam="2">  1       -2 0.57675046E-01 0.71344322E+03</pdfrwt>
<totfact> 0.11662025E+01</totfact>
</mgrwt>
</event>
<event>
12    3  0.2305083E-007  0.1245176E+04  0.7818608E-02  0.9074207E-01
         -4   -1    0    0    0  501 -0.00000000000E+00  0.00000000000E+00  0.12441253301E+04  0.12441253301E+04  0.00000000000E+00 0.  1.
          3   -1    0    0  501    0  0.00000000000E+00 -0.00000000000E+00 -0.13113514674E+04  0.13113514674E+04  0.00000000000E+00 0. -1.
        -24    2    1    2    0    0  0.42790087875E+03 -0.11222548510E+04  0.71065919617E+02  0.12057879655E+04  0.79493020105E+02 0.  0.
    5000000    2    1    2    0    0 -0.42790087875E+03  0.11222548510E+04 -0.13829205697E+03  0.13496888319E+04  0.59998344759E+03 0.  0.
        -24    2    4    4    0    0  0.78536245145E+02  0.37473162148E+03 -0.20308278854E+03  0.44084147076E+03  0.80665069300E+02 0.  0.
         24    2    4    4    0    0 -0.50643712390E+03  0.74752322952E+03  0.64790731569E+02  0.90884736117E+03  0.80846446212E+02 0.  0.
         11    1    3    3    0    0  0.17784046550E+03 -0.44554254091E+03 -0.98735123934E+01  0.47982587798E+03  0.00000000000E+00 0. -1.
        -12    1    3    3    0    0  0.25006041325E+03 -0.67671231009E+03  0.80939432011E+02  0.72596208755E+03  0.00000000000E+00 0.  1.
         13    1    5    5    0    0  0.28916574858E+02  0.10684438844E+03 -0.10117831943E+03  0.14996314202E+03  0.00000000000E+00 0. -1.
        -14    1    5    5    0    0  0.49619670287E+02  0.26788723304E+03 -0.10190446910E+03  0.29087832874E+03  0.00000000000E+00 0.  1.
          2    1    6    6  502    0 -0.23904692968E+03  0.28673642699E+03  0.12230876052E+02  0.37351145562E+03  0.00000000000E+00 0. -1.
         -1    1    6    6    0  502 -0.26739019421E+03  0.46078680254E+03  0.52559855517E+02  0.53533590554E+03  0.00000000000E+00 0.  1.
<mgrwt>
<rscale>  0 0.12451765E+04</rscale>
<asrwt>0</asrwt>
<pdfrwt beam="1">  1        3 0.20174638E+00 0.12451765E+04</pdfrwt>
<pdfrwt beam="2">  1       -4 0.19140390E+00 0.12451765E+04</pdfrwt>
<totfact> 0.46555638E-02</totfact>
</mgrwt>
</event>
<event>
12    3  0.2212098E-007  0.1420550E+04  0.7818608E-02  0.8939077E-01
          1   -1    0    0  501    0  0.00000000000E+00  0.00000000000E+00  0.10255199879E+04  0.10255199879E+04  0.00000000000E+00 0. -1.
         -2   -1    0    0    0  501 -0.00000000000E+00 -0.00000000000E+00 -0.28362593790E+04  0.28362593790E+04  0.00000000000E+00 0.  1.
        -24    2    1    2    0    0 -0.76529167622E+03 -0.11777281086E+04 -0.18618063918E+04  0.23336177087E+04  0.82059260392E+02 0.  0.
    5000000    2    1    2    0    0  0.76529167622E+03  0.11777281086E+04  0.51067000725E+02  0.15281616582E+04  0.59996280504E+03 0.  0.
        -24    2    4    4    0    0  0.36766338190E+03  0.32979865552E+03  0.26140551594E+03  0.56459942526E+03  0.80598707600E+02 0.  0.
         24    2    4    4    0    0  0.39762829432E+03  0.84792945312E+03 -0.21033851521E+03  0.96356223293E+03  0.84363901281E+02 0.  0.
         11    1    5    5    0    0  0.21603275356E+03  0.14273507343E+03  0.15047392187E+03  0.29947596391E+03  0.00000000000E+00 0. -1.
        -12    1    5    5    0    0  0.15163062834E+03  0.18706358209E+03  0.11093159407E+03  0.26512346135E+03  0.00000000000E+00 0.  1.
         13    1    3    3    0    0 -0.71378091224E+03 -0.10858055038E+04 -0.17538488421E+04  0.21827603038E+04  0.00000000000E+00 0. -1.
        -14    1    3    3    0    0 -0.51510763988E+02 -0.91922604807E+02 -0.10795754972E+03  0.15085740493E+03  0.00000000000E+00 0.  1.
          2    1    6    6  502    0  0.32039594989E+03  0.67302934389E+03 -0.13227340715E+03  0.75704578243E+03  0.00000000000E+00 0. -1.
         -1    1    6    6    0  502  0.77232344429E+02  0.17490010923E+03 -0.78065108062E+02  0.20651645051E+03  0.00000000000E+00 0.  1.
<mgrwt>
<rscale>  0 0.14205495E+04</rscale>
<asrwt>0</asrwt>
<pdfrwt beam="1">  1        1 0.15777231E+00 0.14205495E+04</pdfrwt>
<pdfrwt beam="2">  1       -2 0.43634759E+00 0.14205495E+04</pdfrwt>
<totfact> 0.51919525E-02</totfact>
</mgrwt>
</event>
<event>
12    3  0.2212098E-007  0.5592765E+03  0.7818608E-02  0.9993693E-01
          1   -1    0    0  501    0  0.00000000000E+00  0.00000000000E+00  0.13202301628E+04  0.13202301628E+04  0.00000000000E+00 0. -1.
         -2   -1    0    0    0  501 -0.00000000000E+00 -0.00000000000E+00 -0.36108146915E+03  0.36108146915E+03  0.00000000000E+00 0.  1.
        -24    2    1    2    0    0 -0.54804466758E+03  0.30403623997E+02  0.50585412135E+03  0.75040874976E+03  0.77120435712E+02 0.  0.
    5000000    2    1    2    0    0  0.54804466758E+03 -0.30403623997E+02  0.45329457233E+03  0.93090288222E+03  0.59985570664E+03 0.  0.
        -24    2    4    4    0    0  0.15038503684E+03 -0.29404053964E+02 -0.13296064070E+03  0.21796503908E+03  0.79686690168E+02 0.  0.
         24    2    4    4    0    0  0.39765963075E+03 -0.99957003228E+00  0.58625521303E+03  0.71293784314E+03  0.80318194102E+02 0.  0.
         13    1    3    3    0    0 -0.35393768926E+03  0.39040162321E+02  0.36870490666E+03  0.51258104759E+03  0.00000000000E+00 0. -1.
        -14    1    3    3    0    0 -0.19410697832E+03 -0.86365383247E+01  0.13714921470E+03  0.23782770217E+03  0.00000000000E+00 0.  1.
         13    1    5    5    0    0  0.24441457995E+02 -0.35680363540E+02 -0.53996446258E+02  0.69181568497E+02  0.00000000000E+00 0. -1.
        -14    1    5    5    0    0  0.12594357884E+03  0.62763095753E+01 -0.78964194444E+02  0.14878347058E+03  0.00000000000E+00 0.  1.
          4    1    6    6  502    0  0.11633175234E+03 -0.14130367963E+02  0.23603678399E+03  0.26352629337E+03  0.00000000000E+00 0. -1.
         -3    1    6    6    0  502  0.28132787841E+03  0.13130797931E+02  0.35021842905E+03  0.44941154977E+03  0.00000000000E+00 0.  1.
<mgrwt>
<rscale>  0 0.55927654E+03</rscale>
<asrwt>0</asrwt>
<pdfrwt beam="1">  1        1 0.20311233E+00 0.55927654E+03</pdfrwt>
<pdfrwt beam="2">  1       -2 0.55550996E-01 0.55927654E+03</pdfrwt>
<totfact> 0.24617076E+01</totfact>
</mgrwt>
</event>
<event>
12    3  0.2212098E-007  0.8303624E+03  0.7818608E-02  0.9517080E-01
          1   -1    0    0  501    0  0.00000000000E+00  0.00000000000E+00  0.11841083643E+04  0.11841083643E+04  0.00000000000E+00 0. -1.
         -2   -1    0    0    0  501 -0.00000000000E+00 -0.00000000000E+00 -0.21659845494E+04  0.21659845494E+04  0.00000000000E+00 0.  1.
        -24    2    1    2    0    0 -0.12497075076E+02  0.73763578470E+03 -0.18928178725E+04  0.20331629047E+04  0.82031525313E+02 0.  0.
    5000000    2    1    2    0    0  0.12497075076E+02 -0.73763578470E+03  0.91094168736E+03  0.13169300090E+04  0.60018927263E+03 0.  0.
        -24    2    4    4    0    0  0.20985206073E+03 -0.69905521923E+02  0.13152993432E+03  0.26870086109E+03  0.77300451107E+02 0.  0.
         24    2    4    4    0    0 -0.19735498565E+03 -0.66773026278E+03  0.77941175304E+03  0.10482291479E+04  0.80554152497E+02 0.  0.
         13    1    5    5    0    0  0.15197792813E+03 -0.34832113244E+02  0.12660994555E+03  0.20084980723E+03  0.00000000000E+00 0. -1.
        -14    1    5    5    0    0  0.57874132599E+02 -0.35073408679E+02  0.49199887664E+01  0.67851053860E+02  0.00000000000E+00 0.  1.
         13    1    3    3    0    0 -0.88059219261E+01  0.51404370462E+03 -0.12111367754E+04  0.13157396260E+04  0.00000000000E+00 0. -1.
        -14    1    3    3    0    0 -0.36911531504E+01  0.22359208008E+03 -0.68168109704E+03  0.71742327878E+03  0.00000000000E+00 0.  1.
          4    1    6    6  502    0 -0.96752249114E+02 -0.43867423753E+03  0.53338800196E+03  0.69735130675E+03  0.00000000000E+00 0. -1.
         -3    1    6    6    0  502 -0.10060273653E+03 -0.22905602525E+03  0.24602375107E+03  0.35087784113E+03  0.00000000000E+00 0.  1.
<mgrwt>
<rscale>  0 0.83036242E+03</rscale>
<asrwt>0</asrwt>
<pdfrwt beam="1">  1        1 0.18217052E+00 0.83036242E+03</pdfrwt>
<pdfrwt beam="2">  1       -2 0.33322839E+00 0.83036242E+03</pdfrwt>
<totfact> 0.19979634E-01</totfact>
</mgrwt>
</event>
<event>
12    3  0.2212098E-007  0.4430679E+03  0.7818608E-02  0.1029810E+00
         -2   -1    0    0    0  501 -0.00000000000E+00  0.00000000000E+00  0.25852187162E+03  0.25852187162E+03  0.00000000000E+00 0.  1.
          1   -1    0    0  501    0  0.00000000000E+00 -0.00000000000E+00 -0.93934238673E+03  0.93934238673E+03  0.00000000000E+00 0. -1.
        -24    2    1    2    0    0 -0.23948136950E+03 -0.11314489462E+03 -0.37307348072E+02  0.27900853208E+03  0.79377762876E+02 0.  0.
    5000000    2    1    2    0    0  0.23948136950E+03  0.11314489462E+03 -0.64351316704E+03  0.91885572627E+03  0.60002796271E+03 0.  0.
        -24    2    4    4    0    0  0.31631820655E+03  0.27777841954E+03 -0.30346805263E+03  0.52506877592E+03  0.79914343634E+02 0.  0.
         24    2    4    4    0    0 -0.76836837053E+02 -0.16463352492E+03 -0.34004511441E+03  0.39378695035E+03  0.80183448280E+02 0.  0.
         13    1    3    3    0    0 -0.91921250868E+02 -0.63115469468E+01  0.39456463400E+01  0.92222123761E+02  0.00000000000E+00 0. -1.
        -14    1    3    3    0    0 -0.14756011863E+03 -0.10683334768E+03 -0.41252994413E+02  0.18678640832E+03  0.00000000000E+00 0.  1.
         13    1    5    5    0    0  0.17366037898E+03  0.16083044762E+03 -0.21790105130E+03  0.32172228438E+03  0.00000000000E+00 0. -1.
        -14    1    5    5    0    0  0.14265782757E+03  0.11694797193E+03 -0.85567001327E+02  0.20334649154E+03  0.00000000000E+00 0.  1.
          2    1    6    6  502    0 -0.47271264621E+01 -0.77132344488E+02 -0.19449518672E+03  0.20928478671E+03  0.00000000000E+00 0. -1.
         -1    1    6    6    0  502 -0.72109710591E+02 -0.87501180431E+02 -0.14554992769E+03  0.18450216364E+03  0.00000000000E+00 0.  1.
<mgrwt>
<rscale>  0 0.44306793E+03</rscale>
<asrwt>0</asrwt>
<pdfrwt beam="1">  1        1 0.14451421E+00 0.44306793E+03</pdfrwt>
<pdfrwt beam="2">  1       -2 0.39772596E-01 0.44306793E+03</pdfrwt>
<totfact> 0.92869909E+01</totfact>
</mgrwt>
</event>
<event>
12    3  0.2212098E-007  0.1557970E+04  0.7818608E-02  0.8846793E-01
          1   -1    0    0  501    0  0.00000000000E+00  0.00000000000E+00  0.21326482383E+04  0.21326482383E+04  0.00000000000E+00 0. -1.
         -2   -1    0    0    0  501 -0.00000000000E+00 -0.00000000000E+00 -0.13960134030E+04  0.13960134030E+04  0.00000000000E+00 0.  1.
        -24    2    1    2    0    0 -0.13172336938E+04 -0.82720062554E+03  0.98548471249E+03  0.18430308709E+04  0.78849181578E+02 0.  0.
    5000000    2    1    2    0    0  0.13172336938E+04  0.82720062554E+03 -0.24884987717E+03  0.16856307703E+04  0.60004945915E+03 0.  0.
        -24    2    4    4    0    0  0.96354299895E+03  0.56300036430E+03 -0.43379185538E+03  0.11999447708E+04  0.79420136982E+02 0.  0.
         24    2    4    4    0    0  0.35369069490E+03  0.26420026124E+03  0.18494197820E+03  0.48568599954E+03  0.82392166764E+02 0.  0.
         11    1    3    3    0    0 -0.40152384861E+03 -0.23364019483E+03  0.25620152117E+03  0.53051706956E+03  0.00000000000E+00 0. -1.
        -12    1    3    3    0    0 -0.91570984524E+03 -0.59356043071E+03  0.72928319132E+03  0.13125138013E+04  0.00000000000E+00 0.  1.
         13    1    5    5    0    0  0.44332856474E+03  0.22004099403E+03 -0.17002333523E+03  0.52332226199E+03  0.00000000000E+00 0. -1.
        -14    1    5    5    0    0  0.52021443421E+03  0.34295937027E+03 -0.26376852015E+03  0.67662250881E+03  0.00000000000E+00 0.  1.
          4    1    6    6  502    0  0.23309895367E+03  0.18791728569E+03  0.84242763754E+02  0.31103837658E+03  0.00000000000E+00 0. -1.
         -3    1    6    6    0  502  0.12059174124E+03  0.76282975551E+02  0.10069921445E+03  0.17464762296E+03  0.00000000000E+00 0.  1.
<mgrwt>
<rscale>  0 0.15579698E+04</rscale>
<asrwt>0</asrwt>
<pdfrwt beam="1">  1        1 0.32809973E+00 0.15579698E+04</pdfrwt>
<pdfrwt beam="2">  1       -2 0.21477129E+00 0.15579698E+04</pdfrwt>
<totfact> 0.21181481E-01</totfact>
</mgrwt>
</event>
<event>
12    3  0.2212098E-007  0.2507283E+03  0.7818608E-02  0.1112845E+00
          1   -1    0    0  501    0  0.00000000000E+00  0.00000000000E+00  0.43650981727E+03  0.43650981727E+03  0.00000000000E+00 0. -1.
         -2   -1    0    0    0  501 -0.00000000000E+00 -0.00000000000E+00 -0.45382997044E+03  0.45382997044E+03  0.00000000000E+00 0.  1.
        -24    2    1    2    0    0 -0.27678188910E+02 -0.18981988901E+03  0.12810461063E+03  0.24403685717E+03  0.79658797307E+02 0.  0.
    5000000    2    1    2    0    0  0.27678188910E+02  0.18981988901E+03 -0.14542476380E+03  0.64630293053E+03  0.59980117012E+03 0.  0.
        -24    2    4    4    0    0 -0.78517288486E+02  0.54657237599E+02  0.20941553666E+03  0.24410930174E+03  0.81130179285E+02 0.  0.
         24    2    4    4    0    0  0.10619547740E+03  0.13516265141E+03 -0.35484030046E+03  0.40219362879E+03  0.79382960716E+02 0.  0.
         11    1    5    5    0    0  0.82435997388E+01 -0.55839298697E+01  0.45099711716E+00  0.99669758625E+01  0.00000000000E+00 0. -1.
        -12    1    5    5    0    0 -0.86760888225E+02  0.60241167469E+02  0.20896453954E+03  0.23414232588E+03  0.00000000000E+00 0.  1.
         13    1    3    3    0    0 -0.44099583467E+02 -0.73660790724E+02  0.79648931127E+02  0.11710951106E+03  0.00000000000E+00 0. -1.
        -14    1    3    3    0    0  0.16421394556E+02 -0.11615909829E+03  0.48455679506E+02  0.12692734611E+03  0.00000000000E+00 0.  1.
          4    1    6    6  502    0  0.11218821266E+03  0.11102242503E+03 -0.26010840300E+03  0.30425080975E+03  0.00000000000E+00 0. -1.
         -3    1    6    6    0  502 -0.59927352677E+01  0.24140226385E+02 -0.94731897457E+02  0.97942819041E+02  0.00000000000E+00 0.  1.
<mgrwt>
<rscale>  0 0.25072826E+03</rscale>
<asrwt>0</asrwt>
<pdfrwt beam="1">  1        1 0.67155357E-01 0.25072826E+03</pdfrwt>
<pdfrwt beam="2">  1       -2 0.69819995E-01 0.25072826E+03</pdfrwt>
<totfact> 0.92397141E+01</totfact>
</mgrwt>
</event>
<event>
12    3  0.2212098E-007  0.6712410E+03  0.7818608E-02  0.9767718E-01
          1   -1    0    0  501    0  0.00000000000E+00  0.00000000000E+00  0.19002637509E+04  0.19002637509E+04  0.00000000000E+00 0. -1.
         -2   -1    0    0    0  501 -0.00000000000E+00 -0.00000000000E+00 -0.31716261126E+03  0.31716261126E+03  0.00000000000E+00 0.  1.
        -24    2    1    2    0    0  0.35682986718E+03  0.54921771434E+03  0.76095041506E+03  0.10071903730E+04  0.80120293118E+02 0.  0.
    5000000    2    1    2    0    0 -0.35682986718E+03 -0.54921771434E+03  0.82215072461E+03  0.12102359892E+04  0.59980970628E+03 0.  0.
        -24    2    4    4    0    0 -0.89360197759E+02 -0.23849576527E+03 -0.22877174712E+02  0.26763758540E+03  0.79000234195E+02 0.  0.
         24    2    4    4    0    0 -0.26746966942E+03 -0.31072194907E+03  0.84502789932E+03  0.94259840381E+03  0.79570387288E+02 0.  0.
         11    1    5    5    0    0 -0.24153860755E+02 -0.55986973460E+01 -0.14308232773E+01  0.24835491874E+02  0.00000000000E+00 0. -1.
        -12    1    5    5    0    0 -0.65206337004E+02 -0.23289706792E+03 -0.21446351435E+02  0.24280209353E+03  0.00000000000E+00 0.  1.
         11    1    3    3    0    0  0.33310370094E+03  0.46661718635E+03  0.64698372594E+03  0.86445220562E+03  0.00000000000E+00 0. -1.
        -12    1    3    3    0    0  0.23726166242E+02  0.82600527991E+02  0.11396668912E+03  0.14273816735E+03  0.00000000000E+00 0.  1.
          4    1    6    6  502    0 -0.94407908986E+02 -0.59762507274E+02  0.19793909713E+03  0.22729781505E+03  0.00000000000E+00 0. -1.
         -1    1    6    6    0  502 -0.17306176044E+03 -0.25095944180E+03  0.64708880219E+03  0.71530058876E+03  0.00000000000E+00 0.  1.
<mgrwt>
<rscale>  0 0.67124103E+03</rscale>
<asrwt>0</asrwt>
<pdfrwt beam="1">  1        1 0.29234826E+00 0.67124103E+03</pdfrwt>
<pdfrwt beam="2">  1       -2 0.48794249E-01 0.67124103E+03</pdfrwt>
<totfact> 0.12780804E+01</totfact>
</mgrwt>
</event>
<event>
12    3  0.2555143E-007  0.9363060E+03  0.7818608E-02  0.9381301E-01
          1   -1    0    0  501    0  0.00000000000E+00  0.00000000000E+00  0.10232898295E+04  0.10232898295E+04  0.00000000000E+00 0. -1.
         -2   -1    0    0    0  501 -0.00000000000E+00 -0.00000000000E+00 -0.94179564757E+03  0.94179564757E+03  0.00000000000E+00 0.  1.
        -24    2    1    2    0    0 -0.76667932877E+03  0.36389414163E+03 -0.22466486611E+03  0.88161635912E+03  0.80975077175E+02 0.  0.
    5000000    2    1    2    0    0  0.76667932877E+03 -0.36389414163E+03  0.30615904802E+03  0.10834691179E+04  0.59996318833E+03 0.  0.
        -24    2    4    4    0    0  0.65159188246E+03 -0.26348480234E+02  0.10108755737E+03  0.66429479189E+03  0.76175144099E+02 0.  0.
         24    2    4    4    0    0  0.11508744631E+03 -0.33754566139E+03  0.20507149065E+03  0.41917432604E+03  0.80440074030E+02 0.  0.
         11    1    5    5    0    0  0.27431529537E+03  0.24850635117E+02  0.31217391048E+02  0.27720202172E+03  0.00000000000E+00 0. -1.
        -12    1    5    5    0    0  0.37727658709E+03 -0.51199115351E+02  0.69870166318E+02  0.38709277017E+03  0.00000000000E+00 0.  1.
         13    1    3    3    0    0 -0.53189632710E+03  0.21037258261E+03 -0.15137982893E+03  0.59168080829E+03  0.00000000000E+00 0. -1.
        -14    1    3    3    0    0 -0.23478300168E+03  0.15352155902E+03 -0.73285037177E+02  0.28993555083E+03  0.00000000000E+00 0.  1.
          4    1    6    6  502    0  0.18347511990E+02 -0.16580426747E+03  0.74220649869E+02  0.18258255988E+03  0.00000000000E+00 0. -1.
         -3    1    6    6    0  502  0.96739934321E+02 -0.17174139393E+03  0.13085084078E+03  0.23659176616E+03  0.00000000000E+00 0.  1.
<mgrwt>
<rscale>  0 0.93630603E+03</rscale>
<asrwt>0</asrwt>
<pdfrwt beam="1">  1        1 0.15742920E+00 0.93630603E+03</pdfrwt>
<pdfrwt beam="2">  1       -2 0.14489164E+00 0.93630603E+03</pdfrwt>
<totfact> 0.41890679E+00</totfact>
</mgrwt>
</event>
<event>
12    3  0.2212098E-007  0.7532952E+03  0.7818608E-02  0.9630195E-01
          1   -1    0    0  501    0  0.00000000000E+00  0.00000000000E+00  0.64339092430E+03  0.64339092430E+03  0.00000000000E+00 0. -1.
         -2   -1    0    0    0  501 -0.00000000000E+00 -0.00000000000E+00 -0.11031324419E+04  0.11031324419E+04  0.00000000000E+00 0.  1.
        -24    2    1    2    0    0 -0.55403172407E+03  0.41336058125E+03  0.51742697239E+02  0.69769700030E+03  0.79282255879E+02 0.  0.
    5000000    2    1    2    0    0  0.55403172407E+03 -0.41336058125E+03 -0.51148421481E+03  0.10488263659E+04  0.60050189204E+03 0.  0.
        -24    2    4    4    0    0  0.56787774151E+03 -0.21900803613E+03 -0.15204708603E+03  0.63245155840E+03  0.80168623329E+02 0.  0.
         24    2    4    4    0    0 -0.13846017437E+02 -0.19435254513E+03 -0.35943712878E+03  0.41637480747E+03  0.78792809034E+02 0.  0.
         11    1    3    3    0    0 -0.40751754630E+03  0.27331833922E+03  0.10128312165E+02  0.49079124667E+03  0.00000000000E+00 0. -1.
        -12    1    3    3    0    0 -0.14651417777E+03  0.14004224203E+03  0.41614385074E+02  0.20690575363E+03  0.00000000000E+00 0.  1.
         11    1    5    5    0    0  0.11881833661E+03 -0.73835846804E+02 -0.56863726930E+02  0.15100666485E+03  0.00000000000E+00 0. -1.
        -12    1    5    5    0    0  0.44905940490E+03 -0.14517218932E+03 -0.95183359102E+02  0.48144489355E+03  0.00000000000E+00 0.  1.
          2    1    6    6  502    0  0.17533292926E+02 -0.11008095962E+03 -0.25660529274E+03  0.27977046001E+03  0.00000000000E+00 0. -1.
         -1    1    6    6    0  502 -0.31379310363E+02 -0.84271585503E+02 -0.10283183604E+03  0.13660434746E+03  0.00000000000E+00 0.  1.
<mgrwt>
<rscale>  0 0.75329516E+03</rscale>
<asrwt>0</asrwt>
<pdfrwt beam="1">  1        1 0.98983220E-01 0.75329516E+03</pdfrwt>
<pdfrwt beam="2">  1       -2 0.16971268E+00 0.75329516E+03</pdfrwt>
<totfact> 0.59288602E+00</totfact>
</mgrwt>
</event>
<event>
12    3  0.2212098E-007  0.7347026E+03  0.7818608E-02  0.9659660E-01
         -2   -1    0    0    0  501 -0.00000000000E+00  0.00000000000E+00  0.17839094644E+04  0.17839094644E+04  0.00000000000E+00 0.  1.
          1   -1    0    0  501    0  0.00000000000E+00 -0.00000000000E+00 -0.39523582033E+03  0.39523582033E+03  0.00000000000E+00 0. -1.
        -24    2    1    2    0    0  0.64102925861E+03  0.30890409234E+03  0.81017101358E+03  0.10832151463E+04  0.10313938788E+03 0.  0.
    5000000    2    1    2    0    0 -0.64102925861E+03 -0.30890409234E+03  0.57850263045E+03  0.10959301384E+04  0.60004776984E+03 0.  0.
        -24    2    4    4    0    0 -0.59162356079E+03 -0.19018028462E+03  0.15317293245E+03  0.64479702364E+03  0.78193836878E+02 0.  0.
         24    2    4    4    0    0 -0.49405697815E+02 -0.11872380772E+03  0.42532969800E+03  0.45113311472E+03  0.77970954208E+02 0.  0.
         13    1    3    3    0    0  0.32069402558E+03  0.11356471015E+03  0.33135032591E+03  0.47490487459E+03  0.00000000000E+00 0. -1.
        -14    1    3    3    0    0  0.32033523303E+03  0.19533938219E+03  0.47882068767E+03  0.60831027173E+03  0.00000000000E+00 0.  1.
         13    1    5    5    0    0 -0.14262409633E+03 -0.76191524868E+02  0.58659948464E+02  0.17201096148E+03  0.00000000000E+00 0. -1.
        -14    1    5    5    0    0 -0.44899946446E+03 -0.11398875975E+03  0.94512983985E+02  0.47278606216E+03  0.00000000000E+00 0.  1.
          2    1    6    6  502    0 -0.21608840142E+02 -0.38421854566E+02  0.51605923596E+02  0.67870112942E+02  0.00000000000E+00 0. -1.
         -1    1    6    6    0  502 -0.27796857674E+02 -0.80301953149E+02  0.37372377441E+03  0.38326300178E+03  0.00000000000E+00 0.  1.
<mgrwt>
<rscale>  0 0.73470262E+03</rscale>
<asrwt>0</asrwt>
<pdfrwt beam="1">  1        1 0.60805512E-01 0.73470262E+03</pdfrwt>
<pdfrwt beam="2">  1       -2 0.27444760E+00 0.73470262E+03</pdfrwt>
<totfact> 0.25283869E+00</totfact>
</mgrwt>
</event>
<event>
12    3  0.2367004E-007  0.1000824E+04  0.7818608E-02  0.9307642E-01
          1   -1    0    0  501    0  0.00000000000E+00  0.00000000000E+00  0.13085987594E+04  0.13085987594E+04  0.00000000000E+00 0. -1.
         -2   -1    0    0    0  501 -0.00000000000E+00 -0.00000000000E+00 -0.82551439997E+03  0.82551439997E+03  0.00000000000E+00 0.  1.
        -24    2    1    2    0    0  0.36092370313E+03  0.84823080156E+03  0.46189903561E+03  0.10340491523E+04  0.78393355000E+02 0.  0.
    5000000    2    1    2    0    0 -0.36092370313E+03 -0.84823080156E+03  0.21185323806E+02  0.11000640071E+04  0.59994215511E+03 0.  0.
        -24    2    4    4    0    0  0.13486800163E+03 -0.32692520883E+03  0.89444304149E+02  0.37309504951E+03  0.78295353585E+02 0.  0.
         24    2    4    4    0    0 -0.49579170475E+03 -0.52130559273E+03 -0.68258980343E+02  0.72696895755E+03  0.79092612309E+02 0.  0.
         11    1    3    3    0    0  0.20813076566E+03  0.43794228299E+03  0.20508686623E+03  0.52647172910E+03  0.00000000000E+00 0. -1.
        -12    1    3    3    0    0  0.15279293747E+03  0.41028851856E+03  0.25681216939E+03  0.50757742321E+03  0.00000000000E+00 0.  1.
         13    1    5    5    0    0  0.80806057135E+02 -0.12955565764E+03  0.81762453970E+01  0.15290892153E+03  0.00000000000E+00 0. -1.
        -14    1    5    5    0    0  0.54061944491E+02 -0.19736955119E+03  0.81268058752E+02  0.22018612797E+03  0.00000000000E+00 0.  1.
          2    1    6    6  502    0 -0.73665990913E+02 -0.50668703827E+02 -0.27077188587E+02  0.93419322982E+02  0.00000000000E+00 0. -1.
         -1    1    6    6    0  502 -0.42212571384E+03 -0.47063688890E+03 -0.41181791756E+02  0.63354963456E+03  0.00000000000E+00 0.  1.
<mgrwt>
<rscale>  0 0.10008238E+04</rscale>
<asrwt>0</asrwt>
<pdfrwt beam="1">  1        1 0.20132289E+00 0.10008238E+04</pdfrwt>
<pdfrwt beam="2">  1       -2 0.12700222E+00 0.10008238E+04</pdfrwt>
<totfact> 0.35954707E+00</totfact>
</mgrwt>
</event>
<event>
12    3  0.2212098E-007  0.1224785E+04  0.7818608E-02  0.9091435E-01
         -2   -1    0    0    0  501 -0.00000000000E+00  0.00000000000E+00  0.10868678041E+04  0.10868678041E+04  0.00000000000E+00 0.  1.
          1   -1    0    0  501    0  0.00000000000E+00 -0.00000000000E+00 -0.17107041434E+04  0.17107041434E+04  0.00000000000E+00 0. -1.
        -24    2    1    2    0    0 -0.35847162160E+03 -0.11619996797E+04 -0.75636710608E+03  0.14351496289E+04  0.93904733490E+02 0.  0.
    5000000    2    1    2    0    0  0.35847162160E+03  0.11619996797E+04  0.13253076680E+03  0.13624223187E+04  0.59990416839E+03 0.  0.
        -24    2    4    4    0    0  0.11739128781E+03  0.23976733231E+03 -0.20735618289E+03  0.34719886393E+03  0.79255135074E+02 0.  0.
         24    2    4    4    0    0  0.24108033379E+03  0.92223234739E+03  0.33988694969E+03  0.10152234548E+04  0.80766915577E+02 0.  0.
         11    1    3    3    0    0 -0.30356458741E+03 -0.10465624066E+04 -0.70196316002E+03  0.12962239805E+04  0.00000000000E+00 0. -1.
        -12    1    3    3    0    0 -0.54907034187E+02 -0.11543727308E+03 -0.54403946061E+02  0.13892564833E+03  0.00000000000E+00 0.  1.
         11    1    5    5    0    0 -0.10293596907E+02  0.36103783544E+02 -0.35831200202E+02  0.51897169782E+02  0.00000000000E+00 0. -1.
        -12    1    5    5    0    0  0.12768488472E+03  0.20366354876E+03 -0.17152498269E+03  0.29530169415E+03  0.00000000000E+00 0.  1.
          2    1    6    6  502    0  0.91240275659E+02  0.27395292032E+03  0.13705759880E+03  0.31962442936E+03  0.00000000000E+00 0. -1.
         -1    1    6    6    0  502  0.14984005813E+03  0.64827942707E+03  0.20282935089E+03  0.69559902542E+03  0.00000000000E+00 0.  1.
<mgrwt>
<rscale>  0 0.12247847E+04</rscale>
<asrwt>0</asrwt>
<pdfrwt beam="1">  1        1 0.26318525E+00 0.12247847E+04</pdfrwt>
<pdfrwt beam="2">  1       -2 0.16721043E+00 0.12247847E+04</pdfrwt>
<totfact> 0.89198803E-01</totfact>
</mgrwt>
</event>
<event>
12    3  0.2212098E-007  0.1047432E+04  0.7818608E-02  0.9258000E-01
          1   -1    0    0  501    0  0.00000000000E+00  0.00000000000E+00  0.21100611202E+04  0.21100611202E+04  0.00000000000E+00 0. -1.
         -2   -1    0    0    0  501 -0.00000000000E+00 -0.00000000000E+00 -0.56039882817E+03  0.56039882817E+03  0.00000000000E+00 0.  1.
        -24    2    1    2    0    0 -0.48267132076E+03  0.84792631504E+03  0.43040342111E+03  0.10692683623E+04  0.78339555930E+02 0.  0.
    5000000    2    1    2    0    0  0.48267132076E+03 -0.84792631504E+03  0.11192588709E+04  0.16011915861E+04  0.59926908455E+03 0.  0.
        -24    2    4    4    0    0  0.57589640271E+03 -0.55323977742E+03  0.94066723656E+03  0.12353986972E+04  0.60201105459E+02 0.  0.
         24    2    4    4    0    0 -0.93225081944E+02 -0.29468653762E+03  0.17859163439E+03  0.36579288896E+03  0.79864850711E+02 0.  0.
         11    1    5    5    0    0  0.27588619366E+03 -0.29260012811E+03  0.43824839250E+03  0.59480221953E+03  0.00000000000E+00 0. -1.
        -12    1    5    5    0    0  0.30001020904E+03 -0.26063964931E+03  0.50241884405E+03  0.64059647765E+03  0.00000000000E+00 0.  1.
         13    1    3    3    0    0 -0.20661723680E+03  0.32414684417E+03  0.20582025597E+03  0.43603192187E+03  0.00000000000E+00 0. -1.
        -14    1    3    3    0    0 -0.27605408397E+03  0.52377947087E+03  0.22458316514E+03  0.63323644040E+03  0.00000000000E+00 0.  1.
          2    1    6    6  502    0  0.37755958008E+01 -0.11128246334E+03  0.53600560552E+02  0.12357613792E+03  0.00000000000E+00 0. -1.
         -1    1    6    6    0  502 -0.97000677745E+02 -0.18340407428E+03  0.12499107384E+03  0.24221675104E+03  0.00000000000E+00 0.  1.
<mgrwt>
<rscale>  0 0.10474317E+04</rscale>
<asrwt>0</asrwt>
<pdfrwt beam="1">  1        1 0.32462478E+00 0.10474317E+04</pdfrwt>
<pdfrwt beam="2">  1       -2 0.86215206E-01 0.10474317E+04</pdfrwt>
<totfact> 0.25748692E+00</totfact>
</mgrwt>
</event>
<event>
12    3  0.2212098E-007  0.5842184E+03  0.7818608E-02  0.9938700E-01
          1   -1    0    0  501    0  0.00000000000E+00  0.00000000000E+00  0.94110346824E+03  0.94110346824E+03  0.00000000000E+00 0. -1.
         -2   -1    0    0    0  501 -0.00000000000E+00 -0.00000000000E+00 -0.40978274334E+03  0.40978274334E+03  0.00000000000E+00 0.  1.
        -24    2    1    2    0    0 -0.20327846902E+03  0.42545758819E+03  0.22600720479E+03  0.52891161455E+03  0.79573513619E+02 0.  0.
    5000000    2    1    2    0    0  0.20327846902E+03 -0.42545758819E+03  0.30531352012E+03  0.82197459703E+03  0.60007465976E+03 0.  0.
        -24    2    4    4    0    0  0.35973107599E+03 -0.18977021977E+03  0.23287568047E+02  0.41487814842E+03  0.78500852675E+02 0.  0.
         24    2    4    4    0    0 -0.15645260697E+03 -0.23568736842E+03  0.28202595207E+03  0.40709644861E+03  0.78504311797E+02 0.  0.
         11    1    3    3    0    0 -0.10118819376E+03  0.29214507456E+03  0.12912425153E+03  0.33505352928E+03  0.00000000000E+00 0. -1.
        -12    1    3    3    0    0 -0.10209027525E+03  0.13331251363E+03  0.96882953262E+02  0.19385808527E+03  0.00000000000E+00 0.  1.
         11    1    5    5    0    0  0.10590640784E+03 -0.41280661969E+02  0.39573963204E+02  0.12035929062E+03  0.00000000000E+00 0. -1.
        -12    1    5    5    0    0  0.25382466815E+03 -0.14848955780E+03 -0.16286395157E+02  0.29451885781E+03  0.00000000000E+00 0.  1.
          2    1    6    6  502    0 -0.39094386246E+02 -0.75710659729E+02  0.13699931567E+03  0.16133594617E+03  0.00000000000E+00 0. -1.
         -1    1    6    6    0  502 -0.11735822072E+03 -0.15997670869E+03  0.14502663640E+03  0.24576050244E+03  0.00000000000E+00 0.  1.
<mgrwt>
<rscale>  0 0.58421837E+03</rscale>
<asrwt>0</asrwt>
<pdfrwt beam="1">  1        1 0.14478515E+00 0.58421837E+03</pdfrwt>
<pdfrwt beam="2">  1       -2 0.63043499E-01 0.58421837E+03</pdfrwt>
<totfact> 0.35793130E+01</totfact>
</mgrwt>
</event>
<event>
12    3  0.2594004E-007  0.7003437E+03  0.7818608E-02  0.9716645E-01
         -2   -1    0    0    0  501 -0.00000000000E+00  0.00000000000E+00  0.90216743492E+03  0.90216743492E+03  0.00000000000E+00 0.  1.
          1   -1    0    0  501    0  0.00000000000E+00 -0.00000000000E+00 -0.13329583050E+04  0.13329583050E+04  0.00000000000E+00 0. -1.
        -24    2    1    2    0    0  0.46742209374E+03 -0.47797478130E+03 -0.97499625475E+03  0.11848401217E+04  0.79278697673E+02 0.  0.
    5000000    2    1    2    0    0 -0.46742209374E+03  0.47797478130E+03  0.54420538465E+03  0.10502856183E+04  0.59999756163E+03 0.  0.
        -24    2    4    4    0    0 -0.50664648664E+02 -0.19365594164E+01 -0.10222619988E+03  0.14018798322E+03  0.81435973683E+02 0.  0.
         24    2    4    4    0    0 -0.41675744508E+03  0.47991134072E+03  0.64643158453E+03  0.91009763504E+03  0.80014054078E+02 0.  0.
         13    1    5    5    0    0 -0.51528061820E+01 -0.36868224722E+02 -0.51904224724E+02  0.63873828365E+02  0.00000000000E+00 0. -1.
        -14    1    5    5    0    0 -0.45511842482E+02  0.34931665306E+02 -0.50321975160E+02  0.76314154855E+02  0.00000000000E+00 0.  1.
         13    1    3    3    0    0  0.18616019861E+03 -0.15599757531E+03 -0.40641493857E+03  0.47345957097E+03  0.00000000000E+00 0. -1.
        -14    1    3    3    0    0  0.28126189513E+03 -0.32197720599E+03 -0.56858131618E+03  0.71138055072E+03  0.00000000000E+00 0.  1.
          4    1    6    6  502    0 -0.16368093076E+03  0.18137321861E+03  0.30451029928E+03  0.39040263049E+03  0.00000000000E+00 0. -1.
         -3    1    6    6    0  502 -0.25307651432E+03  0.29853812211E+03  0.34192128525E+03  0.51969500456E+03  0.00000000000E+00 0.  1.
<mgrwt>
<rscale>  0 0.70034370E+03</rscale>
<asrwt>0</asrwt>
<pdfrwt beam="1">  1        1 0.20507051E+00 0.70034370E+03</pdfrwt>
<pdfrwt beam="2">  1       -2 0.13879499E+00 0.70034370E+03</pdfrwt>
<totfact> 0.28697500E+00</totfact>
</mgrwt>
</event>
<event>
12    3  0.2212098E-007  0.8131238E+03  0.7818608E-02  0.9541213E-01
         -4   -1    0    0    0  501 -0.00000000000E+00  0.00000000000E+00  0.12722487870E+04  0.12722487870E+04  0.00000000000E+00 0.  1.
          3   -1    0    0  501    0  0.00000000000E+00 -0.00000000000E+00 -0.63003930778E+03  0.63003930778E+03  0.00000000000E+00 0. -1.
        -24    2    1    2    0    0  0.31328387266E+03 -0.63491826506E+03  0.66433025230E+03  0.97396274011E+03  0.77464487596E+02 0.  0.
    5000000    2    1    2    0    0 -0.31328387266E+03  0.63491826506E+03 -0.22120773065E+02  0.92832535469E+03  0.60002553894E+03 0.  0.
        -24    2    4    4    0    0 -0.39119469558E+02  0.62891326612E+03 -0.73192253560E+02  0.63732372843E+03  0.61336772310E+02 0.  0.
         24    2    4    4    0    0 -0.27416440310E+03  0.60049989409E+01  0.51071480495E+02  0.29100162626E+03  0.82894332885E+02 0.  0.
         13    1    5    5    0    0 -0.40189037165E+02  0.50928733004E+03 -0.36411583953E+02  0.51216652242E+03  0.00000000000E+00 0. -1.
        -14    1    5    5    0    0  0.10695676068E+01  0.11962593608E+03 -0.36780669607E+02  0.12515720600E+03  0.00000000000E+00 0.  1.
         13    1    3    3    0    0  0.24908696447E+03 -0.44188394162E+03  0.50255401675E+03  0.71404920943E+03  0.00000000000E+00 0. -1.
        -14    1    3    3    0    0  0.64196908190E+02 -0.19303432344E+03  0.16177623555E+03  0.25991353069E+03  0.00000000000E+00 0.  1.
          2    1    6    6  502    0 -0.13845915107E+03 -0.35896735289E+02  0.11150242863E+02  0.14347069399E+03  0.00000000000E+00 0. -1.
         -1    1    6    6    0  502 -0.13570525204E+03  0.41901734229E+02  0.39921237632E+02  0.14753093227E+03  0.00000000000E+00 0.  1.
<mgrwt>
<rscale>  0 0.81312375E+03</rscale>
<asrwt>0</asrwt>
<pdfrwt beam="1">  1        3 0.96929125E-01 0.81312375E+03</pdfrwt>
<pdfrwt beam="2">  1       -4 0.19573058E+00 0.81312375E+03</pdfrwt>
<totfact> 0.29731686E-01</totfact>
</mgrwt>
</event>
<event>
12    3  0.2212098E-007  0.4066078E+03  0.7818608E-02  0.1041515E+00
         -2   -1    0    0    0  501 -0.00000000000E+00  0.00000000000E+00  0.52355349388E+03  0.52355349388E+03  0.00000000000E+00 0.  1.
          1   -1    0    0  501    0  0.00000000000E+00 -0.00000000000E+00 -0.60858668297E+03  0.60858668297E+03  0.00000000000E+00 0. -1.
        -24    2    1    2    0    0  0.30187373939E+03 -0.84616603083E+02 -0.27909473142E+03  0.42775038697E+03  0.82394176938E+02 0.  0.
    5000000    2    1    2    0    0 -0.30187373939E+03  0.84616603083E+02  0.19406154233E+03  0.70438978988E+03  0.60018111419E+03 0.  0.
        -24    2    4    4    0    0  0.54035610236E+02 -0.79094147017E+02 -0.13753101293E+03  0.18578356955E+03  0.80156246989E+02 0.  0.
         24    2    4    4    0    0 -0.35590934963E+03  0.16371075010E+03  0.33159255525E+03  0.51860622034E+03  0.74337838420E+02 0.  0.
         11    1    5    5    0    0  0.27604816400E+02 -0.65392433485E+02 -0.35237176774E+02  0.79245535348E+02  0.00000000000E+00 0. -1.
        -12    1    5    5    0    0  0.26430793836E+02 -0.13701713532E+02 -0.10229383615E+03  0.10653803420E+03  0.00000000000E+00 0.  1.
         11    1    3    3    0    0  0.13792107568E+03 -0.48515793640E+01 -0.15313248949E+03  0.20614393097E+03  0.00000000000E+00 0. -1.
        -12    1    3    3    0    0  0.16395266371E+03 -0.79765023719E+02 -0.12596224193E+03  0.22160645599E+03  0.00000000000E+00 0.  1.
          2    1    6    6  502    0 -0.13718821369E+03  0.53957126497E+02  0.17162710475E+03  0.22624729956E+03  0.00000000000E+00 0. -1.
         -1    1    6    6    0  502 -0.21872113594E+03  0.10975362360E+03  0.15996545050E+03  0.29235892077E+03  0.00000000000E+00 0.  1.
<mgrwt>
<rscale>  0 0.40660783E+03</rscale>
<asrwt>0</asrwt>
<pdfrwt beam="1">  1        1 0.93628721E-01 0.40660783E+03</pdfrwt>
<pdfrwt beam="2">  1       -2 0.80546691E-01 0.40660783E+03</pdfrwt>
<totfact> 0.42156936E+01</totfact>
</mgrwt>
</event>
<event>
12    3  0.2212098E-007  0.5947756E+03  0.7818608E-02  0.9916305E-01
          1   -1    0    0  501    0  0.00000000000E+00  0.00000000000E+00  0.74313445387E+03  0.74313445387E+03  0.00000000000E+00 0. -1.
         -2   -1    0    0    0  501 -0.00000000000E+00 -0.00000000000E+00 -0.65005783564E+03  0.65005783564E+03  0.00000000000E+00 0.  1.
        -24    2    1    2    0    0 -0.46937071189E+03 -0.65598019011E+02 -0.26502195591E+03  0.54892810713E+03  0.80457842425E+02 0.  0.
    5000000    2    1    2    0    0  0.46937071189E+03  0.65598019011E+02  0.35809857413E+03  0.84426418238E+03  0.59994621057E+03 0.  0.
        -24    2    4    4    0    0  0.11140370437E+03  0.26185843040E+03  0.30578189622E+03  0.42473608591E+03  0.76925624470E+02 0.  0.
         24    2    4    4    0    0  0.35796700752E+03 -0.19626041139E+03  0.52316677913E+02  0.41952809647E+03  0.81291213493E+02 0.  0.
         11    1    3    3    0    0 -0.41444120335E+03 -0.30768084419E+02 -0.23276274398E+03  0.47632623383E+03  0.00000000000E+00 0. -1.
        -12    1    3    3    0    0 -0.54929508536E+02 -0.34829934592E+02 -0.32259211930E+02  0.72601873296E+02  0.00000000000E+00 0.  1.
         13    1    5    5    0    0  0.10339988127E+03  0.15148733199E+03  0.20482805175E+03  0.27494449983E+03  0.00000000000E+00 0. -1.
        -14    1    5    5    0    0  0.80038230947E+01  0.11037109841E+03  0.10095384447E+03  0.14979158608E+03  0.00000000000E+00 0.  1.
          2    1    6    6  502    0  0.15894772449E+03 -0.12922334452E+03  0.43012138493E+02  0.20931578045E+03  0.00000000000E+00 0. -1.
         -1    1    6    6    0  502  0.19901928303E+03 -0.67037066870E+02  0.93045394196E+01  0.21021231602E+03  0.00000000000E+00 0.  1.
<mgrwt>
<rscale>  0 0.59477556E+03</rscale>
<asrwt>0</asrwt>
<pdfrwt beam="1">  1        1 0.11432838E+00 0.59477556E+03</pdfrwt>
<pdfrwt beam="2">  1       -2 0.10000890E+00 0.59477556E+03</pdfrwt>
<totfact> 0.18655892E+01</totfact>
</mgrwt>
</event>
<event>
12    3  0.2212098E-007  0.1257334E+04  0.7818608E-02  0.9064101E-01
          1   -1    0    0  501    0  0.00000000000E+00  0.00000000000E+00  0.16094853766E+04  0.16094853766E+04  0.00000000000E+00 0. -1.
         -2   -1    0    0    0  501 -0.00000000000E+00 -0.00000000000E+00 -0.20132924990E+04  0.20132924990E+04  0.00000000000E+00 0.  1.
        -24    2    1    2    0    0  0.11610491230E+04 -0.26608520413E+03  0.10925827971E+04  0.16182572468E+04  0.78631714626E+02 0.  0.
    5000000    2    1    2    0    0 -0.11610491230E+04  0.26608520413E+03 -0.14963899194E+04  0.20045206288E+04  0.60006979479E+03 0.  0.
        -24    2    4    4    0    0 -0.56191042018E+03 -0.16225176017E+03 -0.72596129817E+03  0.93567996225E+03  0.80051429329E+02 0.  0.
         24    2    4    4    0    0 -0.59913870277E+03  0.42833696430E+03 -0.77042862125E+03  0.10688406666E+04  0.80127210692E+02 0.  0.
         11    1    5    5    0    0 -0.35496512467E+03 -0.10964130754E+03 -0.39910408711E+03  0.54525730477E+03  0.00000000000E+00 0. -1.
        -12    1    5    5    0    0 -0.20694529551E+03 -0.52610452631E+02 -0.32685721106E+03  0.39042265749E+03  0.00000000000E+00 0.  1.
         13    1    3    3    0    0  0.87740565899E+03 -0.17816025398E+03  0.85453823741E+03  0.12376660962E+04  0.00000000000E+00 0. -1.
        -14    1    3    3    0    0  0.28364346396E+03 -0.87924950147E+02  0.23804455969E+03  0.38059115058E+03  0.00000000000E+00 0.  1.
          4    1    6    6  502    0 -0.95399241800E+02  0.52747355364E+02 -0.79487676276E+02  0.13491326663E+03  0.00000000000E+00 0. -1.
         -3    1    6    6    0  502 -0.50373946097E+03  0.37558960894E+03 -0.69094094498E+03  0.93392739992E+03  0.00000000000E+00 0.  1.
<mgrwt>
<rscale>  0 0.12573342E+04</rscale>
<asrwt>0</asrwt>
<pdfrwt beam="1">  1        1 0.24761313E+00 0.12573342E+04</pdfrwt>
<pdfrwt beam="2">  1       -2 0.30973731E+00 0.12573342E+04</pdfrwt>
<totfact> 0.12983196E-01</totfact>
</mgrwt>
</event>
<event>
12    3  0.2212098E-007  0.6009540E+03  0.7818608E-02  0.9903429E-01
          1   -1    0    0  501    0  0.00000000000E+00  0.00000000000E+00  0.94965310372E+03  0.94965310372E+03  0.00000000000E+00 0. -1.
         -2   -1    0    0    0  501 -0.00000000000E+00 -0.00000000000E+00 -0.52373445853E+03  0.52373445853E+03  0.00000000000E+00 0.  1.
        -24    2    1    2    0    0 -0.46832873495E+03 -0.32005648154E+03  0.26917719869E+03  0.63292241347E+03  0.79790111061E+02 0.  0.
    5000000    2    1    2    0    0  0.46832873495E+03  0.32005648154E+03  0.15674144651E+03  0.84046514878E+03  0.60003819037E+03 0.  0.
        -24    2    4    4    0    0  0.12518649397E+03  0.22980521595E+03  0.33786927208E+03  0.43431870359E+03  0.77427357737E+02 0.  0.
         24    2    4    4    0    0  0.34314224098E+03  0.90251265585E+02 -0.18112782557E+03  0.40614644519E+03  0.79093345229E+02 0.  0.
         11    1    3    3    0    0 -0.35653587976E+03 -0.24595686595E+03  0.24170096711E+03  0.49601609950E+03  0.00000000000E+00 0. -1.
        -12    1    3    3    0    0 -0.11179285520E+03 -0.74099615587E+02  0.27476231578E+02  0.13690631397E+03  0.00000000000E+00 0.  1.
         13    1    5    5    0    0  0.93482671879E+02  0.96065833869E+02  0.18892770259E+03  0.23164915537E+03  0.00000000000E+00 0. -1.
        -14    1    5    5    0    0  0.31703822090E+02  0.13373938208E+03  0.14894156949E+03  0.20266954822E+03  0.00000000000E+00 0.  1.
          2    1    6    6  502    0  0.18476078908E+03  0.85889218989E+01 -0.83139442894E+02  0.20278679870E+03  0.00000000000E+00 0. -1.
         -1    1    6    6    0  502  0.15838145190E+03  0.81662343686E+02 -0.97988382672E+02  0.20335964649E+03  0.00000000000E+00 0.  1.
<mgrwt>
<rscale>  0 0.60095403E+03</rscale>
<asrwt>0</asrwt>
<pdfrwt beam="1">  1        1 0.14610048E+00 0.60095403E+03</pdfrwt>
<pdfrwt beam="2">  1       -2 0.80574532E-01 0.60095403E+03</pdfrwt>
<totfact> 0.20575568E+01</totfact>
</mgrwt>
</event>
<event>
12    3  0.2212098E-007  0.7717245E+03  0.7818608E-02  0.9601871E-01
         -2   -1    0    0    0  501 -0.00000000000E+00  0.00000000000E+00  0.15269892939E+04  0.15269892939E+04  0.00000000000E+00 0.  1.
          1   -1    0    0  501    0  0.00000000000E+00 -0.00000000000E+00 -0.43116137080E+03  0.43116137080E+03  0.00000000000E+00 0. -1.
        -24    2    1    2    0    0 -0.32431097389E+03 -0.61525936661E+03  0.52034668826E+03  0.87425497777E+03  0.99193720498E+02 0.  0.
    5000000    2    1    2    0    0  0.32431097389E+03  0.61525936661E+03  0.57548123482E+03  0.10838956869E+04  0.59994125752E+03 0.  0.
        -24    2    4    4    0    0  0.33581722407E+03  0.14248243719E+03  0.61805111036E+02  0.37851785565E+03  0.79883930820E+02 0.  0.
         24    2    4    4    0    0 -0.11506250179E+02  0.47277692942E+03  0.51367612378E+03  0.70537783126E+03  0.10022128466E+03 0.  0.
         11    1    3    3    0    0 -0.75696585024E+02 -0.24358027456E+03  0.17667513739E+03  0.31028281826E+03  0.00000000000E+00 0. -1.
        -12    1    3    3    0    0 -0.24861438887E+03 -0.37167909205E+03  0.34367155088E+03  0.56397215951E+03  0.00000000000E+00 0.  1.
         13    1    5    5    0    0  0.18901585911E+03  0.56603686617E+02 -0.72682854621E+00  0.19731067030E+03  0.00000000000E+00 0. -1.
        -14    1    5    5    0    0  0.14680136496E+03  0.85878750568E+02  0.62531939583E+02  0.18120718535E+03  0.00000000000E+00 0.  1.
          2    1    6    6  502    0  0.96797691807E+01  0.19856710973E+03  0.28617109539E+03  0.34844869183E+03  0.00000000000E+00 0. -1.
         -1    1    6    6    0  502 -0.21186019360E+02  0.27420981969E+03  0.22750502839E+03  0.35692913943E+03  0.00000000000E+00 0.  1.
<mgrwt>
<rscale>  0 0.77172452E+03</rscale>
<asrwt>0</asrwt>
<pdfrwt beam="1">  1        1 0.66332520E-01 0.77172452E+03</pdfrwt>
<pdfrwt beam="2">  1       -2 0.23492143E+00 0.77172452E+03</pdfrwt>
<totfact> 0.38855514E+00</totfact>
</mgrwt>
</event>
<event>
12    3  0.2212098E-007  0.1130729E+04  0.7818608E-02  0.9175748E-01
         -2   -1    0    0    0  501 -0.00000000000E+00  0.00000000000E+00  0.48298269495E+03  0.48298269495E+03  0.00000000000E+00 0.  1.
          1   -1    0    0  501    0  0.00000000000E+00 -0.00000000000E+00 -0.27624017843E+04  0.27624017843E+04  0.00000000000E+00 0. -1.
        -24    2    1    2    0    0  0.77211331591E+03  0.74144334445E+03 -0.90974562690E+03  0.14063755228E+04  0.66013633325E+02 0.  0.
    5000000    2    1    2    0    0 -0.77211331591E+03 -0.74144334445E+03 -0.13696734624E+04  0.18390089564E+04  0.60004278393E+03 0.  0.
        -24    2    4    4    0    0 -0.44351263470E+03 -0.92886065064E+02 -0.32302988072E+03  0.56209217830E+03  0.79170921766E+02 0.  0.
         24    2    4    4    0    0 -0.32860068121E+03 -0.64855727939E+03 -0.10466435817E+04  0.12769167781E+04  0.80303915353E+02 0.  0.
         11    1    3    3    0    0  0.19859878357E+03  0.21940811405E+03 -0.22407421776E+03  0.37120163309E+03  0.00000000000E+00 0. -1.
        -12    1    3    3    0    0  0.57351453234E+03  0.52203523041E+03 -0.68567140914E+03  0.10351738897E+04  0.00000000000E+00 0.  1.
         13    1    5    5    0    0 -0.18633523112E+03 -0.78724459288E+02 -0.13500021357E+03  0.24319419506E+03  0.00000000000E+00 0. -1.
        -14    1    5    5    0    0 -0.25717740357E+03 -0.14161605776E+02 -0.18802966715E+03  0.31889798324E+03  0.00000000000E+00 0.  1.
          2    1    6    6  502    0 -0.15151335753E+03 -0.22723047799E+03 -0.42925817237E+03  0.50877555580E+03  0.00000000000E+00 0. -1.
         -1    1    6    6    0  502 -0.17708732368E+03 -0.42132680140E+03 -0.61738540931E+03  0.76814122231E+03  0.00000000000E+00 0.  1.
<mgrwt>
<rscale>  0 0.11307291E+04</rscale>
<asrwt>0</asrwt>
<pdfrwt beam="1">  1        1 0.42498490E+00 0.11307291E+04</pdfrwt>
<pdfrwt beam="2">  1       -2 0.74305029E-01 0.11307291E+04</pdfrwt>
<totfact> 0.12706662E+00</totfact>
</mgrwt>
</event>
<event>
12    3  0.2212098E-007  0.1443587E+04  0.7818608E-02  0.8922859E-01
          3   -1    0    0  501    0  0.00000000000E+00  0.00000000000E+00  0.10747395627E+04  0.10747395627E+04  0.00000000000E+00 0. -1.
         -4   -1    0    0    0  501 -0.00000000000E+00 -0.00000000000E+00 -0.23705885925E+04  0.23705885925E+04  0.00000000000E+00 0.  1.
        -24    2    1    2    0    0  0.13366114428E+04  0.41251101931E+03 -0.13171155891E+04  0.19229760753E+04  0.79674469958E+02 0.  0.
    5000000    2    1    2    0    0 -0.13366114428E+04 -0.41251101931E+03  0.21266559305E+02  0.15223520798E+04  0.60033998567E+03 0.  0.
        -24    2    4    4    0    0 -0.93062361194E+03 -0.34032676201E+02  0.15021137756E+03  0.94666259097E+03  0.79925421669E+02 0.  0.
         24    2    4    4    0    0 -0.40598783085E+03 -0.37847834311E+03 -0.12894481826E+03  0.57568948887E+03  0.81973449633E+02 0.  0.
         11    1    3    3    0    0  0.91478284420E+03  0.28595440737E+03 -0.85108107137E+03  0.12817708708E+04  0.00000000000E+00 0. -1.
        -12    1    3    3    0    0  0.42182859859E+03  0.12655661194E+03 -0.46603451776E+03  0.64120520456E+03  0.00000000000E+00 0.  1.
         13    1    5    5    0    0 -0.71841443594E+03 -0.68436370468E+01  0.87742031056E+02  0.72378505176E+03  0.00000000000E+00 0. -1.
        -14    1    5    5    0    0 -0.21220917600E+03 -0.27189039154E+02  0.62469346508E+02  0.22287753921E+03  0.00000000000E+00 0.  1.
          4    1    6    6  502    0 -0.20060411385E+03 -0.20862168406E+03 -0.10584363324E+03  0.30816861010E+03  0.00000000000E+00 0. -1.
         -3    1    6    6    0  502 -0.20538371699E+03 -0.16985665905E+03 -0.23101185022E+02  0.26752087877E+03  0.00000000000E+00 0.  1.
<mgrwt>
<rscale>  0 0.14435868E+04</rscale>
<asrwt>0</asrwt>
<pdfrwt beam="1">  1        3 0.16534455E+00 0.14435868E+04</pdfrwt>
<pdfrwt beam="2">  1       -4 0.36470594E+00 0.14435868E+04</pdfrwt>
<totfact> 0.63138798E-03</totfact>
</mgrwt>
</event>
<event>
12    3  0.2212098E-007  0.7222427E+03  0.7818608E-02  0.9679933E-01
          1   -1    0    0  501    0  0.00000000000E+00  0.00000000000E+00  0.16129014691E+04  0.16129014691E+04  0.00000000000E+00 0. -1.
         -2   -1    0    0    0  501 -0.00000000000E+00 -0.00000000000E+00 -0.39382881922E+03  0.39382881922E+03  0.00000000000E+00 0.  1.
        -24    2    1    2    0    0  0.23839559865E+03 -0.63636734679E+03  0.45870557879E+03  0.82361207679E+03  0.78295488447E+02 0.  0.
    5000000    2    1    2    0    0 -0.23839559865E+03  0.63636734679E+03  0.76036707110E+03  0.11831182115E+04  0.59984561192E+03 0.  0.
        -24    2    4    4    0    0 -0.28083738633E+03  0.29873064044E+03  0.90266924348E+02  0.42731048847E+03  0.79602153372E+02 0.  0.
         24    2    4    4    0    0  0.42441787686E+02  0.33763670635E+03  0.67010014675E+03  0.75580772307E+03  0.80070323810E+02 0.  0.
         13    1    3    3    0    0  0.14787429906E+03 -0.28408284719E+03  0.22010125920E+03  0.38860575998E+03  0.00000000000E+00 0. -1.
        -14    1    3    3    0    0  0.90521299582E+02 -0.35228449960E+03  0.23860431959E+03  0.43500631681E+03  0.00000000000E+00 0.  1.
         13    1    5    5    0    0 -0.15976282028E+03  0.22475219533E+03  0.62077228717E+02  0.28265047386E+03  0.00000000000E+00 0. -1.
        -14    1    5    5    0    0 -0.12107456605E+03  0.73978445117E+02  0.28189695632E+02  0.14466001461E+03  0.00000000000E+00 0.  1.
          4    1    6    6  502    0  0.38498321386E+01  0.19649375893E+03  0.45528235369E+03  0.49588974590E+03  0.00000000000E+00 0. -1.
         -3    1    6    6    0  502  0.38591955548E+02  0.14114294742E+03  0.21481779306E+03  0.25991797717E+03  0.00000000000E+00 0.  1.
<mgrwt>
<rscale>  0 0.72224268E+03</rscale>
<asrwt>0</asrwt>
<pdfrwt beam="1">  1        1 0.24813868E+00 0.72224268E+03</pdfrwt>
<pdfrwt beam="2">  1       -2 0.60589050E-01 0.72224268E+03</pdfrwt>
<totfact> 0.12631359E+01</totfact>
</mgrwt>
</event>
<event>
12    3  0.2212098E-007  0.7265558E+03  0.7818608E-02  0.9672866E-01
          1   -1    0    0  501    0  0.00000000000E+00  0.00000000000E+00  0.17192802205E+04  0.17192802205E+04  0.00000000000E+00 0. -1.
         -2   -1    0    0    0  501 -0.00000000000E+00 -0.00000000000E+00 -0.36629660538E+03  0.36629660538E+03  0.00000000000E+00 0.  1.
        -24    2    1    2    0    0  0.59536416558E+03 -0.32233749172E+03  0.61002152834E+03  0.91472263125E+03  0.78938449846E+02 0.  0.
    5000000    2    1    2    0    0 -0.59536416558E+03  0.32233749172E+03  0.74296208674E+03  0.11708541946E+04  0.60045560570E+03 0.  0.
        -24    2    4    4    0    0  0.38938579797E+02  0.73281126999E+02 -0.48207472454E+02  0.12363943466E+03  0.77951349126E+02 0.  0.
         24    2    4    4    0    0 -0.63430274538E+03  0.24905636472E+03  0.79116955919E+03  0.10472147599E+04  0.79626857393E+02 0.  0.
         11    1    3    3    0    0  0.87460382905E+02 -0.70900900385E+02  0.74553446010E+02  0.13503507902E+03  0.00000000000E+00 0. -1.
        -12    1    3    3    0    0  0.50790378268E+03 -0.25143659134E+03  0.53546808233E+03  0.77968755224E+03  0.00000000000E+00 0.  1.
         13    1    5    5    0    0  0.17007210678E+02  0.59322200153E+02  0.74985510704E+01  0.62165882236E+02  0.00000000000E+00 0. -1.
        -14    1    5    5    0    0  0.21931369120E+02  0.13958926846E+02 -0.55706023524E+02  0.61473552420E+02  0.00000000000E+00 0.  1.
          4    1    6    6  502    0 -0.59906500374E+02  0.50444001091E+02  0.89493367911E+02  0.11892202880E+03  0.00000000000E+00 0. -1.
         -3    1    6    6    0  502 -0.57439624501E+03  0.19861236363E+03  0.70167619128E+03  0.92829273113E+03  0.00000000000E+00 0.  1.
<mgrwt>
<rscale>  0 0.72655581E+03</rscale>
<asrwt>0</asrwt>
<pdfrwt beam="1">  1        1 0.26450464E+00 0.72655581E+03</pdfrwt>
<pdfrwt beam="2">  1       -2 0.56353325E-01 0.72655581E+03</pdfrwt>
<totfact> 0.12461695E+01</totfact>
</mgrwt>
</event>
<event>
12    3  0.2212098E-007  0.7731903E+03  0.7818608E-02  0.9599655E-01
         -2   -1    0    0    0  501 -0.00000000000E+00  0.00000000000E+00  0.13817907112E+04  0.13817907112E+04  0.00000000000E+00 0.  1.
          1   -1    0    0  501    0  0.00000000000E+00 -0.00000000000E+00 -0.57471484517E+03  0.57471484517E+03  0.00000000000E+00 0. -1.
        -24    2    1    2    0    0  0.62095804147E+03  0.41585177613E+03  0.85046995073E+02  0.75657456875E+03  0.81550583933E+02 0.  0.
    5000000    2    1    2    0    0 -0.62095804147E+03 -0.41585177613E+03  0.72202887099E+03  0.11999309877E+04  0.59998924624E+03 0.  0.
        -24    2    4    4    0    0 -0.63051737736E+03 -0.40308938646E+03  0.79158743477E+03  0.10921500375E+04  0.78408040864E+02 0.  0.
         24    2    4    4    0    0  0.95593358915E+01 -0.12762389665E+02 -0.69558563781E+02  0.10778095016E+03  0.80771776813E+02 0.  0.
         11    1    3    3    0    0  0.51571731965E+03  0.36299260727E+03  0.45312868981E+02  0.63228256564E+03  0.00000000000E+00 0. -1.
        -12    1    3    3    0    0  0.10524072182E+03  0.52859168863E+02  0.39734126091E+02  0.12429200312E+03  0.00000000000E+00 0.  1.
         13    1    5    5    0    0 -0.27145200930E+03 -0.13452817190E+03  0.34839236477E+03  0.46169390533E+03  0.00000000000E+00 0. -1.
        -14    1    5    5    0    0 -0.35906536806E+03 -0.26856121456E+03  0.44319507000E+03  0.63045613216E+03  0.00000000000E+00 0.  1.
          2    1    6    6  502    0  0.24800468972E+02 -0.17829823559E+02  0.54891215120E+01  0.31033793264E+02  0.00000000000E+00 0. -1.
         -1    1    6    6    0  502 -0.15241133080E+02  0.50674338949E+01 -0.75047685293E+02  0.76747156896E+02  0.00000000000E+00 0.  1.
<mgrwt>
<rscale>  0 0.77319032E+03</rscale>
<asrwt>0</asrwt>
<pdfrwt beam="1">  1        1 0.88417669E-01 0.77319032E+03</pdfrwt>
<pdfrwt beam="2">  1       -2 0.21258319E+00 0.77319032E+03</pdfrwt>
<totfact> 0.36037588E+00</totfact>
</mgrwt>
</event>
<event>
12    3  0.2212098E-007  0.4324813E+03  0.7818608E-02  0.1033079E+00
         -4   -1    0    0    0  501 -0.00000000000E+00  0.00000000000E+00  0.27050392833E+03  0.27050392833E+03  0.00000000000E+00 0.  1.
          3   -1    0    0  501    0  0.00000000000E+00 -0.00000000000E+00 -0.76450421034E+03  0.76450421034E+03  0.00000000000E+00 0. -1.
        -24    2    1    2    0    0  0.15956982131E+03  0.15733486024E+03 -0.20238665564E+02  0.23831958748E+03  0.78548304081E+02 0.  0.
    5000000    2    1    2    0    0 -0.15956982131E+03 -0.15733486024E+03 -0.47376161645E+03  0.79668855118E+03  0.60003815899E+03 0.  0.
        -24    2    4    4    0    0 -0.34678936498E+03 -0.22106570791E+03 -0.36881082564E+03  0.55819419874E+03  0.80165001846E+02 0.  0.
         24    2    4    4    0    0  0.18721954367E+03  0.63730847663E+02 -0.10495079081E+03  0.23849435245E+03  0.82171218684E+02 0.  0.
         13    1    3    3    0    0  0.12060725860E+03  0.67840324622E+02  0.12077931467E+01  0.13838308870E+03  0.00000000000E+00 0. -1.
        -14    1    3    3    0    0  0.38962562704E+02  0.89494535620E+02 -0.21446458711E+02  0.99936498786E+02  0.00000000000E+00 0.  1.
         13    1    5    5    0    0 -0.14853138419E+03 -0.12705588103E+03 -0.13498603950E+03  0.23754157500E+03  0.00000000000E+00 0. -1.
        -14    1    5    5    0    0 -0.19825798079E+03 -0.94009826873E+02 -0.23382478614E+03  0.32065262374E+03  0.00000000000E+00 0.  1.
          2    1    6    6  502    0  0.13708420249E+03  0.54106977896E+01 -0.64483156751E+02  0.15158968213E+03  0.00000000000E+00 0. -1.
         -1    1    6    6    0  502  0.50135341182E+02  0.58320149873E+02 -0.40467634059E+02  0.86904670318E+02  0.00000000000E+00 0.  1.
<mgrwt>
<rscale>  0 0.43248129E+03</rscale>
<asrwt>0</asrwt>
<pdfrwt beam="1">  1        3 0.11761603E+00 0.43248129E+03</pdfrwt>
<pdfrwt beam="2">  1       -4 0.41615990E-01 0.43248129E+03</pdfrwt>
<totfact> 0.75339859E+00</totfact>
</mgrwt>
</event>
<event>
12    3  0.2212098E-007  0.4848752E+03  0.7818608E-02  0.1017804E+00
          1   -1    0    0  501    0  0.00000000000E+00  0.00000000000E+00  0.33019175720E+03  0.33019175720E+03  0.00000000000E+00 0. -1.
         -2   -1    0    0    0  501 -0.00000000000E+00 -0.00000000000E+00 -0.91021161565E+03  0.91021161565E+03  0.00000000000E+00 0.  1.
        -24    2    1    2    0    0  0.32754743254E+03  0.16413524238E+03 -0.31278055022E+03  0.48834915904E+03  0.80159404833E+02 0.  0.
    5000000    2    1    2    0    0 -0.32754743254E+03 -0.16413524238E+03 -0.26723930823E+03  0.75205421381E+03  0.59995082657E+03 0.  0.
        -24    2    4    4    0    0 -0.42406732264E+03 -0.13949803705E+02 -0.33409023914E+03  0.54526887320E+03  0.75327053817E+02 0.  0.
         24    2    4    4    0    0  0.96519890102E+02 -0.15018543867E+03  0.66850930903E+02  0.20678534062E+03  0.80121001973E+02 0.  0.
         13    1    5    5    0    0 -0.23662419901E+03 -0.64486285500E+01 -0.13847673806E+03  0.27424150552E+03  0.00000000000E+00 0. -1.
        -14    1    5    5    0    0 -0.18744312363E+03 -0.75011751555E+01 -0.19561350108E+03  0.27102736767E+03  0.00000000000E+00 0.  1.
         13    1    3    3    0    0  0.22035724972E+03  0.10513831171E+03 -0.15705276538E+03  0.29030493142E+03  0.00000000000E+00 0. -1.
        -14    1    3    3    0    0  0.10719018282E+03  0.58996930673E+02 -0.15572778484E+03  0.19804422762E+03  0.00000000000E+00 0.  1.
          2    1    6    6  502    0  0.78306071557E+02 -0.11235551667E+03  0.84847557112E+02  0.16110465827E+03  0.00000000000E+00 0. -1.
         -1    1    6    6    0  502  0.18213818545E+02 -0.37829922002E+02 -0.17996626209E+02  0.45680682346E+02  0.00000000000E+00 0.  1.
<mgrwt>
<rscale>  0 0.48487523E+03</rscale>
<asrwt>0</asrwt>
<pdfrwt beam="1">  1        1 0.50798731E-01 0.48487523E+03</pdfrwt>
<pdfrwt beam="2">  1       -2 0.14003256E+00 0.48487523E+03</pdfrwt>
<totfact> 0.25259059E+01</totfact>
</mgrwt>
</event>
<event>
12    3  0.2212098E-007  0.5797335E+03  0.7818608E-02  0.9948368E-01
         -2   -1    0    0    0  501 -0.00000000000E+00  0.00000000000E+00  0.33926998580E+03  0.33926998580E+03  0.00000000000E+00 0.  1.
          1   -1    0    0  501    0  0.00000000000E+00 -0.00000000000E+00 -0.29088725395E+04  0.29088725395E+04  0.00000000000E+00 0. -1.
        -24    2    1    2    0    0  0.41653127125E+03 -0.18270242317E+03  0.10181893579E+03  0.47266321803E+03  0.78517174129E+02 0.  0.
    5000000    2    1    2    0    0 -0.41653127125E+03  0.18270242317E+03 -0.26714214895E+04  0.27754793073E+04  0.59992844173E+03 0.  0.
        -24    2    4    4    0    0  0.11027980347E+03  0.69499156258E+02 -0.11334933701E+04  0.11439436493E+04  0.82511119344E+02 0.  0.
         24    2    4    4    0    0 -0.52681107473E+03  0.11320326691E+03 -0.15379281194E+04  0.16315356580E+04  0.79629233882E+02 0.  0.
         11    1    3    3    0    0  0.33185306416E+03 -0.10981905637E+03  0.69951363807E+02  0.35648264283E+03  0.00000000000E+00 0. -1.
        -12    1    3    3    0    0  0.84678207089E+02 -0.72883366799E+02  0.31867571982E+02  0.11618057521E+03  0.00000000000E+00 0.  1.
         13    1    5    5    0    0  0.86058408605E+02  0.67013496853E+01 -0.58440710667E+03  0.59074751300E+03  0.00000000000E+00 0. -1.
        -14    1    5    5    0    0  0.24221394869E+02  0.62797806572E+02 -0.54908626345E+03  0.55319613628E+03  0.00000000000E+00 0.  1.
          4    1    6    6  502    0 -0.32609360647E+03  0.30641873268E+02 -0.90786083001E+03  0.96513587191E+03  0.00000000000E+00 0. -1.
         -3    1    6    6    0  502 -0.20071746825E+03  0.82561393644E+02 -0.63006728937E+03  0.66639978610E+03  0.00000000000E+00 0.  1.
<mgrwt>
<rscale>  0 0.57973355E+03</rscale>
<asrwt>0</asrwt>
<pdfrwt beam="1">  1        1 0.44751885E+00 0.57973355E+03</pdfrwt>
<pdfrwt beam="2">  1       -2 0.52195382E-01 0.57973355E+03</pdfrwt>
<totfact> 0.23468732E+00</totfact>
</mgrwt>
</event>
<event>
12    3  0.2212098E-007  0.3328199E+03  0.7818608E-02  0.1069896E+00
         -2   -1    0    0    0  501 -0.00000000000E+00  0.00000000000E+00  0.61323975539E+03  0.61323975539E+03  0.00000000000E+00 0.  1.
          1   -1    0    0  501    0  0.00000000000E+00 -0.00000000000E+00 -0.54537416608E+03  0.54537416608E+03  0.00000000000E+00 0. -1.
        -24    2    1    2    0    0 -0.31955434106E+02  0.31597284429E+03  0.29690399646E+03  0.44202204062E+03  0.79821758849E+02 0.  0.
    5000000    2    1    2    0    0  0.31955434106E+02 -0.31597284429E+03 -0.22903840715E+03  0.71659188085E+03  0.60015443317E+03 0.  0.
        -24    2    4    4    0    0  0.41673191878E+02 -0.13614002601E+03  0.19179570160E+03  0.25183684780E+03  0.79783739922E+02 0.  0.
         24    2    4    4    0    0 -0.97177577716E+01 -0.17983281828E+03 -0.42083410874E+03  0.46475503305E+03  0.80384179520E+02 0.  0.
         11    1    5    5    0    0 -0.10692998616E+02 -0.52009675495E+02  0.27067370457E+02  0.59598566325E+02  0.00000000000E+00 0. -1.
        -12    1    5    5    0    0  0.52366190494E+02 -0.84130350512E+02  0.16472833114E+03  0.19223828147E+03  0.00000000000E+00 0.  1.
         11    1    3    3    0    0 -0.14582773762E+02  0.16934611234E+03  0.21190617241E+03  0.27165233104E+03  0.00000000000E+00 0. -1.
        -12    1    3    3    0    0 -0.17372660344E+02  0.14662673195E+03  0.84997824049E+02  0.17036970958E+03  0.00000000000E+00 0.  1.
          2    1    6    6  502    0 -0.41635523529E+02 -0.70023941618E+02 -0.20283015777E+03  0.21857937259E+03  0.00000000000E+00 0. -1.
         -1    1    6    6    0  502  0.31917765758E+02 -0.10980887666E+03 -0.21800395097E+03  0.24617566046E+03  0.00000000000E+00 0.  1.
<mgrwt>
<rscale>  0 0.33281989E+03</rscale>
<asrwt>0</asrwt>
<pdfrwt beam="1">  1        1 0.83903718E-01 0.33281989E+03</pdfrwt>
<pdfrwt beam="2">  1       -2 0.94344578E-01 0.33281989E+03</pdfrwt>
<totfact> 0.34713965E+01</totfact>
</mgrwt>
</event>
<event>
12    3  0.2212098E-007  0.1492767E+04  0.7818608E-02  0.8889277E-01
         -2   -1    0    0    0  501 -0.00000000000E+00  0.00000000000E+00  0.10145370807E+04  0.10145370807E+04  0.00000000000E+00 0.  1.
          1   -1    0    0  501    0  0.00000000000E+00 -0.00000000000E+00 -0.22655420184E+04  0.22655420184E+04  0.00000000000E+00 0. -1.
        -24    2    1    2    0    0 -0.95326617166E+03  0.10782396124E+04 -0.83801084651E+03  0.16670294690E+04  0.73539213911E+02 0.  0.
    5000000    2    1    2    0    0  0.95326617166E+03 -0.10782396124E+04 -0.41299409124E+03  0.16130496301E+04  0.60003994362E+03 0.  0.
        -24    2    4    4    0    0  0.10487827277E+02 -0.34812754486E+03 -0.32525777492E+02  0.35890455854E+03  0.80322935273E+02 0.  0.
         24    2    4    4    0    0  0.94277834438E+03 -0.73011206751E+03 -0.38046831374E+03  0.12541450715E+04  0.78924551944E+02 0.  0.
         11    1    3    3    0    0 -0.70630213894E+03  0.82331798109E+03 -0.66254514406E+03  0.12710945194E+04  0.00000000000E+00 0. -1.
        -12    1    3    3    0    0 -0.24696403272E+03  0.25492163128E+03 -0.17546570245E+03  0.39593494957E+03  0.00000000000E+00 0.  1.
         13    1    5    5    0    0  0.25814303278E+02 -0.73773128179E+02  0.16240452397E+02  0.79828597564E+02  0.00000000000E+00 0. -1.
        -14    1    5    5    0    0 -0.15326476001E+02 -0.27435441668E+03 -0.48766229889E+02  0.27907596098E+03  0.00000000000E+00 0.  1.
          4    1    6    6  502    0  0.14037432986E+03 -0.94029878329E+02 -0.28143710557E+02  0.17128525607E+03  0.00000000000E+00 0. -1.
         -1    1    6    6    0  502  0.80240401452E+03 -0.63608218918E+03 -0.35232460319E+03  0.10828598155E+04  0.00000000000E+00 0.  1.
<mgrwt>
<rscale>  0 0.14927674E+04</rscale>
<asrwt>0</asrwt>
<pdfrwt beam="1">  1        1 0.34854492E+00 0.14927674E+04</pdfrwt>
<pdfrwt beam="2">  1       -2 0.15608263E+00 0.14927674E+04</pdfrwt>
<totfact> 0.43951674E-01</totfact>
</mgrwt>
</event>
<event>
12    3  0.2212098E-007  0.1242117E+04  0.7818608E-02  0.9076770E-01
         -2   -1    0    0    0  501 -0.00000000000E+00  0.00000000000E+00  0.56975944925E+03  0.56975944925E+03  0.00000000000E+00 0.  1.
          1   -1    0    0  501    0  0.00000000000E+00 -0.00000000000E+00 -0.34707333133E+04  0.34707333133E+04  0.00000000000E+00 0. -1.
        -24    2    1    2    0    0  0.80420997391E+03  0.93287399928E+03 -0.21468901008E+04  0.24763807539E+04  0.79479257579E+02 0.  0.
    5000000    2    1    2    0    0 -0.80420997391E+03 -0.93287399928E+03 -0.75408376327E+03  0.15641120087E+04  0.60066336090E+03 0.  0.
        -24    2    4    4    0    0 -0.19477800797E+03 -0.16731889371E+03 -0.47086786041E+03  0.54197766513E+03  0.78033088834E+02 0.  0.
         24    2    4    4    0    0 -0.60943196595E+03 -0.76555510557E+03 -0.28321590286E+03  0.10221343436E+04  0.84056099951E+02 0.  0.
         11    1    5    5    0    0 -0.87861040534E+00  0.71533060537E+01 -0.17551848122E+02  0.18973906193E+02  0.00000000000E+00 0. -1.
        -12    1    5    5    0    0 -0.19389939756E+03 -0.17447219977E+03 -0.45331601228E+03  0.52300375893E+03  0.00000000000E+00 0.  1.
         11    1    3    3    0    0  0.13963994849E+03  0.11992918315E+03 -0.30695212456E+03  0.35791330090E+03  0.00000000000E+00 0. -1.
        -12    1    3    3    0    0  0.66457002542E+03  0.81294481613E+03 -0.18399379763E+04  0.21184674530E+04  0.00000000000E+00 0.  1.
          2    1    6    6  502    0 -0.31045284593E+03 -0.32289466791E+03 -0.13186831605E+03  0.46693809964E+03  0.00000000000E+00 0. -1.
         -1    1    6    6    0  502 -0.29897912001E+03 -0.44266043766E+03 -0.15134758681E+03  0.55519624396E+03  0.00000000000E+00 0.  1.
<mgrwt>
<rscale>  0 0.12421171E+04</rscale>
<asrwt>0</asrwt>
<pdfrwt beam="1">  1        1 0.53395898E+00 0.12421171E+04</pdfrwt>
<pdfrwt beam="2">  1       -2 0.87655298E-01 0.12421171E+04</pdfrwt>
<totfact> 0.25862804E-01</totfact>
</mgrwt>
</event>
<event>
12    3  0.2212098E-007  0.5770560E+03  0.7818608E-02  0.9954185E-01
          1   -1    0    0  501    0  0.00000000000E+00  0.00000000000E+00  0.24033918233E+04  0.24033918233E+04  0.00000000000E+00 0. -1.
         -2   -1    0    0    0  501 -0.00000000000E+00 -0.00000000000E+00 -0.20960283920E+03  0.20960283920E+03  0.00000000000E+00 0.  1.
        -24    2    1    2    0    0 -0.49577367018E+03 -0.10489157090E+03  0.14231224094E+04  0.15127673863E+04  0.79962487328E+02 0.  0.
    5000000    2    1    2    0    0  0.49577367018E+03  0.10489157090E+03  0.77066657473E+03  0.11002272762E+04  0.59981606859E+03 0.  0.
        -24    2    4    4    0    0  0.18927888498E+03  0.23398507450E+03  0.68060796186E+02  0.31879927203E+03  0.80157298336E+02 0.  0.
         24    2    4    4    0    0  0.30649478519E+03 -0.12909350360E+03  0.70260577854E+03  0.78142800414E+03  0.79816411804E+02 0.  0.
         11    1    3    3    0    0 -0.29092623354E+03 -0.97327523975E+02  0.90425118194E+03  0.95487220104E+03  0.00000000000E+00 0. -1.
        -12    1    3    3    0    0 -0.20484743663E+03 -0.75640469282E+01  0.51887122744E+03  0.55789518529E+03  0.00000000000E+00 0.  1.
         11    1    5    5    0    0  0.10820374911E+02  0.53480643796E+02 -0.46473963812E+01  0.54761830386E+02  0.00000000000E+00 0. -1.
        -12    1    5    5    0    0  0.17845851007E+03  0.18050443071E+03  0.72708192567E+02  0.26403744164E+03  0.00000000000E+00 0.  1.
          4    1    6    6  502    0  0.18535502537E+03 -0.94047310262E+02  0.51516021859E+03  0.55551006545E+03  0.00000000000E+00 0. -1.
         -3    1    6    6    0  502  0.12113975982E+03 -0.35046193340E+02  0.18744555995E+03  0.22591793869E+03  0.00000000000E+00 0.  1.
<mgrwt>
<rscale>  0 0.57705605E+03</rscale>
<asrwt>0</asrwt>
<pdfrwt beam="1">  1        1 0.36975257E+00 0.57705605E+03</pdfrwt>
<pdfrwt beam="2">  1       -2 0.32246592E-01 0.57705605E+03</pdfrwt>
<totfact> 0.13400028E+01</totfact>
</mgrwt>
</event>
<event>
12    3  0.2212098E-007  0.6212044E+03  0.7818608E-02  0.9862365E-01
          1   -1    0    0  501    0  0.00000000000E+00  0.00000000000E+00  0.64225044862E+03  0.64225044862E+03  0.00000000000E+00 0. -1.
         -2   -1    0    0    0  501 -0.00000000000E+00 -0.00000000000E+00 -0.89267358264E+03  0.89267358264E+03  0.00000000000E+00 0.  1.
        -24    2    1    2    0    0  0.47343378031E+03 -0.21645343636E+03  0.26195223000E+03  0.58969395242E+03  0.90157375033E+02 0.  0.
    5000000    2    1    2    0    0 -0.47343378031E+03  0.21645343636E+03 -0.51237536401E+03  0.94523007883E+03  0.59994979276E+03 0.  0.
        -24    2    4    4    0    0 -0.42950994688E+03  0.36440199114E+03 -0.52061193007E+03  0.77154539965E+03  0.83533923449E+02 0.  0.
         24    2    4    4    0    0 -0.43923833436E+02 -0.14794855478E+03  0.82365660587E+01  0.17368467918E+03  0.79249282372E+02 0.  0.
         11    1    3    3    0    0  0.46832362954E+02 -0.27869395190E+02  0.61065802078E+02  0.81847453177E+02  0.00000000000E+00 0. -1.
        -12    1    3    3    0    0  0.42660141736E+03 -0.18858404117E+03  0.20088642792E+03  0.50784649925E+03  0.00000000000E+00 0.  1.
         11    1    5    5    0    0 -0.23050274696E+03  0.20171010236E+03 -0.22655944676E+03  0.38098249916E+03  0.00000000000E+00 0. -1.
        -12    1    5    5    0    0 -0.19900719992E+03  0.16269188878E+03 -0.29405248331E+03  0.39056290048E+03  0.00000000000E+00 0.  1.
          4    1    6    6  502    0 -0.26705318502E+02 -0.35713569387E+02  0.35395280496E+02  0.56933812063E+02  0.00000000000E+00 0. -1.
         -3    1    6    6    0  502 -0.17218514934E+02 -0.11223498540E+03 -0.27158714437E+02  0.11675086712E+03  0.00000000000E+00 0.  1.
<mgrwt>
<rscale>  0 0.62120444E+03</rscale>
<asrwt>0</asrwt>
<pdfrwt beam="1">  1        1 0.98807762E-01 0.62120444E+03</pdfrwt>
<pdfrwt beam="2">  1       -2 0.13733440E+00 0.62120444E+03</pdfrwt>
<totfact> 0.10615194E+01</totfact>
</mgrwt>
</event>
<event>
12    3  0.2212098E-007  0.6499871E+03  0.7818608E-02  0.9806803E-01
          1   -1    0    0  501    0  0.00000000000E+00  0.00000000000E+00  0.14933617143E+04  0.14933617143E+04  0.00000000000E+00 0. -1.
         -2   -1    0    0    0  501 -0.00000000000E+00 -0.00000000000E+00 -0.85851264515E+03  0.85851264515E+03  0.00000000000E+00 0.  1.
        -24    2    1    2    0    0 -0.46307654865E+03 -0.22365384491E+03  0.12478080960E+04  0.13518630545E+04  0.77767225925E+02 0.  0.
    5000000    2    1    2    0    0  0.46307654865E+03  0.22365384491E+03 -0.61295902685E+03  0.10000113049E+04  0.59986907669E+03 0.  0.
        -24    2    4    4    0    0  0.40928818711E+03  0.40502370201E+03 -0.48876898684E+03  0.76001417111E+03  0.84648676858E+02 0.  0.
         24    2    4    4    0    0  0.53788361543E+02 -0.18136985710E+03 -0.12419004001E+03  0.23999713384E+03  0.79920243435E+02 0.  0.
         11    1    3    3    0    0 -0.20080560857E+03 -0.66271787419E+02  0.44265192363E+03  0.49056657829E+03  0.00000000000E+00 0. -1.
        -12    1    3    3    0    0 -0.26227094008E+03 -0.15738205750E+03  0.80515617232E+03  0.86129647617E+03  0.00000000000E+00 0.  1.
         13    1    5    5    0    0  0.35710558549E+01  0.13098289760E+02 -0.29931143822E+02  0.32866259371E+02  0.00000000000E+00 0. -1.
        -14    1    5    5    0    0  0.40571713125E+03  0.39192541225E+03 -0.45883784302E+03  0.72714791174E+03  0.00000000000E+00 0.  1.
          4    1    6    6  502    0 -0.17720872664E+02 -0.73083180386E+02 -0.38426532195E+02  0.84449860627E+02  0.00000000000E+00 0. -1.
         -3    1    6    6    0  502  0.71509234208E+02 -0.10828667671E+03 -0.85763507812E+02  0.15554727321E+03  0.00000000000E+00 0.  1.
<mgrwt>
<rscale>  0 0.64998708E+03</rscale>
<asrwt>0</asrwt>
<pdfrwt beam="1">  1        1 0.22974796E+00 0.64998708E+03</pdfrwt>
<pdfrwt beam="2">  1       -2 0.13207887E+00 0.64998708E+03</pdfrwt>
<totfact> 0.25462033E+00</totfact>
</mgrwt>
</event>
<event>
12    3  0.2212098E-007  0.1092426E+04  0.7818608E-02  0.9212605E-01
          1   -1    0    0  501    0  0.00000000000E+00  0.00000000000E+00  0.82646760770E+03  0.82646760770E+03  0.00000000000E+00 0. -1.
         -2   -1    0    0    0  501 -0.00000000000E+00 -0.00000000000E+00 -0.14706336559E+04  0.14706336559E+04  0.00000000000E+00 0.  1.
        -24    2    1    2    0    0  0.28721487140E+03 -0.97537768005E+03 -0.22664169928E+03  0.10448219062E+04  0.80201961619E+02 0.  0.
    5000000    2    1    2    0    0 -0.28721487140E+03  0.97537768005E+03 -0.41752434894E+03  0.12522793575E+04  0.60001917144E+03 0.  0.
        -24    2    4    4    0    0 -0.28009609832E+03  0.12033563464E+03 -0.17389094171E+03  0.35965055599E+03  0.78587362576E+02 0.  0.
         24    2    4    4    0    0 -0.71187730756E+01  0.85504204541E+03 -0.24363340723E+03  0.89262880148E+03  0.79255055095E+02 0.  0.
         13    1    5    5    0    0 -0.25066343676E+03  0.88038521514E+02 -0.12357176210E+03  0.29300668966E+03  0.00000000000E+00 0. -1.
        -14    1    5    5    0    0 -0.29432661563E+02  0.32297113123E+02 -0.50319179606E+02  0.66643866327E+02  0.00000000000E+00 0.  1.
         13    1    3    3    0    0  0.17176392683E+03 -0.70494685970E+03 -0.17328564536E+03  0.74597643156E+03  0.00000000000E+00 0. -1.
        -14    1    3    3    0    0  0.11545094457E+03 -0.27043082035E+03 -0.53356053929E+02  0.29884547460E+03  0.00000000000E+00 0.  1.
          4    1    6    6  502    0 -0.20979162210E+02  0.34561967329E+03 -0.62927344707E+02  0.35192745634E+03  0.00000000000E+00 0. -1.
         -3    1    6    6    0  502  0.13860389134E+02  0.50942237212E+03 -0.18070606252E+03  0.54070134514E+03  0.00000000000E+00 0.  1.
<mgrwt>
<rscale>  0 0.10924261E+04</rscale>
<asrwt>0</asrwt>
<pdfrwt beam="1">  1        1 0.12714886E+00 0.10924261E+04</pdfrwt>
<pdfrwt beam="2">  1       -2 0.22625133E+00 0.10924261E+04</pdfrwt>
<totfact> 0.16399637E+00</totfact>
</mgrwt>
</event>
<event>
12    3  0.2700297E-007  0.1326757E+04  0.7818608E-02  0.9008611E-01
          3   -1    0    0  501    0  0.00000000000E+00  0.00000000000E+00  0.98527692684E+03  0.98527692684E+03  0.00000000000E+00 0. -1.
         -2   -1    0    0    0  501 -0.00000000000E+00 -0.00000000000E+00 -0.18015504994E+04  0.18015504994E+04  0.00000000000E+00 0.  1.
        -24    2    1    2    0    0  0.43418791492E+03 -0.11826382734E+04 -0.28728552047E+03  0.12945070994E+04  0.77866737627E+02 0.  0.
    5000000    2    1    2    0    0 -0.43418791492E+03  0.11826382734E+04 -0.52898805205E+03  0.14923203268E+04  0.60003263857E+03 0.  0.
        -24    2    4    4    0    0 -0.52805199180E+03  0.62478921224E+03 -0.27209723996E+03  0.86593773636E+03  0.81306761661E+02 0.  0.
         24    2    4    4    0    0  0.93864076872E+02  0.55784906120E+03 -0.25689081208E+03  0.62638259045E+03  0.79725907193E+02 0.  0.
         11    1    3    3    0    0  0.21982398511E+03 -0.48937998236E+03 -0.13010839866E+03  0.55203582036E+03  0.00000000000E+00 0. -1.
        -12    1    3    3    0    0  0.21436392981E+03 -0.69325829108E+03 -0.15717712181E+03  0.74247127902E+03  0.00000000000E+00 0.  1.
         13    1    5    5    0    0 -0.20991393054E+03  0.30900450636E+03 -0.11279658135E+03  0.39021880010E+03  0.00000000000E+00 0. -1.
        -14    1    5    5    0    0 -0.31813806125E+03  0.31578470588E+03 -0.15930065862E+03  0.47571893626E+03  0.00000000000E+00 0.  1.
          2    1    6    6  502    0  0.17410220408E+02  0.30305272625E+03 -0.11270157049E+03  0.32379887995E+03  0.00000000000E+00 0. -1.
         -1    1    6    6    0  502  0.76453856464E+02  0.25479633494E+03 -0.14418924159E+03  0.30258371050E+03  0.00000000000E+00 0.  1.
<mgrwt>
<rscale>  0 0.13267575E+04</rscale>
<asrwt>0</asrwt>
<pdfrwt beam="1">  1        3 0.15158107E+00 0.13267575E+04</pdfrwt>
<pdfrwt beam="2">  1       -2 0.27716162E+00 0.13267575E+04</pdfrwt>
<totfact> 0.54799055E-02</totfact>
</mgrwt>
</event>
<event>
12    3  0.2212098E-007  0.1071335E+04  0.7818608E-02  0.9233590E-01
          1   -1    0    0  501    0  0.00000000000E+00  0.00000000000E+00  0.13563666184E+04  0.13563666184E+04  0.00000000000E+00 0. -1.
         -2   -1    0    0    0  501 -0.00000000000E+00 -0.00000000000E+00 -0.94487545242E+03  0.94487545242E+03  0.00000000000E+00 0.  1.
        -24    2    1    2    0    0 -0.87699288727E+03  0.56749360048E+03  0.30896232592E+03  0.10923062657E+04  0.80683011975E+02 0.  0.
    5000000    2    1    2    0    0  0.87699288727E+03 -0.56749360048E+03  0.10252884003E+03  0.12089358051E+04  0.59987340898E+03 0.  0.
        -24    2    4    4    0    0  0.84566067447E+03 -0.56971239021E+03 -0.61973819709E+02  0.10246510411E+04  0.79717111060E+02 0.  0.
         24    2    4    4    0    0  0.31332212801E+02  0.22187897356E+01  0.16450265974E+03  0.18428476395E+03  0.76896804731E+02 0.  0.
         11    1    5    5    0    0  0.38432160549E+03 -0.26859945272E+03 -0.67489756376E+02  0.47371260239E+03  0.00000000000E+00 0. -1.
        -12    1    5    5    0    0  0.46133906898E+03 -0.30111293749E+03  0.55159366676E+01  0.55093843871E+03  0.00000000000E+00 0.  1.
         13    1    3    3    0    0 -0.58114629492E+03  0.39117648192E+03  0.16958152014E+03  0.72076899772E+03  0.00000000000E+00 0. -1.
        -14    1    3    3    0    0 -0.29584659236E+03  0.17631711856E+03  0.13938080578E+03  0.37153726802E+03  0.00000000000E+00 0.  1.
          4    1    6    6  502    0 -0.69131171296E+01  0.29925944648E+02  0.98133288453E+02  0.10282750437E+03  0.00000000000E+00 0. -1.
         -3    1    6    6    0  502  0.38245329931E+02 -0.27707154912E+02  0.66369371284E+02  0.81457259588E+02  0.00000000000E+00 0.  1.
<mgrwt>
<rscale>  0 0.10713350E+04</rscale>
<asrwt>0</asrwt>
<pdfrwt beam="1">  1        1 0.20867179E+00 0.10713350E+04</pdfrwt>
<pdfrwt beam="2">  1       -2 0.14536545E+00 0.10713350E+04</pdfrwt>
<totfact> 0.23294237E+00</totfact>
</mgrwt>
</event>
<event>
12    3  0.2212098E-007  0.1043544E+04  0.7818608E-02  0.9262035E-01
          1   -1    0    0  501    0  0.00000000000E+00  0.00000000000E+00  0.15803613626E+04  0.15803613626E+04  0.00000000000E+00 0. -1.
         -2   -1    0    0    0  501 -0.00000000000E+00 -0.00000000000E+00 -0.72369747111E+03  0.72369747111E+03  0.00000000000E+00 0.  1.
        -24    2    1    2    0    0  0.34946459070E+03 -0.91223499804E+03  0.27264475235E+03  0.10174378564E+04  0.80910066613E+02 0.  0.
    5000000    2    1    2    0    0 -0.34946459070E+03  0.91223499804E+03  0.58401913918E+03  0.12866209773E+04  0.60001416033E+03 0.  0.
        -24    2    4    4    0    0 -0.31657503409E+03  0.17873021556E+03  0.35352439471E+03  0.51297486598E+03  0.77456267044E+02 0.  0.
         24    2    4    4    0    0 -0.32889556608E+02  0.73350478248E+03  0.23049474447E+03  0.77364611137E+03  0.79306302067E+02 0.  0.
         11    1    3    3    0    0  0.85644419522E+02 -0.16979897864E+03  0.26777619669E+02  0.19205129694E+03  0.00000000000E+00 0. -1.
        -12    1    3    3    0    0  0.26382017118E+03 -0.74243601941E+03  0.24586713268E+03  0.82538655947E+03  0.00000000000E+00 0.  1.
         11    1    5    5    0    0 -0.10689413437E+03  0.20873400630E+02  0.11367180327E+03  0.15742723296E+03  0.00000000000E+00 0. -1.
        -12    1    5    5    0    0 -0.20968089972E+03  0.15785681493E+03  0.23985259144E+03  0.35554763302E+03  0.00000000000E+00 0.  1.
          2    1    6    6  502    0  0.16219162141E+02  0.41851259779E+03  0.14963009087E+03  0.44475276258E+03  0.00000000000E+00 0. -1.
         -1    1    6    6    0  502 -0.49108718748E+02  0.31499218469E+03  0.80864653602E+02  0.32889334879E+03  0.00000000000E+00 0.  1.
<mgrwt>
<rscale>  0 0.10435441E+04</rscale>
<asrwt>0</asrwt>
<pdfrwt beam="1">  1        1 0.24313252E+00 0.10435441E+04</pdfrwt>
<pdfrwt beam="2">  1       -2 0.11133807E+00 0.10435441E+04</pdfrwt>
<totfact> 0.32085461E+00</totfact>
</mgrwt>
</event>
<event>
12    3  0.2212098E-007  0.4389376E+03  0.7818608E-02  0.1031073E+00
          1   -1    0    0  501    0  0.00000000000E+00  0.00000000000E+00  0.72209354496E+03  0.72209354496E+03  0.00000000000E+00 0. -1.
         -2   -1    0    0    0  501 -0.00000000000E+00 -0.00000000000E+00 -0.40509254309E+03  0.40509254309E+03  0.00000000000E+00 0.  1.
        -24    2    1    2    0    0  0.32908420441E+03 -0.15580306233E+03  0.47759397595E+02  0.37573476778E+03  0.79527654509E+02 0.  0.
    5000000    2    1    2    0    0 -0.32908420441E+03  0.15580306233E+03  0.26924160427E+03  0.75145132028E+03  0.59968077963E+03 0.  0.
        -24    2    4    4    0    0 -0.20358912613E+03 -0.87461690038E+02  0.37904746332E+03  0.44597106305E+03  0.78199297468E+02 0.  0.
         24    2    4    4    0    0 -0.12549507828E+03  0.24326475236E+03 -0.10980585905E+03  0.30548025723E+03  0.79587099844E+02 0.  0.
         13    1    3    3    0    0  0.25320511355E+03 -0.10310191842E+03  0.66740201475E+02  0.28141977472E+03  0.00000000000E+00 0. -1.
        -14    1    3    3    0    0  0.75879090862E+02 -0.52701143906E+02 -0.18980803880E+02  0.94314993055E+02  0.00000000000E+00 0.  1.
         13    1    5    5    0    0 -0.78846845775E+02 -0.76148230639E+02  0.18359620052E+03  0.21382923786E+03  0.00000000000E+00 0. -1.
        -14    1    5    5    0    0 -0.12474228036E+03 -0.11313459398E+02  0.19545126280E+03  0.23214182519E+03  0.00000000000E+00 0.  1.
          2    1    6    6  502    0 -0.10030057413E+03  0.14869360484E+03 -0.10424304653E+03  0.20745265976E+03  0.00000000000E+00 0. -1.
         -1    1    6    6    0  502 -0.25194504149E+02  0.94571147522E+02 -0.55628125200E+01  0.98027597471E+02  0.00000000000E+00 0.  1.
<mgrwt>
<rscale>  0 0.43893760E+03</rscale>
<asrwt>0</asrwt>
<pdfrwt beam="1">  1        1 0.11109131E+00 0.43893760E+03</pdfrwt>
<pdfrwt beam="2">  1       -2 0.62321930E-01 0.43893760E+03</pdfrwt>
<totfact> 0.57071931E+01</totfact>
</mgrwt>
</event>
<event>
12    3  0.2212098E-007  0.5287063E+03  0.7818608E-02  0.1006546E+00
         -2   -1    0    0    0  501 -0.00000000000E+00  0.00000000000E+00  0.10117250239E+04  0.10117250239E+04  0.00000000000E+00 0.  1.
          1   -1    0    0  501    0  0.00000000000E+00 -0.00000000000E+00 -0.10557096149E+04  0.10557096149E+04  0.00000000000E+00 0. -1.
        -24    2    1    2    0    0 -0.64896762323E+02 -0.44265461507E+03  0.81320365752E+03  0.92953262361E+03  0.50754425869E+02 0.  0.
    5000000    2    1    2    0    0  0.64896762323E+02  0.44265461507E+03 -0.85718824857E+03  0.11379020152E+04  0.59991216421E+03 0.  0.
        -24    2    4    4    0    0  0.58067247655E+02  0.50217838798E+03 -0.34720684345E+03  0.61795830527E+03  0.75927177701E+02 0.  0.
         24    2    4    4    0    0  0.68295146683E+01 -0.59523772907E+02 -0.50998140513E+03  0.51994370996E+03  0.81674390985E+02 0.  0.
         11    1    3    3    0    0 -0.55249986751E+02 -0.28835100019E+03  0.48935739128E+03  0.57067461547E+03  0.00000000000E+00 0. -1.
        -12    1    3    3    0    0 -0.96467755719E+01 -0.15430361488E+03  0.32384626624E+03  0.35885800813E+03  0.00000000000E+00 0.  1.
         11    1    5    5    0    0  0.30943656361E+02  0.45876573994E+03 -0.31747340667E+03  0.55876012559E+03  0.00000000000E+00 0. -1.
        -12    1    5    5    0    0  0.27123591294E+02  0.43412648041E+02 -0.29733436774E+02  0.59198179676E+02  0.00000000000E+00 0.  1.
          4    1    6    6  502    0 -0.13803735525E+02  0.15294594043E+02 -0.16843058552E+03  0.16968597426E+03  0.00000000000E+00 0. -1.
         -3    1    6    6    0  502  0.20633250193E+02 -0.74818366950E+02 -0.34155081961E+03  0.35025773570E+03  0.00000000000E+00 0.  1.
<mgrwt>
<rscale>  0 0.52870635E+03</rscale>
<asrwt>0</asrwt>
<pdfrwt beam="1">  1        1 0.16241686E+00 0.52870635E+03</pdfrwt>
<pdfrwt beam="2">  1       -2 0.15565000E+00 0.52870635E+03</pdfrwt>
<totfact> 0.34807326E+00</totfact>
</mgrwt>
</event>
<event>
12    3  0.2212098E-007  0.7506064E+03  0.7818608E-02  0.9634399E-01
          1   -1    0    0  501    0  0.00000000000E+00  0.00000000000E+00  0.97158105324E+03  0.97158105324E+03  0.00000000000E+00 0. -1.
         -2   -1    0    0    0  501 -0.00000000000E+00 -0.00000000000E+00 -0.67412506768E+03  0.67412506768E+03  0.00000000000E+00 0.  1.
        -24    2    1    2    0    0  0.51757616578E+03 -0.44794641466E+03  0.34802994562E+01  0.68919335607E+03  0.80214037226E+02 0.  0.
    5000000    2    1    2    0    0 -0.51757616578E+03  0.44794641466E+03  0.29397568611E+03  0.95651276485E+03  0.59996157169E+03 0.  0.
        -24    2    4    4    0    0  0.50060830652E+02  0.22686713362E+01  0.20566229621E+03  0.22509090311E+03  0.76535618790E+02 0.  0.
         24    2    4    4    0    0 -0.56763699643E+03  0.44567774333E+03  0.88313389898E+02  0.73142186174E+03  0.79613280194E+02 0.  0.
         11    1    5    5    0    0  0.68288896803E+02 -0.48854968267E+00  0.12592861376E+03  0.14325371853E+03  0.00000000000E+00 0. -1.
        -12    1    5    5    0    0 -0.18228066151E+02  0.27572210188E+01  0.79733682447E+02  0.81837184579E+02  0.00000000000E+00 0.  1.
         11    1    3    3    0    0  0.17222255917E+03 -0.20038783393E+03  0.49763409397E+01  0.26427383117E+03  0.00000000000E+00 0. -1.
        -12    1    3    3    0    0  0.34535360662E+03 -0.24755858073E+03 -0.14960414835E+01  0.42491952489E+03  0.00000000000E+00 0.  1.
          2    1    6    6  502    0 -0.22804190386E+03  0.22492721109E+03  0.22750105577E+02  0.32111201707E+03  0.00000000000E+00 0. -1.
         -1    1    6    6    0  502 -0.33959509257E+03  0.22075053224E+03  0.65563284321E+02  0.41030984467E+03  0.00000000000E+00 0.  1.
<mgrwt>
<rscale>  0 0.75060642E+03</rscale>
<asrwt>0</asrwt>
<pdfrwt beam="1">  1        1 0.14947401E+00 0.75060642E+03</pdfrwt>
<pdfrwt beam="2">  1       -2 0.10371155E+00 0.75060642E+03</pdfrwt>
<totfact> 0.10824475E+01</totfact>
</mgrwt>
</event>
<event>
12    3  0.2212098E-007  0.5572985E+03  0.7818608E-02  0.9998186E-01
         -2   -1    0    0    0  501 -0.00000000000E+00  0.00000000000E+00  0.77561902219E+03  0.77561902219E+03  0.00000000000E+00 0.  1.
          1   -1    0    0  501    0  0.00000000000E+00 -0.00000000000E+00 -0.64386255146E+03  0.64386255146E+03  0.00000000000E+00 0. -1.
        -24    2    1    2    0    0  0.38365133685E+03  0.37541880910E+03  0.26344531996E+03  0.60371488859E+03  0.83310261079E+02 0.  0.
    5000000    2    1    2    0    0 -0.38365133685E+03 -0.37541880910E+03 -0.13168884923E+03  0.81576668507E+03  0.60000475079E+03 0.  0.
        -24    2    4    4    0    0 -0.16327661693E+03 -0.72730488759E+02 -0.33098507051E+03  0.38428979618E+03  0.78603771634E+02 0.  0.
         24    2    4    4    0    0 -0.22037471992E+03 -0.30268832034E+03  0.19929622128E+03  0.43147688889E+03  0.79171240884E+02 0.  0.
         11    1    5    5    0    0 -0.34592158030E+02  0.14509247528E+02 -0.43344709652E+02  0.57322766121E+02  0.00000000000E+00 0. -1.
        -12    1    5    5    0    0 -0.12868445890E+03 -0.87239736287E+02 -0.28764036086E+03  0.32696703006E+03  0.00000000000E+00 0.  1.
         13    1    3    3    0    0  0.23703450374E+03  0.18803601715E+03  0.11738833661E+03  0.32453493075E+03  0.00000000000E+00 0. -1.
        -14    1    3    3    0    0  0.14661683311E+03  0.18738279195E+03  0.14605698335E+03  0.27917995783E+03  0.00000000000E+00 0.  1.
          4    1    6    6  502    0 -0.14833864810E+03 -0.25413060772E+03  0.13706090242E+03  0.32461116936E+03  0.00000000000E+00 0. -1.
         -3    1    6    6    0  502 -0.72036071813E+02 -0.48557712615E+02  0.62235318861E+02  0.10686571953E+03  0.00000000000E+00 0.  1.
<mgrwt>
<rscale>  0 0.55729846E+03</rscale>
<asrwt>0</asrwt>
<pdfrwt beam="1">  1        1 0.99055777E-01 0.55729846E+03</pdfrwt>
<pdfrwt beam="2">  1       -2 0.11932600E+00 0.55729846E+03</pdfrwt>
<totfact> 0.15178859E+01</totfact>
</mgrwt>
</event>
<event>
12    3  0.2212098E-007  0.4832644E+03  0.7818608E-02  0.1018242E+00
         -2   -1    0    0    0  501 -0.00000000000E+00  0.00000000000E+00  0.11228223990E+04  0.11228223990E+04  0.00000000000E+00 0.  1.
          1   -1    0    0  501    0  0.00000000000E+00 -0.00000000000E+00 -0.22513784826E+03  0.22513784826E+03  0.00000000000E+00 0. -1.
        -24    2    1    2    0    0  0.30134135553E+03  0.20587335829E+02  0.42056905654E+03  0.52402369658E+03  0.80573272910E+02 0.  0.
    5000000    2    1    2    0    0 -0.30134135553E+03 -0.20587335829E+02  0.47711549418E+03  0.82393655065E+03  0.60000149480E+03 0.  0.
        -24    2    4    4    0    0 -0.31723337473E+03 -0.25974709324E+03  0.26938963229E+03  0.49692620440E+03  0.79115814797E+02 0.  0.
         24    2    4    4    0    0  0.15892019193E+02  0.23915975741E+03  0.20772586189E+03  0.32701034625E+03  0.79597657112E+02 0.  0.
         11    1    3    3    0    0  0.96684887954E+02 -0.25499644706E+02  0.17005508375E+03  0.19727374622E+03  0.00000000000E+00 0. -1.
        -12    1    3    3    0    0  0.20465646758E+03  0.46086980535E+02  0.25051397279E+03  0.32674995036E+03  0.00000000000E+00 0.  1.
         13    1    5    5    0    0 -0.24595315115E+03 -0.21322402929E+03  0.24783444029E+03  0.40912021341E+03  0.00000000000E+00 0. -1.
        -14    1    5    5    0    0 -0.71280223574E+02 -0.46523063942E+02  0.21555192002E+02  0.87805990989E+02  0.00000000000E+00 0.  1.
          4    1    6    6  502    0  0.29823817166E+02  0.66218532891E+02  0.29820578077E+02  0.78508732288E+02  0.00000000000E+00 0. -1.
         -3    1    6    6    0  502 -0.13931797974E+02  0.17294122452E+03  0.17790528381E+03  0.24850161396E+03  0.00000000000E+00 0.  1.
<mgrwt>
<rscale>  0 0.48326445E+03</rscale>
<asrwt>0</asrwt>
<pdfrwt beam="1">  1        1 0.34636593E-01 0.48326445E+03</pdfrwt>
<pdfrwt beam="2">  1       -2 0.17274190E+00 0.48326445E+03</pdfrwt>
<totfact> 0.23619375E+01</totfact>
</mgrwt>
</event>
<event>
12    3  0.2212098E-007  0.8047697E+03  0.7818608E-02  0.9553139E-01
          1   -1    0    0  501    0  0.00000000000E+00  0.00000000000E+00  0.10488795940E+04  0.10488795940E+04  0.00000000000E+00 0. -1.
         -2   -1    0    0    0  501 -0.00000000000E+00 -0.00000000000E+00 -0.69314443452E+03  0.69314443452E+03  0.00000000000E+00 0.  1.
        -24    2    1    2    0    0  0.60054841539E+03 -0.35323853979E+03  0.42470058613E+03  0.81986581011E+03  0.79834162479E+02 0.  0.
    5000000    2    1    2    0    0 -0.60054841539E+03  0.35323853979E+03 -0.68965426597E+02  0.92215821846E+03  0.60015305096E+03 0.  0.
        -24    2    4    4    0    0 -0.33156952445E+03 -0.12537638542E+03  0.57937330294E+01  0.36382036969E+03  0.81695204878E+02 0.  0.
         24    2    4    4    0    0 -0.26897889095E+03  0.47861492521E+03 -0.74759159626E+02  0.55833784876E+03  0.68777401865E+02 0.  0.
         11    1    5    5    0    0 -0.10883770198E+03 -0.94928351946E+01 -0.21233697493E+02  0.11129523441E+03  0.00000000000E+00 0. -1.
        -12    1    5    5    0    0 -0.22273182246E+03 -0.11588355022E+03  0.27027430522E+02  0.25252513528E+03  0.00000000000E+00 0.  1.
         13    1    3    3    0    0  0.50217876854E+03 -0.28632132647E+03  0.38458531695E+03  0.69431209378E+03  0.00000000000E+00 0. -1.
        -14    1    3    3    0    0  0.98369646855E+02 -0.66917213321E+02  0.40115269180E+02  0.12555371632E+03  0.00000000000E+00 0.  1.
          2    1    6    6  502    0 -0.31299945071E+02  0.24989417599E+02  0.37801978935E+01  0.40229932258E+02  0.00000000000E+00 0. -1.
         -1    1    6    6    0  502 -0.23767894588E+03  0.45362550761E+03 -0.78539357520E+02  0.51810791650E+03  0.00000000000E+00 0.  1.
<mgrwt>
<rscale>  0 0.80476966E+03</rscale>
<asrwt>0</asrwt>
<pdfrwt beam="1">  1        1 0.16136609E+00 0.80476966E+03</pdfrwt>
<pdfrwt beam="2">  1       -2 0.10663760E+00 0.80476966E+03</pdfrwt>
<totfact> 0.87683721E+00</totfact>
</mgrwt>
</event>
<event>
12    3  0.2212098E-007  0.1020685E+04  0.7818608E-02  0.9286145E-01
         -4   -1    0    0    0  501 -0.00000000000E+00  0.00000000000E+00  0.40472620003E+03  0.40472620003E+03  0.00000000000E+00 0.  1.
          1   -1    0    0  501    0  0.00000000000E+00 -0.00000000000E+00 -0.26596944398E+04  0.26596944398E+04  0.00000000000E+00 0. -1.
        -24    2    1    2    0    0 -0.78104934141E+03  0.53794464747E+03 -0.10851228409E+04  0.14433023094E+04  0.78787429410E+02 0.  0.
    5000000    2    1    2    0    0  0.78104934141E+03 -0.53794464747E+03 -0.11698453988E+04  0.16211183304E+04  0.60005321976E+03 0.  0.
        -24    2    4    4    0    0  0.68898967715E+03 -0.17272530582E+03 -0.90863573595E+03  0.11560095333E+04  0.78729498600E+02 0.  0.
         24    2    4    4    0    0  0.92059664252E+02 -0.36521934165E+03 -0.26120966289E+03  0.46510879711E+03  0.78965535885E+02 0.  0.
         11    1    3    3    0    0 -0.55496900922E+03  0.40082915902E+03 -0.82975099863E+03  0.10757050412E+04  0.00000000000E+00 0. -1.
        -12    1    3    3    0    0 -0.22608033219E+03  0.13711548846E+03 -0.25537184231E+03  0.36759726824E+03  0.00000000000E+00 0.  1.
         11    1    5    5    0    0  0.44338153593E+03 -0.14875052565E+03 -0.60821597716E+03  0.76722915753E+03  0.00000000000E+00 0. -1.
        -12    1    5    5    0    0  0.24560814122E+03 -0.23974780173E+02 -0.30041975879E+03  0.38878037578E+03  0.00000000000E+00 0.  1.
          2    1    6    6  502    0  0.22816786286E+02 -0.15323488903E+03 -0.15106529625E+03  0.21638452044E+03  0.00000000000E+00 0. -1.
         -1    1    6    6    0  502  0.69242877965E+02 -0.21198445262E+03 -0.11014436664E+03  0.24872427667E+03  0.00000000000E+00 0.  1.
<mgrwt>
<rscale>  0 0.10206846E+04</rscale>
<asrwt>0</asrwt>
<pdfrwt beam="1">  1        1 0.40918376E+00 0.10206846E+04</pdfrwt>
<pdfrwt beam="2">  1       -4 0.62265569E-01 0.10206846E+04</pdfrwt>
<totfact> 0.12477352E+00</totfact>
</mgrwt>
</event>
<event>
12    3  0.2212098E-007  0.5790409E+03  0.7818608E-02  0.9949870E-01
         -2   -1    0    0    0  501 -0.00000000000E+00  0.00000000000E+00  0.96062324429E+03  0.96062324429E+03  0.00000000000E+00 0.  1.
          1   -1    0    0  501    0  0.00000000000E+00 -0.00000000000E+00 -0.12449564145E+04  0.12449564145E+04  0.00000000000E+00 0. -1.
        -24    2    1    2    0    0  0.44299224616E+03  0.13844811932E+03 -0.10358796598E+04  0.11377876937E+04  0.78129089543E+02 0.  0.
    5000000    2    1    2    0    0 -0.44299224616E+03 -0.13844811932E+03  0.75154648957E+03  0.10677919650E+04  0.59995628399E+03 0.  0.
        -24    2    4    4    0    0  0.10181774139E+03 -0.45974238413E+01  0.87075983516E+01  0.13344190948E+03  0.85690910661E+02 0.  0.
         24    2    4    4    0    0 -0.54480998755E+03 -0.13385069548E+03  0.74283889122E+03  0.93435005555E+03  0.80414406581E+02 0.  0.
         13    1    5    5    0    0  0.10837254967E+03 -0.20317773037E+02  0.21250238158E+02  0.11228977712E+03  0.00000000000E+00 0. -1.
        -14    1    5    5    0    0 -0.65548082789E+01  0.15720349195E+02 -0.12542639807E+02  0.21152132368E+02  0.00000000000E+00 0.  1.
         13    1    3    3    0    0  0.31221136634E+02  0.30540996872E+02 -0.12343118310E+03  0.13093039687E+03  0.00000000000E+00 0. -1.
        -14    1    3    3    0    0  0.41177110952E+03  0.10790712245E+03 -0.91244847665E+03  0.10068572969E+04  0.00000000000E+00 0.  1.
          2    1    6    6  502    0 -0.27739183048E+03 -0.56878352491E+02  0.43837265804E+03  0.52187351142E+03  0.00000000000E+00 0. -1.
         -1    1    6    6    0  502 -0.26741815707E+03 -0.76972342991E+02  0.30446623318E+03  0.41247654413E+03  0.00000000000E+00 0.  1.
<mgrwt>
<rscale>  0 0.57904087E+03</rscale>
<asrwt>0</asrwt>
<pdfrwt beam="1">  1        1 0.19153176E+00 0.57904087E+03</pdfrwt>
<pdfrwt beam="2">  1       -2 0.14778819E+00 0.57904087E+03</pdfrwt>
<totfact> 0.28751853E+00</totfact>
</mgrwt>
</event>
<event>
12    3  0.2212098E-007  0.8491858E+03  0.7818608E-02  0.9491430E-01
         -2   -1    0    0    0  501 -0.00000000000E+00  0.00000000000E+00  0.61728118465E+03  0.61728118465E+03  0.00000000000E+00 0.  1.
          1   -1    0    0  501    0  0.00000000000E+00 -0.00000000000E+00 -0.14741328753E+04  0.14741328753E+04  0.00000000000E+00 0. -1.
        -24    2    1    2    0    0 -0.14512784247E+03  0.79863034661E+03 -0.84365070668E+02  0.82006820389E+03  0.80758112187E+02 0.  0.
    5000000    2    1    2    0    0  0.14512784247E+03 -0.79863034661E+03 -0.77248662001E+03  0.12713458561E+04  0.60059319552E+03 0.  0.
        -24    2    4    4    0    0  0.15907887441E+03 -0.79028581191E+03 -0.42562816690E+03  0.91490123156E+03  0.77634877880E+02 0.  0.
         24    2    4    4    0    0 -0.13951031941E+02 -0.83445347037E+01 -0.34685845311E+03  0.35644462453E+03  0.80484292319E+02 0.  0.
         13    1    5    5    0    0  0.11483998643E+03 -0.66249115523E+03 -0.32800187795E+03  0.74810960773E+03  0.00000000000E+00 0. -1.
        -14    1    5    5    0    0  0.44238887980E+02 -0.12779465668E+03 -0.97626288950E+02  0.16679162383E+03  0.00000000000E+00 0.  1.
         13    1    3    3    0    0 -0.15724236049E+02  0.19436285605E+03 -0.49154710522E+02  0.20109787910E+03  0.00000000000E+00 0. -1.
        -14    1    3    3    0    0 -0.12940360642E+03  0.60426749056E+03 -0.35210360146E+02  0.61897032478E+03  0.00000000000E+00 0.  1.
          4    1    6    6  502    0 -0.10197275489E+02  0.33893923517E+02 -0.10262496914E+03  0.10855720506E+03  0.00000000000E+00 0. -1.
         -3    1    6    6    0  502 -0.37537564519E+01 -0.42238458221E+02 -0.24423348397E+03  0.24788741947E+03  0.00000000000E+00 0.  1.
<mgrwt>
<rscale>  0 0.84918584E+03</rscale>
<asrwt>0</asrwt>
<pdfrwt beam="1">  1        1 0.22678967E+00 0.84918584E+03</pdfrwt>
<pdfrwt beam="2">  1       -2 0.94966336E-01 0.84918584E+03</pdfrwt>
<totfact> 0.56844208E+00</totfact>
</mgrwt>
</event>
<event>
12    3  0.2212098E-007  0.9401844E+03  0.7818608E-02  0.9376698E-01
          1   -1    0    0  501    0  0.00000000000E+00  0.00000000000E+00  0.16853425467E+04  0.16853425467E+04  0.00000000000E+00 0. -1.
         -2   -1    0    0    0  501 -0.00000000000E+00 -0.00000000000E+00 -0.61403166466E+03  0.61403166466E+03  0.00000000000E+00 0.  1.
        -24    2    1    2    0    0 -0.48990536620E+03  0.78717988971E+03  0.51346382489E+03  0.10621628974E+04  0.69896169263E+02 0.  0.
    5000000    2    1    2    0    0  0.48990536620E+03 -0.78717988971E+03  0.55784705717E+03  0.12372113140E+04  0.59986585978E+03 0.  0.
        -24    2    4    4    0    0  0.97835340897E+02 -0.53516094269E+02 -0.10327200400E+03  0.17162925009E+03  0.79723060660E+02 0.  0.
         24    2    4    4    0    0  0.39207002530E+03 -0.73366379544E+03  0.66111906117E+03  0.10655820639E+04  0.80032820976E+02 0.  0.
         11    1    3    3    0    0 -0.34939887442E+03  0.59691671009E+03  0.35475927300E+03  0.77733086521E+03  0.00000000000E+00 0. -1.
        -12    1    3    3    0    0 -0.14050649178E+03  0.19026317962E+03  0.15870455189E+03  0.28483203216E+03  0.00000000000E+00 0.  1.
         13    1    5    5    0    0  0.46163802132E+02 -0.49140726287E+02 -0.98755380489E+02  0.11957647253E+03  0.00000000000E+00 0. -1.
        -14    1    5    5    0    0  0.51671538765E+02 -0.43753679821E+01 -0.45166235092E+01  0.52052777556E+02  0.00000000000E+00 0.  1.
          2    1    6    6  502    0  0.15878738770E+03 -0.34142787701E+03  0.34234686446E+03  0.50890844491E+03  0.00000000000E+00 0. -1.
         -1    1    6    6    0  502  0.23328263761E+03 -0.39223591843E+03  0.31877219671E+03  0.55667361902E+03  0.00000000000E+00 0.  1.
<mgrwt>
<rscale>  0 0.94018440E+03</rscale>
<asrwt>0</asrwt>
<pdfrwt beam="1">  1        1 0.25928347E+00 0.94018440E+03</pdfrwt>
<pdfrwt beam="2">  1       -2 0.94466410E-01 0.94018440E+03</pdfrwt>
<totfact> 0.40825067E+00</totfact>
</mgrwt>
</event>
<event>
12    3  0.2212098E-007  0.7119042E+03  0.7818608E-02  0.9697088E-01
         -2   -1    0    0    0  501 -0.00000000000E+00  0.00000000000E+00  0.20457264379E+03  0.20457264379E+03  0.00000000000E+00 0.  1.
          1   -1    0    0  501    0  0.00000000000E+00 -0.00000000000E+00 -0.31831237298E+04  0.31831237298E+04  0.00000000000E+00 0. -1.
        -24    2    1    2    0    0  0.17256723807E+03  0.62209608805E+03 -0.18151991723E+04  0.19282209420E+04  0.79403853183E+02 0.  0.
    5000000    2    1    2    0    0 -0.17256723807E+03 -0.62209608805E+03 -0.11633519138E+04  0.14594754316E+04  0.59991488202E+03 0.  0.
        -24    2    4    4    0    0 -0.67145648571E+02 -0.64776699567E+03 -0.62827528443E+03  0.90774934389E+03  0.71891720665E+02 0.  0.
         24    2    4    4    0    0 -0.10542158950E+03  0.25670907625E+02 -0.53507662934E+03  0.55172608769E+03  0.79510813943E+02 0.  0.
         11    1    5    5    0    0  0.80514903241E+01 -0.14841309634E+03 -0.17011529081E+03  0.22589928249E+03  0.00000000000E+00 0. -1.
        -12    1    5    5    0    0 -0.75197138895E+02 -0.49935389934E+03 -0.45815999362E+03  0.68185006140E+03  0.00000000000E+00 0.  1.
         13    1    3    3    0    0  0.63114676060E+02  0.23582108753E+03 -0.80367193965E+03  0.83993073181E+03  0.00000000000E+00 0. -1.
        -14    1    3    3    0    0  0.10945256201E+03  0.38627500052E+03 -0.10115272326E+04  0.10882902102E+04  0.00000000000E+00 0.  1.
          4    1    6    6  502    0 -0.40618559249E+02 -0.20033677017E+02 -0.30551946053E+03  0.30885814921E+03  0.00000000000E+00 0. -1.
         -3    1    6    6    0  502 -0.64803030250E+02  0.45704584642E+02 -0.22955716882E+03  0.24286793848E+03  0.00000000000E+00 0.  1.
<mgrwt>
<rscale>  0 0.71190418E+03</rscale>
<asrwt>0</asrwt>
<pdfrwt beam="1">  1        1 0.48971133E+00 0.71190418E+03</pdfrwt>
<pdfrwt beam="2">  1       -2 0.31472715E-01 0.71190418E+03</pdfrwt>
<totfact> 0.38851434E+00</totfact>
</mgrwt>
</event>
<event>
12    3  0.2212098E-007  0.7204578E+03  0.7818608E-02  0.9682872E-01
          3   -1    0    0  501    0  0.00000000000E+00  0.00000000000E+00  0.51122235350E+03  0.51122235350E+03  0.00000000000E+00 0. -1.
         -4   -1    0    0    0  501 -0.00000000000E+00 -0.00000000000E+00 -0.11005545621E+04  0.11005545621E+04  0.00000000000E+00 0.  1.
        -24    2    1    2    0    0  0.48332340257E+03 -0.36250552765E+03 -0.67150426379E+02  0.61266068418E+03  0.76368613492E+02 0.  0.
    5000000    2    1    2    0    0 -0.48332340257E+03  0.36250552765E+03 -0.52218178223E+03  0.99911623143E+03  0.60045621085E+03 0.  0.
        -24    2    4    4    0    0 -0.20473475927E+03 -0.14305704424E+03 -0.22157888079E+03  0.34309550405E+03  0.78966353160E+02 0.  0.
         24    2    4    4    0    0 -0.27858864331E+03  0.50556257189E+03 -0.30060290145E+03  0.65602072738E+03  0.82437516420E+02 0.  0.
         11    1    3    3    0    0  0.16866093413E+03 -0.82478452118E+02 -0.20961241046E+02  0.18891421172E+03  0.00000000000E+00 0. -1.
        -12    1    3    3    0    0  0.31466246845E+03 -0.28002707554E+03 -0.46189185333E+02  0.42374647246E+03  0.00000000000E+00 0.  1.
         11    1    5    5    0    0 -0.20471917883E+03 -0.14074349258E+03 -0.19343931519E+03  0.31486098765E+03  0.00000000000E+00 0. -1.
        -12    1    5    5    0    0 -0.15580432373E-01 -0.23135516560E+01 -0.28139565600E+02  0.28234516397E+02  0.00000000000E+00 0.  1.
          4    1    6    6  502    0 -0.22298142223E+03  0.34042876038E+03 -0.18585698989E+03  0.44738716594E+03  0.00000000000E+00 0. -1.
         -3    1    6    6    0  502 -0.55607221074E+02  0.16513381151E+03 -0.11474591156E+03  0.20863356144E+03  0.00000000000E+00 0.  1.
<mgrwt>
<rscale>  0 0.72045775E+03</rscale>
<asrwt>0</asrwt>
<pdfrwt beam="1">  1        3 0.78649593E-01 0.72045775E+03</pdfrwt>
<pdfrwt beam="2">  1       -4 0.16931609E+00 0.72045775E+03</pdfrwt>
<totfact> 0.73113787E-01</totfact>
</mgrwt>
</event>
<event>
12    3  0.2212098E-007  0.9682079E+03  0.7818608E-02  0.9344118E-01
          1   -1    0    0  501    0  0.00000000000E+00  0.00000000000E+00  0.89355361839E+03  0.89355361839E+03  0.00000000000E+00 0. -1.
         -2   -1    0    0    0  501 -0.00000000000E+00 -0.00000000000E+00 -0.11648190440E+04  0.11648190440E+04  0.00000000000E+00 0.  1.
        -24    2    1    2    0    0 -0.64090745733E+03 -0.64419837280E+03  0.76596222406E+02  0.91525470747E+03  0.77912039329E+02 0.  0.
    5000000    2    1    2    0    0  0.64090745733E+03  0.64419837280E+03 -0.34786164804E+03  0.11431179550E+04  0.59996418257E+03 0.  0.
        -24    2    4    4    0    0  0.66624921850E+03  0.66307033900E+03 -0.41858331425E+03  0.10320310041E+04  0.79534312432E+02 0.  0.
         24    2    4    4    0    0 -0.25341761168E+02 -0.18871966201E+02  0.70721666210E+02  0.11108695084E+03  0.79626632532E+02 0.  0.
         13    1    5    5    0    0  0.42248146991E+03  0.45715968887E+03 -0.24669965224E+03  0.66958665754E+03  0.00000000000E+00 0. -1.
        -14    1    5    5    0    0  0.24376774859E+03  0.20591065014E+03 -0.17188366201E+03  0.36244434657E+03  0.00000000000E+00 0.  1.
         13    1    3    3    0    0 -0.30404441183E+03 -0.32718610800E+03  0.73610724895E+02  0.45267238976E+03  0.00000000000E+00 0. -1.
        -14    1    3    3    0    0 -0.33686304550E+03 -0.31701226481E+03  0.29854975105E+01  0.46258231771E+03  0.00000000000E+00 0.  1.
          2    1    6    6  502    0 -0.54243007478E+02 -0.84667453079E+01  0.43526594556E+02  0.70061073857E+02  0.00000000000E+00 0. -1.
         -1    1    6    6    0  502  0.28901246310E+02 -0.10405220893E+02  0.27195071654E+02  0.41025876985E+02  0.00000000000E+00 0.  1.
<mgrwt>
<rscale>  0 0.96820793E+03</rscale>
<asrwt>0</asrwt>
<pdfrwt beam="1">  1        1 0.13746979E+00 0.96820793E+03</pdfrwt>
<pdfrwt beam="2">  1       -2 0.17920293E+00 0.96820793E+03</pdfrwt>
<totfact> 0.29633452E+00</totfact>
</mgrwt>
</event>
<event>
12    3  0.2212098E-007  0.6747579E+03  0.7818608E-02  0.9761401E-01
          3   -1    0    0  501    0  0.00000000000E+00  0.00000000000E+00  0.87256151191E+03  0.87256151191E+03  0.00000000000E+00 0. -1.
         -4   -1    0    0    0  501 -0.00000000000E+00 -0.00000000000E+00 -0.59086662863E+03  0.59086662863E+03  0.00000000000E+00 0.  1.
        -24    2    1    2    0    0 -0.47450904788E+03  0.26651249358E+03  0.34624762508E+03  0.65081917095E+03  0.86547268232E+02 0.  0.
    5000000    2    1    2    0    0  0.47450904788E+03 -0.26651249358E+03 -0.64552741797E+02  0.81260896959E+03  0.59998211242E+03 0.  0.
        -24    2    4    4    0    0 -0.11804998549E+03 -0.13091089763E+03 -0.47234057348E+02  0.19920086994E+03  0.79852790939E+02 0.  0.
         24    2    4    4    0    0  0.59255903337E+03 -0.13560159596E+03 -0.17318684449E+02  0.61340809965E+03  0.80346493549E+02 0.  0.
         11    1    5    5    0    0 -0.11362836437E+02  0.11080593733E+02 -0.50382034012E+01  0.16651639646E+02  0.00000000000E+00 0. -1.
        -12    1    5    5    0    0 -0.10668714905E+03 -0.14199149136E+03 -0.42195853947E+02  0.18254923030E+03  0.00000000000E+00 0.  1.
         11    1    3    3    0    0 -0.13887965295E+03  0.96893803130E+02  0.65672189903E+02  0.18162820160E+03  0.00000000000E+00 0. -1.
        -12    1    3    3    0    0 -0.33562939493E+03  0.16961869045E+03  0.28057543518E+03  0.46919096935E+03  0.00000000000E+00 0.  1.
          2    1    6    6  502    0  0.31735718435E+03 -0.42875034500E+02  0.18664002257E+02  0.32078372157E+03  0.00000000000E+00 0. -1.
         -1    1    6    6    0  502  0.27520184902E+03 -0.92726561457E+02 -0.35982686705E+02  0.29262437808E+03  0.00000000000E+00 0.  1.
<mgrwt>
<rscale>  0 0.67475787E+03</rscale>
<asrwt>0</asrwt>
<pdfrwt beam="1">  1        3 0.13424023E+00 0.67475787E+03</pdfrwt>
<pdfrwt beam="2">  1       -4 0.90902558E-01 0.67475787E+03</pdfrwt>
<totfact> 0.10024516E+00</totfact>
</mgrwt>
</event>
<event>
12    3  0.2212098E-007  0.9735349E+03  0.7818608E-02  0.9338057E-01
         -2   -1    0    0    0  501 -0.00000000000E+00  0.00000000000E+00  0.12643152949E+04  0.12643152949E+04  0.00000000000E+00 0.  1.
          1   -1    0    0  501    0  0.00000000000E+00 -0.00000000000E+00 -0.88606470417E+03  0.88606470417E+03  0.00000000000E+00 0. -1.
        -24    2    1    2    0    0 -0.90703035402E+01 -0.94036693192E+03  0.42247747732E+03  0.10340208175E+04  0.79621574353E+02 0.  0.
    5000000    2    1    2    0    0  0.90703035402E+01  0.94036693192E+03 -0.44226886629E+02  0.11163591815E+04  0.59994130349E+03 0.  0.
        -24    2    4    4    0    0  0.14399873229E+03  0.23108428587E+03 -0.22965229992E+03  0.36605636513E+03  0.84388989300E+02 0.  0.
         24    2    4    4    0    0 -0.13492842875E+03  0.70928264605E+03  0.18542541329E+03  0.75030281641E+03  0.85347404977E+02 0.  0.
         13    1    5    5    0    0  0.11647475331E+03  0.11046474783E+03 -0.11594176298E+03  0.19801848670E+03  0.00000000000E+00 0. -1.
        -14    1    5    5    0    0  0.27523978982E+02  0.12061953804E+03 -0.11371053694E+03  0.16803787843E+03  0.00000000000E+00 0.  1.
         13    1    3    3    0    0  0.85937893758E+01 -0.26354078864E+03  0.15627490835E+03  0.30651174117E+03  0.00000000000E+00 0. -1.
        -14    1    3    3    0    0 -0.17664092916E+02 -0.67682614328E+03  0.26620256897E+03  0.72750907632E+03  0.00000000000E+00 0.  1.
          4    1    6    6  502    0 -0.13292643446E+03  0.68907134843E+03  0.19424250950E+03  0.72816132327E+03  0.00000000000E+00 0. -1.
         -3    1    6    6    0  502 -0.20019942901E+01  0.20211297620E+02 -0.88170962133E+01  0.22141493135E+02  0.00000000000E+00 0.  1.
<mgrwt>
<rscale>  0 0.97353493E+03</rscale>
<asrwt>0</asrwt>
<pdfrwt beam="1">  1        1 0.13631765E+00 0.97353493E+03</pdfrwt>
<pdfrwt beam="2">  1       -2 0.19451005E+00 0.97353493E+03</pdfrwt>
<totfact> 0.23669695E+00</totfact>
</mgrwt>
</event>
<event>
12    3  0.2212098E-007  0.4500577E+03  0.7818608E-02  0.1027705E+00
         -2   -1    0    0    0  501 -0.00000000000E+00  0.00000000000E+00  0.27552304687E+03  0.27552304687E+03  0.00000000000E+00 0.  1.
          1   -1    0    0  501    0  0.00000000000E+00 -0.00000000000E+00 -0.11942463741E+04  0.11942463741E+04  0.00000000000E+00 0. -1.
        -24    2    1    2    0    0 -0.15993908579E+03 -0.21713601708E+03  0.63359412830E+02  0.28776401255E+03  0.77879077087E+02 0.  0.
    5000000    2    1    2    0    0  0.15993908579E+03  0.21713601708E+03 -0.98208274005E+03  0.11820054084E+04  0.59993475988E+03 0.  0.
        -24    2    4    4    0    0  0.36610730715E+03  0.18454499471E+03 -0.51626262017E+03  0.66424230343E+03  0.81236255779E+02 0.  0.
         24    2    4    4    0    0 -0.20616822136E+03  0.32591022369E+02 -0.46582011988E+03  0.51776310498E+03  0.86733722140E+02 0.  0.
         11    1    3    3    0    0 -0.88907924639E+01 -0.59965351554E+01 -0.13291361795E+02  0.17078200224E+02  0.00000000000E+00 0. -1.
        -12    1    3    3    0    0 -0.15104829333E+03 -0.21113948193E+03  0.76650774625E+02  0.27068581233E+03  0.00000000000E+00 0.  1.
         11    1    5    5    0    0  0.22203585990E+03  0.68349637077E+02 -0.30423579823E+03  0.38279370018E+03  0.00000000000E+00 0. -1.
        -12    1    5    5    0    0  0.14407144725E+03  0.11619535764E+03 -0.21202682194E+03  0.28144860325E+03  0.00000000000E+00 0.  1.
          4    1    6    6  502    0 -0.19381897674E+03  0.20174574960E+02 -0.34968763771E+03  0.40031769032E+03  0.00000000000E+00 0. -1.
         -3    1    6    6    0  502 -0.12349244621E+02  0.12416447410E+02 -0.11613248217E+03  0.11744541466E+03  0.00000000000E+00 0.  1.
<mgrwt>
<rscale>  0 0.45005773E+03</rscale>
<asrwt>0</asrwt>
<pdfrwt beam="1">  1        1 0.18373021E+00 0.45005773E+03</pdfrwt>
<pdfrwt beam="2">  1       -2 0.42388162E-01 0.45005773E+03</pdfrwt>
<totfact> 0.52932014E+01</totfact>
</mgrwt>
</event>
<event>
12    3  0.2212098E-007  0.7885237E+03  0.7818608E-02  0.9576779E-01
         -2   -1    0    0    0  501 -0.00000000000E+00  0.00000000000E+00  0.17585270355E+03  0.17585270355E+03  0.00000000000E+00 0.  1.
          1   -1    0    0  501    0  0.00000000000E+00 -0.00000000000E+00 -0.51073923894E+04  0.51073923894E+04  0.00000000000E+00 0. -1.
        -24    2    1    2    0    0  0.16577282415E+03  0.70423458819E+03 -0.34705161108E+04  0.35460227464E+04  0.79801367481E+02 0.  0.
    5000000    2    1    2    0    0 -0.16577282415E+03 -0.70423458819E+03 -0.14610235750E+04  0.17372223465E+04  0.59993717177E+03 0.  0.
        -24    2    4    4    0    0  0.15302005342E+03 -0.24478829996E+03 -0.87317219560E+03  0.92199990515E+03  0.65709157482E+02 0.  0.
         24    2    4    4    0    0 -0.31879287756E+03 -0.45944628823E+03 -0.58785137940E+03  0.81522244136E+03  0.79363682405E+02 0.  0.
         11    1    3    3    0    0  0.22929546314E+02  0.19106663914E+03 -0.79094529855E+03  0.81401885112E+03  0.00000000000E+00 0. -1.
        -12    1    3    3    0    0  0.14284327783E+03  0.51316794905E+03 -0.26795708123E+04  0.27320038953E+04  0.00000000000E+00 0.  1.
         13    1    5    5    0    0  0.10926960010E+03 -0.18366688202E+03 -0.72514482049E+03  0.75598173241E+03  0.00000000000E+00 0. -1.
        -14    1    5    5    0    0  0.43750453314E+02 -0.61121417945E+02 -0.14802737512E+03  0.16601817274E+03  0.00000000000E+00 0.  1.
          2    1    6    6  502    0 -0.26051945345E+03 -0.32505030888E+03 -0.46230846288E+03  0.62229993072E+03  0.00000000000E+00 0. -1.
         -1    1    6    6    0  502 -0.58273424117E+02 -0.13439597934E+03 -0.12554291652E+03  0.19292251064E+03  0.00000000000E+00 0.  1.
<mgrwt>
<rscale>  0 0.78852368E+03</rscale>
<asrwt>0</asrwt>
<pdfrwt beam="1">  1        1 0.78575258E+00 0.78852368E+03</pdfrwt>
<pdfrwt beam="2">  1       -2 0.27054265E-01 0.78852368E+03</pdfrwt>
<totfact> 0.78941361E-02</totfact>
</mgrwt>
</event>
<event>
12    3  0.2212098E-007  0.8245048E+03  0.7818608E-02  0.9525209E-01
          1   -1    0    0  501    0  0.00000000000E+00  0.00000000000E+00  0.80960186049E+03  0.80960186049E+03  0.00000000000E+00 0. -1.
         -2   -1    0    0    0  501 -0.00000000000E+00 -0.00000000000E+00 -0.97697942338E+03  0.97697942338E+03  0.00000000000E+00 0.  1.
        -24    2    1    2    0    0 -0.53462310351E+03 -0.55581041544E+03 -0.22689790937E+03  0.80773345690E+03  0.78762906218E+02 0.  0.
    5000000    2    1    2    0    0  0.53462310351E+03  0.55581041544E+03  0.59520346491E+02  0.97884782697E+03  0.59987775088E+03 0.  0.
        -24    2    4    4    0    0 -0.47288104819E+02  0.16843970617E+03 -0.15062798450E+03  0.24445779710E+03  0.80391077720E+02 0.  0.
         24    2    4    4    0    0  0.58191120832E+03  0.38737070927E+03  0.21014833100E+03  0.73439002987E+03  0.80558513972E+02 0.  0.
         11    1    3    3    0    0 -0.30729730847E+03 -0.36671482515E+03 -0.16077694259E+03  0.50473817376E+03  0.00000000000E+00 0. -1.
        -12    1    3    3    0    0 -0.22732579504E+03 -0.18909559029E+03 -0.66120966781E+02  0.30299528314E+03  0.00000000000E+00 0.  1.
         13    1    5    5    0    0 -0.37384982459E+02  0.15146021835E+03 -0.88643071715E+02  0.17943084690E+03  0.00000000000E+00 0. -1.
        -14    1    5    5    0    0 -0.99031223592E+01  0.16979487817E+02 -0.61984912790E+02  0.65026950202E+02  0.00000000000E+00 0.  1.
          4    1    6    6  502    0  0.45927738115E+03  0.29848357885E+03  0.19802968064E+03  0.58244649033E+03  0.00000000000E+00 0. -1.
         -1    1    6    6    0  502  0.12263382718E+03  0.88887130422E+02  0.12118650358E+02  0.15194353954E+03  0.00000000000E+00 0.  1.
<mgrwt>
<rscale>  0 0.82450480E+03</rscale>
<asrwt>0</asrwt>
<pdfrwt beam="1">  1        1 0.12455413E+00 0.82450480E+03</pdfrwt>
<pdfrwt beam="2">  1       -2 0.15030453E+00 0.82450480E+03</pdfrwt>
<totfact> 0.57440556E+00</totfact>
</mgrwt>
</event>
<event>
12    3  0.2212098E-007  0.1032560E+04  0.7818608E-02  0.9273538E-01
          1   -1    0    0  501    0  0.00000000000E+00  0.00000000000E+00  0.24087764568E+04  0.24087764568E+04  0.00000000000E+00 0. -1.
         -2   -1    0    0    0  501 -0.00000000000E+00 -0.00000000000E+00 -0.79899175537E+03  0.79899175537E+03  0.00000000000E+00 0.  1.
        -24    2    1    2    0    0 -0.81390868629E+03  0.57795814940E+03 -0.23261085310E+03  0.10281071721E+04  0.80084807004E+02 0.  0.
    5000000    2    1    2    0    0  0.81390868629E+03 -0.57795814940E+03  0.18423955545E+04  0.21796610400E+04  0.60001491486E+03 0.  0.
        -24    2    4    4    0    0 -0.34066925908E+02  0.37622658579E+01  0.38991332075E+03  0.39824866839E+03  0.73449942781E+02 0.  0.
         24    2    4    4    0    0  0.84797561220E+03 -0.58172041526E+03  0.14524822338E+04  0.17814123716E+04  0.79146181271E+02 0.  0.
         11    1    3    3    0    0 -0.60294725801E+03  0.43664624379E+03 -0.20822504667E+03  0.77302199725E+03  0.00000000000E+00 0. -1.
        -12    1    3    3    0    0 -0.21096142827E+03  0.14131190561E+03 -0.24385806430E+02  0.25508517488E+03  0.00000000000E+00 0.  1.
         11    1    5    5    0    0 -0.58668886002E+01  0.75746451858E+01  0.34465106841E+03  0.34478421453E+03  0.00000000000E+00 0. -1.
        -12    1    5    5    0    0 -0.28200037307E+02 -0.38123793279E+01  0.45262252335E+02  0.53464453861E+02  0.00000000000E+00 0.  1.
          2    1    6    6  502    0  0.49252806494E+03 -0.32097912830E+03  0.89275241208E+03  0.10689332836E+04  0.00000000000E+00 0. -1.
         -1    1    6    6    0  502  0.35544754726E+03 -0.26074128696E+03  0.55972982167E+03  0.71247908801E+03  0.00000000000E+00 0.  1.
<mgrwt>
<rscale>  0 0.10325595E+04</rscale>
<asrwt>0</asrwt>
<pdfrwt beam="1">  1        1 0.37058099E+00 0.10325595E+04</pdfrwt>
<pdfrwt beam="2">  1       -2 0.12292181E+00 0.10325595E+04</pdfrwt>
<totfact> 0.69127300E-01</totfact>
</mgrwt>
</event>
<event>
12    3  0.2212098E-007  0.9246887E+03  0.7818608E-02  0.9395235E-01
          1   -1    0    0  501    0  0.00000000000E+00  0.00000000000E+00  0.10315031600E+04  0.10315031600E+04  0.00000000000E+00 0. -1.
         -2   -1    0    0    0  501 -0.00000000000E+00 -0.00000000000E+00 -0.10043706909E+04  0.10043706909E+04  0.00000000000E+00 0.  1.
        -24    2    1    2    0    0  0.20450196370E+03  0.84917570749E+03 -0.30080990767E+03  0.92668072143E+03  0.73007695357E+02 0.  0.
    5000000    2    1    2    0    0 -0.20450196370E+03 -0.84917570749E+03  0.32794237682E+03  0.11091931295E+04  0.59986895292E+03 0.  0.
        -24    2    4    4    0    0 -0.19781619758E+03 -0.88118411323E+03  0.16133724299E+03  0.92087777856E+03  0.79809069886E+02 0.  0.
         24    2    4    4    0    0 -0.66857661248E+01  0.32008405740E+02  0.16660513383E+03  0.18831535095E+03  0.81462649591E+02 0.  0.
         13    1    5    5    0    0 -0.60314996239E+02 -0.44908067387E+03  0.74990704890E+02  0.45927655746E+03  0.00000000000E+00 0. -1.
        -14    1    5    5    0    0 -0.13750120134E+03 -0.43210343936E+03  0.86346538103E+02  0.46160122110E+03  0.00000000000E+00 0.  1.
         13    1    3    3    0    0  0.13730906493E+03  0.68467493867E+03 -0.25223794927E+03  0.74246719389E+03  0.00000000000E+00 0. -1.
        -14    1    3    3    0    0  0.67192898768E+02  0.16450076882E+03 -0.48571958399E+02  0.18421352754E+03  0.00000000000E+00 0.  1.
          2    1    6    6  502    0  0.24064043254E+02  0.25046690257E+01  0.10282837579E+02  0.26288558221E+02  0.00000000000E+00 0. -1.
         -3    1    6    6    0  502 -0.30749809379E+02  0.29503736715E+02  0.15632229625E+03  0.16202679273E+03  0.00000000000E+00 0.  1.
<mgrwt>
<rscale>  0 0.92468873E+03</rscale>
<asrwt>0</asrwt>
<pdfrwt beam="1">  1        1 0.15869279E+00 0.92468873E+03</pdfrwt>
<pdfrwt beam="2">  1       -2 0.15451857E+00 0.92468873E+03</pdfrwt>
<totfact> 0.34853673E+00</totfact>
</mgrwt>
</event>
<event>
12    3  0.2212098E-007  0.8272688E+03  0.7818608E-02  0.9521364E-01
         -2   -1    0    0    0  501 -0.00000000000E+00  0.00000000000E+00  0.31122326322E+03  0.31122326322E+03  0.00000000000E+00 0.  1.
          1   -1    0    0  501    0  0.00000000000E+00 -0.00000000000E+00 -0.26550536849E+04  0.26550536849E+04  0.00000000000E+00 0. -1.
        -24    2    1    2    0    0 -0.55761413884E+03  0.50480005988E+03 -0.15248512973E+04  0.17028002658E+04  0.92739625113E+02 0.  0.
    5000000    2    1    2    0    0  0.55761413884E+03 -0.50480005988E+03 -0.81897912434E+03  0.12634766823E+04  0.59990823653E+03 0.  0.
        -24    2    4    4    0    0  0.44553461493E+03 -0.81059231647E+02 -0.20417310157E+03  0.50390709147E+03  0.84640470779E+02 0.  0.
         24    2    4    4    0    0  0.11207952391E+03 -0.42374082823E+03 -0.61480602277E+03  0.75956959080E+03  0.82712807023E+02 0.  0.
         11    1    3    3    0    0 -0.11364527000E+03  0.15313459982E+03 -0.35103449889E+03  0.39948801292E+03  0.00000000000E+00 0. -1.
        -12    1    3    3    0    0 -0.44396886884E+03  0.35166546006E+03 -0.11738167984E+04  0.13033122529E+04  0.00000000000E+00 0.  1.
         13    1    5    5    0    0  0.27130790604E+03 -0.17334840286E+02 -0.91448582560E+02  0.28682977499E+03  0.00000000000E+00 0. -1.
        -14    1    5    5    0    0  0.17422670889E+03 -0.63724391361E+02 -0.11272451901E+03  0.21707731648E+03  0.00000000000E+00 0.  1.
          4    1    6    6  502    0  0.33136209533E+02 -0.20241237351E+03 -0.22536769952E+03  0.30472836644E+03  0.00000000000E+00 0. -1.
         -3    1    6    6    0  502  0.78943314379E+02 -0.22132845473E+03 -0.38943832325E+03  0.45484122436E+03  0.00000000000E+00 0.  1.
<mgrwt>
<rscale>  0 0.82726876E+03</rscale>
<asrwt>0</asrwt>
<pdfrwt beam="1">  1        1 0.40846979E+00 0.82726876E+03</pdfrwt>
<pdfrwt beam="2">  1       -2 0.47880502E-01 0.82726876E+03</pdfrwt>
<totfact> 0.40033811E+00</totfact>
</mgrwt>
</event>
<event>
12    3  0.2212098E-007  0.8326487E+03  0.7818608E-02  0.9513926E-01
          1   -1    0    0  501    0  0.00000000000E+00  0.00000000000E+00  0.16799107048E+04  0.16799107048E+04  0.00000000000E+00 0. -1.
         -2   -1    0    0    0  501 -0.00000000000E+00 -0.00000000000E+00 -0.44151693957E+03  0.44151693957E+03  0.00000000000E+00 0.  1.
        -24    2    1    2    0    0 -0.55856718130E+03  0.50170018053E+03  0.45430615676E+03  0.88102344347E+03  0.78152778036E+02 0.  0.
    5000000    2    1    2    0    0  0.55856718130E+03 -0.50170018053E+03  0.78408760844E+03  0.12404042009E+04  0.60009069034E+03 0.  0.
        -24    2    4    4    0    0 -0.72480173744E+02  0.29524738968E+01 -0.25471200707E+01  0.10976361246E+03  0.82337537686E+02 0.  0.
         24    2    4    4    0    0  0.63104735504E+03 -0.50465265443E+03  0.78663472851E+03  0.11306405884E+04  0.81601949176E+02 0.  0.
         13    1    5    5    0    0 -0.43889002625E+02 -0.36744601027E+02  0.12483075831E+02  0.58585300530E+02  0.00000000000E+00 0. -1.
        -14    1    5    5    0    0 -0.28591171119E+02  0.39697074924E+02 -0.15030195901E+02  0.51178311932E+02  0.00000000000E+00 0.  1.
         13    1    3    3    0    0 -0.34458764590E+03  0.31927245405E+03  0.24026596852E+03  0.52763934771E+03  0.00000000000E+00 0. -1.
        -14    1    3    3    0    0 -0.21397953540E+03  0.18242772648E+03  0.21404018824E+03  0.35338409577E+03  0.00000000000E+00 0.  1.
          2    1    6    6  502    0  0.48361348967E+03 -0.37776127903E+03  0.54766764487E+03  0.82251166591E+03  0.00000000000E+00 0. -1.
         -1    1    6    6    0  502  0.14743386537E+03 -0.12689137540E+03  0.23896708364E+03  0.30812892249E+03  0.00000000000E+00 0.  1.
<mgrwt>
<rscale>  0 0.83264870E+03</rscale>
<asrwt>0</asrwt>
<pdfrwt beam="1">  1        1 0.25844780E+00 0.83264870E+03</pdfrwt>
<pdfrwt beam="2">  1       -2 0.67925684E-01 0.83264870E+03</pdfrwt>
<totfact> 0.87784299E+00</totfact>
</mgrwt>
</event>
<event>
12    3  0.2212098E-007  0.9030230E+03  0.7818608E-02  0.9421810E-01
         -2   -1    0    0    0  501 -0.00000000000E+00  0.00000000000E+00  0.25868560364E+03  0.25868560364E+03  0.00000000000E+00 0.  1.
          1   -1    0    0  501    0  0.00000000000E+00 -0.00000000000E+00 -0.37699269790E+04  0.37699269790E+04  0.00000000000E+00 0. -1.
        -24    2    1    2    0    0 -0.84141737641E+03  0.29122274193E+03 -0.14283140495E+04  0.16852010049E+04  0.83830281534E+02 0.  0.
    5000000    2    1    2    0    0  0.84141737641E+03 -0.29122274193E+03 -0.20829273258E+04  0.23434115777E+04  0.60016472011E+03 0.  0.
        -24    2    4    4    0    0  0.57112175059E+03 -0.11494254652E+03 -0.18399277916E+04  0.19316429489E+04  0.80736366381E+02 0.  0.
         24    2    4    4    0    0  0.27029562582E+03 -0.17628019541E+03 -0.24299953422E+03  0.41176862880E+03  0.79813516433E+02 0.  0.
         13    1    5    5    0    0  0.44478694526E+03 -0.12023750778E+03 -0.13970512844E+04  0.14710692629E+04  0.00000000000E+00 0. -1.
        -14    1    5    5    0    0  0.12633480533E+03  0.52949612540E+01 -0.44287650717E+03  0.46057368602E+03  0.00000000000E+00 0.  1.
         13    1    3    3    0    0 -0.55351006380E+02 -0.50432757402E+00 -0.10305978667E+03  0.11698422066E+03  0.00000000000E+00 0. -1.
        -14    1    3    3    0    0 -0.78606637003E+03  0.29172706950E+03 -0.13252542629E+04  0.15682167843E+04  0.00000000000E+00 0.  1.
          4    1    6    6  502    0  0.76679584054E+02 -0.71732659408E+02 -0.12086697715E+03  0.16010671192E+03  0.00000000000E+00 0. -1.
         -3    1    6    6    0  502  0.19361604176E+03 -0.10454753600E+03 -0.12213255707E+03  0.25166191688E+03  0.00000000000E+00 0.  1.
<mgrwt>
<rscale>  0 0.90302304E+03</rscale>
<asrwt>0</asrwt>
<pdfrwt beam="1">  1        1 0.57998871E+00 0.90302304E+03</pdfrwt>
<pdfrwt beam="2">  1       -2 0.39797789E-01 0.90302304E+03</pdfrwt>
<totfact> 0.84178089E-01</totfact>
</mgrwt>
</event>
<event>
12    3  0.2212098E-007  0.4956354E+03  0.7818608E-02  0.1014924E+00
          1   -1    0    0  501    0  0.00000000000E+00  0.00000000000E+00  0.10371316219E+04  0.10371316219E+04  0.00000000000E+00 0. -1.
         -2   -1    0    0    0  501 -0.00000000000E+00 -0.00000000000E+00 -0.39302226536E+03  0.39302226536E+03  0.00000000000E+00 0.  1.
        -24    2    1    2    0    0  0.31902565000E+03  0.23770347555E+03 -0.74932403286E+02  0.41275499370E+03  0.80445709129E+02 0.  0.
    5000000    2    1    2    0    0 -0.31902565000E+03 -0.23770347555E+03  0.71904175979E+03  0.10173988935E+04  0.59983260046E+03 0.  0.
        -24    2    4    4    0    0 -0.36119595473E+03 -0.28844154512E+02  0.69484958654E+03  0.78801251383E+03  0.82784485717E+02 0.  0.
         24    2    4    4    0    0  0.42170304723E+02 -0.20885932103E+03  0.24192173247E+02  0.22938637969E+03  0.81438930236E+02 0.  0.
         11    1    3    3    0    0  0.14663564611E+03  0.15918294222E+03 -0.42769067464E+02  0.22061372336E+03  0.00000000000E+00 0. -1.
        -12    1    3    3    0    0  0.17239000390E+03  0.78520533322E+02 -0.32163335823E+02  0.19214127034E+03  0.00000000000E+00 0.  1.
         13    1    5    5    0    0 -0.20147297318E+02  0.14199556574E+02  0.78556138530E+02  0.82332301661E+02  0.00000000000E+00 0. -1.
        -14    1    5    5    0    0 -0.34104865741E+03 -0.43043711086E+02  0.61629344801E+03  0.70568021217E+03  0.00000000000E+00 0.  1.
          4    1    6    6  502    0  0.38895934785E+02 -0.89270718540E+02  0.46142881066E+02  0.10775583699E+03  0.00000000000E+00 0. -1.
         -3    1    6    6    0  502  0.32743699383E+01 -0.11958860249E+03 -0.21950707819E+02  0.12163054271E+03  0.00000000000E+00 0.  1.
<mgrwt>
<rscale>  0 0.49563541E+03</rscale>
<asrwt>0</asrwt>
<pdfrwt beam="1">  1        1 0.15955871E+00 0.49563541E+03</pdfrwt>
<pdfrwt beam="2">  1       -2 0.60464964E-01 0.49563541E+03</pdfrwt>
<totfact> 0.33352702E+01</totfact>
</mgrwt>
</event>
<event>
12    3  0.2212098E-007  0.9990719E+03  0.7818608E-02  0.9309563E-01
         -2   -1    0    0    0  501 -0.00000000000E+00  0.00000000000E+00  0.74093729150E+03  0.74093729150E+03  0.00000000000E+00 0.  1.
          1   -1    0    0  501    0  0.00000000000E+00 -0.00000000000E+00 -0.16745672342E+04  0.16745672342E+04  0.00000000000E+00 0. -1.
        -24    2    1    2    0    0  0.75538081985E+03  0.52322417430E+03  0.74730784787E+02  0.92502647204E+03  0.75667458067E+02 0.  0.
    5000000    2    1    2    0    0 -0.75538081985E+03 -0.52322417430E+03 -0.10083607275E+04  0.14904780536E+04  0.60030804769E+03 0.  0.
        -24    2    4    4    0    0 -0.74104377557E+03 -0.23290900725E+03 -0.61022803623E+03  0.99104738547E+03  0.80026127339E+02 0.  0.
         24    2    4    4    0    0 -0.14337044281E+02 -0.29031516705E+03 -0.39813269124E+03  0.49943066818E+03  0.80205395274E+02 0.  0.
         11    1    5    5    0    0 -0.10882451456E+03 -0.19774567375E+02 -0.11950111807E+03  0.16283220107E+03  0.00000000000E+00 0. -1.
        -12    1    5    5    0    0 -0.63221926101E+03 -0.21313443988E+03 -0.49072691816E+03  0.82821518440E+03  0.00000000000E+00 0.  1.
         11    1    3    3    0    0  0.61015657711E+03  0.45645290307E+03  0.55111012583E+02  0.76398790895E+03  0.00000000000E+00 0. -1.
        -12    1    3    3    0    0  0.14522424275E+03  0.66771271232E+02  0.19619772203E+02  0.16103856310E+03  0.00000000000E+00 0.  1.
          4    1    6    6  502    0  0.27270986895E+02 -0.95770108326E+02 -0.16734859211E+03  0.19473359150E+03  0.00000000000E+00 0. -1.
         -3    1    6    6    0  502 -0.41608031176E+02 -0.19454505872E+03 -0.23078409912E+03  0.30469707668E+03  0.00000000000E+00 0.  1.
<mgrwt>
<rscale>  0 0.99907187E+03</rscale>
<asrwt>0</asrwt>
<pdfrwt beam="1">  1        1 0.25762573E+00 0.99907187E+03</pdfrwt>
<pdfrwt beam="2">  1       -2 0.11399035E+00 0.99907187E+03</pdfrwt>
<totfact> 0.26263092E+00</totfact>
</mgrwt>
</event>
<event>
12    3  0.2212098E-007  0.1021197E+04  0.7818608E-02  0.9285597E-01
          1   -1    0    0  501    0  0.00000000000E+00  0.00000000000E+00  0.21530956702E+04  0.21530956702E+04  0.00000000000E+00 0. -1.
         -2   -1    0    0    0  501 -0.00000000000E+00 -0.00000000000E+00 -0.68689067145E+03  0.68689067145E+03  0.00000000000E+00 0.  1.
        -24    2    1    2    0    0 -0.46826272299E+03 -0.82029135235E+03 -0.57451426988E+02  0.94957852404E+03  0.79062167739E+02 0.  0.
    5000000    2    1    2    0    0  0.46826272299E+03  0.82029135235E+03  0.15236564257E+04  0.18904078176E+04  0.59997077654E+03 0.  0.
        -24    2    4    4    0    0  0.13490787030E+03  0.73758368016E+03  0.11593495460E+04  0.13832330196E+04  0.83740062912E+02 0.  0.
         24    2    4    4    0    0  0.33335485269E+03  0.82707672190E+02  0.36430687975E+03  0.50717479796E+03  0.80874941762E+02 0.  0.
         13    1    3    3    0    0 -0.10916465627E+03 -0.13255844933E+03 -0.15914335140E+01  0.17173001289E+03  0.00000000000E+00 0. -1.
        -14    1    3    3    0    0 -0.35909806672E+03 -0.68773290302E+03 -0.55859993474E+02  0.77784851114E+03  0.00000000000E+00 0.  1.
         13    1    5    5    0    0  0.15976100831E+02  0.20621491506E+03  0.26500524842E+03  0.33616604332E+03  0.00000000000E+00 0. -1.
        -14    1    5    5    0    0  0.11893176947E+03  0.53136876510E+03  0.89434429757E+03  0.10470669763E+04  0.00000000000E+00 0.  1.
          4    1    6    6  502    0  0.12442635337E+03  0.29026826245E+02  0.81729468002E+02  0.15167128929E+03  0.00000000000E+00 0. -1.
         -3    1    6    6    0  502  0.20892849932E+03  0.53680845945E+02  0.28257741174E+03  0.35550350867E+03  0.00000000000E+00 0.  1.
<mgrwt>
<rscale>  0 0.10211967E+04</rscale>
<asrwt>0</asrwt>
<pdfrwt beam="1">  1        1 0.33124549E+00 0.10211967E+04</pdfrwt>
<pdfrwt beam="2">  1       -2 0.10567549E+00 0.10211967E+04</pdfrwt>
<totfact> 0.14967977E+00</totfact>
</mgrwt>
</event>
<event>
12    3  0.2212098E-007  0.3860125E+03  0.7818608E-02  0.1048734E+00
         -2   -1    0    0    0  501 -0.00000000000E+00  0.00000000000E+00  0.15229862950E+04  0.15229862950E+04  0.00000000000E+00 0.  1.
          1   -1    0    0  501    0  0.00000000000E+00 -0.00000000000E+00 -0.19045805630E+03  0.19045805630E+03  0.00000000000E+00 0. -1.
        -24    2    1    2    0    0 -0.79493234217E+02 -0.32393992003E+03  0.70198596118E+03  0.78126852713E+03  0.79623964500E+02 0.  0.
    5000000    2    1    2    0    0  0.79493234217E+02  0.32393992003E+03  0.63054227756E+03  0.93217582421E+03  0.60009329055E+03 0.  0.
        -24    2    4    4    0    0  0.62397827863E+02 -0.24078162023E+02 -0.83202103114E+02  0.13389271834E+03  0.80817221265E+02 0.  0.
         24    2    4    4    0    0  0.17095406354E+02  0.34801808206E+03  0.71374438067E+03  0.79828310587E+03  0.80100173615E+02 0.  0.
         11    1    3    3    0    0 -0.23466630020E+02 -0.13798718449E+03  0.21033874034E+03  0.25265298632E+03  0.00000000000E+00 0. -1.
        -12    1    3    3    0    0 -0.56026604197E+02 -0.18595273554E+03  0.49164722084E+03  0.52861554081E+03  0.00000000000E+00 0.  1.
         13    1    5    5    0    0  0.62394616403E+02 -0.38391244257E+02 -0.30626699837E+02  0.79403844583E+02  0.00000000000E+00 0. -1.
        -14    1    5    5    0    0  0.32114600361E-02  0.14313082234E+02 -0.52575403277E+02  0.54488873755E+02  0.00000000000E+00 0.  1.
          2    1    6    6  502    0  0.22061179416E+02  0.10928725436E+03  0.30713379004E+03  0.32674388225E+03  0.00000000000E+00 0. -1.
         -1    1    6    6    0  502 -0.49657730616E+01  0.23873082770E+03  0.40661059063E+03  0.47153922362E+03  0.00000000000E+00 0.  1.
<mgrwt>
<rscale>  0 0.38601248E+03</rscale>
<asrwt>0</asrwt>
<pdfrwt beam="1">  1        1 0.29301240E-01 0.38601248E+03</pdfrwt>
<pdfrwt beam="2">  1       -2 0.23430558E+00 0.38601248E+03</pdfrwt>
<totfact> 0.11959987E+01</totfact>
</mgrwt>
</event>
<event>
12    3  0.2212098E-007  0.5006350E+03  0.7818608E-02  0.1013613E+00
         -2   -1    0    0    0  501 -0.00000000000E+00  0.00000000000E+00  0.47646678109E+03  0.47646678109E+03  0.00000000000E+00 0.  1.
          1   -1    0    0  501    0  0.00000000000E+00 -0.00000000000E+00 -0.16592032778E+04  0.16592032778E+04  0.00000000000E+00 0. -1.
        -24    2    1    2    0    0  0.32927362384E+03 -0.11586640623E+03  0.32006544463E+03  0.48024956332E+03  0.79696993484E+02 0.  0.
    5000000    2    1    2    0    0 -0.32927362384E+03  0.11586640623E+03 -0.15028019414E+04  0.16554204956E+04  0.60013098470E+03 0.  0.
        -24    2    4    4    0    0 -0.36687786862E+03 -0.13410486673E+03 -0.11345823108E+04  0.12026181849E+04  0.80187237706E+02 0.  0.
         24    2    4    4    0    0  0.37604244785E+02  0.24997127296E+03 -0.36821963061E+03  0.45280231065E+03  0.74461531253E+02 0.  0.
         11    1    5    5    0    0 -0.26239001416E+03 -0.13074432986E+03 -0.87357176620E+03  0.92145006920E+03  0.00000000000E+00 0. -1.
        -12    1    5    5    0    0 -0.10448785446E+03 -0.33605368654E+01 -0.26101054456E+03  0.28116811574E+03  0.00000000000E+00 0.  1.
         13    1    3    3    0    0  0.13029618926E+03 -0.28524801534E+02  0.17038930501E+03  0.21638686767E+03  0.00000000000E+00 0. -1.
        -14    1    3    3    0    0  0.19897743457E+03 -0.87341604694E+02  0.14967613962E+03  0.26386269564E+03  0.00000000000E+00 0.  1.
          4    1    6    6  502    0  0.13366581297E+02  0.11256838077E+03 -0.10320092480E+03  0.15329950008E+03  0.00000000000E+00 0. -1.
         -3    1    6    6    0  502  0.24237663488E+02  0.13740289218E+03 -0.26501870580E+03  0.29950281057E+03  0.00000000000E+00 0.  1.
<mgrwt>
<rscale>  0 0.50063499E+03</rscale>
<asrwt>0</asrwt>
<pdfrwt beam="1">  1        1 0.25526204E+00 0.50063499E+03</pdfrwt>
<pdfrwt beam="2">  1       -2 0.73302582E-01 0.50063499E+03</pdfrwt>
<totfact> 0.81082605E+00</totfact>
</mgrwt>
</event>
<event>
12    3  0.2212098E-007  0.6451850E+03  0.7818608E-02  0.9815856E-01
         -2   -1    0    0    0  501 -0.00000000000E+00  0.00000000000E+00  0.28521505791E+04  0.28521505791E+04  0.00000000000E+00 0.  1.
          3   -1    0    0  501    0  0.00000000000E+00 -0.00000000000E+00 -0.73226815589E+03  0.73226815589E+03  0.00000000000E+00 0. -1.
        -24    2    1    2    0    0  0.37797913592E+03 -0.48842858297E+03 -0.51769342956E+03  0.80991629772E+03  0.80791178097E+02 0.  0.
    5000000    2    1    2    0    0 -0.37797913592E+03  0.48842858297E+03  0.26375758527E+04  0.27745024373E+04  0.59968882557E+03 0.  0.
        -24    2    4    4    0    0 -0.30413868689E+03  0.46293796559E+03  0.25964471013E+04  0.26556696144E+04  0.65051137271E+02 0.  0.
         24    2    4    4    0    0 -0.73840449028E+02  0.25490617371E+02  0.41128751456E+02  0.11883282281E+03  0.79545471862E+02 0.  0.
         13    1    3    3    0    0  0.28391303404E+03 -0.30817367875E+03 -0.33289306370E+03  0.53515924643E+03  0.00000000000E+00 0. -1.
        -14    1    3    3    0    0  0.94066101874E+02 -0.18025490421E+03 -0.18480036585E+03  0.27475705129E+03  0.00000000000E+00 0.  1.
         13    1    5    5    0    0 -0.85047446541E+02  0.17649842045E+03  0.99777032691E+03  0.10168236749E+04  0.00000000000E+00 0. -1.
        -14    1    5    5    0    0 -0.21909124035E+03  0.28643954514E+03  0.15986767744E+04  0.16388459395E+04  0.00000000000E+00 0.  1.
          2    1    6    6  502    0  0.17034303786E+02 -0.24350642741E+00  0.66548428411E+01  0.18289716621E+02  0.00000000000E+00 0. -1.
         -3    1    6    6    0  502 -0.90874752813E+02  0.25734123798E+02  0.34473908615E+02  0.10054310619E+03  0.00000000000E+00 0.  1.
<mgrwt>
<rscale>  0 0.64518497E+03</rscale>
<asrwt>0</asrwt>
<pdfrwt beam="1">  1        3 0.11265664E+00 0.64518497E+03</pdfrwt>
<pdfrwt beam="2">  1       -2 0.43879239E+00 0.64518497E+03</pdfrwt>
<totfact> 0.12204440E-02</totfact>
</mgrwt>
</event>
<event>
12    3  0.2212098E-007  0.4530472E+03  0.7818608E-02  0.1026817E+00
         -2   -1    0    0    0  501 -0.00000000000E+00  0.00000000000E+00  0.40218865972E+03  0.40218865972E+03  0.00000000000E+00 0.  1.
          1   -1    0    0  501    0  0.00000000000E+00 -0.00000000000E+00 -0.56844736267E+03  0.56844736267E+03  0.00000000000E+00 0. -1.
        -24    2    1    2    0    0 -0.16910205260E+03  0.22365632029E+03 -0.10754806835E+03  0.30596078488E+03  0.58547084308E+02 0.  0.
    5000000    2    1    2    0    0  0.16910205260E+03 -0.22365632029E+03 -0.58710634603E+02  0.66467523751E+03  0.59977377315E+03 0.  0.
        -24    2    4    4    0    0 -0.61991302571E+02  0.16064719899E+03 -0.84076409301E+02  0.20844781778E+03  0.82043927230E+02 0.  0.
         24    2    4    4    0    0  0.23109335517E+03 -0.38430351928E+03  0.25365774699E+02  0.45622741974E+03  0.80041878175E+02 0.  0.
         11    1    3    3    0    0 -0.12271179305E+03  0.17292463842E+03 -0.53962835107E+02  0.21879922829E+03  0.00000000000E+00 0. -1.
        -12    1    3    3    0    0 -0.46390259547E+02  0.50731681864E+02 -0.53585233238E+02  0.87161556588E+02  0.00000000000E+00 0.  1.
         13    1    5    5    0    0 -0.21987938955E+01  0.49305432626E+02  0.10670738916E+02  0.50494802208E+02  0.00000000000E+00 0. -1.
        -14    1    5    5    0    0 -0.59792508676E+02  0.11134176637E+03 -0.94747148217E+02  0.15795301557E+03  0.00000000000E+00 0.  1.
          2    1    6    6  502    0  0.21738287725E+03 -0.34328045140E+03  0.47098266016E+00  0.40632130815E+03  0.00000000000E+00 0. -1.
         -1    1    6    6    0  502  0.13710477922E+02 -0.41023067878E+02  0.24894792039E+02  0.49906111586E+02  0.00000000000E+00 0.  1.
<mgrwt>
<rscale>  0 0.45304722E+03</rscale>
<asrwt>0</asrwt>
<pdfrwt beam="1">  1        1 0.87453440E-01 0.45304722E+03</pdfrwt>
<pdfrwt beam="2">  1       -2 0.61875178E-01 0.45304722E+03</pdfrwt>
<totfact> 0.81787702E+01</totfact>
</mgrwt>
</event>
<event>
12    3  0.2212098E-007  0.9571521E+03  0.7818608E-02  0.9356830E-01
          1   -1    0    0  501    0  0.00000000000E+00  0.00000000000E+00  0.35661722003E+03  0.35661722003E+03  0.00000000000E+00 0. -1.
         -2   -1    0    0    0  501 -0.00000000000E+00 -0.00000000000E+00 -0.29399966545E+04  0.29399966545E+04  0.00000000000E+00 0.  1.
        -24    2    1    2    0    0 -0.89390900236E+03 -0.77746577962E+02 -0.16001476956E+04  0.18364612141E+04  0.83661868622E+02 0.  0.
    5000000    2    1    2    0    0  0.89390900236E+03  0.77746577962E+02 -0.98323173885E+03  0.14601526604E+04  0.60015273435E+03 0.  0.
        -24    2    4    4    0    0  0.55138161411E+03 -0.17768330128E+03 -0.31870279007E+03  0.66600848279E+03  0.80017440764E+02 0.  0.
         24    2    4    4    0    0  0.34252738825E+03  0.25542987924E+03 -0.66452894878E+03  0.79414417762E+03  0.80602829780E+02 0.  0.
         13    1    5    5    0    0  0.26920417013E+03 -0.12260164723E+03 -0.18538943527E+03  0.34910069010E+03  0.00000000000E+00 0. -1.
        -14    1    5    5    0    0  0.28217744397E+03 -0.55081654051E+02 -0.13331335479E+03  0.31690779269E+03  0.00000000000E+00 0.  1.
         13    1    3    3    0    0 -0.46560809353E+03 -0.64556289969E+02 -0.90661354973E+03  0.10212279569E+04  0.00000000000E+00 0. -1.
        -14    1    3    3    0    0 -0.42830090883E+03 -0.13190287993E+02 -0.69353414584E+03  0.81523325720E+03  0.00000000000E+00 0.  1.
          2    1    6    6  502    0  0.22473077482E+03  0.12690506547E+03 -0.43670353532E+03  0.50726599980E+03  0.00000000000E+00 0. -1.
         -1    1    6    6    0  502  0.11779661344E+03  0.12852481376E+03 -0.22782541346E+03  0.28687817782E+03  0.00000000000E+00 0.  1.
<mgrwt>
<rscale>  0 0.95715214E+03</rscale>
<asrwt>0</asrwt>
<pdfrwt beam="1">  1        1 0.54864189E-01 0.95715214E+03</pdfrwt>
<pdfrwt beam="2">  1       -2 0.45230717E+00 0.95715214E+03</pdfrwt>
<totfact> 0.21129415E-01</totfact>
</mgrwt>
</event>
<event>
12    3  0.2212098E-007  0.7939681E+03  0.7818608E-02  0.9568789E-01
          1   -1    0    0  501    0  0.00000000000E+00  0.00000000000E+00  0.15511921627E+04  0.15511921627E+04  0.00000000000E+00 0. -1.
         -2   -1    0    0    0  501 -0.00000000000E+00 -0.00000000000E+00 -0.12685416774E+04  0.12685416774E+04  0.00000000000E+00 0.  1.
        -24    2    1    2    0    0  0.54356481017E+03  0.41462577435E+03 -0.10204435083E+04  0.12307616694E+04  0.78051890840E+02 0.  0.
    5000000    2    1    2    0    0 -0.54356481017E+03 -0.41462577435E+03  0.13030939936E+04  0.15889721706E+04  0.59950093190E+03 0.  0.
        -24    2    4    4    0    0 -0.23941016066E+03  0.12532659158E+03  0.45765784614E+03  0.53737843249E+03  0.79378183284E+02 0.  0.
         24    2    4    4    0    0 -0.30415464951E+03 -0.53995236593E+03  0.84543614745E+03  0.10515937382E+04  0.83836164191E+02 0.  0.
         13    1    3    3    0    0  0.25956474782E+03  0.24290028782E+03 -0.55578450303E+03  0.65975057555E+03  0.00000000000E+00 0. -1.
        -14    1    3    3    0    0  0.28400006234E+03  0.17172548653E+03 -0.46465900531E+03  0.57101109389E+03  0.00000000000E+00 0.  1.
         13    1    5    5    0    0 -0.14749922821E+03  0.35926859303E+02  0.21923989209E+03  0.26667000548E+03  0.00000000000E+00 0. -1.
        -14    1    5    5    0    0 -0.91910932455E+02  0.89399732281E+02  0.23841795405E+03  0.27070842701E+03  0.00000000000E+00 0.  1.
          2    1    6    6  502    0 -0.19939965762E+03 -0.32254445624E+03  0.45152934021E+03  0.58963878331E+03  0.00000000000E+00 0. -1.
         -1    1    6    6    0  502 -0.10475499189E+03 -0.21740790970E+03  0.39390680723E+03  0.46195495485E+03  0.00000000000E+00 0.  1.
<mgrwt>
<rscale>  0 0.79396813E+03</rscale>
<asrwt>0</asrwt>
<pdfrwt beam="1">  1        1 0.23864495E+00 0.79396813E+03</pdfrwt>
<pdfrwt beam="2">  1       -2 0.19516026E+00 0.79396813E+03</pdfrwt>
<totfact> 0.78221358E-01</totfact>
</mgrwt>
</event>
<event>
12    3  0.2212098E-007  0.5728528E+03  0.7818608E-02  0.9963386E-01
         -2   -1    0    0    0  501 -0.00000000000E+00  0.00000000000E+00  0.60245969562E+03  0.60245969562E+03  0.00000000000E+00 0.  1.
          1   -1    0    0  501    0  0.00000000000E+00 -0.00000000000E+00 -0.58000845978E+03  0.58000845978E+03  0.00000000000E+00 0. -1.
        -24    2    1    2    0    0  0.41716236190E+03  0.82891992432E+02 -0.82871769140E+02  0.43968215249E+03  0.74546270832E+02 0.  0.
    5000000    2    1    2    0    0 -0.41716236190E+03 -0.82891992432E+02  0.10532300497E+03  0.74278600292E+03  0.59978545510E+03 0.  0.
        -24    2    4    4    0    0 -0.55421975580E+03 -0.90881055948E+02  0.31557641697E+02  0.56807286760E+03  0.79322090855E+02 0.  0.
         24    2    4    4    0    0  0.13705739390E+03  0.79890635155E+01  0.73765363277E+02  0.17471313532E+03  0.78960727435E+02 0.  0.
         11    1    3    3    0    0  0.11056372121E+03  0.45755829930E+02  0.98132415426E+00  0.11966158706E+03  0.00000000000E+00 0. -1.
        -12    1    3    3    0    0  0.30659864069E+03  0.37136162502E+02 -0.83853093295E+02  0.32002056542E+03  0.00000000000E+00 0.  1.
         13    1    5    5    0    0 -0.91621552489E+02 -0.15215090127E+02  0.35172848924E+02  0.99313328156E+02  0.00000000000E+00 0. -1.
        -14    1    5    5    0    0 -0.46259820331E+03 -0.75665965820E+02 -0.36152072276E+01  0.46875953944E+03  0.00000000000E+00 0.  1.
          4    1    6    6  502    0  0.75080576611E+01 -0.21457282476E+02  0.23423704676E+02  0.32641321080E+02  0.00000000000E+00 0. -1.
         -3    1    6    6    0  502  0.12954933624E+03  0.29446345991E+02  0.50341658601E+02  0.14207181424E+03  0.00000000000E+00 0.  1.
<mgrwt>
<rscale>  0 0.57285281E+03</rscale>
<asrwt>0</asrwt>
<pdfrwt beam="1">  1        1 0.89232070E-01 0.57285281E+03</pdfrwt>
<pdfrwt beam="2">  1       -2 0.92686107E-01 0.57285281E+03</pdfrwt>
<totfact> 0.32160826E+01</totfact>
</mgrwt>
</event>
<event>
12    3  0.2212098E-007  0.6569904E+03  0.7818608E-02  0.9793750E-01
          1   -1    0    0  501    0  0.00000000000E+00  0.00000000000E+00  0.18451455266E+04  0.18451455266E+04  0.00000000000E+00 0. -1.
         -2   -1    0    0    0  501 -0.00000000000E+00 -0.00000000000E+00 -0.46867469161E+03  0.46867469161E+03  0.00000000000E+00 0.  1.
        -24    2    1    2    0    0  0.22769389964E+03 -0.55128559275E+03  0.13377599878E+04  0.14668959744E+04  0.80135497909E+02 0.  0.
    5000000    2    1    2    0    0 -0.22769389964E+03  0.55128559275E+03  0.38710847189E+02  0.84692424381E+03  0.60001819002E+03 0.  0.
        -24    2    4    4    0    0 -0.31774893190E+03  0.30879836685E+03  0.23831097281E+03  0.50951998793E+03  0.80608208329E+02 0.  0.
         24    2    4    4    0    0  0.90055032262E+02  0.24248722591E+03 -0.19960012562E+03  0.33740425588E+03  0.84210796065E+02 0.  0.
         13    1    3    3    0    0  0.21578206269E+03 -0.52877088404E+03  0.12292947847E+04  0.13554800677E+04  0.00000000000E+00 0. -1.
        -14    1    3    3    0    0  0.11911836952E+02 -0.22514708712E+02  0.10846520317E+03  0.11141590671E+03  0.00000000000E+00 0.  1.
         13    1    5    5    0    0 -0.63638713437E+01  0.19768199762E+02 -0.29007063838E+01  0.20968897869E+02  0.00000000000E+00 0. -1.
        -14    1    5    5    0    0 -0.31138506056E+03  0.28903016708E+03  0.24121167919E+03  0.48855109006E+03  0.00000000000E+00 0.  1.
          4    1    6    6  502    0  0.96806528141E+02  0.14671139341E+03 -0.12216711317E+03  0.21405732968E+03  0.00000000000E+00 0. -1.
         -3    1    6    6    0  502 -0.67514958793E+01  0.95775832496E+02 -0.77433012444E+02  0.12334692620E+03  0.00000000000E+00 0.  1.
<mgrwt>
<rscale>  0 0.65699039E+03</rscale>
<asrwt>0</asrwt>
<pdfrwt beam="1">  1        1 0.28386854E+00 0.65699039E+03</pdfrwt>
<pdfrwt beam="2">  1       -2 0.72103800E-01 0.65699039E+03</pdfrwt>
<totfact> 0.61288214E+00</totfact>
</mgrwt>
</event>
<event>
12    3  0.2212098E-007  0.4602481E+03  0.7818608E-02  0.1024709E+00
         -2   -1    0    0    0  501 -0.00000000000E+00  0.00000000000E+00  0.10936363129E+04  0.10936363129E+04  0.00000000000E+00 0.  1.
          1   -1    0    0  501    0  0.00000000000E+00 -0.00000000000E+00 -0.45819195125E+03  0.45819195125E+03  0.00000000000E+00 0. -1.
        -24    2    1    2    0    0 -0.41175226331E+03  0.13862473155E+03 -0.15563117549E+03  0.46804554814E+03  0.78030954139E+02 0.  0.
    5000000    2    1    2    0    0  0.41175226331E+03 -0.13862473155E+03  0.79107553718E+03  0.10837827160E+04  0.60002310584E+03 0.  0.
        -24    2    4    4    0    0  0.21024942045E+03  0.14899045469E+02 -0.22536832598E+02  0.22673357358E+03  0.80457468320E+02 0.  0.
         24    2    4    4    0    0  0.20150284286E+03 -0.15352377702E+03  0.81361236978E+03  0.85704914247E+03  0.91625316140E+02 0.  0.
         11    1    3    3    0    0 -0.15297271886E+03  0.90993144460E+02 -0.54400259297E+02  0.18611768660E+03  0.00000000000E+00 0. -1.
        -12    1    3    3    0    0 -0.25877954445E+03  0.47631587090E+02 -0.10123091620E+03  0.28192786153E+03  0.00000000000E+00 0.  1.
         11    1    5    5    0    0  0.56486975271E+02 -0.43650406809E+01 -0.42036365509E+02  0.70547062168E+02  0.00000000000E+00 0. -1.
        -12    1    5    5    0    0  0.15376244518E+03  0.19264086150E+02  0.19499532910E+02  0.15618651141E+03  0.00000000000E+00 0.  1.
          2    1    6    6  502    0  0.30426390295E+02  0.90635172291E+01  0.13083921242E+03  0.13463584990E+03  0.00000000000E+00 0. -1.
         -1    1    6    6    0  502  0.17107645257E+03 -0.16258729425E+03  0.68277315735E+03  0.72241329257E+03  0.00000000000E+00 0.  1.
<mgrwt>
<rscale>  0 0.46024814E+03</rscale>
<asrwt>0</asrwt>
<pdfrwt beam="1">  1        1 0.70491070E-01 0.46024814E+03</pdfrwt>
<pdfrwt beam="2">  1       -2 0.16825174E+00 0.46024814E+03</pdfrwt>
<totfact> 0.10156833E+01</totfact>
</mgrwt>
</event>
<event>
12    3  0.2212098E-007  0.5470670E+03  0.7818608E-02  0.1002175E+00
          1   -1    0    0  501    0  0.00000000000E+00  0.00000000000E+00  0.52502851218E+03  0.52502851218E+03  0.00000000000E+00 0. -1.
         -4   -1    0    0    0  501 -0.00000000000E+00 -0.00000000000E+00 -0.80713376780E+03  0.80713376780E+03  0.00000000000E+00 0.  1.
        -24    2    1    2    0    0 -0.24398505688E+03 -0.29034614779E+03  0.23590291106E+03  0.45338209173E+03  0.77945776917E+02 0.  0.
    5000000    2    1    2    0    0  0.24398505688E+03  0.29034614779E+03 -0.51800816668E+03  0.87878018825E+03  0.60007713254E+03 0.  0.
        -24    2    4    4    0    0  0.43521784315E+03  0.23204446373E+03 -0.37429936007E+03  0.62427067783E+03  0.79716147060E+02 0.  0.
         24    2    4    4    0    0 -0.19123278627E+03  0.58301684051E+02 -0.14370880660E+03  0.25450951042E+03  0.64450018541E+02 0.  0.
         11    1    3    3    0    0 -0.10573236805E+03 -0.69974713710E+02  0.84790378689E+02  0.15252934974E+03  0.00000000000E+00 0. -1.
        -12    1    3    3    0    0 -0.13825268883E+03 -0.22037143408E+03  0.15111253237E+03  0.30085274199E+03  0.00000000000E+00 0.  1.
         13    1    5    5    0    0  0.40179141349E+03  0.18819892123E+03 -0.32139162251E+03  0.54785741661E+03  0.00000000000E+00 0. -1.
        -14    1    5    5    0    0  0.33426429658E+02  0.43845542509E+02 -0.52907737560E+02  0.76413261226E+02  0.00000000000E+00 0.  1.
          2    1    6    6  502    0 -0.12732216236E+03  0.89622039606E+01 -0.10341261436E+03  0.16427240467E+03  0.00000000000E+00 0. -1.
         -1    1    6    6    0  502 -0.63910623910E+02  0.49339480090E+02 -0.40296192244E+02  0.90237105746E+02  0.00000000000E+00 0.  1.
<mgrwt>
<rscale>  0 0.54706699E+03</rscale>
<asrwt>0</asrwt>
<pdfrwt beam="1">  1        1 0.80773617E-01 0.54706699E+03</pdfrwt>
<pdfrwt beam="2">  1       -4 0.12417443E+00 0.54706699E+03</pdfrwt>
<totfact> 0.97841674E+00</totfact>
</mgrwt>
</event>
<event>
12    3  0.2212098E-007  0.1534641E+04  0.7818608E-02  0.8861738E-01
         -2   -1    0    0    0  501 -0.00000000000E+00  0.00000000000E+00  0.10207893401E+04  0.10207893401E+04  0.00000000000E+00 0.  1.
          1   -1    0    0  501    0  0.00000000000E+00 -0.00000000000E+00 -0.27082725971E+04  0.27082725971E+04  0.00000000000E+00 0. -1.
        -24    2    1    2    0    0 -0.13221378508E+04 -0.65961763403E+03 -0.10651578131E+03  0.14833731229E+04  0.76852394291E+02 0.  0.
    5000000    2    1    2    0    0  0.13221378508E+04  0.65961763403E+03 -0.15809674757E+04  0.22456888143E+04  0.60042998938E+03 0.  0.
        -24    2    4    4    0    0  0.82224875792E+03  0.87052007303E+02 -0.81798576952E+03  0.11657947271E+04  0.79407523494E+02 0.  0.
         24    2    4    4    0    0  0.49988909286E+03  0.57256562673E+03 -0.76298170615E+03  0.10798940872E+04  0.79433328079E+02 0.  0.
         11    1    3    3    0    0 -0.94243181403E+03 -0.43783117375E+03 -0.94771864097E+02  0.10434824230E+04  0.00000000000E+00 0. -1.
        -12    1    3    3    0    0 -0.37970603675E+03 -0.22178646029E+03 -0.11743917210E+02  0.43989069995E+03  0.00000000000E+00 0.  1.
         13    1    5    5    0    0  0.54083939590E+03  0.79630878102E+02 -0.49658898669E+03  0.73854515814E+03  0.00000000000E+00 0. -1.
        -14    1    5    5    0    0  0.28140936202E+03  0.74211292018E+01 -0.32139678282E+03  0.42724956899E+03  0.00000000000E+00 0.  1.
          2    1    6    6  502    0  0.27165195031E+03  0.26794228738E+03 -0.42116030927E+03  0.56829909165E+03  0.00000000000E+00 0. -1.
         -1    1    6    6    0  502  0.22823714255E+03  0.30462333935E+03 -0.34182139689E+03  0.51159499556E+03  0.00000000000E+00 0.  1.
<mgrwt>
<rscale>  0 0.15346409E+04</rscale>
<asrwt>0</asrwt>
<pdfrwt beam="1">  1        1 0.41665732E+00 0.15346409E+04</pdfrwt>
<pdfrwt beam="2">  1       -2 0.15704452E+00 0.15346409E+04</pdfrwt>
<totfact> 0.21218926E-01</totfact>
</mgrwt>
</event>
<event>
12    3  0.2212098E-007  0.9015483E+03  0.7818608E-02  0.9423648E-01
         -2   -1    0    0    0  501 -0.00000000000E+00  0.00000000000E+00  0.53844298021E+03  0.53844298021E+03  0.00000000000E+00 0.  1.
          1   -1    0    0  501    0  0.00000000000E+00 -0.00000000000E+00 -0.21611719294E+04  0.21611719294E+04  0.00000000000E+00 0. -1.
        -24    2    1    2    0    0  0.19944765393E+03 -0.86411482182E+03 -0.18918354974E+03  0.91033124881E+03  0.80241978618E+02 0.  0.
    5000000    2    1    2    0    0 -0.19944765393E+03  0.86411482182E+03 -0.14335453994E+04  0.17892836608E+04  0.60000817876E+03 0.  0.
        -24    2    4    4    0    0  0.16296124723E+01  0.78550342531E+02 -0.64832795018E+03  0.65789963915E+03  0.79561248441E+02 0.  0.
         24    2    4    4    0    0 -0.20107726640E+03  0.78556447929E+03 -0.78521744926E+03  0.11313840216E+04  0.76939870255E+02 0.  0.
         11    1    5    5    0    0  0.32425002038E+02  0.26387293368E+02 -0.40472074070E+03  0.40687411808E+03  0.00000000000E+00 0. -1.
        -12    1    5    5    0    0 -0.30795389565E+02  0.52163049163E+02 -0.24360720948E+03  0.25102552107E+03  0.00000000000E+00 0.  1.
         13    1    3    3    0    0  0.13708239538E+03 -0.47542616109E+03 -0.13561616485E+03  0.51304323593E+03  0.00000000000E+00 0. -1.
        -14    1    3    3    0    0  0.62365258550E+02 -0.38868866073E+03 -0.53567384893E+02  0.39728801288E+03  0.00000000000E+00 0.  1.
          4    1    6    6  502    0 -0.98000558331E+02  0.47611890859E+03 -0.42809447524E+03  0.64773312736E+03  0.00000000000E+00 0. -1.
         -3    1    6    6    0  502 -0.10307670807E+03  0.30944557070E+03 -0.35712297402E+03  0.48365089429E+03  0.00000000000E+00 0.  1.
<mgrwt>
<rscale>  0 0.90154828E+03</rscale>
<asrwt>0</asrwt>
<pdfrwt beam="1">  1        1 0.33248799E+00 0.90154828E+03</pdfrwt>
<pdfrwt beam="2">  1       -2 0.82837380E-01 0.90154828E+03</pdfrwt>
<totfact> 0.26568910E+00</totfact>
</mgrwt>
</event>
<event>
12    3  0.2212098E-007  0.4540830E+03  0.7818608E-02  0.1026511E+00
         -4   -1    0    0    0  501 -0.00000000000E+00  0.00000000000E+00  0.16543735523E+04  0.16543735523E+04  0.00000000000E+00 0.  1.
          3   -1    0    0  501    0  0.00000000000E+00 -0.00000000000E+00 -0.19150908411E+03  0.19150908411E+03  0.00000000000E+00 0. -1.
        -24    2    1    2    0    0 -0.19484978469E+03  0.21877630531E+03  0.96860822773E+03  0.10150835085E+04  0.79769166848E+02 0.  0.
    5000000    2    1    2    0    0  0.19484978469E+03 -0.21877630531E+03  0.49425624051E+03  0.83079912799E+03  0.60009036772E+03 0.  0.
        -24    2    4    4    0    0 -0.17355018541E+03 -0.12883605413E+03  0.34548825564E+03  0.41512455717E+03  0.79043453128E+02 0.  0.
         24    2    4    4    0    0  0.36839997009E+03 -0.89940251176E+02  0.14876798487E+03  0.41567457082E+03  0.82738435779E+02 0.  0.
         11    1    3    3    0    0 -0.57851433329E+02  0.11268273524E+03  0.33289898870E+03  0.35618243056E+03  0.00000000000E+00 0. -1.
        -12    1    3    3    0    0 -0.13699835136E+03  0.10609357007E+03  0.63570923902E+03  0.65890107790E+03  0.00000000000E+00 0.  1.
         13    1    5    5    0    0 -0.12711678011E+03 -0.48816927172E+02  0.18238009601E+03  0.22760550869E+03  0.00000000000E+00 0. -1.
        -14    1    5    5    0    0 -0.46433405301E+02 -0.80019126961E+02  0.16310815963E+03  0.18751904849E+03  0.00000000000E+00 0.  1.
          4    1    6    6  502    0  0.16285602067E+03 -0.31787224206E+02  0.22270140916E+02  0.16741705489E+03  0.00000000000E+00 0. -1.
         -3    1    6    6    0  502  0.20554394943E+03 -0.58153026970E+02  0.12649784395E+03  0.24825751593E+03  0.00000000000E+00 0.  1.
<mgrwt>
<rscale>  0 0.45408303E+03</rscale>
<asrwt>0</asrwt>
<pdfrwt beam="1">  1        3 0.29462937E-01 0.45408303E+03</pdfrwt>
<pdfrwt beam="2">  1       -4 0.25451900E+00 0.45408303E+03</pdfrwt>
<totfact> 0.15569256E+00</totfact>
</mgrwt>
</event>
<event>
12    3  0.2212098E-007  0.8621108E+03  0.7818608E-02  0.9474225E-01
         -2   -1    0    0    0  501 -0.00000000000E+00  0.00000000000E+00  0.83102049756E+03  0.83102049756E+03  0.00000000000E+00 0.  1.
          1   -1    0    0  501    0  0.00000000000E+00 -0.00000000000E+00 -0.16270094678E+04  0.16270094678E+04  0.00000000000E+00 0. -1.
        -24    2    1    2    0    0 -0.76633402724E+03 -0.27103106168E+03 -0.11296397967E+04  0.13940158476E+04  0.80426582663E+02 0.  0.
    5000000    2    1    2    0    0  0.76633402724E+03  0.27103106168E+03  0.33365082654E+03  0.10640141177E+04  0.60006457237E+03 0.  0.
        -24    2    4    4    0    0  0.55329530171E+03 -0.26078496039E+01 -0.21532857240E+02  0.56053912374E+03  0.87166240790E+02 0.  0.
         24    2    4    4    0    0  0.21303872553E+03  0.27363891129E+03  0.35518368378E+03  0.50347499400E+03  0.84070613284E+02 0.  0.
         11    1    3    3    0    0 -0.36027509411E+03 -0.15310829857E+03 -0.59791405670E+03  0.71466181774E+03  0.00000000000E+00 0. -1.
        -12    1    3    3    0    0 -0.40605893313E+03 -0.11792276311E+03 -0.53172574003E+03  0.67935402983E+03  0.00000000000E+00 0.  1.
         13    1    5    5    0    0  0.21631556645E+03  0.36267344909E+02 -0.28990852379E+02  0.22124243290E+03  0.00000000000E+00 0. -1.
        -14    1    5    5    0    0  0.33697973526E+03 -0.38875194513E+02  0.74579951388E+01  0.33929669084E+03  0.00000000000E+00 0.  1.
          2    1    6    6  502    0  0.47612375439E+02  0.10426495049E+03  0.15894856778E+03  0.19596623535E+03  0.00000000000E+00 0. -1.
         -1    1    6    6    0  502  0.16542635009E+03  0.16937396079E+03  0.19623511600E+03  0.30750875866E+03  0.00000000000E+00 0.  1.
<mgrwt>
<rscale>  0 0.86211078E+03</rscale>
<asrwt>0</asrwt>
<pdfrwt beam="1">  1        1 0.25030914E+00 0.86211078E+03</pdfrwt>
<pdfrwt beam="2">  1       -2 0.12784931E+00 0.86211078E+03</pdfrwt>
<totfact> 0.21650534E+00</totfact>
</mgrwt>
</event>
<event>
12    3  0.2212098E-007  0.6648970E+03  0.7818608E-02  0.9779221E-01
         -2   -1    0    0    0  501 -0.00000000000E+00  0.00000000000E+00  0.62236674155E+03  0.62236674155E+03  0.00000000000E+00 0.  1.
          1   -1    0    0  501    0  0.00000000000E+00 -0.00000000000E+00 -0.74950857196E+03  0.74950857196E+03  0.00000000000E+00 0. -1.
        -24    2    1    2    0    0 -0.48953087559E+02  0.53928764799E+03  0.32065403410E+02  0.54811586872E+03  0.78582716862E+02 0.  0.
    5000000    2    1    2    0    0  0.48953087559E+02 -0.53928764799E+03 -0.15920723382E+03  0.82375944480E+03  0.60000425626E+03 0.  0.
        -24    2    4    4    0    0 -0.19400864861E+03 -0.26121010759E+01 -0.77409695895E+02  0.22338066829E+03  0.79123214917E+02 0.  0.
         24    2    4    4    0    0  0.24296173617E+03 -0.53667554692E+03 -0.81797537928E+02  0.60037877651E+03  0.81931618838E+02 0.  0.
         11    1    3    3    0    0 -0.64619843772E+02  0.34227921921E+03  0.38029347532E+02  0.35039551850E+03  0.00000000000E+00 0. -1.
        -12    1    3    3    0    0  0.15666756213E+02  0.19700842878E+03 -0.59639441219E+01  0.19772035022E+03  0.00000000000E+00 0.  1.
         13    1    5    5    0    0 -0.54145494624E+02 -0.62522683591E+01 -0.62112329827E+02  0.82636353769E+02  0.00000000000E+00 0. -1.
        -14    1    5    5    0    0 -0.13986315399E+03  0.36401672832E+01 -0.15297366068E+02  0.14074431452E+03  0.00000000000E+00 0.  1.
          4    1    6    6  502    0  0.97792376724E+02 -0.19360129861E+03 -0.69097286112E+02  0.22763841222E+03  0.00000000000E+00 0. -1.
         -3    1    6    6    0  502  0.14516935945E+03 -0.34307424830E+03 -0.12700251816E+02  0.37274036429E+03  0.00000000000E+00 0.  1.
<mgrwt>
<rscale>  0 0.66489698E+03</rscale>
<asrwt>0</asrwt>
<pdfrwt beam="1">  1        1 0.11530901E+00 0.66489698E+03</pdfrwt>
<pdfrwt beam="2">  1       -2 0.95748729E-01 0.66489698E+03</pdfrwt>
<totfact> 0.20229137E+01</totfact>
</mgrwt>
</event>
<event>
12    3  0.2212098E-007  0.1977042E+04  0.7818608E-02  0.8617430E-01
         -2   -1    0    0    0  501 -0.00000000000E+00  0.00000000000E+00  0.21729274160E+04  0.21729274160E+04  0.00000000000E+00 0.  1.
          1   -1    0    0  501    0  0.00000000000E+00 -0.00000000000E+00 -0.18234110634E+04  0.18234110634E+04  0.00000000000E+00 0. -1.
        -24    2    1    2    0    0 -0.17903033016E+04 -0.75688386253E+03  0.11489567064E+03  0.19486319989E+04  0.76854141501E+02 0.  0.
    5000000    2    1    2    0    0  0.17903033016E+04  0.75688386253E+03  0.23462068188E+03  0.20477064805E+04  0.59999656083E+03 0.  0.
        -24    2    4    4    0    0  0.60617795424E+03  0.52175156061E+03  0.23670515059E+03  0.83794531578E+03  0.80290850758E+02 0.  0.
         24    2    4    4    0    0  0.11841253473E+04  0.23513230192E+03 -0.20844687082E+01  0.12097611647E+04  0.77959560663E+02 0.  0.
         11    1    5    5    0    0  0.18828089861E+03  0.13459811527E+03  0.99858319349E+02  0.25206751746E+03  0.00000000000E+00 0. -1.
        -12    1    5    5    0    0  0.41789705563E+03  0.38715344534E+03  0.13684683124E+03  0.58587779832E+03  0.00000000000E+00 0.  1.
         13    1    3    3    0    0 -0.12995454114E+04 -0.51952569145E+03  0.10354193302E+03  0.14033695708E+04  0.00000000000E+00 0. -1.
        -14    1    3    3    0    0 -0.49075789014E+03 -0.23735817108E+03  0.11353737619E+02  0.54526242808E+03  0.00000000000E+00 0.  1.
          2    1    6    6  502    0  0.22310330796E+03  0.64377873811E+02  0.23181737443E+02  0.23336021428E+03  0.00000000000E+00 0. -1.
         -1    1    6    6    0  502  0.96102203936E+03  0.17075442811E+03 -0.25266206152E+02  0.97640095044E+03  0.00000000000E+00 0.  1.
<mgrwt>
<rscale>  0 0.19770422E+04</rscale>
<asrwt>0</asrwt>
<pdfrwt beam="1">  1        1 0.28052478E+00 0.19770422E+04</pdfrwt>
<pdfrwt beam="2">  1       -2 0.33429653E+00 0.19770422E+04</pdfrwt>
<totfact> 0.60058785E-02</totfact>
</mgrwt>
</event>
<event>
12    3  0.2212098E-007  0.1747032E+04  0.7818608E-02  0.8734986E-01
         -2   -1    0    0    0  501 -0.00000000000E+00  0.00000000000E+00  0.11724945850E+04  0.11724945850E+04  0.00000000000E+00 0.  1.
          1   -1    0    0  501    0  0.00000000000E+00 -0.00000000000E+00 -0.27927092510E+04  0.27927092510E+04  0.00000000000E+00 0. -1.
        -24    2    1    2    0    0  0.11671361541E+04  0.12799381437E+04 -0.11234093627E+04  0.20659335729E+04  0.74729363085E+02 0.  0.
    5000000    2    1    2    0    0 -0.11671361541E+04 -0.12799381437E+04 -0.49680530338E+03  0.18992702631E+04  0.59996964011E+03 0.  0.
        -24    2    4    4    0    0 -0.10337020486E+04 -0.12191863366E+04 -0.28282069251E+03  0.16251808128E+04  0.79182584254E+02 0.  0.
         24    2    4    4    0    0 -0.13343410550E+03 -0.60751807100E+02 -0.21398461087E+03  0.27408945031E+03  0.88544737292E+02 0.  0.
         11    1    5    5    0    0 -0.51409589960E+03 -0.55482999170E+03 -0.15533699102E+03  0.77217905596E+03  0.00000000000E+00 0. -1.
        -12    1    5    5    0    0 -0.51960614897E+03 -0.66435634489E+03 -0.12748370149E+03  0.85300175685E+03  0.00000000000E+00 0.  1.
         11    1    3    3    0    0  0.19248508188E+03  0.25154147239E+03 -0.21663513785E+03  0.38373741286E+03  0.00000000000E+00 0. -1.
        -12    1    3    3    0    0  0.97465107220E+03  0.10283966713E+04 -0.90677422481E+03  0.16821961600E+04  0.00000000000E+00 0.  1.
          4    1    6    6  502    0 -0.74238998601E+01  0.12747375545E+02 -0.60769484663E+02  0.62534311690E+02  0.00000000000E+00 0. -1.
         -3    1    6    6    0  502 -0.12601020564E+03 -0.73499182645E+02 -0.15321512621E+03  0.21155513862E+03  0.00000000000E+00 0.  1.
<mgrwt>
<rscale>  0 0.17470315E+04</rscale>
<asrwt>0</asrwt>
<pdfrwt beam="1">  1        1 0.42964757E+00 0.17470315E+04</pdfrwt>
<pdfrwt beam="2">  1       -2 0.18038379E+00 0.17470315E+04</pdfrwt>
<totfact> 0.12253210E-01</totfact>
</mgrwt>
</event>
<event>
12    3  0.2212098E-007  0.6411511E+03  0.7818608E-02  0.9823527E-01
          1   -1    0    0  501    0  0.00000000000E+00  0.00000000000E+00  0.36461015984E+04  0.36461015984E+04  0.00000000000E+00 0. -1.
         -2   -1    0    0    0  501 -0.00000000000E+00 -0.00000000000E+00 -0.17156544077E+03  0.17156544077E+03  0.00000000000E+00 0.  1.
        -24    2    1    2    0    0 -0.30967978851E+03 -0.54874104827E+03  0.20720361472E+04  0.21672147349E+04  0.80421406198E+02 0.  0.
    5000000    2    1    2    0    0  0.30967978851E+03  0.54874104827E+03  0.14025000105E+04  0.16504523043E+04  0.59997351593E+03 0.  0.
        -24    2    4    4    0    0  0.15455470959E+03  0.23635515145E+03  0.12069842840E+04  0.12426054858E+04  0.86639572759E+02 0.  0.
         24    2    4    4    0    0  0.15512507891E+03  0.31238589682E+03  0.19551572644E+03  0.40784681847E+03  0.80398317184E+02 0.  0.
         11    1    5    5    0    0  0.20675849887E+02  0.10339909907E+03  0.48929207197E+03  0.50052532019E+03  0.00000000000E+00 0. -1.
        -12    1    5    5    0    0  0.13387885971E+03  0.13295605237E+03  0.71769221206E+03  0.74208016561E+03  0.00000000000E+00 0.  1.
         13    1    3    3    0    0 -0.62883596145E+02 -0.15210276931E+03  0.44584960657E+03  0.47525937210E+03  0.00000000000E+00 0. -1.
        -14    1    3    3    0    0 -0.24679619236E+03 -0.39663827896E+03  0.16261865406E+04  0.16919553628E+04  0.00000000000E+00 0.  1.
          2    1    6    6  502    0  0.80196345726E+01  0.86496594152E+02  0.64074499394E+02  0.10794219199E+03  0.00000000000E+00 0. -1.
         -1    1    6    6    0  502  0.14710544434E+03  0.22588930267E+03  0.13144122705E+03  0.29990462648E+03  0.00000000000E+00 0.  1.
<mgrwt>
<rscale>  0 0.64115111E+03</rscale>
<asrwt>0</asrwt>
<pdfrwt beam="1">  1        1 0.56093865E+00 0.64115111E+03</pdfrwt>
<pdfrwt beam="2">  1       -2 0.26394686E-01 0.64115111E+03</pdfrwt>
<totfact> 0.24228600E+00</totfact>
</mgrwt>
</event>
<event>
12    3  0.2212098E-007  0.7388773E+03  0.7818608E-02  0.9652964E-01
         -2   -1    0    0    0  501 -0.00000000000E+00  0.00000000000E+00  0.50598585184E+03  0.50598585184E+03  0.00000000000E+00 0.  1.
          1   -1    0    0  501    0  0.00000000000E+00 -0.00000000000E+00 -0.15668521379E+04  0.15668521379E+04  0.00000000000E+00 0. -1.
        -24    2    1    2    0    0 -0.34210405508E+03  0.55383054258E+03 -0.98612359643E+03  0.11844407105E+04  0.81832724538E+02 0.  0.
    5000000    2    1    2    0    0  0.34210405508E+03 -0.55383054258E+03 -0.74742689610E+02  0.88839727924E+03  0.59991649563E+03 0.  0.
        -24    2    4    4    0    0  0.32681789765E+03 -0.63001317207E+03 -0.17616558119E+03  0.73552765323E+03  0.78994186257E+02 0.  0.
         24    2    4    4    0    0  0.15286157423E+02  0.76182629496E+02  0.10142289158E+03  0.15286962601E+03  0.83934855540E+02 0.  0.
         13    1    3    3    0    0 -0.12360437210E+03  0.13166787911E+03 -0.26052238433E+03  0.31699587368E+03  0.00000000000E+00 0. -1.
        -14    1    3    3    0    0 -0.21849968297E+03  0.42216266347E+03 -0.72560121210E+03  0.86744483680E+03  0.00000000000E+00 0.  1.
         13    1    5    5    0    0  0.10592786604E+03 -0.13243357982E+03 -0.47777215550E+02  0.17618748024E+03  0.00000000000E+00 0. -1.
        -14    1    5    5    0    0  0.22089003162E+03 -0.49757959225E+03 -0.12838836564E+03  0.55934017299E+03  0.00000000000E+00 0.  1.
          2    1    6    6  502    0  0.44462367861E+02  0.59252221907E+02  0.43686904452E+02  0.86001590551E+02  0.00000000000E+00 0. -1.
         -1    1    6    6    0  502 -0.29176210438E+02  0.16930407589E+02  0.57735987126E+02  0.66868035458E+02  0.00000000000E+00 0.  1.
<mgrwt>
<rscale>  0 0.73887727E+03</rscale>
<asrwt>0</asrwt>
<pdfrwt beam="1">  1        1 0.24105417E+00 0.73887727E+03</pdfrwt>
<pdfrwt beam="2">  1       -2 0.77843978E-01 0.73887727E+03</pdfrwt>
<totfact> 0.78541790E+00</totfact>
</mgrwt>
</event>
<event>
12    3  0.2212098E-007  0.5448940E+03  0.7818608E-02  0.1002683E+00
         -4   -1    0    0    0  501 -0.00000000000E+00  0.00000000000E+00  0.56831386900E+03  0.56831386900E+03  0.00000000000E+00 0.  1.
          3   -1    0    0  501    0  0.00000000000E+00 -0.00000000000E+00 -0.70167950006E+03  0.70167950006E+03  0.00000000000E+00 0. -1.
        -24    2    1    2    0    0 -0.30333979936E+03  0.24549475564E+03  0.23770940470E+03  0.46379061397E+03  0.79456048266E+02 0.  0.
    5000000    2    1    2    0    0  0.30333979936E+03 -0.24549475564E+03 -0.37107503576E+03  0.80620275509E+03  0.59998624254E+03 0.  0.
        -24    2    4    4    0    0  0.46813193585E+03 -0.20813485717E+03 -0.32268868189E+03  0.61072245562E+03  0.79914355642E+02 0.  0.
         24    2    4    4    0    0 -0.16479213650E+03 -0.37359898470E+02 -0.48386353868E+02  0.19548029948E+03  0.85551726916E+02 0.  0.
         11    1    5    5    0    0  0.23078899036E+03 -0.13370516263E+03 -0.13385741192E+03  0.29842659954E+03  0.00000000000E+00 0. -1.
        -12    1    5    5    0    0  0.23734294549E+03 -0.74429694540E+02 -0.18883126997E+03  0.31229585608E+03  0.00000000000E+00 0.  1.
         13    1    3    3    0    0 -0.14684039388E+03  0.14026468401E+03  0.81133305467E+02  0.21867532122E+03  0.00000000000E+00 0. -1.
        -14    1    3    3    0    0 -0.15649940547E+03  0.10523007163E+03  0.15657609923E+03  0.24511529275E+03  0.00000000000E+00 0.  1.
          4    1    6    6  502    0 -0.12014629375E+03  0.61858710487E+01 -0.67529767474E+01  0.12049481149E+03  0.00000000000E+00 0. -1.
         -3    1    6    6    0  502 -0.44645842749E+02 -0.43545769519E+02 -0.41633377120E+02  0.74985487984E+02  0.00000000000E+00 0.  1.
<mgrwt>
<rscale>  0 0.54489404E+03</rscale>
<asrwt>0</asrwt>
<pdfrwt beam="1">  1        3 0.10795069E+00 0.54489404E+03</pdfrwt>
<pdfrwt beam="2">  1       -4 0.87432903E-01 0.54489404E+03</pdfrwt>
<totfact> 0.18683604E+00</totfact>
</mgrwt>
</event>
<event>
12    3  0.2212098E-007  0.4884464E+03  0.7818608E-02  0.1016839E+00
          1   -1    0    0  501    0  0.00000000000E+00  0.00000000000E+00  0.28855645857E+04  0.28855645857E+04  0.00000000000E+00 0. -1.
         -2   -1    0    0    0  501 -0.00000000000E+00 -0.00000000000E+00 -0.29915946610E+03  0.29915946610E+03  0.00000000000E+00 0.  1.
        -24    2    1    2    0    0 -0.96571713953E+02 -0.40168262619E+03  0.23945810692E+04  0.24315651771E+04  0.88406366618E+02 0.  0.
    5000000    2    1    2    0    0  0.96571713953E+02  0.40168262619E+03  0.19182405045E+03  0.75315887470E+03  0.59981396790E+03 0.  0.
        -24    2    4    4    0    0  0.21304387095E+03  0.37056197327E+03 -0.83194749891E+02  0.44251890884E+03  0.78725798111E+02 0.  0.
         24    2    4    4    0    0 -0.11647215700E+03  0.31120652925E+02  0.27501880034E+03  0.31063996586E+03  0.79546146701E+02 0.  0.
         11    1    5    5    0    0  0.65359907590E+02  0.54272403744E+02 -0.71007257189E+01  0.85251578484E+02  0.00000000000E+00 0. -1.
        -12    1    5    5    0    0  0.14768396336E+03  0.31628956953E+03 -0.76094024172E+02  0.35726733036E+03  0.00000000000E+00 0.  1.
         13    1    3    3    0    0 -0.13938515683E+02 -0.14855549355E+03  0.10828006971E+04  0.10930326466E+04  0.00000000000E+00 0. -1.
        -14    1    3    3    0    0 -0.82633198270E+02 -0.25312713265E+03  0.13117803721E+04  0.13385325305E+04  0.00000000000E+00 0.  1.
          2    1    6    6  502    0 -0.46621879784E+02 -0.80359598914E+01  0.18129490349E+03  0.18736600107E+03  0.00000000000E+00 0. -1.
         -1    1    6    6    0  502 -0.69850277215E+02  0.39156612816E+02  0.93723896852E+02  0.12327396479E+03  0.00000000000E+00 0.  1.
<mgrwt>
<rscale>  0 0.48844637E+03</rscale>
<asrwt>0</asrwt>
<pdfrwt beam="1">  1        1 0.44393300E+00 0.48844637E+03</pdfrwt>
<pdfrwt beam="2">  1       -2 0.46024535E-01 0.48844637E+03</pdfrwt>
<totfact> 0.32205434E+00</totfact>
</mgrwt>
</event>
<event>
12    3  0.2212098E-007  0.4914446E+03  0.7818608E-02  0.1016036E+00
         -2   -1    0    0    0  501 -0.00000000000E+00  0.00000000000E+00  0.10716773289E+04  0.10716773289E+04  0.00000000000E+00 0.  1.
          1   -1    0    0  501    0  0.00000000000E+00 -0.00000000000E+00 -0.34279293865E+03  0.34279293865E+03  0.00000000000E+00 0. -1.
        -24    2    1    2    0    0 -0.33053311487E+03  0.97863558603E+02 -0.66956333917E+02  0.35986376108E+03  0.78672484135E+02 0.  0.
    5000000    2    1    2    0    0  0.33053311487E+03 -0.97863558603E+02  0.79584072418E+03  0.10546065065E+04  0.60000250760E+03 0.  0.
        -24    2    4    4    0    0  0.36140189812E+03 -0.26822657659E+03  0.35925627035E+03  0.58132791145E+03  0.79499965338E+02 0.  0.
         24    2    4    4    0    0 -0.30868783244E+02  0.17036301799E+03  0.43658445383E+03  0.47327859504E+03  0.58396947826E+02 0.  0.
         11    1    5    5    0    0  0.16926206029E+03 -0.11882662595E+03  0.11554767313E+03  0.23689803050E+03  0.00000000000E+00 0. -1.
        -12    1    5    5    0    0  0.19213983783E+03 -0.14939995065E+03  0.24370859722E+03  0.34442988095E+03  0.00000000000E+00 0.  1.
         13    1    3    3    0    0 -0.25500105550E+03  0.10172037498E+03 -0.72736845724E+02  0.28401271401E+03  0.00000000000E+00 0. -1.
        -14    1    3    3    0    0 -0.75532059376E+02 -0.38568163789E+01  0.57805118069E+01  0.75851047078E+02  0.00000000000E+00 0.  1.
          2    1    6    6  502    0 -0.67279507198E+01 -0.30851325815E+01  0.22515275160E+02  0.23700653566E+02  0.00000000000E+00 0. -1.
         -1    1    6    6    0  502 -0.24140832524E+02  0.17344815057E+03  0.41406917868E+03  0.44957794147E+03  0.00000000000E+00 0.  1.
<mgrwt>
<rscale>  0 0.49144458E+03</rscale>
<asrwt>0</asrwt>
<pdfrwt beam="1">  1        1 0.52737376E-01 0.49144458E+03</pdfrwt>
<pdfrwt beam="2">  1       -2 0.16487343E+00 0.49144458E+03</pdfrwt>
<totfact> 0.15627751E+01</totfact>
</mgrwt>
</event>
<event>
12    3  0.2212098E-007  0.8760066E+03  0.7818608E-02  0.9456081E-01
         -2   -1    0    0    0  501 -0.00000000000E+00  0.00000000000E+00  0.20504131020E+03  0.20504131020E+03  0.00000000000E+00 0.  1.
          1   -1    0    0  501    0  0.00000000000E+00 -0.00000000000E+00 -0.42973748508E+04  0.42973748508E+04  0.00000000000E+00 0. -1.
        -24    2    1    2    0    0 -0.77045820386E+03  0.33484727837E+03 -0.19216818586E+04  0.20987805751E+04  0.79310737578E+02 0.  0.
    5000000    2    1    2    0    0  0.77045820386E+03 -0.33484727837E+03 -0.21706516820E+04  0.24036355859E+04  0.60000563449E+03 0.  0.
        -24    2    4    4    0    0  0.60393493361E+03 -0.98357493197E+02 -0.85609629380E+03  0.10552275914E+04  0.78694376392E+02 0.  0.
         24    2    4    4    0    0  0.16652327025E+03 -0.23648978518E+03 -0.13145553882E+04  0.13484079945E+04  0.80565705673E+02 0.  0.
         13    1    5    5    0    0  0.36494054068E+03 -0.56836891374E+02 -0.58100611639E+03  0.68846215418E+03  0.00000000000E+00 0. -1.
        -14    1    5    5    0    0  0.23899439293E+03 -0.41520601823E+02 -0.27509017741E+03  0.36676543721E+03  0.00000000000E+00 0.  1.
         13    1    3    3    0    0 -0.59013283211E+03  0.26576711019E+03 -0.15561692220E+04  0.16853935931E+04  0.00000000000E+00 0. -1.
        -14    1    3    3    0    0 -0.18032537175E+03  0.69080168182E+02 -0.36551263665E+03  0.41338698199E+03  0.00000000000E+00 0.  1.
          2    1    6    6  502    0  0.98669660552E+02 -0.72913077160E+02 -0.57539662568E+03  0.58833094052E+03  0.00000000000E+00 0. -1.
         -1    1    6    6    0  502  0.67853609700E+02 -0.16357670802E+03 -0.73915876252E+03  0.76007705397E+03  0.00000000000E+00 0.  1.
<mgrwt>
<rscale>  0 0.87600664E+03</rscale>
<asrwt>0</asrwt>
<pdfrwt beam="1">  1        1 0.66113453E+00 0.87600664E+03</pdfrwt>
<pdfrwt beam="2">  1       -2 0.31544820E-01 0.87600664E+03</pdfrwt>
<totfact> 0.45610731E-01</totfact>
</mgrwt>
</event>
<event>
12    3  0.2212098E-007  0.1224473E+04  0.7818608E-02  0.9091701E-01
          1   -1    0    0  501    0  0.00000000000E+00  0.00000000000E+00  0.28354815489E+04  0.28354815489E+04  0.00000000000E+00 0. -1.
         -2   -1    0    0    0  501 -0.00000000000E+00 -0.00000000000E+00 -0.73306297644E+03  0.73306297644E+03  0.00000000000E+00 0.  1.
        -24    2    1    2    0    0 -0.80415894506E+03 -0.85643463123E+03  0.11495848476E+03  0.11831247859E+04  0.80105675640E+02 0.  0.
    5000000    2    1    2    0    0  0.80415894506E+03  0.85643463123E+03  0.19874600877E+04  0.23854197395E+04  0.60006486880E+03 0.  0.
        -24    2    4    4    0    0  0.70942576544E+03  0.43416621242E+03  0.15842132388E+04  0.17908694837E+04  0.75476518693E+02 0.  0.
         24    2    4    4    0    0  0.94733179615E+02  0.42226841881E+03  0.40324684891E+03  0.59455025581E+03  0.59974933746E+02 0.  0.
         11    1    3    3    0    0 -0.63351282269E+03 -0.72009595412E+03  0.94517291851E+02  0.96374799513E+03  0.00000000000E+00 0. -1.
        -12    1    3    3    0    0 -0.17064612237E+03 -0.13633867711E+03  0.20441192914E+02  0.21937679076E+03  0.00000000000E+00 0.  1.
         11    1    5    5    0    0  0.46183216099E+03  0.24375499567E+03  0.95823945666E+03  0.10912966137E+04  0.00000000000E+00 0. -1.
        -12    1    5    5    0    0  0.24759360445E+03  0.19041121675E+03  0.62597378218E+03  0.69957286997E+03  0.00000000000E+00 0.  1.
          4    1    6    6  502    0  0.37056509673E+02  0.63761155017E+02  0.70951577434E+02  0.10233668032E+03  0.00000000000E+00 0. -1.
         -3    1    6    6    0  502  0.57676669942E+02  0.35850726380E+03  0.33229527147E+03  0.49221357549E+03  0.00000000000E+00 0.  1.
<mgrwt>
<rscale>  0 0.12244727E+04</rscale>
<asrwt>0</asrwt>
<pdfrwt beam="1">  1        1 0.43622793E+00 0.12244727E+04</pdfrwt>
<pdfrwt beam="2">  1       -2 0.11277892E+00 0.12244727E+04</pdfrwt>
<totfact> 0.42040982E-01</totfact>
</mgrwt>
</event>
<event>
12    3  0.2212098E-007  0.7930997E+03  0.7818608E-02  0.9570059E-01
         -2   -1    0    0    0  501 -0.00000000000E+00  0.00000000000E+00  0.14837406326E+04  0.14837406326E+04  0.00000000000E+00 0.  1.
          1   -1    0    0  501    0  0.00000000000E+00 -0.00000000000E+00 -0.90552166491E+03  0.90552166491E+03  0.00000000000E+00 0. -1.
        -24    2    1    2    0    0  0.73809339737E+03  0.22422933905E+03 -0.50878182722E+03  0.92756792295E+03  0.80390573105E+02 0.  0.
    5000000    2    1    2    0    0 -0.73809339737E+03 -0.22422933905E+03  0.10870007949E+04  0.14616943746E+04  0.59993254351E+03 0.  0.
        -24    2    4    4    0    0 -0.27464473262E+03  0.25495701972E+02  0.81494817377E+03  0.86405109265E+03  0.79774712800E+02 0.  0.
         24    2    4    4    0    0 -0.46344866475E+03 -0.24972504102E+03  0.27205262113E+03  0.59764328191E+03  0.77573209110E+02 0.  0.
         11    1    5    5    0    0 -0.18171963138E+03  0.44524675119E+02  0.61339057031E+03  0.64128968717E+03  0.00000000000E+00 0. -1.
        -12    1    5    5    0    0 -0.92925101235E+02 -0.19028973148E+02  0.20155760346E+03  0.22276140548E+03  0.00000000000E+00 0.  1.
         13    1    3    3    0    0  0.21888035317E+03  0.88522952294E+02 -0.19260009807E+03  0.30469611068E+03  0.00000000000E+00 0. -1.
        -14    1    3    3    0    0  0.51921304419E+03  0.13570638676E+03 -0.31618172915E+03  0.62287181227E+03  0.00000000000E+00 0.  1.
          4    1    6    6  502    0 -0.16853147355E+03 -0.51786960277E+02  0.76560125198E+02  0.19221394226E+03  0.00000000000E+00 0. -1.
         -3    1    6    6    0  502 -0.29491719120E+03 -0.19793808075E+03  0.19549249594E+03  0.40542933964E+03  0.00000000000E+00 0.  1.
<mgrwt>
<rscale>  0 0.79309967E+03</rscale>
<asrwt>0</asrwt>
<pdfrwt beam="1">  1        1 0.13931103E+00 0.79309967E+03</pdfrwt>
<pdfrwt beam="2">  1       -2 0.22826779E+00 0.79309967E+03</pdfrwt>
<totfact> 0.14228383E+00</totfact>
</mgrwt>
</event>
<event>
12    3  0.2212098E-007  0.1242423E+04  0.7818608E-02  0.9076513E-01
          3   -1    0    0  501    0  0.00000000000E+00  0.00000000000E+00  0.18667463968E+04  0.18667463968E+04  0.00000000000E+00 0. -1.
         -4   -1    0    0    0  501 -0.00000000000E+00 -0.00000000000E+00 -0.86698131684E+03  0.86698131684E+03  0.00000000000E+00 0.  1.
        -24    2    1    2    0    0 -0.53240570860E+03  0.10719159111E+04  0.56560606706E+03  0.13262289121E+04  0.80705297502E+02 0.  0.
    5000000    2    1    2    0    0  0.53240570860E+03 -0.10719159111E+04  0.43415901293E+03  0.14074988016E+04  0.60008271832E+03 0.  0.
        -24    2    4    4    0    0  0.61168228369E+03 -0.82644801296E+03  0.20141626786E+03  0.10507933014E+04  0.80165548103E+02 0.  0.
         24    2    4    4    0    0 -0.79276575085E+02 -0.24546789818E+03  0.23274274506E+03  0.35670550013E+03  0.80810667927E+02 0.  0.
         11    1    3    3    0    0 -0.21992085695E+03  0.48436942997E+03  0.29071669497E+03  0.60621376159E+03  0.00000000000E+00 0. -1.
        -12    1    3    3    0    0 -0.31248485166E+03  0.58754648117E+03  0.27488937209E+03  0.72001515049E+03  0.00000000000E+00 0.  1.
         11    1    5    5    0    0  0.27028450071E+03 -0.37706061397E+03  0.13093279440E+03  0.48204959764E+03  0.00000000000E+00 0. -1.
        -12    1    5    5    0    0  0.34139778298E+03 -0.44938739899E+03  0.70483473462E+02  0.56874370381E+03  0.00000000000E+00 0.  1.
          2    1    6    6  502    0 -0.12271876406E+02 -0.74376018821E+02  0.11817242855E+03  0.14016816327E+03  0.00000000000E+00 0. -1.
         -1    1    6    6    0  502 -0.67004698679E+02 -0.17109187936E+03  0.11457031651E+03  0.21653733686E+03  0.00000000000E+00 0.  1.
<mgrwt>
<rscale>  0 0.12424229E+04</rscale>
<asrwt>0</asrwt>
<pdfrwt beam="1">  1        3 0.28719175E+00 0.12424229E+04</pdfrwt>
<pdfrwt beam="2">  1       -4 0.13338174E+00 0.12424229E+04</pdfrwt>
<totfact> 0.40084588E-02</totfact>
</mgrwt>
</event>
<event>
12    3  0.2212098E-007  0.5374703E+03  0.7818608E-02  0.1004436E+00
         -2   -1    0    0    0  501 -0.00000000000E+00  0.00000000000E+00  0.51287286767E+03  0.51287286767E+03  0.00000000000E+00 0.  1.
          1   -1    0    0  501    0  0.00000000000E+00 -0.00000000000E+00 -0.66084823576E+03  0.66084823576E+03  0.00000000000E+00 0. -1.
        -24    2    1    2    0    0  0.46445975334E+01 -0.39930419498E+03  0.83049642423E+02  0.41684640941E+03  0.86013217082E+02 0.  0.
    5000000    2    1    2    0    0 -0.46445975334E+01  0.39930419498E+03 -0.23102501051E+03  0.75687469402E+03  0.60001777853E+03 0.  0.
        -24    2    4    4    0    0 -0.21416476209E+03  0.38927783168E+03 -0.27327391259E+03  0.52779497837E+03  0.80530319375E+02 0.  0.
         24    2    4    4    0    0  0.20952016456E+03  0.10026363308E+02  0.42248902078E+02  0.22907971565E+03  0.81812707294E+02 0.  0.
         11    1    3    3    0    0 -0.32248929218E+02 -0.21768793040E+03  0.70565806896E+02  0.23110076067E+03  0.00000000000E+00 0. -1.
        -12    1    3    3    0    0  0.36893526752E+02 -0.18161626458E+03  0.12483835527E+02  0.18574564874E+03  0.00000000000E+00 0.  1.
         13    1    5    5    0    0 -0.16707804566E+03  0.29422634285E+03 -0.16581639691E+03  0.37680139550E+03  0.00000000000E+00 0. -1.
        -14    1    5    5    0    0 -0.47086716429E+02  0.95051488829E+02 -0.10745751568E+03  0.15099358287E+03  0.00000000000E+00 0.  1.
          2    1    6    6  502    0  0.21333667133E+03  0.20165180431E+02  0.39421841529E+02  0.21788357310E+03  0.00000000000E+00 0. -1.
         -1    1    6    6    0  502 -0.38165067710E+01 -0.10138817123E+02  0.28270605483E+01  0.11196142547E+02  0.00000000000E+00 0.  1.
<mgrwt>
<rscale>  0 0.53747031E+03</rscale>
<asrwt>0</asrwt>
<pdfrwt beam="1">  1        1 0.10166896E+00 0.53747031E+03</pdfrwt>
<pdfrwt beam="2">  1       -2 0.78903519E-01 0.53747031E+03</pdfrwt>
<totfact> 0.38565019E+01</totfact>
</mgrwt>
</event>
<event>
12    3  0.2212098E-007  0.6489177E+03  0.7818608E-02  0.9808812E-01
         -2   -1    0    0    0  501 -0.00000000000E+00  0.00000000000E+00  0.50876713912E+03  0.50876713912E+03  0.00000000000E+00 0.  1.
          1   -1    0    0  501    0  0.00000000000E+00 -0.00000000000E+00 -0.95040105964E+03  0.95040105964E+03  0.00000000000E+00 0. -1.
        -24    2    1    2    0    0  0.51809868178E+03 -0.11171033120E+03  0.17449008306E+02  0.53627443840E+03  0.79877175954E+02 0.  0.
    5000000    2    1    2    0    0 -0.51809868178E+03  0.11171033120E+03 -0.45908292882E+03  0.92289376036E+03  0.60005859316E+03 0.  0.
        -24    2    4    4    0    0 -0.16660003203E+03  0.31316046225E+03 -0.32932410102E+03  0.49014098301E+03  0.77193095064E+02 0.  0.
         24    2    4    4    0    0 -0.35149864975E+03 -0.20145013106E+03 -0.12975882780E+03  0.43275277735E+03  0.79398720598E+02 0.  0.
         13    1    5    5    0    0 -0.10156100984E+03  0.22649224568E+03 -0.18456085769E+03  0.30931551249E+03  0.00000000000E+00 0. -1.
        -14    1    5    5    0    0 -0.65039022189E+02  0.86668216567E+02 -0.14476324334E+03  0.18082547053E+03  0.00000000000E+00 0.  1.
         13    1    3    3    0    0  0.22760301617E+03 -0.59172861148E+02 -0.30702573854E+02  0.23716493946E+03  0.00000000000E+00 0. -1.
        -14    1    3    3    0    0  0.29049566560E+03 -0.52537470048E+02  0.48151582160E+02  0.29910949894E+03  0.00000000000E+00 0.  1.
          4    1    6    6  502    0 -0.18243317064E+03 -0.14367021365E+03 -0.52365949784E+02  0.23804450159E+03  0.00000000000E+00 0. -1.
         -3    1    6    6    0  502 -0.16906547910E+03 -0.57779917406E+02 -0.77392878014E+02  0.19470827575E+03  0.00000000000E+00 0.  1.
<mgrwt>
<rscale>  0 0.64891773E+03</rscale>
<asrwt>0</asrwt>
<pdfrwt beam="1">  1        1 0.14621555E+00 0.64891773E+03</pdfrwt>
<pdfrwt beam="2">  1       -2 0.78271867E-01 0.64891773E+03</pdfrwt>
<totfact> 0.21796600E+01</totfact>
</mgrwt>
</event>
<event>
12    3  0.2212098E-007  0.7984585E+03  0.7818608E-02  0.9562251E-01
          1   -1    0    0  501    0  0.00000000000E+00  0.00000000000E+00  0.15046397120E+04  0.15046397120E+04  0.00000000000E+00 0. -1.
         -2   -1    0    0    0  501 -0.00000000000E+00 -0.00000000000E+00 -0.19253548443E+04  0.19253548443E+04  0.00000000000E+00 0.  1.
        -24    2    1    2    0    0  0.59516783377E+03  0.38719767582E+03 -0.17026416772E+04  0.18464678862E+04  0.79424074467E+02 0.  0.
    5000000    2    1    2    0    0 -0.59516783377E+03 -0.38719767582E+03  0.12819265449E+04  0.15835266700E+04  0.60006187822E+03 0.  0.
        -24    2    4    4    0    0  0.95334103635E+02 -0.45525870696E+02  0.77739456946E+02  0.15181375411E+03  0.76438187782E+02 0.  0.
         24    2    4    4    0    0 -0.69050193741E+03 -0.34167180512E+03  0.12041870879E+04  0.14317129159E+04  0.78757748007E+02 0.  0.
         13    1    5    5    0    0  0.76742511463E+02 -0.21938479707E+02  0.13567788512E+02  0.80961687499E+02  0.00000000000E+00 0. -1.
        -14    1    5    5    0    0  0.18591592172E+02 -0.23587390989E+02  0.64171668433E+02  0.70852066608E+02  0.00000000000E+00 0.  1.
         13    1    3    3    0    0  0.18303538026E+03  0.15341814910E+03 -0.50996773224E+03  0.56312180461E+03  0.00000000000E+00 0. -1.
        -14    1    3    3    0    0  0.41213245351E+03  0.23377952671E+03 -0.11926739449E+04  0.12833460816E+04  0.00000000000E+00 0.  1.
          4    1    6    6  502    0 -0.36792548138E+03 -0.13817045798E+03  0.61444584106E+03  0.72938599308E+03  0.00000000000E+00 0. -1.
         -3    1    6    6    0  502 -0.32257645603E+03 -0.20350134714E+03  0.58974124687E+03  0.70232692283E+03  0.00000000000E+00 0.  1.
<mgrwt>
<rscale>  0 0.79845846E+03</rscale>
<asrwt>0</asrwt>
<pdfrwt beam="1">  1        1 0.23148303E+00 0.79845846E+03</pdfrwt>
<pdfrwt beam="2">  1       -2 0.29620844E+00 0.79845846E+03</pdfrwt>
<totfact> 0.20075487E-01</totfact>
</mgrwt>
</event>
<event>
12    3  0.2212098E-007  0.1083590E+04  0.7818608E-02  0.9221336E-01
          1   -1    0    0  501    0  0.00000000000E+00  0.00000000000E+00  0.10154931063E+04  0.10154931063E+04  0.00000000000E+00 0. -1.
         -2   -1    0    0    0  501 -0.00000000000E+00 -0.00000000000E+00 -0.11864788491E+04  0.11864788491E+04  0.00000000000E+00 0.  1.
        -24    2    1    2    0    0 -0.13340066759E+03  0.99921837698E+03  0.29394582941E+02  0.10118125519E+04  0.81654734983E+02 0.  0.
    5000000    2    1    2    0    0  0.13340066759E+03 -0.99921837698E+03 -0.20038032578E+03  0.11901594035E+04  0.60007835140E+03 0.  0.
        -24    2    4    4    0    0  0.67928164192E+02  0.51407014962E+02  0.81965671603E+00  0.11545784737E+03  0.77928980511E+02 0.  0.
         24    2    4    4    0    0  0.65472503400E+02 -0.10506253919E+04 -0.20119998249E+03  0.10747015562E+04  0.80010242780E+02 0.  0.
         11    1    3    3    0    0 -0.75249587425E+02  0.35883143563E+03 -0.17739285586E+02  0.36706563699E+03  0.00000000000E+00 0. -1.
        -12    1    3    3    0    0 -0.58151080166E+02  0.64038694135E+03  0.47133868527E+02  0.64474691495E+03  0.00000000000E+00 0.  1.
         13    1    5    5    0    0  0.16518192592E+02  0.49613474992E+02 -0.24932362204E+02  0.57930736853E+02  0.00000000000E+00 0. -1.
        -14    1    5    5    0    0  0.51409971600E+02  0.17935399706E+01  0.25752018920E+02  0.57527110513E+02  0.00000000000E+00 0.  1.
          4    1    6    6  502    0  0.13781696185E+02 -0.51041435110E+02 -0.24638734276E+02  0.58328641974E+02  0.00000000000E+00 0. -1.
         -1    1    6    6    0  502  0.51690807214E+02 -0.99958395683E+03 -0.17656124822E+03  0.10163729142E+04  0.00000000000E+00 0.  1.
<mgrwt>
<rscale>  0 0.10835898E+04</rscale>
<asrwt>0</asrwt>
<pdfrwt beam="1">  1        1 0.15622971E+00 0.10835898E+04</pdfrwt>
<pdfrwt beam="2">  1       -2 0.18253521E+00 0.10835898E+04</pdfrwt>
<totfact> 0.22179607E+00</totfact>
</mgrwt>
</event>
<event>
12    3  0.2212098E-007  0.5720791E+03  0.7818608E-02  0.9965088E-01
          1   -1    0    0  501    0  0.00000000000E+00  0.00000000000E+00  0.25516587902E+03  0.25516587902E+03  0.00000000000E+00 0. -1.
         -2   -1    0    0    0  501 -0.00000000000E+00 -0.00000000000E+00 -0.18788804258E+04  0.18788804258E+04  0.00000000000E+00 0.  1.
        -24    2    1    2    0    0 -0.41700140369E+03 -0.36958494097E+03 -0.59250051442E+03  0.81730508612E+03  0.80296606056E+02 0.  0.
    5000000    2    1    2    0    0  0.41700140369E+03  0.36958494097E+03 -0.10312140324E+04  0.13167412187E+04  0.59993487748E+03 0.  0.
        -24    2    4    4    0    0  0.71359078228E+02  0.37336949030E+02  0.40010216072E+02  0.14034672599E+03  0.10775073224E+03 0.  0.
         24    2    4    4    0    0  0.34564232546E+03  0.33224799194E+03 -0.10712242485E+04  0.11763944927E+04  0.80779123174E+02 0.  0.
         11    1    3    3    0    0 -0.29476918089E+03 -0.27021395285E+03 -0.37082862659E+03  0.54536072522E+03  0.00000000000E+00 0. -1.
        -12    1    3    3    0    0 -0.12223222280E+03 -0.99370988113E+02 -0.22167188783E+03  0.27194436090E+03  0.00000000000E+00 0.  1.
         13    1    5    5    0    0  0.74614390299E+02  0.90402096359E+01 -0.16602959443E+02  0.76972013695E+02  0.00000000000E+00 0. -1.
        -14    1    5    5    0    0 -0.32553120707E+01  0.28296739394E+02  0.56613175515E+02  0.63374712298E+02  0.00000000000E+00 0.  1.
          4    1    6    6  502    0  0.11543340064E+03  0.73858017940E+02 -0.24705642760E+03  0.28251859269E+03  0.00000000000E+00 0. -1.
         -3    1    6    6    0  502  0.23020892482E+03  0.25838997400E+03 -0.82416782086E+03  0.89387590004E+03  0.00000000000E+00 0.  1.
<mgrwt>
<rscale>  0 0.57207910E+03</rscale>
<asrwt>0</asrwt>
<pdfrwt beam="1">  1        1 0.39256289E-01 0.57207910E+03</pdfrwt>
<pdfrwt beam="2">  1       -2 0.28905852E+00 0.57207910E+03</pdfrwt>
<totfact> 0.37472395E+00</totfact>
</mgrwt>
</event>
<event>
12    3  0.2212098E-007  0.1239902E+04  0.7818608E-02  0.9078630E-01
         -4   -1    0    0    0  501 -0.00000000000E+00  0.00000000000E+00  0.20133184101E+04  0.20133184101E+04  0.00000000000E+00 0.  1.
          1   -1    0    0  501    0  0.00000000000E+00 -0.00000000000E+00 -0.97825740387E+03  0.97825740387E+03  0.00000000000E+00 0. -1.
        -24    2    1    2    0    0 -0.98232048426E+03 -0.67899786519E+03  0.11375733872E+04  0.16511761258E+04  0.79484290115E+02 0.  0.
    5000000    2    1    2    0    0  0.98232048426E+03  0.67899786519E+03 -0.10251238099E+03  0.13403996882E+04  0.60014240064E+03 0.  0.
        -24    2    4    4    0    0  0.84732509840E+03  0.33157347067E+03  0.80683805606E+02  0.91766110254E+03  0.87699679638E+02 0.  0.
         24    2    4    4    0    0  0.13499538587E+03  0.34742439452E+03 -0.18319618659E+03  0.42273858562E+03  0.78864471602E+02 0.  0.
         11    1    3    3    0    0 -0.19581753856E+03 -0.11507254572E+03  0.25372152925E+03  0.34053019483E+03  0.00000000000E+00 0. -1.
        -12    1    3    3    0    0 -0.78650294570E+03 -0.56392531947E+03  0.88385185799E+03  0.13106459310E+04  0.00000000000E+00 0.  1.
         13    1    5    5    0    0  0.13971922144E+03  0.76009247570E+02  0.41087685162E+02  0.16427740084E+03  0.00000000000E+00 0. -1.
        -14    1    5    5    0    0  0.70760587695E+03  0.25556422310E+03  0.39596120444E+02  0.75338370170E+03  0.00000000000E+00 0.  1.
          4    1    6    6  502    0  0.15678201985E+02  0.23054121336E+02  0.62948389610E+01  0.28581874074E+02  0.00000000000E+00 0. -1.
         -3    1    6    6    0  502  0.11931718388E+03  0.32437027318E+03 -0.18949102556E+03  0.39415671155E+03  0.00000000000E+00 0.  1.
<mgrwt>
<rscale>  0 0.12399021E+04</rscale>
<asrwt>0</asrwt>
<pdfrwt beam="1">  1        1 0.15050114E+00 0.12399021E+04</pdfrwt>
<pdfrwt beam="2">  1       -4 0.30974129E+00 0.12399021E+04</pdfrwt>
<totfact> 0.19570071E-01</totfact>
</mgrwt>
</event>
<event>
12    3  0.2212098E-007  0.4770822E+03  0.7818608E-02  0.1019940E+00
         -2   -1    0    0    0  501 -0.00000000000E+00  0.00000000000E+00  0.10240314701E+03  0.10240314701E+03  0.00000000000E+00 0.  1.
          1   -1    0    0  501    0  0.00000000000E+00 -0.00000000000E+00 -0.30067900131E+04  0.30067900131E+04  0.00000000000E+00 0. -1.
        -24    2    1    2    0    0  0.32069738531E+03 -0.21610083064E+03 -0.96755763984E+03  0.10450648817E+04  0.80289717070E+02 0.  0.
    5000000    2    1    2    0    0 -0.32069738531E+03  0.21610083064E+03 -0.19368292262E+04  0.20641282784E+04  0.59980973318E+03 0.  0.
        -24    2    4    4    0    0 -0.80475181404E+02  0.28673361765E+03 -0.40319599135E+03  0.50808640028E+03  0.83020240860E+02 0.  0.
         24    2    4    4    0    0 -0.24022220390E+03 -0.70632787013E+02 -0.15336332349E+04  0.15560418781E+04  0.80868593254E+02 0.  0.
         11    1    5    5    0    0 -0.81772843636E+02  0.14735487406E+03 -0.24332549176E+03  0.29598572906E+03  0.00000000000E+00 0. -1.
        -12    1    5    5    0    0  0.12976622321E+01  0.13937874360E+03 -0.15987049959E+03  0.21210067122E+03  0.00000000000E+00 0.  1.
         11    1    3    3    0    0  0.17829112174E+03 -0.15571855530E+03 -0.65184632235E+03  0.69349810419E+03  0.00000000000E+00 0. -1.
        -12    1    3    3    0    0  0.14240626356E+03 -0.60382275343E+02 -0.31571131750E+03  0.35156677755E+03  0.00000000000E+00 0.  1.
          4    1    6    6  502    0 -0.94700286286E+02 -0.39433087312E+01 -0.39505939255E+03  0.40627037493E+03  0.00000000000E+00 0. -1.
         -3    1    6    6    0  502 -0.14552191762E+03 -0.66689478282E+02 -0.11385738423E+04  0.11497715032E+04  0.00000000000E+00 0.  1.
<mgrwt>
<rscale>  0 0.47708218E+03</rscale>
<asrwt>0</asrwt>
<pdfrwt beam="1">  1        1 0.46258310E+00 0.47708218E+03</pdfrwt>
<pdfrwt beam="2">  1       -2 0.15754330E-01 0.47708218E+03</pdfrwt>
<totfact> 0.18671750E+01</totfact>
</mgrwt>
</event>
<event>
12    3  0.2212098E-007  0.1072715E+04  0.7818608E-02  0.9232201E-01
          1   -1    0    0  501    0  0.00000000000E+00  0.00000000000E+00  0.26781426597E+04  0.26781426597E+04  0.00000000000E+00 0. -1.
         -2   -1    0    0    0  501 -0.00000000000E+00 -0.00000000000E+00 -0.55520133969E+03  0.55520133969E+03  0.00000000000E+00 0.  1.
        -24    2    1    2    0    0  0.78078919977E+03 -0.70875586934E+03  0.15860383114E+04  0.19063197288E+04  0.81060017336E+02 0.  0.
    5000000    2    1    2    0    0 -0.78078919977E+03  0.70875586934E+03  0.53690300867E+03  0.13270242706E+04  0.60063459555E+03 0.  0.
        -24    2    4    4    0    0 -0.62500587636E+03  0.67351241469E+03  0.19692546817E+03  0.94306023190E+03  0.79571620320E+02 0.  0.
         24    2    4    4    0    0 -0.15578332341E+03  0.35243454650E+02  0.33997754050E+03  0.38396403874E+03  0.79580839742E+02 0.  0.
         11    1    5    5    0    0 -0.37932249848E+03  0.35223401829E+03  0.10137569051E+03  0.52747643750E+03  0.00000000000E+00 0. -1.
        -12    1    5    5    0    0 -0.24568337789E+03  0.32127839639E+03  0.95549777663E+02  0.41558379440E+03  0.00000000000E+00 0.  1.
         11    1    3    3    0    0  0.25936039639E+03 -0.23177024262E+03  0.45618242618E+03  0.57366163070E+03  0.00000000000E+00 0. -1.
        -12    1    3    3    0    0  0.52142880338E+03 -0.47698562672E+03  0.11298558852E+04  0.13326580981E+04  0.00000000000E+00 0.  1.
          2    1    6    6  502    0 -0.14121973783E+03  0.48312853523E+02  0.24414161924E+03  0.28615079314E+03  0.00000000000E+00 0. -1.
         -1    1    6    6    0  502 -0.14563585579E+02 -0.13069398873E+02  0.95835921259E+02  0.97813245603E+02  0.00000000000E+00 0.  1.
<mgrwt>
<rscale>  0 0.10727154E+04</rscale>
<asrwt>0</asrwt>
<pdfrwt beam="1">  1        1 0.41202194E+00 0.10727154E+04</pdfrwt>
<pdfrwt beam="2">  1       -2 0.85415593E-01 0.10727154E+04</pdfrwt>
<totfact> 0.10710327E+00</totfact>
</mgrwt>
</event>
<event>
12    3  0.2212098E-007  0.2740095E+03  0.7818608E-02  0.1099007E+00
          1   -1    0    0  501    0  0.00000000000E+00  0.00000000000E+00  0.73624686360E+03  0.73624686360E+03  0.00000000000E+00 0. -1.
         -2   -1    0    0    0  501 -0.00000000000E+00 -0.00000000000E+00 -0.81908633328E+03  0.81908633328E+03  0.00000000000E+00 0.  1.
        -24    2    1    2    0    0  0.14432663269E+03 -0.42865709942E+02 -0.67670225044E+03  0.69779979726E+03  0.79567426174E+02 0.  0.
    5000000    2    1    2    0    0 -0.14432663269E+03  0.42865709942E+02  0.59386278076E+03  0.85753339962E+03  0.60001906896E+03 0.  0.
        -24    2    4    4    0    0  0.90820790127E+02  0.10243773595E+03 -0.49704449500E+02  0.16528185707E+03  0.78138686394E+02 0.  0.
         24    2    4    4    0    0 -0.23514742282E+03 -0.59572026008E+02  0.64356723026E+03  0.69225154255E+03  0.78678342423E+02 0.  0.
         11    1    3    3    0    0  0.75563650013E+02 -0.50042396243E+02 -0.25864784954E+03  0.27406717552E+03  0.00000000000E+00 0. -1.
        -12    1    3    3    0    0  0.68762982676E+02  0.71766863014E+01 -0.41805440090E+03  0.42373262174E+03  0.00000000000E+00 0.  1.
         13    1    5    5    0    0  0.71681735280E+02  0.55080453923E+02  0.48727215037E+01  0.90531049878E+02  0.00000000000E+00 0. -1.
        -14    1    5    5    0    0  0.19139054846E+02  0.47357282026E+02 -0.54577171004E+02  0.74750807194E+02  0.00000000000E+00 0.  1.
          2    1    6    6  502    0 -0.19449086022E+02  0.75631264707E+01  0.12333614942E+03  0.12508906261E+03  0.00000000000E+00 0. -1.
         -1    1    6    6    0  502 -0.21569833679E+03 -0.67135152478E+02  0.52023108083E+03  0.56716247994E+03  0.00000000000E+00 0.  1.
<mgrwt>
<rscale>  0 0.27400951E+03</rscale>
<asrwt>0</asrwt>
<pdfrwt beam="1">  1        1 0.11326875E+00 0.27400951E+03</pdfrwt>
<pdfrwt beam="2">  1       -2 0.12601328E+00 0.27400951E+03</pdfrwt>
<totfact> 0.11505542E+01</totfact>
</mgrwt>
</event>
<event>
12    3  0.2212098E-007  0.7233532E+03  0.7818608E-02  0.9678108E-01
          3   -1    0    0  501    0  0.00000000000E+00  0.00000000000E+00  0.20843156490E+03  0.20843156490E+03  0.00000000000E+00 0. -1.
         -4   -1    0    0    0  501 -0.00000000000E+00 -0.00000000000E+00 -0.30499548780E+04  0.30499548780E+04  0.00000000000E+00 0.  1.
        -24    2    1    2    0    0 -0.36124711620E+03  0.56987785084E+03 -0.10221474503E+04  0.12273054085E+04  0.78948790861E+02 0.  0.
    5000000    2    1    2    0    0  0.36124711620E+03 -0.56987785084E+03 -0.18193758627E+04  0.20310810344E+04  0.59991782316E+03 0.  0.
        -24    2    4    4    0    0 -0.68618874656E+02 -0.12680147863E+03 -0.77664070112E+02  0.18144704277E+03  0.78129102148E+02 0.  0.
         24    2    4    4    0    0  0.42986599085E+03 -0.44307637221E+03 -0.17417117926E+04  0.18496339916E+04  0.80526347890E+02 0.  0.
         11    1    5    5    0    0 -0.23282106221E+02 -0.10239075040E+02 -0.45791482204E+02  0.52380864542E+02  0.00000000000E+00 0. -1.
        -12    1    5    5    0    0 -0.45336768435E+02 -0.11656240359E+03 -0.31872587909E+02  0.12906617823E+03  0.00000000000E+00 0.  1.
         13    1    3    3    0    0 -0.11807860747E+03  0.17795854397E+03 -0.39191730920E+03  0.44633057050E+03  0.00000000000E+00 0. -1.
        -14    1    3    3    0    0 -0.24316850873E+03  0.39191930687E+03 -0.63023014113E+03  0.78097483796E+03  0.00000000000E+00 0.  1.
          4    1    6    6  502    0  0.22032061755E+03 -0.27757331357E+03 -0.93700359591E+03  0.10017803440E+04  0.00000000000E+00 0. -1.
         -3    1    6    6    0  502  0.20954537330E+03 -0.16550305864E+03 -0.80470819672E+03  0.84785364761E+03  0.00000000000E+00 0.  1.
<mgrwt>
<rscale>  0 0.72335317E+03</rscale>
<asrwt>0</asrwt>
<pdfrwt beam="1">  1        3 0.32066396E-01 0.72335317E+03</pdfrwt>
<pdfrwt beam="2">  1       -4 0.46922381E+00 0.72335317E+03</pdfrwt>
<totfact> 0.49316433E-02</totfact>
</mgrwt>
</event>
<event>
12    3  0.2212098E-007  0.1743610E+04  0.7818608E-02  0.8736875E-01
         -2   -1    0    0    0  501 -0.00000000000E+00  0.00000000000E+00  0.15023765393E+04  0.15023765393E+04  0.00000000000E+00 0.  1.
          1   -1    0    0  501    0  0.00000000000E+00 -0.00000000000E+00 -0.24912624507E+04  0.24912624507E+04  0.00000000000E+00 0. -1.
        -24    2    1    2    0    0  0.60865125795E+03  0.16240935262E+04  0.28517238450E+03  0.17594699394E+04  0.79215168410E+02 0.  0.
    5000000    2    1    2    0    0 -0.60865125795E+03 -0.16240935262E+04 -0.12740582959E+04  0.22341690506E+04  0.60012554495E+03 0.  0.
        -24    2    4    4    0    0 -0.31844640277E+03 -0.53261196592E+03 -0.77746260092E+03  0.99796124705E+03  0.79968350700E+02 0.  0.
         24    2    4    4    0    0 -0.29020485517E+03 -0.10914815603E+04 -0.49659569494E+03  0.12362078036E+04  0.77791997368E+02 0.  0.
         13    1    3    3    0    0  0.17225117328E+03  0.46587781375E+03  0.11802533375E+03  0.51053166743E+03  0.00000000000E+00 0. -1.
        -14    1    3    3    0    0  0.43640008466E+03  0.11582157125E+04  0.16714705075E+03  0.12489382719E+04  0.00000000000E+00 0.  1.
         13    1    5    5    0    0 -0.18896183104E+03 -0.35233495219E+03 -0.55196792146E+03  0.68155343037E+03  0.00000000000E+00 0. -1.
        -14    1    5    5    0    0 -0.12948457173E+03 -0.18027701373E+03 -0.22549467946E+03  0.31640781668E+03  0.00000000000E+00 0.  1.
          2    1    6    6  502    0 -0.14226500223E+02 -0.12898546817E+03 -0.40494266921E+02  0.13593906709E+03  0.00000000000E+00 0. -1.
         -1    1    6    6    0  502 -0.27597835495E+03 -0.96249609216E+03 -0.45610142802E+03  0.11002687365E+04  0.00000000000E+00 0.  1.
<mgrwt>
<rscale>  0 0.17436103E+04</rscale>
<asrwt>0</asrwt>
<pdfrwt beam="1">  1        1 0.38327115E+00 0.17436103E+04</pdfrwt>
<pdfrwt beam="2">  1       -2 0.23113485E+00 0.17436103E+04</pdfrwt>
<totfact> 0.92691854E-02</totfact>
</mgrwt>
</event>
<event>
12    3  0.2212098E-007  0.6863685E+03  0.7818608E-02  0.9740832E-01
          1   -1    0    0  501    0  0.00000000000E+00  0.00000000000E+00  0.17534964576E+04  0.17534964576E+04  0.00000000000E+00 0. -1.
         -2   -1    0    0    0  501 -0.00000000000E+00 -0.00000000000E+00 -0.29911772340E+03  0.29911772340E+03  0.00000000000E+00 0.  1.
        -24    2    1    2    0    0 -0.12213804273E+03 -0.58392431197E+03  0.59431727286E+03  0.84608718505E+03  0.82250837652E+02 0.  0.
    5000000    2    1    2    0    0  0.12213804273E+03  0.58392431197E+03  0.86006146133E+03  0.12065269959E+04  0.60009696804E+03 0.  0.
        -24    2    4    4    0    0 -0.95429914648E+02  0.52896140094E+03  0.79029243459E+03  0.95924175891E+03  0.81704269021E+02 0.  0.
         24    2    4    4    0    0  0.21756795738E+03  0.54962911029E+02  0.69769026747E+02  0.24728523702E+03  0.76977488194E+02 0.  0.
         11    1    5    5    0    0 -0.72730671861E+02  0.44542938665E+03  0.60569236368E+03  0.75535443902E+03  0.00000000000E+00 0. -1.
        -12    1    5    5    0    0 -0.22699242787E+02  0.83532014289E+02  0.18460007091E+03  0.20388731989E+03  0.00000000000E+00 0.  1.
         13    1    3    3    0    0 -0.64204585721E+02 -0.13611661051E+03  0.15725433086E+03  0.21766691310E+03  0.00000000000E+00 0. -1.
        -14    1    3    3    0    0 -0.57933457012E+02 -0.44780770146E+03  0.43706294200E+03  0.62842027195E+03  0.00000000000E+00 0.  1.
          4    1    6    6  502    0  0.30350323578E+02  0.32139780160E+02 -0.48213379009E+01  0.44467436503E+02  0.00000000000E+00 0. -1.
         -3    1    6    6    0  502  0.18721763380E+03  0.22823130869E+02  0.74590364648E+02  0.20281780052E+03  0.00000000000E+00 0.  1.
<mgrwt>
<rscale>  0 0.68636850E+03</rscale>
<asrwt>0</asrwt>
<pdfrwt beam="1">  1        1 0.26976868E+00 0.68636850E+03</pdfrwt>
<pdfrwt beam="2">  1       -2 0.46018112E-01 0.68636850E+03</pdfrwt>
<totfact> 0.17978405E+01</totfact>
</mgrwt>
</event>
<event>
12    3  0.2212098E-007  0.5253979E+03  0.7818608E-02  0.1007354E+00
          1   -1    0    0  501    0  0.00000000000E+00  0.00000000000E+00  0.23402875148E+04  0.23402875148E+04  0.00000000000E+00 0. -1.
         -2   -1    0    0    0  501 -0.00000000000E+00 -0.00000000000E+00 -0.25863893700E+03  0.25863893700E+03  0.00000000000E+00 0.  1.
        -24    2    1    2    0    0  0.24336161110E+02 -0.36495020266E+03  0.18055005598E+04  0.18439474194E+04  0.80801701363E+02 0.  0.
    5000000    2    1    2    0    0 -0.24336161110E+02  0.36495020266E+03  0.27614801801E+03  0.75497903241E+03  0.59996225912E+03 0.  0.
        -24    2    4    4    0    0  0.19153887398E+02 -0.15359512958E+03  0.36891494543E+02  0.17685061482E+03  0.77180453228E+02 0.  0.
         24    2    4    4    0    0 -0.43490048508E+02  0.51854533223E+03  0.23925652346E+03  0.57812841758E+03  0.78791733701E+02 0.  0.
         11    1    5    5    0    0 -0.11307716341E+02 -0.33780044981E+02 -0.19899372722E+02  0.40803687609E+02  0.00000000000E+00 0. -1.
        -12    1    5    5    0    0  0.30461603738E+02 -0.11981508460E+03  0.56790867265E+02  0.13604692721E+03  0.00000000000E+00 0.  1.
         13    1    3    3    0    0  0.23798206036E+02 -0.22893667607E+03  0.93671969168E+03  0.96458391913E+03  0.00000000000E+00 0. -1.
        -14    1    3    3    0    0  0.53795507435E+00 -0.13601352659E+03  0.86878086814E+03  0.87936350030E+03  0.00000000000E+00 0.  1.
          4    1    6    6  502    0 -0.25906646550E+02  0.48481104473E+02  0.14792767535E+02  0.56924492073E+02  0.00000000000E+00 0. -1.
         -3    1    6    6    0  502 -0.17583401959E+02  0.47006422776E+03  0.22446375593E+03  0.52120392551E+03  0.00000000000E+00 0.  1.
<mgrwt>
<rscale>  0 0.52539790E+03</rscale>
<asrwt>0</asrwt>
<pdfrwt beam="1">  1        1 0.36004422E+00 0.52539790E+03</pdfrwt>
<pdfrwt beam="2">  1       -2 0.39790607E-01 0.52539790E+03</pdfrwt>
<totfact> 0.10011505E+01</totfact>
</mgrwt>
</event>
<event>
12    3  0.2212098E-007  0.5922288E+03  0.7818608E-02  0.9921661E-01
         -2   -1    0    0    0  501 -0.00000000000E+00  0.00000000000E+00  0.64965412355E+03  0.64965412355E+03  0.00000000000E+00 0.  1.
          1   -1    0    0  501    0  0.00000000000E+00 -0.00000000000E+00 -0.17701856202E+04  0.17701856202E+04  0.00000000000E+00 0. -1.
        -24    2    1    2    0    0 -0.23269031754E+03 -0.44984082417E+03 -0.14726214847E+04  0.15593646191E+04  0.80637628294E+02 0.  0.
    5000000    2    1    2    0    0  0.23269031754E+03  0.44984082417E+03  0.35208998804E+03  0.86047512468E+03  0.59995710643E+03 0.  0.
        -24    2    4    4    0    0  0.26850771220E+03  0.61372611747E+02 -0.53202002120E+02  0.29289425487E+03  0.84223527164E+02 0.  0.
         24    2    4    4    0    0 -0.35817394651E+02  0.38846821242E+03  0.40529199016E+03  0.56758086981E+03  0.75471906456E+02 0.  0.
         11    1    5    5    0    0  0.11806305378E+03  0.64627003580E+02 -0.46016529535E+02  0.14224294446E+03  0.00000000000E+00 0. -1.
        -12    1    5    5    0    0  0.15044465842E+03 -0.32543918325E+01 -0.71854725859E+01  0.15065131041E+03  0.00000000000E+00 0.  1.
         13    1    3    3    0    0 -0.59011719120E+02 -0.86129198503E+02 -0.40361391998E+03  0.41689905041E+03  0.00000000000E+00 0. -1.
        -14    1    3    3    0    0 -0.17367859843E+03 -0.36371162566E+03 -0.10690075647E+04  0.11424655687E+04  0.00000000000E+00 0.  1.
          2    1    6    6  502    0 -0.40296651281E+02  0.23768479779E+03  0.20252824226E+03  0.31485801898E+03  0.00000000000E+00 0. -1.
         -1    1    6    6    0  502  0.44792566307E+01  0.15078341463E+03  0.20276374789E+03  0.25272285082E+03  0.00000000000E+00 0.  1.
<mgrwt>
<rscale>  0 0.59222883E+03</rscale>
<asrwt>0</asrwt>
<pdfrwt beam="1">  1        1 0.27233625E+00 0.59222883E+03</pdfrwt>
<pdfrwt beam="2">  1       -2 0.99946788E-01 0.59222883E+03</pdfrwt>
<totfact> 0.33146138E+00</totfact>
</mgrwt>
</event>
<event>
12    3  0.2212098E-007  0.3773434E+03  0.7818608E-02  0.1051920E+00
          3   -1    0    0  501    0  0.00000000000E+00  0.00000000000E+00  0.39845624123E+03  0.39845624123E+03  0.00000000000E+00 0. -1.
         -4   -1    0    0    0  501 -0.00000000000E+00 -0.00000000000E+00 -0.45535640493E+03  0.45535640493E+03  0.00000000000E+00 0.  1.
        -24    2    1    2    0    0 -0.94026064315E+02  0.11956153170E+03 -0.14972311117E+03  0.22794056564E+03  0.80025188610E+02 0.  0.
    5000000    2    1    2    0    0  0.94026064315E+02 -0.11956153170E+03  0.92822947469E+02  0.62587208052E+03  0.59996991672E+03 0.  0.
        -24    2    4    4    0    0  0.21189716447E+03  0.16689265003E+03 -0.32138931635E+02  0.28304234153E+03  0.79539243323E+02 0.  0.
         24    2    4    4    0    0 -0.11787110015E+03 -0.28645418173E+03  0.12496187910E+03  0.34282973900E+03  0.77247422152E+02 0.  0.
         11    1    5    5    0    0  0.12310807120E+03  0.75698441157E+02  0.19220536034E+02  0.14579190716E+03  0.00000000000E+00 0. -1.
        -12    1    5    5    0    0  0.88789093270E+02  0.91194208870E+02 -0.51359467669E+02  0.13725043437E+03  0.00000000000E+00 0.  1.
         13    1    3    3    0    0 -0.56123182774E+02  0.12144477994E+03 -0.11280486729E+03  0.17499595511E+03  0.00000000000E+00 0. -1.
        -14    1    3    3    0    0 -0.37902881542E+02 -0.18832482400E+01 -0.36918243881E+02  0.52944610532E+02  0.00000000000E+00 0.  1.
          4    1    6    6  502    0 -0.69879583383E+02 -0.13117970844E+03  0.21520641066E+02  0.15018125739E+03  0.00000000000E+00 0. -1.
         -3    1    6    6    0  502 -0.47991516768E+02 -0.15527447329E+03  0.10344123804E+03  0.19264848161E+03  0.00000000000E+00 0.  1.
<mgrwt>
<rscale>  0 0.37734339E+03</rscale>
<asrwt>0</asrwt>
<pdfrwt beam="1">  1        3 0.61300960E-01 0.37734339E+03</pdfrwt>
<pdfrwt beam="2">  1       -4 0.70054831E-01 0.37734339E+03</pdfrwt>
<totfact> 0.10804896E+01</totfact>
</mgrwt>
</event>
<event>
12    3  0.2212098E-007  0.3369968E+03  0.7818608E-02  0.1068082E+00
         -2   -1    0    0    0  501 -0.00000000000E+00  0.00000000000E+00  0.11431004158E+03  0.11431004158E+03  0.00000000000E+00 0.  1.
          1   -1    0    0  501    0  0.00000000000E+00 -0.00000000000E+00 -0.21059070392E+04  0.21059070392E+04  0.00000000000E+00 0. -1.
        -24    2    1    2    0    0 -0.10470856343E+03 -0.15463719165E+02  0.52805262168E+01  0.13237646649E+03  0.79326130982E+02 0.  0.
    5000000    2    1    2    0    0  0.10470856343E+03  0.15463719165E+02 -0.19968775239E+04  0.20878406143E+04  0.60029623986E+03 0.  0.
        -24    2    4    4    0    0  0.32377676193E+03  0.41693940247E+02 -0.15164847686E+04  0.15532792351E+04  0.79878359618E+02 0.  0.
         24    2    4    4    0    0 -0.21906819851E+03 -0.26230221082E+02 -0.48039275523E+03  0.53456137926E+03  0.79371083017E+02 0.  0.
         11    1    5    5    0    0  0.14128237387E+03  0.43537286950E+02 -0.53922240703E+03  0.55912164040E+03  0.00000000000E+00 0. -1.
        -12    1    5    5    0    0  0.18249438806E+03 -0.18433467032E+01 -0.97726236162E+03  0.99415759467E+03  0.00000000000E+00 0.  1.
         13    1    3    3    0    0 -0.36465073764E+01  0.14948026066E+02 -0.18630820673E+02  0.24162946390E+02  0.00000000000E+00 0. -1.
        -14    1    3    3    0    0 -0.10106205605E+03 -0.30411745231E+02  0.23911346889E+02  0.10821352010E+03  0.00000000000E+00 0.  1.
          4    1    6    6  502    0 -0.53086668641E+02 -0.19675543442E+02 -0.59773341232E+02  0.82329664879E+02  0.00000000000E+00 0. -1.
         -3    1    6    6    0  502 -0.16598152987E+03 -0.65546776397E+01 -0.42061941400E+03  0.45223171438E+03  0.00000000000E+00 0.  1.
<mgrwt>
<rscale>  0 0.33699683E+03</rscale>
<asrwt>0</asrwt>
<pdfrwt beam="1">  1        1 0.32398569E+00 0.33699683E+03</pdfrwt>
<pdfrwt beam="2">  1       -2 0.17586161E-01 0.33699683E+03</pdfrwt>
<totfact> 0.65467580E+01</totfact>
</mgrwt>
</event>
<event>
12    3  0.2212098E-007  0.1220475E+04  0.7818608E-02  0.9095122E-01
          1   -1    0    0  501    0  0.00000000000E+00  0.00000000000E+00  0.13526385179E+04  0.13526385179E+04  0.00000000000E+00 0. -1.
         -2   -1    0    0    0  501 -0.00000000000E+00 -0.00000000000E+00 -0.11762499799E+04  0.11762499799E+04  0.00000000000E+00 0.  1.
        -24    2    1    2    0    0 -0.80715993131E+02  0.11664268605E+04 -0.13103714288E+03  0.11792182147E+04  0.79486934275E+02 0.  0.
    5000000    2    1    2    0    0  0.80715993131E+02 -0.11664268605E+04  0.30742568094E+03  0.13496702831E+04  0.60002719210E+03 0.  0.
        -24    2    4    4    0    0 -0.19707714880E+03 -0.38938111417E+03 -0.50198778131E+02  0.44669717744E+03  0.81002446606E+02 0.  0.
         24    2    4    4    0    0  0.27779314193E+03 -0.77704574633E+03  0.35762445907E+03  0.90297310563E+03  0.80598102782E+02 0.  0.
         11    1    5    5    0    0 -0.94877648686E+02 -0.27268824435E+03 -0.34957982867E+02  0.29083106332E+03  0.00000000000E+00 0. -1.
        -12    1    5    5    0    0 -0.10219950011E+03 -0.11669286982E+03 -0.15240795264E+02  0.15586611412E+03  0.00000000000E+00 0.  1.
         11    1    3    3    0    0 -0.15498454760E+01  0.59485526945E+03 -0.70713215519E+02  0.59904553454E+03  0.00000000000E+00 0. -1.
        -12    1    3    3    0    0 -0.79166147655E+02  0.57157159106E+03 -0.60323927363E+02  0.58017268020E+03  0.00000000000E+00 0.  1.
          4    1    6    6  502    0  0.24420011806E+03 -0.68756886614E+03  0.28668137959E+03  0.78394569758E+03  0.00000000000E+00 0. -1.
         -3    1    6    6    0  502  0.33593023867E+02 -0.89476880190E+02  0.70943079486E+02  0.11902740805E+03  0.00000000000E+00 0.  1.
<mgrwt>
<rscale>  0 0.12204745E+04</rscale>
<asrwt>0</asrwt>
<pdfrwt beam="1">  1        1 0.20809823E+00 0.12204745E+04</pdfrwt>
<pdfrwt beam="2">  1       -2 0.18096153E+00 0.12204745E+04</pdfrwt>
<totfact> 0.12633089E+00</totfact>
</mgrwt>
</event>
<event>
12    3  0.2212098E-007  0.5730107E+03  0.7818608E-02  0.9963038E-01
         -2   -1    0    0    0  501 -0.00000000000E+00  0.00000000000E+00  0.53772280396E+03  0.53772280396E+03  0.00000000000E+00 0.  1.
          1   -1    0    0  501    0  0.00000000000E+00 -0.00000000000E+00 -0.87777577704E+03  0.87777577704E+03  0.00000000000E+00 0. -1.
        -24    2    1    2    0    0 -0.71539121563E+02 -0.43303022575E+03 -0.48423891621E+03  0.65849770964E+03  0.80615651678E+02 0.  0.
    5000000    2    1    2    0    0  0.71539121563E+02  0.43303022575E+03  0.14418594313E+03  0.75700087136E+03  0.59968967868E+03 0.  0.
        -24    2    4    4    0    0 -0.20753124506E+03  0.33994964284E+03  0.19010011407E+03  0.44855890370E+03  0.80200120780E+02 0.  0.
         24    2    4    4    0    0  0.27907036662E+03  0.93080582912E+02 -0.45914170938E+02  0.30844196767E+03  0.80523734897E+02 0.  0.
         11    1    5    5    0    0 -0.11494782023E+03  0.11325682867E+03  0.72253053370E+02  0.17680671463E+03  0.00000000000E+00 0. -1.
        -12    1    5    5    0    0 -0.92583424834E+02  0.22669281417E+03  0.11784706070E+03  0.27175218907E+03  0.00000000000E+00 0.  1.
         13    1    3    3    0    0 -0.47142018044E+02 -0.20546786387E+03 -0.28870450312E+03  0.35747685669E+03  0.00000000000E+00 0. -1.
        -14    1    3    3    0    0 -0.24397103519E+02 -0.22756236188E+03 -0.19553441309E+03  0.30102085295E+03  0.00000000000E+00 0.  1.
          4    1    6    6  502    0  0.56505346208E+02 -0.53328408971E+01 -0.30909754953E+02  0.64627442262E+02  0.00000000000E+00 0. -1.
         -3    1    6    6    0  502  0.22256502042E+03  0.98413423809E+02 -0.15004415985E+02  0.24381452540E+03  0.00000000000E+00 0.  1.
<mgrwt>
<rscale>  0 0.57301068E+03</rscale>
<asrwt>0</asrwt>
<pdfrwt beam="1">  1        1 0.13504243E+00 0.57301068E+03</pdfrwt>
<pdfrwt beam="2">  1       -2 0.82726585E-01 0.57301068E+03</pdfrwt>
<totfact> 0.22225019E+01</totfact>
</mgrwt>
</event>
<event>
12    3  0.2212098E-007  0.9316804E+03  0.7818608E-02  0.9386823E-01
          1   -1    0    0  501    0  0.00000000000E+00  0.00000000000E+00  0.17377471124E+04  0.17377471124E+04  0.00000000000E+00 0. -1.
         -2   -1    0    0    0  501 -0.00000000000E+00 -0.00000000000E+00 -0.99406113893E+03  0.99406113893E+03  0.00000000000E+00 0.  1.
        -24    2    1    2    0    0 -0.10026476099E+03  0.86937321403E+03 -0.56724156524E+03  0.10452678258E+04  0.70420356880E+02 0.  0.
    5000000    2    1    2    0    0  0.10026476099E+03 -0.86937321403E+03  0.13109275387E+04  0.16865404256E+04  0.60002065614E+03 0.  0.
        -24    2    4    4    0    0  0.21414762841E+03 -0.83215414227E+03  0.87752245998E+03  0.12296487129E+04  0.60419913908E+02 0.  0.
         24    2    4    4    0    0 -0.11388286742E+03 -0.37219071754E+02  0.43340507874E+03  0.45689171273E+03  0.80966092225E+02 0.  0.
         13    1    5    5    0    0  0.11739044546E+03 -0.45486515075E+03  0.43661242788E+03  0.64133706757E+03  0.00000000000E+00 0. -1.
        -14    1    5    5    0    0  0.96757182948E+02 -0.37728899152E+03  0.44091003210E+03  0.58831164529E+03  0.00000000000E+00 0.  1.
         13    1    3    3    0    0 -0.43217064676E+02  0.42613930203E+03 -0.23632281022E+03  0.48919412307E+03  0.00000000000E+00 0. -1.
        -14    1    3    3    0    0 -0.57047696315E+02  0.44323391200E+03 -0.33091875502E+03  0.55607370269E+03  0.00000000000E+00 0.  1.
          2    1    6    6  502    0 -0.15322213090E+02  0.11284783855E+02  0.14782336523E+02  0.24096348971E+02  0.00000000000E+00 0. -1.
         -1    1    6    6    0  502 -0.98560654332E+02 -0.48503855609E+02  0.41862274222E+03  0.43279536376E+03  0.00000000000E+00 0.  1.
<mgrwt>
<rscale>  0 0.93168045E+03</rscale>
<asrwt>0</asrwt>
<pdfrwt beam="1">  1        1 0.26734571E+00 0.93168045E+03</pdfrwt>
<pdfrwt beam="2">  1       -2 0.15293248E+00 0.93168045E+03</pdfrwt>
<totfact> 0.11327622E+00</totfact>
</mgrwt>
</event>
<event>
12    3  0.2212098E-007  0.1581960E+04  0.7818608E-02  0.8831708E-01
          1   -1    0    0  501    0  0.00000000000E+00  0.00000000000E+00  0.17839198282E+04  0.17839198282E+04  0.00000000000E+00 0. -1.
         -2   -1    0    0    0  501 -0.00000000000E+00 -0.00000000000E+00 -0.14179897107E+04  0.14179897107E+04  0.00000000000E+00 0.  1.
        -24    2    1    2    0    0  0.13640967301E+04 -0.69869539948E+03  0.20193811829E+03  0.15479214270E+04  0.79665490344E+02 0.  0.
    5000000    2    1    2    0    0 -0.13640967301E+04  0.69869539948E+03  0.16399199926E+03  0.16539881119E+04  0.59987344340E+03 0.  0.
        -24    2    4    4    0    0 -0.11798733196E+04  0.79051981032E+03  0.11241408189E+03  0.14269353685E+04  0.80529493080E+02 0.  0.
         24    2    4    4    0    0 -0.18422341047E+03 -0.91824410844E+02  0.51577917370E+02  0.22705274336E+03  0.80763106134E+02 0.  0.
         11    1    3    3    0    0  0.74657329422E+03 -0.39020975860E+03  0.15032177135E+03  0.85570554181E+03  0.00000000000E+00 0. -1.
        -12    1    3    3    0    0  0.61752343588E+03 -0.30848564088E+03  0.51616346943E+02  0.69221588523E+03  0.00000000000E+00 0.  1.
         13    1    5    5    0    0 -0.77819809857E+03  0.52343661193E+03  0.35950231161E+02  0.93854706139E+03  0.00000000000E+00 0. -1.
        -14    1    5    5    0    0 -0.40167522105E+03  0.26708319839E+03  0.76463850725E+02  0.48838830713E+03  0.00000000000E+00 0.  1.
          4    1    6    6  502    0 -0.36015661568E+02 -0.40422990317E+02 -0.15693287735E+02  0.56368655335E+02  0.00000000000E+00 0. -1.
         -3    1    6    6    0  502 -0.14820774890E+03 -0.51401420528E+02  0.67271205104E+02  0.17068408802E+03  0.00000000000E+00 0.  1.
<mgrwt>
<rscale>  0 0.15819597E+04</rscale>
<asrwt>0</asrwt>
<pdfrwt beam="1">  1        1 0.27444920E+00 0.15819597E+04</pdfrwt>
<pdfrwt beam="2">  1       -2 0.21815226E+00 0.15819597E+04</pdfrwt>
<totfact> 0.34736619E-01</totfact>
</mgrwt>
</event>
<event>
12    3  0.2212098E-007  0.6710164E+03  0.7818608E-02  0.9768123E-01
          1   -1    0    0  501    0  0.00000000000E+00  0.00000000000E+00  0.18515276275E+04  0.18515276275E+04  0.00000000000E+00 0. -1.
         -2   -1    0    0    0  501 -0.00000000000E+00 -0.00000000000E+00 -0.37158415851E+03  0.37158415851E+03  0.00000000000E+00 0.  1.
        -24    2    1    2    0    0 -0.22596332524E+03  0.49095032141E+03  0.10563536229E+02  0.54652335719E+03  0.80526698745E+02 0.  0.
    5000000    2    1    2    0    0  0.22596332524E+03 -0.49095032141E+03  0.14693799327E+04  0.16765884288E+04  0.59981641390E+03 0.  0.
        -24    2    4    4    0    0 -0.12736339527E+03 -0.40712817563E+03  0.74942783073E+03  0.86601810504E+03  0.79815405349E+02 0.  0.
         24    2    4    4    0    0  0.35332672051E+03 -0.83822145776E+02  0.71995210199E+03  0.81057032374E+03  0.82627459244E+02 0.  0.
         13    1    3    3    0    0 -0.99344237900E+02  0.21176400447E+03 -0.35289649147E+02  0.23655576622E+03  0.00000000000E+00 0. -1.
        -14    1    3    3    0    0 -0.12661908734E+03  0.27918631694E+03  0.45853185376E+02  0.30996759097E+03  0.00000000000E+00 0.  1.
         13    1    5    5    0    0  0.92375707755E+01 -0.32216084894E+02  0.41107696121E+02  0.53038208115E+02  0.00000000000E+00 0. -1.
        -14    1    5    5    0    0 -0.13660096604E+03 -0.37491209074E+03  0.70832013461E+03  0.81297989692E+03  0.00000000000E+00 0.  1.
          4    1    6    6  502    0  0.53020176720E+02 -0.38037961999E+02  0.17338726265E+03  0.18525973265E+03  0.00000000000E+00 0. -1.
         -3    1    6    6    0  502  0.30030654379E+03 -0.45784183777E+02  0.54656483933E+03  0.62531059108E+03  0.00000000000E+00 0.  1.
<mgrwt>
<rscale>  0 0.67101644E+03</rscale>
<asrwt>0</asrwt>
<pdfrwt beam="1">  1        1 0.28485040E+00 0.67101644E+03</pdfrwt>
<pdfrwt beam="2">  1       -2 0.57166795E-01 0.67101644E+03</pdfrwt>
<totfact> 0.99482309E+00</totfact>
</mgrwt>
</event>
<event>
12    3  0.2212098E-007  0.4577845E+03  0.7818608E-02  0.1025426E+00
          1   -1    0    0  501    0  0.00000000000E+00  0.00000000000E+00  0.82487708902E+03  0.82487708902E+03  0.00000000000E+00 0. -1.
         -2   -1    0    0    0  501 -0.00000000000E+00 -0.00000000000E+00 -0.36685435829E+03  0.36685435829E+03  0.00000000000E+00 0.  1.
        -24    2    1    2    0    0 -0.28495761883E+03  0.24529176678E+03  0.23107710316E+03  0.44823527969E+03  0.78417746566E+02 0.  0.
    5000000    2    1    2    0    0  0.28495761883E+03 -0.24529176678E+03  0.22694562757E+03  0.74349616762E+03  0.59992777734E+03 0.  0.
        -24    2    4    4    0    0  0.25151828171E+03  0.22637743322E+02 -0.12634733816E+03  0.29163918458E+03  0.72909880426E+02 0.  0.
         24    2    4    4    0    0  0.33439337112E+02 -0.26792951010E+03  0.35329296573E+03  0.45185698304E+03  0.80339292022E+02 0.  0.
         13    1    5    5    0    0  0.13390776545E+03  0.23200477354E+02 -0.10583593963E+03  0.17225213471E+03  0.00000000000E+00 0. -1.
        -14    1    5    5    0    0  0.11761051627E+03 -0.56273403230E+00 -0.20511398531E+02  0.11938704987E+03  0.00000000000E+00 0.  1.
         13    1    3    3    0    0 -0.14792306869E+03  0.76106691613E+02  0.10147182761E+03  0.19485890936E+03  0.00000000000E+00 0. -1.
        -14    1    3    3    0    0 -0.13703455013E+03  0.16918507516E+03  0.12960527555E+03  0.25337637033E+03  0.00000000000E+00 0.  1.
          2    1    6    6  502    0 -0.14181298762E+02 -0.15188083561E+03  0.15696106875E+03  0.21887364977E+03  0.00000000000E+00 0. -1.
         -1    1    6    6    0  502  0.47620635874E+02 -0.11604867449E+03  0.19633189698E+03  0.23298333328E+03  0.00000000000E+00 0.  1.
<mgrwt>
<rscale>  0 0.45778446E+03</rscale>
<asrwt>0</asrwt>
<pdfrwt beam="1">  1        1 0.12690417E+00 0.45778446E+03</pdfrwt>
<pdfrwt beam="2">  1       -2 0.56439132E-01 0.45778446E+03</pdfrwt>
<totfact> 0.57011355E+01</totfact>
</mgrwt>
</event>
<event>
12    3  0.2212098E-007  0.9394367E+03  0.7818608E-02  0.9377583E-01
          1   -1    0    0  501    0  0.00000000000E+00  0.00000000000E+00  0.43542225831E+04  0.43542225831E+04  0.00000000000E+00 0. -1.
         -2   -1    0    0    0  501 -0.00000000000E+00 -0.00000000000E+00 -0.22360756466E+03  0.22360756466E+03  0.00000000000E+00 0.  1.
        -24    2    1    2    0    0  0.87846611696E+03 -0.11133923528E+03  0.21572345135E+04  0.23332460968E+04  0.79230410118E+02 0.  0.
    5000000    2    1    2    0    0 -0.87846611696E+03  0.11133923528E+03  0.19733805050E+04  0.22445840510E+04  0.59985648346E+03 0.  0.
        -24    2    4    4    0    0 -0.63819285665E+03  0.26910934701E+03  0.94923034316E+03  0.11778224793E+04  0.80731564307E+02 0.  0.
         24    2    4    4    0    0 -0.24027326031E+03 -0.15777011173E+03  0.10241501618E+04  0.10667615717E+04  0.80461476254E+02 0.  0.
         11    1    3    3    0    0  0.11300441713E+03 -0.90350735321E+01  0.35067337856E+03  0.36854233037E+03  0.00000000000E+00 0. -1.
        -12    1    3    3    0    0  0.76546169984E+03 -0.10230416175E+03  0.18065611349E+04  0.19647037664E+04  0.00000000000E+00 0.  1.
         13    1    5    5    0    0 -0.61726452139E+03  0.24193315086E+03  0.90079432724E+03  0.11184710809E+04  0.00000000000E+00 0. -1.
        -14    1    5    5    0    0 -0.20928335260E+02  0.27176196151E+02  0.48436015920E+02  0.59351398401E+02  0.00000000000E+00 0.  1.
          4    1    6    6  502    0 -0.23179172236E+03 -0.12755003108E+03  0.95201193727E+03  0.98809065459E+03  0.00000000000E+00 0. -1.
         -3    1    6    6    0  502 -0.84815379567E+01 -0.30220080650E+02  0.72138224544E+02  0.78670917123E+02  0.00000000000E+00 0.  1.
<mgrwt>
<rscale>  0 0.93943665E+03</rscale>
<asrwt>0</asrwt>
<pdfrwt beam="1">  1        1 0.66988034E+00 0.93943665E+03</pdfrwt>
<pdfrwt beam="2">  1       -2 0.34401167E-01 0.93943665E+03</pdfrwt>
<totfact> 0.33760234E-01</totfact>
</mgrwt>
</event>
<event>
12    3  0.2212098E-007  0.5908125E+03  0.7818608E-02  0.9924653E-01
         -2   -1    0    0    0  501 -0.00000000000E+00  0.00000000000E+00  0.54788657778E+03  0.54788657778E+03  0.00000000000E+00 0.  1.
          1   -1    0    0  501    0  0.00000000000E+00 -0.00000000000E+00 -0.51347255773E+04  0.51347255773E+04  0.00000000000E+00 0. -1.
        -24    2    1    2    0    0  0.25014154658E+03 -0.43623196421E+03  0.39199323784E+03  0.64262531410E+03  0.80246345007E+02 0.  0.
    5000000    2    1    2    0    0 -0.25014154658E+03  0.43623196421E+03 -0.49788322374E+04  0.50399868410E+04  0.59985647415E+03 0.  0.
        -24    2    4    4    0    0  0.11913353339E+03  0.18584202020E+03 -0.30324030047E+04  0.30414141788E+04  0.77473667173E+02 0.  0.
         24    2    4    4    0    0 -0.36927507997E+03  0.25038994401E+03 -0.19464292327E+04  0.19985726622E+04  0.81527414730E+02 0.  0.
         11    1    5    5    0    0  0.59254284823E+02  0.11732745781E+03 -0.13013239708E+04  0.13079452893E+04  0.00000000000E+00 0. -1.
        -12    1    5    5    0    0  0.59879248566E+02  0.68514562390E+02 -0.17310790338E+04  0.17334688895E+04  0.00000000000E+00 0.  1.
         11    1    3    3    0    0  0.16414397795E+03 -0.23346834115E+03  0.18316963668E+03  0.33911919382E+03  0.00000000000E+00 0. -1.
        -12    1    3    3    0    0  0.85997568639E+02 -0.20276362306E+03  0.20882360116E+03  0.30350612028E+03  0.00000000000E+00 0.  1.
          4    1    6    6  502    0 -0.11191638631E+03  0.33049056389E+02 -0.50143886199E+03  0.51483827555E+03  0.00000000000E+00 0. -1.
         -3    1    6    6    0  502 -0.25735869366E+03  0.21734088762E+03 -0.14449903707E+04  0.14837343866E+04  0.00000000000E+00 0.  1.
<mgrwt>
<rscale>  0 0.59081254E+03</rscale>
<asrwt>0</asrwt>
<pdfrwt beam="1">  1        1 0.78995780E+00 0.59081254E+03</pdfrwt>
<pdfrwt beam="2">  1       -2 0.84290241E-01 0.59081254E+03</pdfrwt>
<totfact> 0.77894607E-03</totfact>
</mgrwt>
</event>
<event>
12    3  0.2212098E-007  0.6272049E+03  0.7818608E-02  0.9850519E-01
          1   -1    0    0  501    0  0.00000000000E+00  0.00000000000E+00  0.15428612083E+04  0.15428612083E+04  0.00000000000E+00 0. -1.
         -2   -1    0    0    0  501 -0.00000000000E+00 -0.00000000000E+00 -0.33360550499E+03  0.33360550499E+03  0.00000000000E+00 0.  1.
        -24    2    1    2    0    0  0.58445695806E+03  0.62400835470E+02  0.52455100619E+03  0.79272065690E+03  0.88138990696E+02 0.  0.
    5000000    2    1    2    0    0 -0.58445695806E+03 -0.62400835470E+02  0.68470469712E+03  0.10837460564E+04  0.60016763690E+03 0.  0.
        -24    2    4    4    0    0 -0.16278148772E+03 -0.15840776196E+03  0.58643644293E+03  0.63370268942E+03  0.77977978837E+02 0.  0.
         24    2    4    4    0    0 -0.42167547034E+03  0.96006926492E+02  0.98268254190E+02  0.45004336697E+03  0.76516992576E+02 0.  0.
         11    1    3    3    0    0  0.38837123124E+03  0.66816765437E+01  0.37488331129E+03  0.53982807924E+03  0.00000000000E+00 0. -1.
        -12    1    3    3    0    0  0.19608572683E+03  0.55719158927E+02  0.14966769490E+03  0.25289257765E+03  0.00000000000E+00 0.  1.
         11    1    5    5    0    0 -0.11782992903E+03 -0.10447252845E+03  0.30037948793E+03  0.33915518298E+03  0.00000000000E+00 0. -1.
        -12    1    5    5    0    0 -0.44951558696E+02 -0.53935233517E+02  0.28605695500E+03  0.29454750644E+03  0.00000000000E+00 0.  1.
          4    1    6    6  502    0 -0.29104516308E+03  0.46435883887E+02  0.97130794075E+02  0.31031914124E+03  0.00000000000E+00 0. -1.
         -3    1    6    6    0  502 -0.13063030726E+03  0.49571042605E+02  0.11374601149E+01  0.13972422573E+03  0.00000000000E+00 0.  1.
<mgrwt>
<rscale>  0 0.62720485E+03</rscale>
<asrwt>0</asrwt>
<pdfrwt beam="1">  1        1 0.23736326E+00 0.62720485E+03</pdfrwt>
<pdfrwt beam="2">  1       -2 0.51323924E-01 0.62720485E+03</pdfrwt>
<totfact> 0.20162061E+01</totfact>
</mgrwt>
</event>
<event>
12    3  0.2212098E-007  0.6041502E+03  0.7818608E-02  0.9896833E-01
         -2   -1    0    0    0  501 -0.00000000000E+00  0.00000000000E+00  0.79821122308E+03  0.79821122308E+03  0.00000000000E+00 0.  1.
          1   -1    0    0  501    0  0.00000000000E+00 -0.00000000000E+00 -0.69025698633E+03  0.69025698633E+03  0.00000000000E+00 0. -1.
        -24    2    1    2    0    0 -0.54143420520E+03 -0.21550299914E+03 -0.16081705938E+03  0.60989852548E+03  0.80756074697E+02 0.  0.
    5000000    2    1    2    0    0  0.54143420520E+03  0.21550299914E+03  0.26877129614E+03  0.87856968393E+03  0.60004511388E+03 0.  0.
        -24    2    4    4    0    0  0.23581208235E+03  0.20258908698E+03 -0.14896442171E+03  0.35422282108E+03  0.81447723677E+02 0.  0.
         24    2    4    4    0    0  0.30562212285E+03  0.12913912156E+02  0.41773571785E+03  0.52434686285E+03  0.82854399473E+02 0.  0.
         13    1    5    5    0    0  0.15723718254E+03  0.11768421356E+03 -0.51720617864E+02  0.20309635153E+03  0.00000000000E+00 0. -1.
        -14    1    5    5    0    0  0.78574899811E+02  0.84904873425E+02 -0.97243803845E+02  0.15112646955E+03  0.00000000000E+00 0.  1.
         13    1    3    3    0    0 -0.29287396112E+03 -0.15745296292E+03 -0.10402996456E+03  0.34840899265E+03  0.00000000000E+00 0. -1.
        -14    1    3    3    0    0 -0.24856024408E+03 -0.58050036218E+02 -0.56787094820E+02  0.26148953283E+03  0.00000000000E+00 0.  1.
          4    1    6    6  502    0  0.27077384109E+02 -0.10232725965E+02  0.11288232266E+02  0.31069560643E+02  0.00000000000E+00 0. -1.
         -1    1    6    6    0  502  0.27854473874E+03  0.23146638121E+02  0.40644748558E+03  0.49327730220E+03  0.00000000000E+00 0.  1.
<mgrwt>
<rscale>  0 0.60415015E+03</rscale>
<asrwt>0</asrwt>
<pdfrwt beam="1">  1        1 0.10619338E+00 0.60415015E+03</pdfrwt>
<pdfrwt beam="2">  1       -2 0.12280173E+00 0.60415015E+03</pdfrwt>
<totfact> 0.12678662E+01</totfact>
</mgrwt>
</event>
<event>
12    3  0.2212098E-007  0.5375979E+03  0.7818608E-02  0.1004406E+00
          1   -1    0    0  501    0  0.00000000000E+00  0.00000000000E+00  0.68269186045E+03  0.68269186045E+03  0.00000000000E+00 0. -1.
         -2   -1    0    0    0  501 -0.00000000000E+00 -0.00000000000E+00 -0.72381176909E+03  0.72381176909E+03  0.00000000000E+00 0.  1.
        -24    2    1    2    0    0  0.31067359752E+03 -0.32813619093E+03  0.33123354831E+03  0.56793484765E+03  0.92967110586E+02 0.  0.
    5000000    2    1    2    0    0 -0.31067359752E+03  0.32813619093E+03 -0.37235345695E+03  0.83856878190E+03  0.60029914300E+03 0.  0.
        -24    2    4    4    0    0 -0.34622251184E+03  0.38480054711E+03 -0.46281573921E+03  0.69871769218E+03  0.77887843355E+02 0.  0.
         24    2    4    4    0    0  0.35548914316E+02 -0.56664356186E+02  0.90462282261E+02  0.13985108972E+03  0.83068214215E+02 0.  0.
         13    1    3    3    0    0  0.12580916651E+03 -0.15923855413E+03  0.96509592924E+02  0.22471974775E+03  0.00000000000E+00 0. -1.
        -14    1    3    3    0    0  0.18486443101E+03 -0.16889763680E+03  0.23472395538E+03  0.34321509990E+03  0.00000000000E+00 0.  1.
         13    1    5    5    0    0 -0.18239381619E+03  0.25328725238E+03 -0.30005849783E+03  0.43296309140E+03  0.00000000000E+00 0. -1.
        -14    1    5    5    0    0 -0.16382869565E+03  0.13151329474E+03 -0.16275724138E+03  0.26575460078E+03  0.00000000000E+00 0.  1.
          2    1    6    6  502    0  0.32130294678E+02  0.94105978023E+01  0.85486531996E+01  0.34554227797E+02  0.00000000000E+00 0. -1.
         -1    1    6    6    0  502  0.34186196381E+01 -0.66074953989E+02  0.81913629061E+02  0.10529686192E+03  0.00000000000E+00 0.  1.
<mgrwt>
<rscale>  0 0.53759788E+03</rscale>
<asrwt>0</asrwt>
<pdfrwt beam="1">  1        1 0.10502952E+00 0.53759788E+03</pdfrwt>
<pdfrwt beam="2">  1       -2 0.11135566E+00 0.53759788E+03</pdfrwt>
<totfact> 0.16520890E+01</totfact>
</mgrwt>
</event>
<event>
12    3  0.2212098E-007  0.4787966E+03  0.7818608E-02  0.1019466E+00
          1   -1    0    0  501    0  0.00000000000E+00  0.00000000000E+00  0.14089075742E+04  0.14089075742E+04  0.00000000000E+00 0. -1.
         -2   -1    0    0    0  501 -0.00000000000E+00 -0.00000000000E+00 -0.27127469151E+03  0.27127469151E+03  0.00000000000E+00 0.  1.
        -24    2    1    2    0    0 -0.19729221498E+03  0.42022213575E+03  0.35120751944E+03  0.58753302781E+03  0.79608263299E+02 0.  0.
    5000000    2    1    2    0    0  0.19729221498E+03 -0.42022213575E+03  0.78642536328E+03  0.10926492379E+04  0.59992219801E+03 0.  0.
        -24    2    4    4    0    0  0.10484034513E+03 -0.31346960979E+03  0.55270178107E+02  0.34477574133E+03  0.80998919711E+02 0.  0.
         24    2    4    4    0    0  0.92451869847E+02 -0.10675252597E+03  0.73115518518E+03  0.74787349660E+03  0.69162215600E+02 0.  0.
         11    1    3    3    0    0 -0.17890956305E+03  0.31158502828E+03  0.24809920481E+03  0.43663151172E+03  0.00000000000E+00 0. -1.
        -12    1    3    3    0    0 -0.18382651928E+02  0.10863710747E+03  0.10310831462E+03  0.15090151608E+03  0.00000000000E+00 0.  1.
         13    1    5    5    0    0  0.78580149547E+02 -0.21056980640E+03  0.74643917550E+02  0.23682524717E+03  0.00000000000E+00 0. -1.
        -14    1    5    5    0    0  0.26260195584E+02 -0.10289980339E+03 -0.19373739443E+02  0.10795049416E+03  0.00000000000E+00 0.  1.
          4    1    6    6  502    0  0.68279462461E+02 -0.26319396057E+02  0.32823482274E+03  0.33629287007E+03  0.00000000000E+00 0. -1.
         -3    1    6    6    0  502  0.24172407386E+02 -0.80433129909E+02  0.40292036244E+03  0.41158062653E+03  0.00000000000E+00 0.  1.
<mgrwt>
<rscale>  0 0.47879657E+03</rscale>
<asrwt>0</asrwt>
<pdfrwt beam="1">  1        1 0.21675501E+00 0.47879657E+03</pdfrwt>
<pdfrwt beam="2">  1       -2 0.41734569E-01 0.47879657E+03</pdfrwt>
<totfact> 0.38468986E+01</totfact>
</mgrwt>
</event>
<event>
12    3  0.2212098E-007  0.6492953E+03  0.7818608E-02  0.9808102E-01
          1   -1    0    0  501    0  0.00000000000E+00  0.00000000000E+00  0.67255966708E+03  0.67255966708E+03  0.00000000000E+00 0. -1.
         -2   -1    0    0    0  501 -0.00000000000E+00 -0.00000000000E+00 -0.82303717135E+03  0.82303717135E+03  0.00000000000E+00 0.  1.
        -24    2    1    2    0    0 -0.39863442749E+03 -0.36684397697E+03  0.24001431386E+03  0.59785339243E+03  0.79610914847E+02 0.  0.
    5000000    2    1    2    0    0  0.39863442749E+03  0.36684397697E+03 -0.39049181813E+03  0.89774344600E+03  0.59997960347E+03 0.  0.
        -24    2    4    4    0    0  0.43501272671E+03  0.46168907713E+03 -0.20361473567E+03  0.67103949304E+03  0.80263094263E+02 0.  0.
         24    2    4    4    0    0 -0.36378299214E+02 -0.94845100158E+02 -0.18687708246E+03  0.22670395296E+03  0.78438923120E+02 0.  0.
         13    1    5    5    0    0  0.11990806336E+03  0.91544983060E+02 -0.73561039352E+02  0.16783817830E+03  0.00000000000E+00 0. -1.
        -14    1    5    5    0    0  0.31510466334E+03  0.37014409407E+03 -0.13005369632E+03  0.50320131474E+03  0.00000000000E+00 0.  1.
         13    1    3    3    0    0 -0.24787842112E+03 -0.18315679977E+03  0.15893381173E+03  0.34677093516E+03  0.00000000000E+00 0. -1.
        -14    1    3    3    0    0 -0.15075600638E+03 -0.18368717720E+03  0.81080502131E+02  0.25108245728E+03  0.00000000000E+00 0.  1.
          2    1    6    6  502    0 -0.11356925673E+01  0.74809112146E+01 -0.57650203198E+02  0.58144645144E+02  0.00000000000E+00 0. -1.
         -1    1    6    6    0  502 -0.35242606647E+02 -0.10232601137E+03 -0.12922687926E+03  0.16855930781E+03  0.00000000000E+00 0.  1.
<mgrwt>
<rscale>  0 0.64929525E+03</rscale>
<asrwt>0</asrwt>
<pdfrwt beam="1">  1        1 0.10347072E+00 0.64929525E+03</pdfrwt>
<pdfrwt beam="2">  1       -2 0.12662110E+00 0.64929525E+03</pdfrwt>
<totfact> 0.12140042E+01</totfact>
</mgrwt>
</event>
<event>
12    3  0.2212098E-007  0.6853126E+03  0.7818608E-02  0.9742685E-01
         -2   -1    0    0    0  501 -0.00000000000E+00  0.00000000000E+00  0.24124781475E+03  0.24124781475E+03  0.00000000000E+00 0.  1.
          1   -1    0    0  501    0  0.00000000000E+00 -0.00000000000E+00 -0.32744375637E+04  0.32744375637E+04  0.00000000000E+00 0. -1.
        -24    2    1    2    0    0  0.54056475683E+03 -0.16812316442E+03 -0.27080056885E+03  0.63275834062E+03  0.81083381736E+02 0.  0.
    5000000    2    1    2    0    0 -0.54056475683E+03  0.16812316442E+03 -0.27623891801E+04  0.28829270379E+04  0.59999889031E+03 0.  0.
        -24    2    4    4    0    0 -0.52547537170E+03 -0.84875691881E+02 -0.15189491422E+04  0.16114776568E+04  0.79532965469E+02 0.  0.
         24    2    4    4    0    0 -0.15089385127E+02  0.25299885630E+03 -0.12434400380E+04  0.12714493810E+04  0.78767313708E+02 0.  0.
         11    1    5    5    0    0 -0.20684173580E+03 -0.58469658602E+02 -0.52231584368E+03  0.56481505398E+03  0.00000000000E+00 0. -1.
        -12    1    5    5    0    0 -0.31863363590E+03 -0.26406033278E+02 -0.99663329849E+03  0.10466626028E+04  0.00000000000E+00 0.  1.
         13    1    3    3    0    0  0.24736192548E+03 -0.11410030727E+03 -0.10773499569E+03  0.29293963813E+03  0.00000000000E+00 0. -1.
        -14    1    3    3    0    0  0.29320283135E+03 -0.54022857149E+02 -0.16306557317E+03  0.33981870249E+03  0.00000000000E+00 0.  1.
          2    1    6    6  502    0  0.30241876080E+02  0.14767909771E+03 -0.70813446424E+03  0.72400145470E+03  0.00000000000E+00 0. -1.
         -1    1    6    6    0  502 -0.45331261208E+02  0.10531975859E+03 -0.53530557372E+03  0.54744792634E+03  0.00000000000E+00 0.  1.
<mgrwt>
<rscale>  0 0.68531263E+03</rscale>
<asrwt>0</asrwt>
<pdfrwt beam="1">  1        1 0.50375959E+00 0.68531263E+03</pdfrwt>
<pdfrwt beam="2">  1       -2 0.37115051E-01 0.68531263E+03</pdfrwt>
<totfact> 0.24472604E+00</totfact>
</mgrwt>
</event>
<event>
12    3  0.2212098E-007  0.7941045E+03  0.7818608E-02  0.9568590E-01
         -2   -1    0    0    0  501 -0.00000000000E+00  0.00000000000E+00  0.56665578270E+03  0.56665578270E+03  0.00000000000E+00 0.  1.
          1   -1    0    0  501    0  0.00000000000E+00 -0.00000000000E+00 -0.13734338832E+04  0.13734338832E+04  0.00000000000E+00 0. -1.
        -24    2    1    2    0    0  0.76728463736E+03  0.12035941820E+03 -0.30753473123E+03  0.83902795957E+03  0.78601537817E+02 0.  0.
    5000000    2    1    2    0    0 -0.76728463736E+03 -0.12035941820E+03 -0.49924336931E+03  0.11010617064E+04  0.59990068776E+03 0.  0.
        -24    2    4    4    0    0 -0.33051982040E+03 -0.13991337829E+03 -0.54162786468E+03  0.65453905676E+03  0.79003341244E+02 0.  0.
         24    2    4    4    0    0 -0.43676481696E+03  0.19553960097E+02  0.42384495367E+02  0.44652264962E+03  0.80250660315E+02 0.  0.
         11    1    3    3    0    0  0.53499462012E+03  0.48902288111E+02 -0.19961154666E+03  0.57311032699E+03  0.00000000000E+00 0. -1.
        -12    1    3    3    0    0  0.23229001724E+03  0.71457130087E+02 -0.10792318458E+03  0.26591763259E+03  0.00000000000E+00 0.  1.
         11    1    5    5    0    0 -0.86975761854E+02 -0.10330017334E+02 -0.92002081696E+02  0.12702706580E+03  0.00000000000E+00 0. -1.
        -12    1    5    5    0    0 -0.24354405855E+03 -0.12958336096E+03 -0.44962578298E+03  0.52751199097E+03  0.00000000000E+00 0.  1.
          4    1    6    6  502    0 -0.29786803867E+03  0.50684494574E+02  0.30489369717E+02  0.30368386212E+03  0.00000000000E+00 0. -1.
         -3    1    6    6    0  502 -0.13889677830E+03 -0.31130534477E+02  0.11895125650E+02  0.14283878749E+03  0.00000000000E+00 0.  1.
<mgrwt>
<rscale>  0 0.79410446E+03</rscale>
<asrwt>0</asrwt>
<pdfrwt beam="1">  1        1 0.21129752E+00 0.79410446E+03</pdfrwt>
<pdfrwt beam="2">  1       -2 0.87177813E-01 0.79410446E+03</pdfrwt>
<totfact> 0.81974155E+00</totfact>
</mgrwt>
</event>
<event>
12    3  0.2212098E-007  0.8437781E+03  0.7818608E-02  0.9498726E-01
          1   -1    0    0  501    0  0.00000000000E+00  0.00000000000E+00  0.13954071629E+04  0.13954071629E+04  0.00000000000E+00 0. -1.
         -2   -1    0    0    0  501 -0.00000000000E+00 -0.00000000000E+00 -0.53161523211E+03  0.53161523211E+03  0.00000000000E+00 0.  1.
        -24    2    1    2    0    0  0.34617102196E+03 -0.66126917381E+03  0.50253122720E+03  0.90347735494E+03  0.81378129059E+02 0.  0.
    5000000    2    1    2    0    0 -0.34617102196E+03  0.66126917381E+03  0.36126070363E+03  0.10235450401E+04  0.60001988005E+03 0.  0.
        -24    2    4    4    0    0 -0.42617268889E+03  0.21589680408E+03  0.95872201627E+02  0.49314239084E+03  0.75916716407E+02 0.  0.
         24    2    4    4    0    0  0.80001666928E+02  0.44537236973E+03  0.26538850200E+03  0.53040264926E+03  0.78352402129E+02 0.  0.
         13    1    3    3    0    0  0.25218636094E+03 -0.39840268997E+03  0.30695022804E+03  0.56261985969E+03  0.00000000000E+00 0. -1.
        -14    1    3    3    0    0  0.93984661022E+02 -0.26286648384E+03  0.19558099916E+03  0.34085749525E+03  0.00000000000E+00 0.  1.
         13    1    5    5    0    0 -0.24232556791E+03  0.14649080625E+03  0.87808176341E+02  0.29646502831E+03  0.00000000000E+00 0. -1.
        -14    1    5    5    0    0 -0.18384712098E+03  0.69405997830E+02  0.80640252859E+01  0.19667736253E+03  0.00000000000E+00 0.  1.
          2    1    6    6  502    0  0.91675686762E+02  0.39379068721E+03  0.24981308067E+03  0.47527056731E+03  0.00000000000E+00 0. -1.
         -1    1    6    6    0  502 -0.11674019834E+02  0.51581682525E+02  0.15575421329E+02  0.55132081955E+02  0.00000000000E+00 0.  1.
<mgrwt>
<rscale>  0 0.84377805E+03</rscale>
<asrwt>0</asrwt>
<pdfrwt beam="1">  1        1 0.21467802E+00 0.84377805E+03</pdfrwt>
<pdfrwt beam="2">  1       -2 0.81786959E-01 0.84377805E+03</pdfrwt>
<totfact> 0.90955770E+00</totfact>
</mgrwt>
</event>
<event>
12    3  0.2212098E-007  0.9986759E+03  0.7818608E-02  0.9309998E-01
         -2   -1    0    0    0  501 -0.00000000000E+00  0.00000000000E+00  0.88214944015E+03  0.88214944015E+03  0.00000000000E+00 0.  1.
          1   -1    0    0  501    0  0.00000000000E+00 -0.00000000000E+00 -0.16610646126E+04  0.16610646126E+04  0.00000000000E+00 0. -1.
        -24    2    1    2    0    0  0.67781906777E+03  0.64510065136E+03  0.30831030602E+03  0.98837508382E+03  0.78971656335E+02 0.  0.
    5000000    2    1    2    0    0 -0.67781906777E+03 -0.64510065136E+03 -0.10872254785E+04  0.15548389689E+04  0.59989285646E+03 0.  0.
        -24    2    4    4    0    0 -0.60503916641E+03 -0.71358654386E+03 -0.77618672967E+03  0.12184495150E+04  0.82917022954E+02 0.  0.
         24    2    4    4    0    0 -0.72779901354E+02  0.68485892495E+02 -0.31103874878E+03  0.33638945396E+03  0.80159403570E+02 0.  0.
         11    1    5    5    0    0 -0.28262978821E+03 -0.39337085774E+03 -0.38168898158E+03  0.61669012280E+03  0.00000000000E+00 0. -1.
        -12    1    5    5    0    0 -0.32240937820E+03 -0.32021568612E+03 -0.39449774810E+03  0.60175939215E+03  0.00000000000E+00 0.  1.
         13    1    3    3    0    0  0.26839793815E+03  0.23474291087E+03  0.15479631790E+03  0.38872044896E+03  0.00000000000E+00 0. -1.
        -14    1    3    3    0    0  0.40942112962E+03  0.41035774050E+03  0.15351398813E+03  0.59965463487E+03  0.00000000000E+00 0.  1.
          2    1    6    6  502    0  0.61995215087E+01 -0.94936214110E+01 -0.71417887080E+02  0.72312360696E+02  0.00000000000E+00 0. -1.
         -1    1    6    6    0  502 -0.78979422863E+02  0.77979513906E+02 -0.23962086170E+03  0.26407709326E+03  0.00000000000E+00 0.  1.
<mgrwt>
<rscale>  0 0.99867588E+03</rscale>
<asrwt>0</asrwt>
<pdfrwt beam="1">  1        1 0.25554840E+00 0.99867588E+03</pdfrwt>
<pdfrwt beam="2">  1       -2 0.13571530E+00 0.99867588E+03</pdfrwt>
<totfact> 0.17307670E+00</totfact>
</mgrwt>
</event>
<event>
12    3  0.2212098E-007  0.1102111E+04  0.7818608E-02  0.9203137E-01
         -2   -1    0    0    0  501 -0.00000000000E+00  0.00000000000E+00  0.12200855222E+04  0.12200855222E+04  0.00000000000E+00 0.  1.
          1   -1    0    0  501    0  0.00000000000E+00 -0.00000000000E+00 -0.11105988601E+04  0.11105988601E+04  0.00000000000E+00 0. -1.
        -24    2    1    2    0    0  0.60862769063E+03 -0.83353042251E+03  0.38699662097E+03  0.11050661905E+04  0.78767186040E+02 0.  0.
    5000000    2    1    2    0    0 -0.60862769063E+03  0.83353042251E+03 -0.27750995885E+03  0.12256181918E+04  0.59993961685E+03 0.  0.
        -24    2    4    4    0    0  0.88142915547E+02  0.21810944691E+03  0.11708481651E+02  0.24866959542E+03  0.79740671892E+02 0.  0.
         24    2    4    4    0    0 -0.69677060618E+03  0.61542097560E+03 -0.28921844050E+03  0.97694859642E+03  0.80925885089E+02 0.  0.
         11    1    3    3    0    0  0.32002512471E+03 -0.49410964009E+03  0.19791001596E+03  0.62107068140E+03  0.00000000000E+00 0. -1.
        -12    1    3    3    0    0  0.28860256592E+03 -0.33942078242E+03  0.18908660501E+03  0.48399550906E+03  0.00000000000E+00 0.  1.
         13    1    5    5    0    0  0.27938045174E+02  0.11103387853E+03 -0.30998627003E+02  0.11861691037E+03  0.00000000000E+00 0. -1.
        -14    1    5    5    0    0  0.60204870372E+02  0.10707556838E+03  0.42707108654E+02  0.13005268505E+03  0.00000000000E+00 0.  1.
          2    1    6    6  502    0 -0.86904686010E+02  0.11263081938E+03 -0.32783171956E+02  0.14598925401E+03  0.00000000000E+00 0. -1.
         -1    1    6    6    0  502 -0.60986592017E+03  0.50279015622E+03 -0.25643526854E+03  0.83095934240E+03  0.00000000000E+00 0.  1.
<mgrwt>
<rscale>  0 0.11021112E+04</rscale>
<asrwt>0</asrwt>
<pdfrwt beam="1">  1        1 0.17086136E+00 0.11021112E+04</pdfrwt>
<pdfrwt beam="2">  1       -2 0.18770546E+00 0.11021112E+04</pdfrwt>
<totfact> 0.17265987E+00</totfact>
</mgrwt>
</event>
<event>
12    3  0.2212098E-007  0.1063590E+04  0.7818608E-02  0.9241425E-01
          1   -1    0    0  501    0  0.00000000000E+00  0.00000000000E+00  0.13429471941E+04  0.13429471941E+04  0.00000000000E+00 0. -1.
         -2   -1    0    0    0  501 -0.00000000000E+00 -0.00000000000E+00 -0.11671885841E+04  0.11671885841E+04  0.00000000000E+00 0.  1.
        -24    2    1    2    0    0  0.47603170383E+03  0.86433335808E+03 -0.56341305668E+03  0.11390074411E+04  0.78900833306E+02 0.  0.
    5000000    2    1    2    0    0 -0.47603170383E+03 -0.86433335808E+03  0.73917166669E+03  0.13711283371E+04  0.59994985370E+03 0.  0.
        -24    2    4    4    0    0 -0.16995839099E+03  0.43737660843E+02  0.10670348093E+03  0.22022610431E+03  0.79467392896E+02 0.  0.
         24    2    4    4    0    0 -0.30607331284E+03 -0.90807101892E+03  0.63246818576E+03  0.11509022328E+04  0.79284898573E+02 0.  0.
         11    1    5    5    0    0 -0.32238663406E+02 -0.52196721418E+01  0.57275084727E+02  0.65931871853E+02  0.00000000000E+00 0. -1.
        -12    1    5    5    0    0 -0.13771972758E+03  0.48957332984E+02  0.49428396200E+02  0.15429423246E+03  0.00000000000E+00 0.  1.
         13    1    3    3    0    0  0.28291168820E+03  0.58997581849E+03 -0.36520417043E+03  0.74932274476E+03  0.00000000000E+00 0. -1.
        -14    1    3    3    0    0  0.19312001563E+03  0.27435753960E+03 -0.19820888625E+03  0.38968469634E+03  0.00000000000E+00 0.  1.
          4    1    6    6  502    0 -0.10204725280E+03 -0.26951566172E+03  0.23257861626E+03  0.37033113082E+03  0.00000000000E+00 0. -1.
         -3    1    6    6    0  502 -0.20402606004E+03 -0.63855535721E+03  0.39988956951E+03  0.78057110195E+03  0.00000000000E+00 0.  1.
<mgrwt>
<rscale>  0 0.10635896E+04</rscale>
<asrwt>0</asrwt>
<pdfrwt beam="1">  1        1 0.20660726E+00 0.10635896E+04</pdfrwt>
<pdfrwt beam="2">  1       -2 0.17956748E+00 0.10635896E+04</pdfrwt>
<totfact> 0.13355647E+00</totfact>
</mgrwt>
</event>
<event>
12    3  0.2212098E-007  0.8692759E+03  0.7818608E-02  0.9464825E-01
         -2   -1    0    0    0  501 -0.00000000000E+00  0.00000000000E+00  0.52114678758E+03  0.52114678758E+03  0.00000000000E+00 0.  1.
          1   -1    0    0  501    0  0.00000000000E+00 -0.00000000000E+00 -0.15544085649E+04  0.15544085649E+04  0.00000000000E+00 0. -1.
        -24    2    1    2    0    0  0.60293390939E+03 -0.51149007917E+03 -0.58288357168E+03  0.98549441454E+03  0.79338406678E+02 0.  0.
    5000000    2    1    2    0    0 -0.60293390939E+03  0.51149007917E+03 -0.45037820561E+03  0.10900609379E+04  0.60020073314E+03 0.  0.
        -24    2    4    4    0    0 -0.28963188519E+03  0.55726521052E+03 -0.16023086929E+03  0.65307982744E+03  0.80051144614E+02 0.  0.
         24    2    4    4    0    0 -0.31330202421E+03 -0.45775131355E+02 -0.29014733632E+03  0.43698111046E+03  0.80706214776E+02 0.  0.
         11    1    3    3    0    0  0.14907848869E+03 -0.10084019491E+03 -0.16687788060E+03  0.24544116960E+03  0.00000000000E+00 0. -1.
        -12    1    3    3    0    0  0.45385542070E+03 -0.41064988426E+03 -0.41600569109E+03  0.74005324495E+03  0.00000000000E+00 0.  1.
         13    1    5    5    0    0 -0.13849595105E+03  0.29453202695E+03 -0.12196847148E+03  0.34757236857E+03  0.00000000000E+00 0. -1.
        -14    1    5    5    0    0 -0.15113593413E+03  0.26273318357E+03 -0.38262397807E+02  0.30550745887E+03  0.00000000000E+00 0.  1.
          2    1    6    6  502    0 -0.33331599175E+02 -0.14068886997E+02 -0.72227427032E+02  0.80781992428E+02  0.00000000000E+00 0. -1.
         -1    1    6    6    0  502 -0.27997042503E+03 -0.31706244358E+02 -0.21791990929E+03  0.35619911804E+03  0.00000000000E+00 0.  1.
<mgrwt>
<rscale>  0 0.86927593E+03</rscale>
<asrwt>0</asrwt>
<pdfrwt beam="1">  1        1 0.23913978E+00 0.86927593E+03</pdfrwt>
<pdfrwt beam="2">  1       -2 0.80176429E-01 0.86927593E+03</pdfrwt>
<totfact> 0.73678031E+00</totfact>
</mgrwt>
</event>
<event>
12    3  0.2212098E-007  0.5767678E+03  0.7818608E-02  0.9954813E-01
         -2   -1    0    0    0  501 -0.00000000000E+00  0.00000000000E+00  0.32637729366E+03  0.32637729366E+03  0.00000000000E+00 0.  1.
          1   -1    0    0  501    0  0.00000000000E+00 -0.00000000000E+00 -0.14353246110E+04  0.14353246110E+04  0.00000000000E+00 0. -1.
        -24    2    1    2    0    0  0.16686298329E+03 -0.45814428325E+03 -0.12347273582E+03  0.50914124828E+03  0.78992751193E+02 0.  0.
    5000000    2    1    2    0    0 -0.16686298329E+03  0.45814428325E+03 -0.98547458155E+03  0.12525606564E+04  0.60000717299E+03 0.  0.
        -24    2    4    4    0    0 -0.71137140515E+02 -0.80633543497E+02 -0.49910379461E+03  0.51619245597E+03  0.76077544070E+02 0.  0.
         24    2    4    4    0    0 -0.95725842774E+02  0.53877782675E+03 -0.48637078695E+03  0.73636820044E+03  0.78972151168E+02 0.  0.
         11    1    3    3    0    0  0.97205024948E+02 -0.26335240176E+03 -0.30612836782E+02  0.28238351609E+03  0.00000000000E+00 0. -1.
        -12    1    3    3    0    0  0.69657958341E+02 -0.19479188150E+03 -0.92859899038E+02  0.22675773219E+03  0.00000000000E+00 0.  1.
         11    1    5    5    0    0 -0.98023670104E+01  0.35082194765E+01 -0.18474334324E+03  0.18503647445E+03  0.00000000000E+00 0. -1.
        -12    1    5    5    0    0 -0.61334773504E+02 -0.84141762973E+02 -0.31436045136E+03  0.33115598152E+03  0.00000000000E+00 0.  1.
          4    1    6    6  502    0 -0.14789830104E+02  0.27723961183E+03 -0.27176029721E+03  0.38850251040E+03  0.00000000000E+00 0. -1.
         -3    1    6    6    0  502 -0.80936012670E+02  0.26153821492E+03 -0.21461048973E+03  0.34786569005E+03  0.00000000000E+00 0.  1.
<mgrwt>
<rscale>  0 0.57676784E+03</rscale>
<asrwt>0</asrwt>
<pdfrwt beam="1">  1        1 0.22081918E+00 0.57676784E+03</pdfrwt>
<pdfrwt beam="2">  1       -2 0.50211890E-01 0.57676784E+03</pdfrwt>
<totfact> 0.25144624E+01</totfact>
</mgrwt>
</event>
<event>
12    3  0.2212098E-007  0.1100423E+04  0.7818608E-02  0.9204779E-01
         -2   -1    0    0    0  501 -0.00000000000E+00  0.00000000000E+00  0.69493021898E+03  0.69493021898E+03  0.00000000000E+00 0.  1.
          1   -1    0    0  501    0  0.00000000000E+00 -0.00000000000E+00 -0.23075653635E+04  0.23075653635E+04  0.00000000000E+00 0. -1.
        -24    2    1    2    0    0 -0.87115662620E+03  0.61957394480E+03 -0.13219867475E+03  0.10803920183E+04  0.83574417324E+02 0.  0.
    5000000    2    1    2    0    0  0.87115662620E+03 -0.61957394480E+03 -0.14804364697E+04  0.19221035641E+04  0.60000352483E+03 0.  0.
        -24    2    4    4    0    0  0.44728271485E+03 -0.10011144367E+03 -0.96925574762E+03  0.10751182357E+04  0.79613995936E+02 0.  0.
         24    2    4    4    0    0  0.42387391135E+03 -0.51946250113E+03 -0.51118072213E+03  0.84698532839E+03  0.81043402136E+02 0.  0.
         13    1    5    5    0    0  0.16669879037E+03 -0.29772498126E+02 -0.44870921040E+03  0.47959862787E+03  0.00000000000E+00 0. -1.
        -14    1    5    5    0    0  0.28058392448E+03 -0.70338945543E+02 -0.52054653722E+03  0.59551960787E+03  0.00000000000E+00 0.  1.
         13    1    3    3    0    0 -0.15636321595E+03  0.14763904517E+03 -0.42084224618E+02  0.21912969886E+03  0.00000000000E+00 0. -1.
        -14    1    3    3    0    0 -0.71479341025E+03  0.47193489963E+03 -0.90114450128E+02  0.86126231947E+03  0.00000000000E+00 0.  1.
          4    1    6    6  502    0  0.15583498224E+03 -0.20365645958E+03 -0.24466936058E+03  0.35443418462E+03  0.00000000000E+00 0. -1.
         -3    1    6    6    0  502  0.26803892910E+03 -0.31580604155E+03 -0.26651136154E+03  0.49255114377E+03  0.00000000000E+00 0.  1.
<mgrwt>
<rscale>  0 0.11004233E+04</rscale>
<asrwt>0</asrwt>
<pdfrwt beam="1">  1        1 0.35501006E+00 0.11004233E+04</pdfrwt>
<pdfrwt beam="2">  1       -2 0.10691234E+00 0.11004233E+04</pdfrwt>
<totfact> 0.11316176E+00</totfact>
</mgrwt>
</event>
<event>
12    3  0.2212098E-007  0.6573075E+03  0.7818608E-02  0.9793163E-01
          1   -1    0    0  501    0  0.00000000000E+00  0.00000000000E+00  0.65830691955E+03  0.65830691955E+03  0.00000000000E+00 0. -1.
         -2   -1    0    0    0  501 -0.00000000000E+00 -0.00000000000E+00 -0.87338343079E+03  0.87338343079E+03  0.00000000000E+00 0.  1.
        -24    2    1    2    0    0  0.38912599768E+02 -0.51799111897E+03 -0.46279463624E+03  0.70031096595E+03  0.80172214207E+02 0.  0.
    5000000    2    1    2    0    0 -0.38912599768E+02  0.51799111897E+03  0.24771812501E+03  0.83137938439E+03  0.59999868464E+03 0.  0.
        -24    2    4    4    0    0 -0.16646688672E+03  0.59309720025E+03  0.22551633337E+03  0.66066588248E+03  0.78398203603E+02 0.  0.
         24    2    4    4    0    0  0.12755428695E+03 -0.75106081280E+02  0.22201791640E+02  0.17071350192E+03  0.82092390756E+02 0.  0.
         11    1    5    5    0    0 -0.13210712319E+02  0.17816492073E+03  0.64790300186E+02  0.19003958771E+03  0.00000000000E+00 0. -1.
        -12    1    5    5    0    0 -0.15325617440E+03  0.41493227953E+03  0.16072603318E+03  0.47062629477E+03  0.00000000000E+00 0.  1.
         13    1    3    3    0    0  0.58048391394E+02 -0.25888751646E+03 -0.21891659594E+03  0.34397214698E+03  0.00000000000E+00 0. -1.
        -14    1    3    3    0    0 -0.19135791625E+02 -0.25910360251E+03 -0.24387804031E+03  0.35633881896E+03  0.00000000000E+00 0.  1.
          4    1    6    6  502    0  0.40470823468E+02  0.15032109290E+02 -0.13182076643E+01  0.43192470794E+02  0.00000000000E+00 0. -1.
         -3    1    6    6    0  502  0.87083463481E+02 -0.90138190569E+02  0.23519999304E+02  0.12752103112E+03  0.00000000000E+00 0.  1.
<mgrwt>
<rscale>  0 0.65730748E+03</rscale>
<asrwt>0</asrwt>
<pdfrwt beam="1">  1        1 0.10127799E+00 0.65730748E+03</pdfrwt>
<pdfrwt beam="2">  1       -2 0.13436668E+00 0.65730748E+03</pdfrwt>
<totfact> 0.10775847E+01</totfact>
</mgrwt>
</event>
<event>
12    3  0.2212098E-007  0.3316003E+03  0.7818608E-02  0.1070431E+00
         -2   -1    0    0    0  501 -0.00000000000E+00  0.00000000000E+00  0.43209706050E+03  0.43209706050E+03  0.00000000000E+00 0.  1.
          1   -1    0    0  501    0  0.00000000000E+00 -0.00000000000E+00 -0.62691944732E+03  0.62691944732E+03  0.00000000000E+00 0. -1.
        -24    2    1    2    0    0  0.67864318376E+02  0.20693692357E+03  0.20147781927E+03  0.30784253171E+03  0.82129511273E+02 0.  0.
    5000000    2    1    2    0    0 -0.67864318376E+02 -0.20693692357E+03 -0.39630020610E+03  0.75117397612E+03  0.59981666615E+03 0.  0.
        -24    2    4    4    0    0 -0.20741502802E+03 -0.17512792922E+03  0.40237979947E+02  0.28545303770E+03  0.78571981406E+02 0.  0.
         24    2    4    4    0    0  0.13955070964E+03 -0.31808994354E+02 -0.43653818604E+03  0.46572093841E+03  0.76447314662E+02 0.  0.
         11    1    5    5    0    0 -0.85007176398E+02 -0.57010104148E+02  0.52261057802E+02  0.11492428019E+03  0.00000000000E+00 0. -1.
        -12    1    5    5    0    0 -0.12240785162E+03 -0.11811782507E+03 -0.12023077855E+02  0.17052875751E+03  0.00000000000E+00 0.  1.
         13    1    3    3    0    0  0.82530783059E+02  0.17274891745E+03  0.14478416745E+03  0.24003327640E+03  0.00000000000E+00 0. -1.
        -14    1    3    3    0    0 -0.14666464682E+02  0.34188006121E+02  0.56693651822E+02  0.67809255310E+02  0.00000000000E+00 0.  1.
          2    1    6    6  502    0  0.11352568099E+03  0.87900991069E+01 -0.29653500062E+03  0.31764501048E+03  0.00000000000E+00 0. -1.
         -1    1    6    6    0  502  0.26025028650E+02 -0.40599093461E+02 -0.14000318542E+03  0.14807592794E+03  0.00000000000E+00 0.  1.
<mgrwt>
<rscale>  0 0.33160030E+03</rscale>
<asrwt>0</asrwt>
<pdfrwt beam="1">  1        1 0.96449146E-01 0.33160030E+03</pdfrwt>
<pdfrwt beam="2">  1       -2 0.66476471E-01 0.33160030E+03</pdfrwt>
<totfact> 0.62111073E+01</totfact>
</mgrwt>
</event>
<event>
12    3  0.2212098E-007  0.4483628E+03  0.7818608E-02  0.1028211E+00
          1   -1    0    0  501    0  0.00000000000E+00  0.00000000000E+00  0.45174977091E+03  0.45174977091E+03  0.00000000000E+00 0. -1.
         -2   -1    0    0    0  501 -0.00000000000E+00 -0.00000000000E+00 -0.13240497971E+04  0.13240497971E+04  0.00000000000E+00 0.  1.
        -24    2    1    2    0    0 -0.26589302584E+03  0.33543715910E+03  0.19622264481E+03  0.47748914219E+03  0.79217205672E+02 0.  0.
    5000000    2    1    2    0    0  0.26589302584E+03 -0.33543715910E+03 -0.10685226710E+04  0.12983104258E+04  0.60054314954E+03 0.  0.
        -24    2    4    4    0    0  0.83566065716E+02 -0.22603931838E+03 -0.10387128613E+04  0.10691778653E+04  0.78357122211E+02 0.  0.
         24    2    4    4    0    0  0.18232696012E+03 -0.10939784073E+03 -0.29809809697E+02  0.22913256053E+03  0.80013108917E+02 0.  0.
         11    1    5    5    0    0  0.14491617010E+02 -0.12900091558E+03 -0.64095089172E+03  0.65396428708E+03  0.00000000000E+00 0. -1.
        -12    1    5    5    0    0  0.69074448705E+02 -0.97038402797E+02 -0.39776196956E+03  0.41521357819E+03  0.00000000000E+00 0.  1.
         11    1    3    3    0    0 -0.12057787775E+03  0.21425850489E+03  0.10302183199E+03  0.26656937068E+03  0.00000000000E+00 0. -1.
        -12    1    3    3    0    0 -0.14531514809E+03  0.12117865421E+03  0.93200812819E+02  0.21091977151E+03  0.00000000000E+00 0.  1.
          2    1    6    6  502    0  0.14561075269E+03 -0.84211361329E+02  0.11225228787E+02  0.16858247369E+03  0.00000000000E+00 0. -1.
         -3    1    6    6    0  502  0.36716207435E+02 -0.25186479400E+02 -0.41035038484E+02  0.60550086840E+02  0.00000000000E+00 0.  1.
<mgrwt>
<rscale>  0 0.44836277E+03</rscale>
<asrwt>0</asrwt>
<pdfrwt beam="1">  1        1 0.69499966E-01 0.44836277E+03</pdfrwt>
<pdfrwt beam="2">  1       -2 0.20369996E+00 0.44836277E+03</pdfrwt>
<totfact> 0.60126471E+00</totfact>
</mgrwt>
</event>
<event>
12    3  0.2212098E-007  0.4998567E+03  0.7818608E-02  0.1013816E+00
         -2   -1    0    0    0  501 -0.00000000000E+00  0.00000000000E+00  0.34157864755E+03  0.34157864755E+03  0.00000000000E+00 0.  1.
          1   -1    0    0  501    0  0.00000000000E+00 -0.00000000000E+00 -0.12750136917E+04  0.12750136917E+04  0.00000000000E+00 0. -1.
        -24    2    1    2    0    0 -0.45538264578E+03 -0.23580966209E+02 -0.65812341039E+02  0.46741355577E+03  0.78833697340E+02 0.  0.
    5000000    2    1    2    0    0  0.45538264578E+03  0.23580966209E+02 -0.86762270309E+03  0.11491787835E+04  0.59992775014E+03 0.  0.
        -24    2    4    4    0    0  0.19777979156E+03  0.14276397470E+03 -0.80840056156E+03  0.84819784246E+03  0.80185494984E+02 0.  0.
         24    2    4    4    0    0  0.25760285422E+03 -0.11918300849E+03 -0.59222141532E+02  0.30098094100E+03  0.80736886131E+02 0.  0.
         11    1    5    5    0    0 -0.10945487991E+00  0.88077349707E+01 -0.52578534105E+01  0.10258323361E+02  0.00000000000E+00 0. -1.
        -12    1    5    5    0    0  0.19788924644E+03  0.13395623973E+03 -0.80314270815E+03  0.83793951910E+03  0.00000000000E+00 0.  1.
         13    1    3    3    0    0 -0.20628832462E+03  0.27686393291E+02 -0.21200192398E+02  0.20921485943E+03  0.00000000000E+00 0. -1.
        -14    1    3    3    0    0 -0.24909432116E+03 -0.51267359500E+02 -0.44612148641E+02  0.25819869634E+03  0.00000000000E+00 0.  1.
          4    1    6    6  502    0  0.19115148411E+02  0.61379218959E+01  0.10554386834E+02  0.22681668048E+02  0.00000000000E+00 0. -1.
         -3    1    6    6    0  502  0.23848770581E+03 -0.12532093038E+03 -0.69776528366E+02  0.27829927295E+03  0.00000000000E+00 0.  1.
<mgrwt>
<rscale>  0 0.49985674E+03</rscale>
<asrwt>0</asrwt>
<pdfrwt beam="1">  1        1 0.19615595E+00 0.49985674E+03</pdfrwt>
<pdfrwt beam="2">  1       -2 0.52550561E-01 0.49985674E+03</pdfrwt>
<totfact> 0.29959841E+01</totfact>
</mgrwt>
</event>
<event>
12    3  0.2212098E-007  0.9157097E+03  0.7818608E-02  0.9406154E-01
         -2   -1    0    0    0  501 -0.00000000000E+00  0.00000000000E+00  0.12360807733E+04  0.12360807733E+04  0.00000000000E+00 0.  1.
          1   -1    0    0  501    0  0.00000000000E+00 -0.00000000000E+00 -0.10930597204E+04  0.10930597204E+04  0.00000000000E+00 0. -1.
        -24    2    1    2    0    0 -0.73937712538E+03 -0.46565236149E+03  0.70847826520E+03  0.11278056294E+04  0.80581822618E+02 0.  0.
    5000000    2    1    2    0    0  0.73937712538E+03  0.46565236149E+03 -0.56545721227E+03  0.12013348644E+04  0.59996078383E+03 0.  0.
        -24    2    4    4    0    0  0.46496746986E+03  0.79496956124E+02 -0.53827572283E+03  0.72000362200E+03  0.78421603138E+02 0.  0.
         24    2    4    4    0    0  0.27440965552E+03  0.38615540537E+03 -0.27181489439E+02  0.48133124237E+03  0.80772986660E+02 0.  0.
         11    1    5    5    0    0  0.44479597154E+03  0.87906271934E+02 -0.49337624366E+03  0.67006797174E+03  0.00000000000E+00 0. -1.
        -12    1    5    5    0    0  0.20171498326E+02 -0.84093158098E+01 -0.44899479176E+02  0.49935650265E+02  0.00000000000E+00 0.  1.
         11    1    3    3    0    0 -0.50029251118E+03 -0.35365591225E+03  0.51711323920E+03  0.80173013113E+03  0.00000000000E+00 0. -1.
        -12    1    3    3    0    0 -0.23908461420E+03 -0.11199644924E+03  0.19136502600E+03  0.32607549826E+03  0.00000000000E+00 0.  1.
          2    1    6    6  502    0  0.27578558070E+03  0.36101533570E+03 -0.18426975835E+02  0.45467495266E+03  0.00000000000E+00 0. -1.
         -1    1    6    6    0  502 -0.13759251777E+01  0.25140069661E+02 -0.87545136038E+01  0.26656289710E+02  0.00000000000E+00 0.  1.
<mgrwt>
<rscale>  0 0.91570975E+03</rscale>
<asrwt>0</asrwt>
<pdfrwt beam="1">  1        1 0.16816303E+00 0.91570975E+03</pdfrwt>
<pdfrwt beam="2">  1       -2 0.19016627E+00 0.91570975E+03</pdfrwt>
<totfact> 0.17520063E+00</totfact>
</mgrwt>
</event>
<event>
12    3  0.2212098E-007  0.5228885E+03  0.7818608E-02  0.1007972E+00
         -2   -1    0    0    0  501 -0.00000000000E+00  0.00000000000E+00  0.17033907841E+03  0.17033907841E+03  0.00000000000E+00 0.  1.
          1   -1    0    0  501    0  0.00000000000E+00 -0.00000000000E+00 -0.21364679903E+04  0.21364679903E+04  0.00000000000E+00 0. -1.
        -24    2    1    2    0    0  0.28773139281E+03  0.22594375052E+03 -0.24079760238E+03  0.44386829632E+03  0.72080832154E+02 0.  0.
    5000000    2    1    2    0    0 -0.28773139281E+03 -0.22594375052E+03 -0.17253313095E+04  0.18629387724E+04  0.59994400513E+03 0.  0.
        -24    2    4    4    0    0 -0.19215804490E+03 -0.41341283614E+03 -0.97246628872E+03  0.10771629134E+04  0.82184986664E+02 0.  0.
         24    2    4    4    0    0 -0.95573347902E+02  0.18746908562E+03 -0.75286502077E+03  0.78577585896E+03  0.79743577345E+02 0.  0.
         11    1    3    3    0    0  0.10254758172E+03  0.57350582597E+02 -0.44380855904E+02  0.12559759636E+03  0.00000000000E+00 0. -1.
        -12    1    3    3    0    0  0.18518381109E+03  0.16859316792E+03 -0.19641674648E+03  0.31827069996E+03  0.00000000000E+00 0.  1.
         13    1    5    5    0    0 -0.10981200638E+03 -0.24009722457E+03 -0.46643813266E+03  0.53597563899E+03  0.00000000000E+00 0. -1.
        -14    1    5    5    0    0 -0.82346038529E+02 -0.17331561157E+03 -0.50602815606E+03  0.54118727443E+03  0.00000000000E+00 0.  1.
          4    1    6    6  502    0 -0.61804343165E+01  0.87982476515E+02 -0.23783010808E+03  0.25365778965E+03  0.00000000000E+00 0. -1.
         -3    1    6    6    0  502 -0.89392913585E+02  0.99486609106E+02 -0.51503491269E+03  0.53211806931E+03  0.00000000000E+00 0.  1.
<mgrwt>
<rscale>  0 0.52288845E+03</rscale>
<asrwt>0</asrwt>
<pdfrwt beam="1">  1        1 0.32868735E+00 0.52288845E+03</pdfrwt>
<pdfrwt beam="2">  1       -2 0.26206015E-01 0.52288845E+03</pdfrwt>
<totfact> 0.29892680E+01</totfact>
</mgrwt>
</event>
<event>
12    3  0.2212098E-007  0.9092010E+03  0.7818608E-02  0.9414152E-01
         -2   -1    0    0    0  501 -0.00000000000E+00  0.00000000000E+00  0.10676010472E+04  0.10676010472E+04  0.00000000000E+00 0.  1.
          1   -1    0    0  501    0  0.00000000000E+00 -0.00000000000E+00 -0.80099839010E+03  0.80099839010E+03  0.00000000000E+00 0. -1.
        -24    2    1    2    0    0  0.73320332900E+03  0.37844567692E+03  0.10496380797E+03  0.83565743704E+03  0.80608306474E+02 0.  0.
    5000000    2    1    2    0    0 -0.73320332900E+03 -0.37844567692E+03  0.16163884913E+03  0.10329420002E+04  0.60002817126E+03 0.  0.
        -24    2    4    4    0    0 -0.26966330560E+03  0.12595157305E+03 -0.50987796162E+02  0.31144832303E+03  0.76277161845E+02 0.  0.
         24    2    4    4    0    0 -0.46354002340E+03 -0.50439724996E+03  0.21262664529E+03  0.72149367722E+03  0.77827353267E+02 0.  0.
         11    1    5    5    0    0 -0.23725405244E+03  0.81731349808E+02 -0.29919932043E+02  0.25271466375E+03  0.00000000000E+00 0. -1.
        -12    1    5    5    0    0 -0.32409253164E+02  0.44220223241E+02 -0.21067864119E+02  0.58733659282E+02  0.00000000000E+00 0.  1.
         13    1    3    3    0    0  0.58125589754E+03  0.31017574802E+03  0.52117632040E+02  0.66089610428E+03  0.00000000000E+00 0. -1.
        -14    1    3    3    0    0  0.15194743146E+03  0.68269928893E+02  0.52846175934E+02  0.17476133277E+03  0.00000000000E+00 0.  1.
          2    1    6    6  502    0 -0.18989886495E+03 -0.16767154402E+03  0.50586339658E+02  0.25832983440E+03  0.00000000000E+00 0. -1.
         -1    1    6    6    0  502 -0.27364115844E+03 -0.33672570595E+03  0.16204030563E+03  0.46316384281E+03  0.00000000000E+00 0.  1.
<mgrwt>
<rscale>  0 0.90920104E+03</rscale>
<asrwt>0</asrwt>
<pdfrwt beam="1">  1        1 0.12323052E+00 0.90920104E+03</pdfrwt>
<pdfrwt beam="2">  1       -2 0.16424632E+00 0.90920104E+03</pdfrwt>
<totfact> 0.45569550E+00</totfact>
</mgrwt>
</event>
<event>
12    3  0.2491176E-007  0.1123663E+04  0.7818608E-02  0.9182431E-01
          1   -1    0    0  501    0  0.00000000000E+00  0.00000000000E+00  0.13583650761E+04  0.13583650761E+04  0.00000000000E+00 0. -1.
         -2   -1    0    0    0  501 -0.00000000000E+00 -0.00000000000E+00 -0.12119694477E+04  0.12119694477E+04  0.00000000000E+00 0.  1.
        -24    2    1    2    0    0  0.10283556744E+04  0.31032511749E+03  0.63066819704E+03  0.12481015657E+04  0.78727835460E+02 0.  0.
    5000000    2    1    2    0    0 -0.10283556744E+04 -0.31032511749E+03 -0.48427256869E+03  0.13222329581E+04  0.59996916849E+03 0.  0.
        -24    2    4    4    0    0 -0.94532115639E+03 -0.40401362367E+03 -0.27640121558E+03  0.10677328916E+04  0.82442701691E+02 0.  0.
         24    2    4    4    0    0 -0.83034517977E+02  0.93688506180E+02 -0.20787135311E+03  0.25450006647E+03  0.76730157190E+02 0.  0.
         11    1    3    3    0    0  0.46040259919E+03  0.15467273836E+03  0.32710109785E+03  0.58556753458E+03  0.00000000000E+00 0. -1.
        -12    1    3    3    0    0  0.56795307517E+03  0.15565237912E+03  0.30356709920E+03  0.66253403116E+03  0.00000000000E+00 0.  1.
         13    1    5    5    0    0 -0.56259394139E+03 -0.28179918496E+03 -0.18216355275E+03  0.65506204552E+03  0.00000000000E+00 0. -1.
        -14    1    5    5    0    0 -0.38272721500E+03 -0.12221443871E+03 -0.94237662829E+02  0.41267084610E+03  0.00000000000E+00 0.  1.
          4    1    6    6  502    0 -0.48849774219E+02  0.80092731011E+01 -0.10648137547E+03  0.11742543259E+03  0.00000000000E+00 0. -1.
         -3    1    6    6    0  502 -0.34184743758E+02  0.85679233079E+02 -0.10138997763E+03  0.13707463387E+03  0.00000000000E+00 0.  1.
<mgrwt>
<rscale>  0 0.11236625E+04</rscale>
<asrwt>0</asrwt>
<pdfrwt beam="1">  1        1 0.20897924E+00 0.11236625E+04</pdfrwt>
<pdfrwt beam="2">  1       -2 0.18645684E+00 0.11236625E+04</pdfrwt>
<totfact> 0.11600679E+00</totfact>
</mgrwt>
</event>
<event>
12    3  0.2543008E-007  0.9329075E+03  0.7818608E-02  0.9385355E-01
         -2   -1    0    0    0  501 -0.00000000000E+00  0.00000000000E+00  0.17053963402E+04  0.17053963402E+04  0.00000000000E+00 0.  1.
          1   -1    0    0  501    0  0.00000000000E+00 -0.00000000000E+00 -0.14549411619E+04  0.14549411619E+04  0.00000000000E+00 0. -1.
        -24    2    1    2    0    0  0.35395137046E+03 -0.76129095951E+03  0.13882018105E+04  0.16242855312E+04  0.79710242275E+02 0.  0.
    5000000    2    1    2    0    0 -0.35395137046E+03  0.76129095951E+03 -0.11377466321E+04  0.15360519709E+04  0.60011895548E+03 0.  0.
        -24    2    4    4    0    0 -0.50473969666E+03  0.47490045647E+03 -0.74612672161E+03  0.10215015673E+04  0.80422399564E+02 0.  0.
         24    2    4    4    0    0  0.15078832620E+03  0.28639050304E+03 -0.39161991047E+03  0.51455040358E+03  0.81482047066E+02 0.  0.
         11    1    3    3    0    0  0.91518554409E+02 -0.28286923282E+03  0.46746390290E+03  0.55399742706E+03  0.00000000000E+00 0. -1.
        -12    1    3    3    0    0  0.26243281605E+03 -0.47842172669E+03  0.92073790756E+03  0.10702881042E+04  0.00000000000E+00 0.  1.
         13    1    5    5    0    0 -0.41740509824E+03  0.38835257079E+03 -0.65554560104E+03  0.86878350026E+03  0.00000000000E+00 0. -1.
        -14    1    5    5    0    0 -0.87334598414E+02  0.86547885679E+02 -0.90581120564E+02  0.15271806703E+03  0.00000000000E+00 0.  1.
          4    1    6    6  502    0  0.37737203056E+02  0.13882327570E+03 -0.21086673760E+03  0.25526609528E+03  0.00000000000E+00 0. -1.
         -3    1    6    6    0  502  0.11305112314E+03  0.14756722734E+03 -0.18075317287E+03  0.25928430830E+03  0.00000000000E+00 0.  1.
<mgrwt>
<rscale>  0 0.93290746E+03</rscale>
<asrwt>0</asrwt>
<pdfrwt beam="1">  1        1 0.22383710E+00 0.93290746E+03</pdfrwt>
<pdfrwt beam="2">  1       -2 0.26236867E+00 0.93290746E+03</pdfrwt>
<totfact> 0.33829549E-01</totfact>
</mgrwt>
</event>
<event>
12    3  0.2212098E-007  0.6206182E+03  0.7818608E-02  0.9863530E-01
         -2   -1    0    0    0  501 -0.00000000000E+00  0.00000000000E+00  0.68792472167E+03  0.68792472167E+03  0.00000000000E+00 0.  1.
          1   -1    0    0  501    0  0.00000000000E+00 -0.00000000000E+00 -0.57890284262E+03  0.57890284262E+03  0.00000000000E+00 0. -1.
        -24    2    1    2    0    0 -0.26579043152E+03  0.40381246878E+03  0.10855592010E+02  0.49028631458E+03  0.80955314567E+02 0.  0.
    5000000    2    1    2    0    0  0.26579043152E+03 -0.40381246878E+03  0.98166287038E+02  0.77654124971E+03  0.59972546149E+03 0.  0.
        -24    2    4    4    0    0  0.38029136843E+03 -0.45896776581E+03  0.14241975921E+02  0.60172141294E+03  0.81196613011E+02 0.  0.
         24    2    4    4    0    0 -0.11450093691E+03  0.55155297023E+02  0.83924311117E+02  0.17481983677E+03  0.85826068232E+02 0.  0.
         11    1    3    3    0    0  0.12998794599E+01  0.27028114347E+02 -0.74806650389E+01  0.28074347743E+02  0.00000000000E+00 0. -1.
        -12    1    3    3    0    0 -0.26709031098E+03  0.37678435444E+03  0.18336257049E+02  0.46221196684E+03  0.00000000000E+00 0.  1.
         13    1    5    5    0    0  0.17864876133E+03 -0.27884554603E+03  0.60434577210E+01  0.33122008068E+03  0.00000000000E+00 0. -1.
        -14    1    5    5    0    0  0.20164260709E+03 -0.18012221978E+03  0.81985182001E+01  0.27050133226E+03  0.00000000000E+00 0.  1.
          2    1    6    6  502    0 -0.10557278475E+03  0.11464805502E+02  0.43938138883E+02  0.11492438686E+03  0.00000000000E+00 0. -1.
         -1    1    6    6    0  502 -0.89281521571E+01  0.43690491520E+02  0.39986172234E+02  0.59895449912E+02  0.00000000000E+00 0.  1.
<mgrwt>
<rscale>  0 0.62061817E+03</rscale>
<asrwt>0</asrwt>
<pdfrwt beam="1">  1        1 0.89061975E-01 0.62061817E+03</pdfrwt>
<pdfrwt beam="2">  1       -2 0.10583457E+00 0.62061817E+03</pdfrwt>
<totfact> 0.23475605E+01</totfact>
</mgrwt>
</event>
<event>
12    3  0.2212098E-007  0.6542583E+03  0.7818608E-02  0.9798821E-01
          1   -1    0    0  501    0  0.00000000000E+00  0.00000000000E+00  0.97585523209E+03  0.97585523209E+03  0.00000000000E+00 0. -1.
         -2   -1    0    0    0  501 -0.00000000000E+00 -0.00000000000E+00 -0.45439258387E+03  0.45439258387E+03  0.00000000000E+00 0.  1.
        -24    2    1    2    0    0  0.18412730327E+03 -0.49098972560E+03  0.26529945490E+03  0.59320811356E+03  0.80859698024E+02 0.  0.
    5000000    2    1    2    0    0 -0.18412730327E+03  0.49098972560E+03  0.25616319333E+03  0.83703970240E+03  0.60003508841E+03 0.  0.
        -24    2    4    4    0    0  0.18213157116E+03  0.45086326682E+02  0.90613467517E+01  0.20439786049E+03  0.80571032631E+02 0.  0.
         24    2    4    4    0    0 -0.36625887444E+03  0.44590339892E+03  0.24710184658E+03  0.63264184191E+03  0.78746258880E+02 0.  0.
         13    1    5    5    0    0  0.12523944026E+03  0.66551807803E+02 -0.52812040171E+01  0.14192234367E+03  0.00000000000E+00 0. -1.
        -14    1    5    5    0    0  0.56892130905E+02 -0.21465481121E+02  0.14342550769E+02  0.62475516815E+02  0.00000000000E+00 0.  1.
         13    1    3    3    0    0  0.23332676809E+02 -0.11220170565E+03  0.90892961552E+02  0.14627086866E+03  0.00000000000E+00 0. -1.
        -14    1    3    3    0    0  0.16079462646E+03 -0.37878801995E+03  0.17440649335E+03  0.44693724490E+03  0.00000000000E+00 0.  1.
          4    1    6    6  502    0 -0.23335808605E+03  0.32508258418E+03  0.19781006680E+03  0.44638941004E+03  0.00000000000E+00 0. -1.
         -3    1    6    6    0  502 -0.13290078838E+03  0.12082081474E+03  0.49291779773E+02  0.18625243188E+03  0.00000000000E+00 0.  1.
<mgrwt>
<rscale>  0 0.65425827E+03</rscale>
<asrwt>0</asrwt>
<pdfrwt beam="1">  1        1 0.15013157E+00 0.65425827E+03</pdfrwt>
<pdfrwt beam="2">  1       -2 0.69906551E-01 0.65425827E+03</pdfrwt>
<totfact> 0.26692768E+01</totfact>
</mgrwt>
</event>
<event>
12    3  0.2212098E-007  0.7514683E+03  0.7818608E-02  0.9633050E-01
          1   -1    0    0  501    0  0.00000000000E+00  0.00000000000E+00  0.14067861164E+04  0.14067861164E+04  0.00000000000E+00 0. -1.
         -2   -1    0    0    0  501 -0.00000000000E+00 -0.00000000000E+00 -0.50280140638E+03  0.50280140638E+03  0.00000000000E+00 0.  1.
        -24    2    1    2    0    0 -0.25982028996E+03 -0.67413136181E+03  0.52541144805E+03  0.89701603545E+03  0.81368925642E+02 0.  0.
    5000000    2    1    2    0    0  0.25982028996E+03  0.67413136181E+03  0.37857326199E+03  0.10125714873E+04  0.60001968820E+03 0.  0.
        -24    2    4    4    0    0  0.42209401606E+02  0.45729112854E+03 -0.61012291997E+02  0.47009026960E+03  0.79784409332E+02 0.  0.
         24    2    4    4    0    0  0.21761088836E+03  0.21684023327E+03  0.43958555399E+03  0.54248121774E+03  0.81708180922E+02 0.  0.
         11    1    3    3    0    0 -0.97067101130E+02 -0.16610347647E+03  0.11702804750E+03  0.22518425993E+03  0.00000000000E+00 0. -1.
        -12    1    3    3    0    0 -0.16275318883E+03 -0.50802788534E+03  0.40838340055E+03  0.67183177552E+03  0.00000000000E+00 0.  1.
         13    1    5    5    0    0  0.34439297367E+02  0.32961353992E+03 -0.76613178561E+01  0.33149637508E+03  0.00000000000E+00 0. -1.
        -14    1    5    5    0    0  0.77701042393E+01  0.12767758862E+03 -0.53350974140E+02  0.13859389452E+03  0.00000000000E+00 0.  1.
          4    1    6    6  502    0  0.54486566604E+02  0.11004114928E+03  0.16274887338E+03  0.20387505061E+03  0.00000000000E+00 0. -1.
         -3    1    6    6    0  502  0.16312432175E+03  0.10679908400E+03  0.27683668061E+03  0.33860616713E+03  0.00000000000E+00 0.  1.
<mgrwt>
<rscale>  0 0.75146834E+03</rscale>
<asrwt>0</asrwt>
<pdfrwt beam="1">  1        1 0.21642863E+00 0.75146834E+03</pdfrwt>
<pdfrwt beam="2">  1       -2 0.77354063E-01 0.75146834E+03</pdfrwt>
<totfact> 0.10239804E+01</totfact>
</mgrwt>
</event>
<event>
12    3  0.2212098E-007  0.5133167E+03  0.7818608E-02  0.1010360E+00
         -2   -1    0    0    0  501 -0.00000000000E+00  0.00000000000E+00  0.72792134594E+03  0.72792134594E+03  0.00000000000E+00 0.  1.
          1   -1    0    0  501    0  0.00000000000E+00 -0.00000000000E+00 -0.56186841165E+03  0.56186841165E+03  0.00000000000E+00 0. -1.
        -24    2    1    2    0    0 -0.17663103770E+03 -0.42564881113E+03 -0.11720979421E+03  0.48197590196E+03  0.78658758671E+02 0.  0.
    5000000    2    1    2    0    0  0.17663103770E+03  0.42564881113E+03  0.28326272850E+03  0.80781385564E+03  0.59995834698E+03 0.  0.
        -24    2    4    4    0    0  0.28812068246E+01 -0.39102531262E+02  0.28535281023E+03  0.30536786523E+03  0.10141990687E+03 0.  0.
         24    2    4    4    0    0  0.17374983088E+03  0.46475134239E+03 -0.20900817326E+01  0.50244599041E+03  0.79150431783E+02 0.  0.
         11    1    3    3    0    0 -0.15960432716E+03 -0.29449878712E+03 -0.76368129547E+02  0.34356246604E+03  0.00000000000E+00 0. -1.
        -12    1    3    3    0    0 -0.17026710539E+02 -0.13115002401E+03 -0.40841664658E+02  0.13841343591E+03  0.00000000000E+00 0.  1.
         13    1    5    5    0    0  0.21657598806E+02 -0.27796464974E+02  0.22952266644E+02  0.42053556273E+02  0.00000000000E+00 0. -1.
        -14    1    5    5    0    0 -0.18776391981E+02 -0.11306066288E+02  0.26240054358E+03  0.26331430896E+03  0.00000000000E+00 0.  1.
          4    1    6    6  502    0  0.71431299967E+02  0.96516261358E+02  0.52586768076E+01  0.12018932150E+03  0.00000000000E+00 0. -1.
         -3    1    6    6    0  502  0.10231853091E+03  0.36823508103E+03 -0.73487585402E+01  0.38225666890E+03  0.00000000000E+00 0.  1.
<mgrwt>
<rscale>  0 0.51331673E+03</rscale>
<asrwt>0</asrwt>
<pdfrwt beam="1">  1        1 0.86441294E-01 0.51331673E+03</pdfrwt>
<pdfrwt beam="2">  1       -2 0.11198790E+00 0.51331673E+03</pdfrwt>
<totfact> 0.21635682E+01</totfact>
</mgrwt>
</event>
<event>
12    3  0.2212098E-007  0.7240392E+03  0.7818608E-02  0.9676983E-01
         -2   -1    0    0    0  501 -0.00000000000E+00  0.00000000000E+00  0.46006370974E+03  0.46006370974E+03  0.00000000000E+00 0.  1.
          1   -1    0    0  501    0  0.00000000000E+00 -0.00000000000E+00 -0.14622140866E+04  0.14622140866E+04  0.00000000000E+00 0. -1.
        -24    2    1    2    0    0  0.13133800579E+03 -0.67122001243E+03 -0.64912675683E+03  0.94647725519E+03  0.81655810042E+02 0.  0.
    5000000    2    1    2    0    0 -0.13133800579E+03  0.67122001243E+03 -0.35302362004E+03  0.97580054115E+03  0.59981250650E+03 0.  0.
        -24    2    4    4    0    0  0.86612281846E+02  0.14420281115E+03 -0.35395835103E+03  0.40000347141E+03  0.80125681037E+02 0.  0.
         24    2    4    4    0    0 -0.21795028763E+03  0.52701720128E+03  0.93473099525E+00  0.57579706974E+03  0.79321708747E+02 0.  0.
         11    1    3    3    0    0  0.56873160344E+02 -0.45513497053E+03 -0.46289852728E+03  0.65165745935E+03  0.00000000000E+00 0. -1.
        -12    1    3    3    0    0  0.74464845443E+02 -0.21608504190E+03 -0.18622822954E+03  0.29481979584E+03  0.00000000000E+00 0.  1.
         11    1    5    5    0    0  0.71228843830E+02  0.44082611734E+02 -0.13731247415E+03  0.16084632544E+03  0.00000000000E+00 0. -1.
        -12    1    5    5    0    0  0.15383438017E+02  0.10012019942E+03 -0.21664587689E+03  0.23915714597E+03  0.00000000000E+00 0.  1.
          4    1    6    6  502    0 -0.12717692831E+03  0.39954235708E+03 -0.82370049370E+00  0.41929553381E+03  0.00000000000E+00 0. -1.
         -1    1    6    6    0  502 -0.90773359321E+02  0.12747484420E+03  0.17584314890E+01  0.15650153593E+03  0.00000000000E+00 0.  1.
<mgrwt>
<rscale>  0 0.72403921E+03</rscale>
<asrwt>0</asrwt>
<pdfrwt beam="1">  1        1 0.22495601E+00 0.72403921E+03</pdfrwt>
<pdfrwt beam="2">  1       -2 0.70779033E-01 0.72403921E+03</pdfrwt>
<totfact> 0.11450829E+01</totfact>
</mgrwt>
</event>
<event>
12    3  0.2212098E-007  0.2895961E+03  0.7818608E-02  0.1090560E+00
         -2   -1    0    0    0  501 -0.00000000000E+00  0.00000000000E+00  0.15857867001E+03  0.15857867001E+03  0.00000000000E+00 0.  1.
          1   -1    0    0  501    0  0.00000000000E+00 -0.00000000000E+00 -0.11599425120E+04  0.11599425120E+04  0.00000000000E+00 0. -1.
        -24    2    1    2    0    0  0.18295735921E+03 -0.84662431400E+02 -0.34293749473E+03  0.40549204783E+03  0.78591048965E+02 0.  0.
    5000000    2    1    2    0    0 -0.18295735921E+03  0.84662431400E+02 -0.65842634723E+03  0.91302913416E+03  0.59954634726E+03 0.  0.
        -24    2    4    4    0    0 -0.19960599306E+03 -0.53696538244E+02 -0.71005756243E+03  0.74389350271E+03  0.80435879553E+02 0.  0.
         24    2    4    4    0    0  0.16648633845E+02  0.13835896964E+03  0.51631215202E+02  0.16913563145E+03  0.80750838713E+02 0.  0.
         11    1    5    5    0    0 -0.12049451129E+03  0.89853069145E+01 -0.39375811952E+03  0.41187998213E+03  0.00000000000E+00 0. -1.
        -12    1    5    5    0    0 -0.79111481771E+02 -0.62681845158E+02 -0.31629944291E+03  0.33201352058E+03  0.00000000000E+00 0.  1.
         13    1    3    3    0    0  0.62616611411E+02 -0.42938954000E+02 -0.20059961210E+03  0.21448729139E+03  0.00000000000E+00 0. -1.
        -14    1    3    3    0    0  0.12034074780E+03 -0.41723477400E+02 -0.14233788263E+03  0.19100475643E+03  0.00000000000E+00 0.  1.
          4    1    6    6  502    0 -0.13412208111E+02  0.11574296934E+03  0.59306304073E+02  0.13074234195E+03  0.00000000000E+00 0. -1.
         -3    1    6    6    0  502  0.30060841956E+02  0.22616000309E+02 -0.76750888709E+01  0.38393289495E+02  0.00000000000E+00 0.  1.
<mgrwt>
<rscale>  0 0.28959608E+03</rscale>
<asrwt>0</asrwt>
<pdfrwt beam="1">  1        1 0.17845269E+00 0.28959608E+03</pdfrwt>
<pdfrwt beam="2">  1       -2 0.24396720E-01 0.28959608E+03</pdfrwt>
<totfact> 0.16034774E+02</totfact>
</mgrwt>
</event>
<event>
12    3  0.2212098E-007  0.4740216E+03  0.7818608E-02  0.1020791E+00
         -2   -1    0    0    0  501 -0.00000000000E+00  0.00000000000E+00  0.76409960568E+03  0.76409960568E+03  0.00000000000E+00 0.  1.
          1   -1    0    0  501    0  0.00000000000E+00 -0.00000000000E+00 -0.52777657431E+03  0.52777657431E+03  0.00000000000E+00 0. -1.
        -24    2    1    2    0    0 -0.20575851553E+03 -0.24797091693E+03 -0.28243289097E+03  0.43576474372E+03  0.79350057415E+02 0.  0.
    5000000    2    1    2    0    0  0.20575851553E+03  0.24797091693E+03  0.51875592235E+03  0.85611143627E+03  0.59999411828E+03 0.  0.
        -24    2    4    4    0    0 -0.16888497745E+03  0.13554552351E+02  0.30697913754E+03  0.35965301318E+03  0.80051467900E+02 0.  0.
         24    2    4    4    0    0  0.37464349298E+03  0.23441636458E+03  0.21177678481E+03  0.49645842308E+03  0.79453007817E+02 0.  0.
         11    1    3    3    0    0 -0.83633541996E+02 -0.50865677476E+02 -0.62235751054E+02  0.11599644478E+03  0.00000000000E+00 0. -1.
        -12    1    3    3    0    0 -0.12212497353E+03 -0.19710523946E+03 -0.22019713992E+03  0.31976829894E+03  0.00000000000E+00 0.  1.
         11    1    5    5    0    0 -0.87483964144E+02 -0.30574067190E+01  0.82475425697E+02  0.12027047668E+03  0.00000000000E+00 0. -1.
        -12    1    5    5    0    0 -0.81401013303E+02  0.16611959070E+02  0.22450371184E+03  0.23938253650E+03  0.00000000000E+00 0.  1.
          4    1    6    6  502    0  0.75698296075E+02  0.15840052560E+02  0.22397824935E+02  0.80515848475E+02  0.00000000000E+00 0. -1.
         -1    1    6    6    0  502  0.29894519690E+03  0.21857631202E+03  0.18937895988E+03  0.41594257461E+03  0.00000000000E+00 0.  1.
<mgrwt>
<rscale>  0 0.47402161E+03</rscale>
<asrwt>0</asrwt>
<pdfrwt beam="1">  1        1 0.81196396E-01 0.47402161E+03</pdfrwt>
<pdfrwt beam="2">  1       -2 0.11755379E+00 0.47402161E+03</pdfrwt>
<totfact> 0.21086813E+01</totfact>
</mgrwt>
</event>
<event>
12    3  0.2212098E-007  0.9092663E+03  0.7818608E-02  0.9414072E-01
         -2   -1    0    0    0  501 -0.00000000000E+00  0.00000000000E+00  0.97302625562E+03  0.97302625562E+03  0.00000000000E+00 0.  1.
          1   -1    0    0  501    0  0.00000000000E+00 -0.00000000000E+00 -0.10234517630E+04  0.10234517630E+04  0.00000000000E+00 0. -1.
        -24    2    1    2    0    0 -0.48426200392E+02  0.87373398500E+03  0.21097428678E+03  0.90362309657E+03  0.79173085932E+02 0.  0.
    5000000    2    1    2    0    0  0.48426200392E+02 -0.87373398500E+03 -0.26139979417E+03  0.10928549221E+04  0.60020484406E+03 0.  0.
        -24    2    4    4    0    0 -0.13548598359E+03 -0.32288298504E+03 -0.34811839624E+03  0.50009351560E+03  0.79355105486E+02 0.  0.
         24    2    4    4    0    0  0.18391218398E+03 -0.55085099996E+03  0.86718602076E+02  0.59276140645E+03  0.81150806912E+02 0.  0.
         11    1    5    5    0    0 -0.43670555340E+02 -0.32772336194E+02 -0.58136170534E+02  0.79755612641E+02  0.00000000000E+00 0. -1.
        -12    1    5    5    0    0 -0.91815428245E+02 -0.29011064885E+03 -0.28998222571E+03  0.42033790296E+03  0.00000000000E+00 0.  1.
         13    1    3    3    0    0  0.19680335308E+02  0.34176919778E+03  0.83967206255E+02  0.35248261216E+03  0.00000000000E+00 0. -1.
        -14    1    3    3    0    0 -0.68106535700E+02  0.53196478722E+03  0.12700708053E+03  0.55114048440E+03  0.00000000000E+00 0.  1.
          2    1    6    6  502    0  0.25335646604E+02 -0.58836336329E+02  0.35639002406E+02  0.73305852112E+02  0.00000000000E+00 0. -1.
         -1    1    6    6    0  502  0.15857653737E+03 -0.49201466363E+03  0.51079599671E+02  0.51945555434E+03  0.00000000000E+00 0.  1.
<mgrwt>
<rscale>  0 0.90926629E+03</rscale>
<asrwt>0</asrwt>
<pdfrwt beam="1">  1        1 0.15745412E+00 0.90926629E+03</pdfrwt>
<pdfrwt beam="2">  1       -2 0.14969635E+00 0.90926629E+03</pdfrwt>
<totfact> 0.38539695E+00</totfact>
</mgrwt>
</event>
<event>
12    3  0.2212098E-007  0.8649758E+03  0.7818608E-02  0.9470455E-01
          1   -1    0    0  501    0  0.00000000000E+00  0.00000000000E+00  0.14358468469E+04  0.14358468469E+04  0.00000000000E+00 0. -1.
         -2   -1    0    0    0  501 -0.00000000000E+00 -0.00000000000E+00 -0.69433720407E+03  0.69433720407E+03  0.00000000000E+00 0.  1.
        -24    2    1    2    0    0  0.31418076793E+03  0.76683447210E+03  0.72977037580E+03  0.11070671290E+04  0.79297946336E+02 0.  0.
    5000000    2    1    2    0    0 -0.31418076793E+03 -0.76683447210E+03  0.11739267066E+02  0.10231169220E+04  0.59990479501E+03 0.  0.
        -24    2    4    4    0    0 -0.35803743961E+03 -0.74695146410E+03  0.15994461403E+03  0.84797867479E+03  0.85780274345E+02 0.  0.
         24    2    4    4    0    0  0.43856671675E+02 -0.19883007997E+02 -0.14820534696E+03  0.17513824716E+03  0.79936469112E+02 0.  0.
         11    1    3    3    0    0  0.23214845713E+03  0.46646207947E+03  0.44952884108E+03  0.68815402105E+03  0.00000000000E+00 0. -1.
        -12    1    3    3    0    0  0.82032310803E+02  0.30037239263E+03  0.28024153472E+03  0.41891310799E+03  0.00000000000E+00 0.  1.
         13    1    5    5    0    0 -0.14818629286E+03 -0.31998348973E+03  0.11114096559E+03  0.36973088229E+03  0.00000000000E+00 0. -1.
        -14    1    5    5    0    0 -0.20985114674E+03 -0.42696797437E+03  0.48803648444E+02  0.47824779250E+03  0.00000000000E+00 0.  1.
          2    1    6    6  502    0  0.52163225167E+02 -0.26528912141E+02 -0.51818461477E+02  0.78166093602E+02  0.00000000000E+00 0. -1.
         -1    1    6    6    0  502 -0.83065534922E+01  0.66459041439E+01 -0.96386885486E+02  0.96972153562E+02  0.00000000000E+00 0.  1.
<mgrwt>
<rscale>  0 0.86497578E+03</rscale>
<asrwt>0</asrwt>
<pdfrwt beam="1">  1        1 0.22089951E+00 0.86497578E+03</pdfrwt>
<pdfrwt beam="2">  1       -2 0.10682111E+00 0.86497578E+03</pdfrwt>
<totfact> 0.45575854E+00</totfact>
</mgrwt>
</event>
<event>
12    3  0.2212098E-007  0.1053974E+04  0.7818608E-02  0.9251251E-01
          1   -1    0    0  501    0  0.00000000000E+00  0.00000000000E+00  0.14186293281E+04  0.14186293281E+04  0.00000000000E+00 0. -1.
         -2   -1    0    0    0  501 -0.00000000000E+00 -0.00000000000E+00 -0.91896108168E+03  0.91896108168E+03  0.00000000000E+00 0.  1.
        -24    2    1    2    0    0 -0.41121440737E+03 -0.96386400874E+03  0.59847497197E+02  0.10525649389E+04  0.78613684893E+02 0.  0.
    5000000    2    1    2    0    0  0.41121440737E+03  0.96386400874E+03  0.43982074926E+03  0.12850254710E+04  0.59976416478E+03 0.  0.
        -24    2    4    4    0    0  0.37724063555E+03  0.78997409671E+03  0.94405494144E+02  0.88409112180E+03  0.79593616168E+02 0.  0.
         24    2    4    4    0    0  0.33973771820E+02  0.17388991202E+03  0.34541525512E+03  0.40093434915E+03  0.10022342634E+03 0.  0.
         13    1    5    5    0    0  0.24406779736E+03  0.58804484852E+03  0.55567354050E+02  0.63910371961E+03  0.00000000000E+00 0. -1.
        -14    1    5    5    0    0  0.13317283819E+03  0.20192924819E+03  0.38838140095E+02  0.24498740219E+03  0.00000000000E+00 0.  1.
         13    1    3    3    0    0 -0.18639108619E+03 -0.50691434885E+03  0.26721407599E+01  0.54010270728E+03  0.00000000000E+00 0. -1.
        -14    1    3    3    0    0 -0.22482332119E+03 -0.45694965989E+03  0.57175356437E+02  0.51246223159E+03  0.00000000000E+00 0.  1.
          2    1    6    6  502    0  0.18994094884E+02  0.15374001966E+03  0.34218948183E+03  0.37562003509E+03  0.00000000000E+00 0. -1.
         -1    1    6    6    0  502  0.14979676935E+02  0.20149892363E+02  0.32257732931E+01  0.25314314067E+02  0.00000000000E+00 0.  1.
<mgrwt>
<rscale>  0 0.10539742E+04</rscale>
<asrwt>0</asrwt>
<pdfrwt beam="1">  1        1 0.21825067E+00 0.10539742E+04</pdfrwt>
<pdfrwt beam="2">  1       -2 0.14137863E+00 0.10539742E+04</pdfrwt>
<totfact> 0.22701696E+00</totfact>
</mgrwt>
</event>
<event>
12    3  0.2212098E-007  0.5818902E+03  0.7818608E-02  0.9943707E-01
          1   -1    0    0  501    0  0.00000000000E+00  0.00000000000E+00  0.18192601952E+04  0.18192601952E+04  0.00000000000E+00 0. -1.
         -2   -1    0    0    0  501 -0.00000000000E+00 -0.00000000000E+00 -0.23770913298E+03  0.23770913298E+03  0.00000000000E+00 0.  1.
        -24    2    1    2    0    0 -0.18550351657E+03 -0.38784798201E+03  0.10783487828E+04  0.11636021398E+04  0.79348791135E+02 0.  0.
    5000000    2    1    2    0    0  0.18550351657E+03  0.38784798201E+03  0.50320227947E+03  0.89336718840E+03  0.60004565445E+03 0.  0.
        -24    2    4    4    0    0  0.34898605451E+03  0.61353986076E+02  0.27613353222E+03  0.45601591028E+03  0.78391357699E+02 0.  0.
         24    2    4    4    0    0 -0.16348253794E+03  0.32649399594E+03  0.22706874726E+03  0.43735127812E+03  0.79944073590E+02 0.  0.
         11    1    3    3    0    0 -0.90783668091E+02 -0.14513420654E+03  0.34063979051E+03  0.38123625114E+03  0.00000000000E+00 0. -1.
        -12    1    3    3    0    0 -0.94719848478E+02 -0.24271377547E+03  0.73770899227E+03  0.78236588868E+03  0.00000000000E+00 0.  1.
         11    1    5    5    0    0  0.15191382243E+03  0.65201847761E+02  0.13767812575E+03  0.21513799457E+03  0.00000000000E+00 0. -1.
        -12    1    5    5    0    0  0.19707223208E+03 -0.38478616856E+01  0.13845540647E+03  0.24087791570E+03  0.00000000000E+00 0.  1.
          2    1    6    6  502    0 -0.99531629157E+02  0.13492729521E+03  0.13563341864E+03  0.21565793389E+03  0.00000000000E+00 0. -1.
         -1    1    6    6    0  502 -0.63950908780E+02  0.19156670072E+03  0.91435328619E+02  0.22169334424E+03  0.00000000000E+00 0.  1.
<mgrwt>
<rscale>  0 0.58189022E+03</rscale>
<asrwt>0</asrwt>
<pdfrwt beam="1">  1        1 0.27988618E+00 0.58189022E+03</pdfrwt>
<pdfrwt beam="2">  1       -2 0.36570637E-01 0.58189022E+03</pdfrwt>
<totfact> 0.25870347E+01</totfact>
</mgrwt>
</event>
<event>
12    3  0.2212098E-007  0.2453511E+04  0.7818608E-02  0.8419737E-01
          1   -1    0    0  501    0  0.00000000000E+00  0.00000000000E+00  0.21659335931E+04  0.21659335931E+04  0.00000000000E+00 0. -1.
         -2   -1    0    0    0  501 -0.00000000000E+00 -0.00000000000E+00 -0.29575641415E+04  0.29575641415E+04  0.00000000000E+00 0.  1.
        -24    2    1    2    0    0  0.99818857514E+03 -0.22039791744E+04  0.22510912318E+03  0.24313309029E+04  0.82408793296E+02 0.  0.
    5000000    2    1    2    0    0 -0.99818857514E+03  0.22039791744E+04 -0.10167396715E+04  0.26921668317E+04  0.60008170860E+03 0.  0.
        -24    2    4    4    0    0 -0.96524199933E+03  0.15254111479E+04 -0.69158705159E+03  0.19347494759E+04  0.79947464334E+02 0.  0.
         24    2    4    4    0    0 -0.32946575810E+02  0.67856802655E+03 -0.32515261992E+03  0.75741735580E+03  0.80104813301E+02 0.  0.
         13    1    5    5    0    0 -0.35515778133E+03  0.50092649337E+03 -0.21392592256E+03  0.65025279834E+03  0.00000000000E+00 0. -1.
        -14    1    5    5    0    0 -0.61008421800E+03  0.10244846545E+04 -0.47766112903E+03  0.12844966775E+04  0.00000000000E+00 0.  1.
         13    1    3    3    0    0  0.65105195705E+03 -0.15222857838E+04  0.13825800952E+03  0.16614264761E+04  0.00000000000E+00 0. -1.
        -14    1    3    3    0    0  0.34713661809E+03 -0.68169339069E+03  0.86851113658E+02  0.76990442684E+03  0.00000000000E+00 0.  1.
          2    1    6    6  502    0 -0.31035671846E+02  0.35417294813E+03 -0.12835691563E+03  0.37799098918E+03  0.00000000000E+00 0. -1.
         -1    1    6    6    0  502 -0.19109039639E+01  0.32439507842E+03 -0.19679570429E+03  0.37942636662E+03  0.00000000000E+00 0.  1.
<mgrwt>
<rscale>  0 0.24535105E+04</rscale>
<asrwt>0</asrwt>
<pdfrwt beam="1">  1        1 0.33322055E+00 0.24535105E+04</pdfrwt>
<pdfrwt beam="2">  1       -2 0.45500987E+00 0.24535105E+04</pdfrwt>
<totfact> 0.54553732E-03</totfact>
</mgrwt>
</event>
<event>
12    3  0.2212098E-007  0.1315265E+04  0.7818608E-02  0.9017547E-01
         -2   -1    0    0    0  501 -0.00000000000E+00  0.00000000000E+00  0.90020476167E+03  0.90020476167E+03  0.00000000000E+00 0.  1.
          1   -1    0    0  501    0  0.00000000000E+00 -0.00000000000E+00 -0.26152592431E+04  0.26152592431E+04  0.00000000000E+00 0. -1.
        -24    2    1    2    0    0  0.32381861628E+03  0.12437214899E+04  0.29275775505E+01  0.12876067435E+04  0.78872774418E+02 0.  0.
    5000000    2    1    2    0    0 -0.32381861628E+03 -0.12437214899E+04 -0.17179820589E+04  0.22278572613E+04  0.60015329797E+03 0.  0.
        -24    2    4    4    0    0 -0.40801539594E+03 -0.10813511154E+04 -0.16497464265E+04  0.20158817361E+04  0.79492791524E+02 0.  0.
         24    2    4    4    0    0  0.84196779656E+02 -0.16237037448E+03 -0.68235632402E+02  0.21197552517E+03  0.82609233929E+02 0.  0.
         13    1    3    3    0    0  0.15113138085E+03  0.43646400078E+03  0.11742369498E+02  0.46203831172E+03  0.00000000000E+00 0. -1.
        -14    1    3    3    0    0  0.17268723543E+03  0.80725748909E+03 -0.88147919475E+01  0.82556843177E+03  0.00000000000E+00 0.  1.
         13    1    5    5    0    0 -0.20531316502E+03 -0.53709512974E+03 -0.88979463791E+03  0.10594145420E+04  0.00000000000E+00 0. -1.
        -14    1    5    5    0    0 -0.20270223092E+03 -0.54425598565E+03 -0.75995178863E+03  0.95646719409E+03  0.00000000000E+00 0.  1.
          2    1    6    6  502    0  0.76105642703E+02 -0.10655720619E+03 -0.81240273521E+02  0.15409895873E+03  0.00000000000E+00 0. -1.
         -1    1    6    6    0  502  0.80911369527E+01 -0.55813168292E+02  0.13004641119E+02  0.57876566438E+02  0.00000000000E+00 0.  1.
<mgrwt>
<rscale>  0 0.13152646E+04</rscale>
<asrwt>0</asrwt>
<pdfrwt beam="1">  1        1 0.40234758E+00 0.13152646E+04</pdfrwt>
<pdfrwt beam="2">  1       -2 0.13849304E+00 0.13152646E+04</pdfrwt>
<totfact> 0.35354165E-01</totfact>
</mgrwt>
</event>
<event>
12    3  0.2212098E-007  0.7090746E+03  0.7818608E-02  0.9701838E-01
         -2   -1    0    0    0  501 -0.00000000000E+00  0.00000000000E+00  0.86221822611E+03  0.86221822611E+03  0.00000000000E+00 0.  1.
          1   -1    0    0  501    0  0.00000000000E+00 -0.00000000000E+00 -0.79039518469E+03  0.79039518469E+03  0.00000000000E+00 0. -1.
        -24    2    1    2    0    0 -0.60063308150E+03 -0.61305630904E+02 -0.35015566724E+03  0.70252706794E+03  0.80104999328E+02 0.  0.
    5000000    2    1    2    0    0  0.60063308150E+03  0.61305630904E+02  0.42197870866E+03  0.95008634286E+03  0.60006628746E+03 0.  0.
        -24    2    4    4    0    0  0.18278123625E+03 -0.23435404036E+03  0.48751237039E+02  0.31165898154E+03  0.80148868404E+02 0.  0.
         24    2    4    4    0    0  0.41785184525E+03  0.29565967126E+03  0.37322747162E+03  0.63842736131E+03  0.79220857781E+02 0.  0.
         13    1    5    5    0    0  0.14609563814E+03 -0.19256726179E+03  0.70755601904E+02  0.25185797784E+03  0.00000000000E+00 0. -1.
        -14    1    5    5    0    0  0.36685598104E+02 -0.41786778569E+02 -0.22004364865E+02  0.59801003708E+02  0.00000000000E+00 0.  1.
         13    1    3    3    0    0 -0.50655049538E+03 -0.26407436030E+02 -0.30984905271E+03  0.59438808241E+03  0.00000000000E+00 0. -1.
        -14    1    3    3    0    0 -0.94082586119E+02 -0.34898194874E+02 -0.40306614526E+02  0.10813898553E+03  0.00000000000E+00 0.  1.
          2    1    6    6  502    0  0.26260853609E+03  0.16334945915E+03  0.18208667775E+03  0.35888974246E+03  0.00000000000E+00 0. -1.
         -1    1    6    6    0  502  0.15524330916E+03  0.13231021212E+03  0.19114079387E+03  0.27953761885E+03  0.00000000000E+00 0.  1.
<mgrwt>
<rscale>  0 0.70907460E+03</rscale>
<asrwt>0</asrwt>
<pdfrwt beam="1">  1        1 0.12159926E+00 0.70907460E+03</pdfrwt>
<pdfrwt beam="2">  1       -2 0.13264896E+00 0.70907460E+03</pdfrwt>
<totfact> 0.83691230E+00</totfact>
</mgrwt>
</event>
<event>
12    3  0.2212098E-007  0.3942722E+03  0.7818608E-02  0.1045781E+00
         -2   -1    0    0    0  501 -0.00000000000E+00  0.00000000000E+00  0.27463243273E+03  0.27463243273E+03  0.00000000000E+00 0.  1.
          1   -1    0    0  501    0  0.00000000000E+00 -0.00000000000E+00 -0.80012624775E+03  0.80012624775E+03  0.00000000000E+00 0. -1.
        -24    2    1    2    0    0 -0.14632299324E+03 -0.14028564810E+03 -0.35861634781E+03  0.41984148467E+03  0.81059890938E+02 0.  0.
    5000000    2    1    2    0    0  0.14632299324E+03  0.14028564810E+03 -0.16687746721E+03  0.65491719581E+03  0.59998163546E+03 0.  0.
        -24    2    4    4    0    0 -0.18846395369E+03 -0.15792608014E+02  0.56219949325E+02  0.21468862532E+03  0.84631287548E+02 0.  0.
         24    2    4    4    0    0  0.33478694693E+03  0.15607825612E+03 -0.22309741653E+03  0.44022857049E+03  0.87097733277E+02 0.  0.
         11    1    3    3    0    0 -0.12676847734E+03 -0.96314057884E+02 -0.32255448290E+03  0.35970548930E+03  0.00000000000E+00 0. -1.
        -12    1    3    3    0    0 -0.19554515900E+02 -0.43971590220E+02 -0.36061864912E+02  0.60135995373E+02  0.00000000000E+00 0.  1.
         13    1    5    5    0    0 -0.14541110293E+03  0.23301482101E+02  0.52759048776E+02  0.15643166288E+03  0.00000000000E+00 0. -1.
        -14    1    5    5    0    0 -0.43052850763E+02 -0.39094090115E+02  0.34609005496E+01  0.58256962445E+02  0.00000000000E+00 0.  1.
          2    1    6    6  502    0  0.16443469081E+03  0.38726193556E+02 -0.13108740240E+03  0.21382795111E+03  0.00000000000E+00 0. -1.
         -1    1    6    6    0  502  0.17035225612E+03  0.11735206256E+03 -0.92010014137E+02  0.22640061938E+03  0.00000000000E+00 0.  1.
<mgrwt>
<rscale>  0 0.39427220E+03</rscale>
<asrwt>0</asrwt>
<pdfrwt beam="1">  1        1 0.12309635E+00 0.39427220E+03</pdfrwt>
<pdfrwt beam="2">  1       -2 0.42251143E-01 0.39427220E+03</pdfrwt>
<totfact> 0.10787289E+02</totfact>
</mgrwt>
</event>
<event>
12    3  0.3009680E-007  0.6947230E+03  0.7818608E-02  0.9726299E-01
         -2   -1    0    0    0  501 -0.00000000000E+00  0.00000000000E+00  0.52780661543E+03  0.52780661543E+03  0.00000000000E+00 0.  1.
          1   -1    0    0  501    0  0.00000000000E+00 -0.00000000000E+00 -0.11425643496E+04  0.11425643496E+04  0.00000000000E+00 0. -1.
        -24    2    1    2    0    0 -0.25197670354E+03  0.59573844403E+03 -0.39142652782E+03  0.76031215128E+03  0.80394576209E+02 0.  0.
    5000000    2    1    2    0    0  0.25197670354E+03 -0.59573844403E+03 -0.22333120636E+03  0.91005881376E+03  0.59994471741E+03 0.  0.
        -24    2    4    4    0    0  0.21128363116E+03 -0.99544909559E+02 -0.31214450079E+03  0.39786347258E+03  0.79443008674E+02 0.  0.
         24    2    4    4    0    0  0.40693072385E+02 -0.49619353447E+03  0.88813294432E+02  0.51219534118E+03  0.81193081411E+02 0.  0.
         13    1    5    5    0    0  0.37767254144E+02  0.94195604881E+01 -0.74737437964E+02  0.84266115603E+02  0.00000000000E+00 0. -1.
        -14    1    5    5    0    0  0.17351637701E+03 -0.10896447005E+03 -0.23740706282E+03  0.31359735698E+03  0.00000000000E+00 0.  1.
         13    1    3    3    0    0 -0.11152041521E+03  0.24172605427E+03 -0.20660760766E+03  0.33697921578E+03  0.00000000000E+00 0. -1.
        -14    1    3    3    0    0 -0.14045628833E+03  0.35401238976E+03 -0.18481892015E+03  0.42333293550E+03  0.00000000000E+00 0.  1.
          2    1    6    6  502    0 -0.14331435240E+01 -0.12103460154E+03  0.55655734543E+02  0.13322533339E+03  0.00000000000E+00 0. -1.
         -1    1    6    6    0  502  0.42126215909E+02 -0.37515893293E+03  0.33157559890E+02  0.37897000779E+03  0.00000000000E+00 0.  1.
<mgrwt>
<rscale>  0 0.69472299E+03</rscale>
<asrwt>0</asrwt>
<pdfrwt beam="1">  1        1 0.17577913E+00 0.69472299E+03</pdfrwt>
<pdfrwt beam="2">  1       -2 0.81201018E-01 0.69472299E+03</pdfrwt>
<totfact> 0.14262274E+01</totfact>
</mgrwt>
</event>
<event>
12    3  0.2212098E-007  0.5479701E+03  0.7818608E-02  0.1001965E+00
          1   -1    0    0  501    0  0.00000000000E+00  0.00000000000E+00  0.99236829003E+03  0.99236829003E+03  0.00000000000E+00 0. -1.
         -2   -1    0    0    0  501 -0.00000000000E+00 -0.00000000000E+00 -0.43422122278E+03  0.43422122278E+03  0.00000000000E+00 0.  1.
        -24    2    1    2    0    0 -0.37891446935E+03 -0.67759947369E+02  0.59580804807E+03  0.71274815538E+03  0.69678671780E+02 0.  0.
    5000000    2    1    2    0    0  0.37891446935E+03  0.67759947369E+02 -0.37660980818E+02  0.71384135743E+03  0.59998629030E+03 0.  0.
        -24    2    4    4    0    0  0.45200925878E+03  0.23242172496E+03 -0.48141370559E+02  0.51655482755E+03  0.78607061111E+02 0.  0.
         24    2    4    4    0    0 -0.73094789425E+02 -0.16466177759E+03  0.10480389741E+02  0.19728652987E+03  0.79723190234E+02 0.  0.
         13    1    5    5    0    0  0.25463807950E+03  0.12053452092E+03 -0.64744066903E+02  0.28906905138E+03  0.00000000000E+00 0. -1.
        -14    1    5    5    0    0  0.19737117928E+03  0.11188720403E+03  0.16602696344E+02  0.22748577618E+03  0.00000000000E+00 0.  1.
         13    1    3    3    0    0 -0.21827665876E+03 -0.45465226199E+01  0.32057161661E+03  0.38785503993E+03  0.00000000000E+00 0. -1.
        -14    1    3    3    0    0 -0.16063781059E+03 -0.63213424749E+02  0.27523643146E+03  0.32489311544E+03  0.00000000000E+00 0.  1.
          2    1    6    6  502    0 -0.76426302670E+02 -0.76418596908E+02  0.13571295958E+02  0.10892640528E+03  0.00000000000E+00 0. -1.
         -1    1    6    6    0  502  0.33315132456E+01 -0.88243180680E+02 -0.30909062163E+01  0.88360124594E+02  0.00000000000E+00 0.  1.
<mgrwt>
<rscale>  0 0.54797007E+03</rscale>
<asrwt>0</asrwt>
<pdfrwt beam="1">  1        1 0.15267204E+00 0.54797007E+03</pdfrwt>
<pdfrwt beam="2">  1       -2 0.66803265E-01 0.54797007E+03</pdfrwt>
<totfact> 0.28972543E+01</totfact>
</mgrwt>
</event>
<event>
12    3  0.2212098E-007  0.7364784E+03  0.7818608E-02  0.9656806E-01
         -2   -1    0    0    0  501 -0.00000000000E+00  0.00000000000E+00  0.54673739549E+03  0.54673739549E+03  0.00000000000E+00 0.  1.
          3   -1    0    0  501    0  0.00000000000E+00 -0.00000000000E+00 -0.10943613795E+04  0.10943613795E+04  0.00000000000E+00 0. -1.
        -24    2    1    2    0    0 -0.22761123443E+03  0.58053373491E+03 -0.22874871005E+02  0.62907016629E+03  0.79873168077E+02 0.  0.
    5000000    2    1    2    0    0  0.22761123443E+03 -0.58053373491E+03 -0.52474911299E+03  0.10120286087E+04  0.60001165140E+03 0.  0.
        -24    2    4    4    0    0  0.29256768400E+03 -0.66173275971E+03 -0.48723697642E+03  0.87585173346E+03  0.78932204004E+02 0.  0.
         24    2    4    4    0    0 -0.64956449571E+02  0.81199024797E+02 -0.37512136572E+02  0.13617687523E+03  0.79525838489E+02 0.  0.
         11    1    3    3    0    0 -0.14530918522E+03  0.37339754080E+03  0.23672331224E+02  0.40137371868E+03  0.00000000000E+00 0. -1.
        -12    1    3    3    0    0 -0.82302049209E+02  0.20713619412E+03 -0.46547202230E+02  0.22769644761E+03  0.00000000000E+00 0.  1.
         13    1    5    5    0    0  0.14285471465E+03 -0.31898454232E+03 -0.18803963756E+03  0.39688476039E+03  0.00000000000E+00 0. -1.
        -14    1    5    5    0    0  0.14971296935E+03 -0.34274821739E+03 -0.29919733886E+03  0.47896697307E+03  0.00000000000E+00 0.  1.
          4    1    6    6  502    0 -0.22618433626E+02 -0.10443402550E+02  0.69577317368E+01  0.25866353192E+02  0.00000000000E+00 0. -1.
         -3    1    6    6    0  502 -0.42338015945E+02  0.91642427347E+02 -0.44469868309E+02  0.11031052204E+03  0.00000000000E+00 0.  1.
<mgrwt>
<rscale>  0 0.73647839E+03</rscale>
<asrwt>0</asrwt>
<pdfrwt beam="1">  1        3 0.16836329E+00 0.73647839E+03</pdfrwt>
<pdfrwt beam="2">  1       -2 0.84113445E-01 0.73647839E+03</pdfrwt>
<totfact> 0.12243543E+00</totfact>
</mgrwt>
</event>
<event>
12    3  0.2212098E-007  0.7128940E+03  0.7818608E-02  0.9695432E-01
          1   -1    0    0  501    0  0.00000000000E+00  0.00000000000E+00  0.17717834311E+04  0.17717834311E+04  0.00000000000E+00 0. -1.
         -2   -1    0    0    0  501 -0.00000000000E+00 -0.00000000000E+00 -0.29785878840E+03  0.29785878840E+03  0.00000000000E+00 0.  1.
        -24    2    1    2    0    0  0.67364354581E+02  0.59569771906E+03  0.60705283999E+03  0.85697208086E+03  0.80587021774E+02 0.  0.
    5000000    2    1    2    0    0 -0.67364354581E+02 -0.59569771906E+03  0.86687180268E+03  0.12126701386E+04  0.59975696246E+03 0.  0.
        -24    2    4    4    0    0 -0.32302584624E+01 -0.68249621152E+03  0.82124774126E+03  0.10708188197E+04  0.79959857222E+02 0.  0.
         24    2    4    4    0    0 -0.64134096119E+02  0.86798492460E+02  0.45624061416E+02  0.14185131891E+03  0.79956745298E+02 0.  0.
         11    1    5    5    0    0 -0.41099424040E+02 -0.31965349136E+03  0.37740101380E+03  0.49628524299E+03  0.00000000000E+00 0. -1.
        -12    1    5    5    0    0  0.37869165578E+02 -0.36284272016E+03  0.44384672746E+03  0.57453357670E+03  0.00000000000E+00 0.  1.
         13    1    3    3    0    0 -0.12793939107E+02  0.21511131122E+03  0.20056886415E+03  0.29438823067E+03  0.00000000000E+00 0. -1.
        -14    1    3    3    0    0  0.80158293689E+02  0.38058640784E+03  0.40648397584E+03  0.56258385019E+03  0.00000000000E+00 0.  1.
          4    1    6    6  502    0 -0.67435341368E+02  0.24305318750E+02  0.26324310628E+02  0.76362576665E+02  0.00000000000E+00 0. -1.
         -3    1    6    6    0  502  0.33012452487E+01  0.62493173711E+02  0.19299750789E+02  0.65488742247E+02  0.00000000000E+00 0.  1.
<mgrwt>
<rscale>  0 0.71289404E+03</rscale>
<asrwt>0</asrwt>
<pdfrwt beam="1">  1        1 0.27258206E+00 0.71289404E+03</pdfrwt>
<pdfrwt beam="2">  1       -2 0.45824430E-01 0.71289404E+03</pdfrwt>
<totfact> 0.17560600E+01</totfact>
</mgrwt>
</event>
<event>
12    3  0.2212098E-007  0.3996178E+03  0.7818608E-02  0.1043912E+00
         -2   -1    0    0    0  501 -0.00000000000E+00  0.00000000000E+00  0.33309203679E+03  0.33309203679E+03  0.00000000000E+00 0.  1.
          1   -1    0    0  501    0  0.00000000000E+00 -0.00000000000E+00 -0.73442952595E+03  0.73442952595E+03  0.00000000000E+00 0. -1.
        -24    2    1    2    0    0  0.72125325465E+02  0.17530609021E+03  0.13093920807E+03  0.24323331329E+03  0.77994106481E+02 0.  0.
    5000000    2    1    2    0    0 -0.72125325465E+02 -0.17530609021E+03 -0.53227669722E+03  0.82428824945E+03  0.60016526719E+03 0.  0.
        -24    2    4    4    0    0 -0.37236535412E+02 -0.38458220851E+03 -0.27065466377E+03  0.47812706276E+03  0.77855677092E+02 0.  0.
         24    2    4    4    0    0 -0.34888790054E+02  0.20927611830E+03 -0.26162203346E+03  0.34616118669E+03  0.79798229392E+02 0.  0.
         11    1    5    5    0    0 -0.15185365010E+02 -0.21133872591E+03 -0.19444386950E+03  0.28758141589E+03  0.00000000000E+00 0. -1.
        -12    1    5    5    0    0 -0.22051170401E+02 -0.17324348260E+03 -0.76210794270E+02  0.19054564687E+03  0.00000000000E+00 0.  1.
         11    1    3    3    0    0  0.43552325739E+02  0.91354375459E+02  0.11489621870E+03  0.15311292586E+03  0.00000000000E+00 0. -1.
        -12    1    3    3    0    0  0.28572999726E+02  0.83951714750E+02  0.16042989367E+02  0.90120387430E+02  0.00000000000E+00 0.  1.
          2    1    6    6  502    0 -0.55681971797E+02  0.14913941667E+03 -0.15622091413E+03  0.22304264525E+03  0.00000000000E+00 0. -1.
         -1    1    6    6    0  502  0.20793181743E+02  0.60136701633E+02 -0.10540111933E+03  0.12311854144E+03  0.00000000000E+00 0.  1.
<mgrwt>
<rscale>  0 0.39961781E+03</rscale>
<asrwt>0</asrwt>
<pdfrwt beam="1">  1        1 0.11298916E+00 0.39961781E+03</pdfrwt>
<pdfrwt beam="2">  1       -2 0.51244929E-01 0.39961781E+03</pdfrwt>
<totfact> 0.83802421E+01</totfact>
</mgrwt>
</event>
<event>
12    3  0.2212098E-007  0.4946416E+03  0.7818608E-02  0.1015187E+00
         -2   -1    0    0    0  501 -0.00000000000E+00  0.00000000000E+00  0.29962934423E+03  0.29962934423E+03  0.00000000000E+00 0.  1.
          1   -1    0    0  501    0  0.00000000000E+00 -0.00000000000E+00 -0.13655853496E+04  0.13655853496E+04  0.00000000000E+00 0. -1.
        -24    2    1    2    0    0 -0.98071657201E+02  0.41884671096E+03 -0.73724190589E+03  0.85732145285E+03  0.80148789644E+02 0.  0.
    5000000    2    1    2    0    0  0.98071657201E+02 -0.41884671096E+03 -0.32871409943E+03  0.80789324094E+03  0.59965649530E+03 0.  0.
        -24    2    4    4    0    0 -0.69237006070E+02  0.11348561993E+02 -0.32420071772E+03  0.34049567901E+03  0.76867738265E+02 0.  0.
         24    2    4    4    0    0  0.16730866327E+03 -0.43019527295E+03 -0.45133817121E+01  0.46739756192E+03  0.73348132902E+02 0.  0.
         11    1    5    5    0    0 -0.76620945947E+02  0.13435833606E+02 -0.17998833281E+03  0.19607929756E+03  0.00000000000E+00 0. -1.
        -12    1    5    5    0    0  0.73839398778E+01 -0.20872716136E+01 -0.14421238491E+03  0.14441638145E+03  0.00000000000E+00 0.  1.
         13    1    3    3    0    0 -0.57782082616E+02  0.36514792940E+03 -0.64122917429E+03  0.74016662541E+03  0.00000000000E+00 0. -1.
        -14    1    3    3    0    0 -0.40289574585E+02  0.53698781560E+02 -0.96012731603E+02  0.11715482743E+03  0.00000000000E+00 0.  1.
          2    1    6    6  502    0  0.21472386317E+02 -0.13131736633E+02  0.40234594186E+01  0.25489097804E+02  0.00000000000E+00 0. -1.
         -1    1    6    6    0  502  0.14583627695E+03 -0.41706353632E+03 -0.85368411307E+01  0.44190846412E+03  0.00000000000E+00 0.  1.
<mgrwt>
<rscale>  0 0.49464155E+03</rscale>
<asrwt>0</asrwt>
<pdfrwt beam="1">  1        1 0.21009006E+00 0.49464155E+03</pdfrwt>
<pdfrwt beam="2">  1       -2 0.46096822E-01 0.49464155E+03</pdfrwt>
<totfact> 0.33777763E+01</totfact>
</mgrwt>
</event>
<event>
12    3  0.2212098E-007  0.7486501E+03  0.7818608E-02  0.9637470E-01
          1   -1    0    0  501    0  0.00000000000E+00  0.00000000000E+00  0.15244554675E+04  0.15244554675E+04  0.00000000000E+00 0. -1.
         -2   -1    0    0    0  501 -0.00000000000E+00 -0.00000000000E+00 -0.43172881157E+03  0.43172881157E+03  0.00000000000E+00 0.  1.
        -24    2    1    2    0    0  0.65125039338E+03  0.24201319246E+03  0.39817786536E+03  0.80515605132E+03  0.83864141910E+02 0.  0.
    5000000    2    1    2    0    0 -0.65125039338E+03 -0.24201319246E+03  0.69454879057E+03  0.11510282278E+04  0.59980871819E+03 0.  0.
        -24    2    4    4    0    0 -0.48401270447E+03  0.18296195434E+02  0.66975546733E+03  0.83034922822E+03  0.79400289245E+02 0.  0.
         24    2    4    4    0    0 -0.16723768891E+03 -0.26030938789E+03  0.24793323244E+02  0.32067899955E+03  0.80566058955E+02 0.  0.
         11    1    5    5    0    0 -0.13482208047E+03 -0.22523239772E+02  0.15093042685E+03  0.20362780621E+03  0.00000000000E+00 0. -1.
        -12    1    5    5    0    0 -0.34919062400E+03  0.40819435206E+02  0.51882504047E+03  0.62672142201E+03  0.00000000000E+00 0.  1.
         13    1    3    3    0    0  0.11740787589E+03  0.78676116522E+02  0.72682950245E+02  0.15892561747E+03  0.00000000000E+00 0. -1.
        -14    1    3    3    0    0  0.53384251750E+03  0.16333707593E+03  0.32549491512E+03  0.64623043385E+03  0.00000000000E+00 0.  1.
          4    1    6    6  502    0 -0.99948041669E+02 -0.15120782994E+03 -0.25384738316E+02  0.18302405254E+03  0.00000000000E+00 0. -1.
         -3    1    6    6    0  502 -0.67289647245E+02 -0.10910155795E+03  0.50178061560E+02  0.13765494701E+03  0.00000000000E+00 0.  1.
<mgrwt>
<rscale>  0 0.74865011E+03</rscale>
<asrwt>0</asrwt>
<pdfrwt beam="1">  1        1 0.23453161E+00 0.74865011E+03</pdfrwt>
<pdfrwt beam="2">  1       -2 0.66419818E-01 0.74865011E+03</pdfrwt>
<totfact> 0.11878434E+01</totfact>
</mgrwt>
</event>
<event>
12    3  0.2212098E-007  0.4692313E+03  0.7818608E-02  0.1022137E+00
          1   -1    0    0  501    0  0.00000000000E+00  0.00000000000E+00  0.43192293364E+03  0.43192293364E+03  0.00000000000E+00 0. -1.
         -2   -1    0    0    0  501 -0.00000000000E+00 -0.00000000000E+00 -0.54517610720E+03  0.54517610720E+03  0.00000000000E+00 0.  1.
        -24    2    1    2    0    0 -0.54232198559E+02  0.28546137956E+03 -0.20864154240E+01  0.30115390627E+03  0.79120108391E+02 0.  0.
    5000000    2    1    2    0    0  0.54232198559E+02 -0.28546137956E+03 -0.11116675814E+03  0.67594513457E+03  0.60009536430E+03 0.  0.
        -24    2    4    4    0    0 -0.24066695582E+03 -0.22986146608E+03 -0.12670952839E+03  0.36531243622E+03  0.81492295728E+02 0.  0.
         24    2    4    4    0    0  0.29489915438E+03 -0.55599913483E+02  0.15542770251E+02  0.31063269835E+03  0.78703455752E+02 0.  0.
         11    1    3    3    0    0 -0.17481732840E+02  0.23880121999E+03  0.13263917822E+02  0.23980735011E+03  0.00000000000E+00 0. -1.
        -12    1    3    3    0    0 -0.36750465719E+02  0.46660159568E+02 -0.15350333246E+02  0.61346556156E+02  0.00000000000E+00 0.  1.
         11    1    5    5    0    0 -0.67458996043E+02 -0.33702787990E+02 -0.56922019038E+02  0.94481269661E+02  0.00000000000E+00 0. -1.
        -12    1    5    5    0    0 -0.17320795977E+03 -0.19615867809E+03 -0.69787509348E+02  0.27083116656E+03  0.00000000000E+00 0.  1.
          4    1    6    6  502    0  0.16927006949E+02 -0.12938901405E+02  0.20211250777E+02  0.29367216276E+02  0.00000000000E+00 0. -1.
         -3    1    6    6    0  502  0.27797214743E+03 -0.42661012078E+02 -0.46684805264E+01  0.28126548208E+03  0.00000000000E+00 0.  1.
<mgrwt>
<rscale>  0 0.46923135E+03</rscale>
<asrwt>0</asrwt>
<pdfrwt beam="1">  1        1 0.66449682E-01 0.46923135E+03</pdfrwt>
<pdfrwt beam="2">  1       -2 0.83873247E-01 0.46923135E+03</pdfrwt>
<totfact> 0.61027595E+01</totfact>
</mgrwt>
</event>
<event>
12    3  0.2212098E-007  0.7367448E+03  0.7818608E-02  0.9656378E-01
          1   -1    0    0  501    0  0.00000000000E+00  0.00000000000E+00  0.80011722212E+03  0.80011722212E+03  0.00000000000E+00 0. -1.
         -2   -1    0    0    0  501 -0.00000000000E+00 -0.00000000000E+00 -0.90433767455E+03  0.90433767455E+03  0.00000000000E+00 0.  1.
        -24    2    1    2    0    0 -0.72518471389E+02 -0.62648226020E+03  0.34650821022E+03  0.72409376351E+03  0.80652883120E+02 0.  0.
    5000000    2    1    2    0    0  0.72518471389E+02  0.62648226020E+03 -0.45072866266E+03  0.98036113316E+03  0.60017720136E+03 0.  0.
        -24    2    4    4    0    0  0.23332499793E+03  0.54373879325E+02 -0.22754336431E+03  0.34034420563E+03  0.81615698578E+02 0.  0.
         24    2    4    4    0    0 -0.16080652654E+03  0.57210838088E+03 -0.22318529835E+03  0.64001692753E+03  0.81506145026E+02 0.  0.
         11    1    5    5    0    0  0.14382904792E+03  0.15655207677E+02 -0.85509619331E+02  0.16805884550E+03  0.00000000000E+00 0. -1.
        -12    1    5    5    0    0  0.89495950005E+02  0.38718671649E+02 -0.14203374498E+03  0.17228536013E+03  0.00000000000E+00 0.  1.
         11    1    3    3    0    0  0.14433570400E+02 -0.17705034724E+03  0.10846641797E+03  0.20813485350E+03  0.00000000000E+00 0. -1.
        -12    1    3    3    0    0 -0.86952041789E+02 -0.44943191296E+03  0.23804179225E+03  0.51595891001E+03  0.00000000000E+00 0.  1.
          4    1    6    6  502    0 -0.33796720642E+02  0.19672768597E+03 -0.40622176839E+02  0.20370115858E+03  0.00000000000E+00 0. -1.
         -3    1    6    6    0  502 -0.12700980590E+03  0.37538069490E+03 -0.18256312151E+03  0.43631576895E+03  0.00000000000E+00 0.  1.
<mgrwt>
<rscale>  0 0.73674483E+03</rscale>
<asrwt>0</asrwt>
<pdfrwt beam="1">  1        1 0.12309496E+00 0.73674483E+03</pdfrwt>
<pdfrwt beam="2">  1       -2 0.13912887E+00 0.73674483E+03</pdfrwt>
<totfact> 0.72400327E+00</totfact>
</mgrwt>
</event>
<event>
12    3  0.2212098E-007  0.6126766E+03  0.7818608E-02  0.9879450E-01
         -2   -1    0    0    0  501 -0.00000000000E+00  0.00000000000E+00  0.49970427927E+03  0.49970427927E+03  0.00000000000E+00 0.  1.
          1   -1    0    0  501    0  0.00000000000E+00 -0.00000000000E+00 -0.21975160862E+04  0.21975160862E+04  0.00000000000E+00 0. -1.
        -24    2    1    2    0    0 -0.35298672444E+03 -0.35478671300E+03 -0.18354389648E+04  0.19040020390E+04  0.76904690801E+02 0.  0.
    5000000    2    1    2    0    0  0.35298672444E+03  0.35478671300E+03  0.13762715789E+03  0.79321832650E+03  0.59981733850E+03 0.  0.
        -24    2    4    4    0    0  0.46124275705E+03  0.15474142023E+03 -0.37954466113E+02  0.49468171258E+03  0.81115147781E+02 0.  0.
         24    2    4    4    0    0 -0.10825603260E+03  0.20004529277E+03  0.17558162401E+03  0.29853661392E+03  0.80979722228E+02 0.  0.
         13    1    5    5    0    0  0.39636842536E+03  0.15204927978E+03 -0.53576240557E+02  0.42789873294E+03  0.00000000000E+00 0. -1.
        -14    1    5    5    0    0  0.64874331690E+02  0.26921404499E+01  0.15621774443E+02  0.66782979636E+02  0.00000000000E+00 0.  1.
         13    1    3    3    0    0 -0.16785418449E+03 -0.15246727581E+03 -0.69522363094E+03  0.73127094463E+03  0.00000000000E+00 0. -1.
        -14    1    3    3    0    0 -0.18513253995E+03 -0.20231943719E+03 -0.11402153339E+04  0.11727310944E+04  0.00000000000E+00 0.  1.
          4    1    6    6  502    0 -0.11265689041E+03  0.16634653237E+03  0.12187766454E+03  0.23498278427E+03  0.00000000000E+00 0. -1.
         -3    1    6    6    0  502  0.44008578067E+01  0.33698760397E+02  0.53703959468E+02  0.63553829659E+02  0.00000000000E+00 0.  1.
<mgrwt>
<rscale>  0 0.61267663E+03</rscale>
<asrwt>0</asrwt>
<pdfrwt beam="1">  1        1 0.33807941E+00 0.61267663E+03</pdfrwt>
<pdfrwt beam="2">  1       -2 0.76877579E-01 0.61267663E+03</pdfrwt>
<totfact> 0.31253831E+00</totfact>
</mgrwt>
</event>
<event>
12    3  0.2212098E-007  0.9262756E+03  0.7818608E-02  0.9393319E-01
          1   -1    0    0  501    0  0.00000000000E+00  0.00000000000E+00  0.23555575371E+04  0.23555575371E+04  0.00000000000E+00 0. -1.
         -2   -1    0    0    0  501 -0.00000000000E+00 -0.00000000000E+00 -0.41211656089E+03  0.41211656089E+03  0.00000000000E+00 0.  1.
        -24    2    1    2    0    0  0.48261701257E+03  0.68586202162E+03  0.45671056565E+03  0.95832172776E+03  0.80436929316E+02 0.  0.
    5000000    2    1    2    0    0 -0.48261701257E+03 -0.68586202162E+03  0.14867304106E+04  0.18093523703E+04  0.60005232479E+03 0.  0.
        -24    2    4    4    0    0 -0.60243476112E+03 -0.53806257910E+03  0.12922379662E+04  0.15260153907E+04  0.80031437103E+02 0.  0.
         24    2    4    4    0    0  0.11981774855E+03 -0.14779944252E+03  0.19449244443E+03  0.28333697961E+03  0.79066838782E+02 0.  0.
         11    1    3    3    0    0  0.16122230471E+03  0.21862790448E+03  0.10634167278E+03  0.29171791773E+03  0.00000000000E+00 0. -1.
        -12    1    3    3    0    0  0.32139470786E+03  0.46723411714E+03  0.35036889287E+03  0.66660381003E+03  0.00000000000E+00 0.  1.
         11    1    5    5    0    0 -0.34641855397E+03 -0.31400424704E+03  0.82100936867E+03  0.94480731641E+03  0.00000000000E+00 0. -1.
        -12    1    5    5    0    0 -0.25601620714E+03 -0.22405833206E+03  0.47122859749E+03  0.58120807425E+03  0.00000000000E+00 0.  1.
          2    1    6    6  502    0  0.63731319699E+02 -0.13384479239E+03  0.13970144318E+03  0.20369733132E+03  0.00000000000E+00 0. -1.
         -1    1    6    6    0  502  0.56086428846E+02 -0.13954650134E+02  0.54791001255E+02  0.79639648289E+02  0.00000000000E+00 0.  1.
<mgrwt>
<rscale>  0 0.92627556E+03</rscale>
<asrwt>0</asrwt>
<pdfrwt beam="1">  1        1 0.36239346E+00 0.92627556E+03</pdfrwt>
<pdfrwt beam="2">  1       -2 0.63402549E-01 0.92627556E+03</pdfrwt>
<totfact> 0.35286581E+00</totfact>
</mgrwt>
</event>
<event>
12    3  0.2212098E-007  0.1024766E+04  0.7818608E-02  0.9281792E-01
         -2   -1    0    0    0  501 -0.00000000000E+00  0.00000000000E+00  0.41901994404E+03  0.41901994404E+03  0.00000000000E+00 0.  1.
          1   -1    0    0  501    0  0.00000000000E+00 -0.00000000000E+00 -0.29598874338E+04  0.29598874338E+04  0.00000000000E+00 0. -1.
        -24    2    1    2    0    0  0.59521154006E+03 -0.74659622901E+03 -0.58932952592E+03  0.11249790108E+04  0.81152806076E+02 0.  0.
    5000000    2    1    2    0    0 -0.59521154006E+03  0.74659622901E+03 -0.19515379639E+04  0.22539283671E+04  0.60000829414E+03 0.  0.
        -24    2    4    4    0    0 -0.66670623360E+03  0.71644578037E+03 -0.15341778319E+04  0.18219386284E+04  0.89257984064E+02 0.  0.
         24    2    4    4    0    0  0.71494693545E+02  0.30150448643E+02 -0.41736013195E+03  0.43198973867E+03  0.80031954950E+02 0.  0.
         13    1    3    3    0    0  0.44058696634E+03 -0.59834937956E+03 -0.43576956510E+03  0.86141393580E+03  0.00000000000E+00 0. -1.
        -14    1    3    3    0    0  0.15462457372E+03 -0.14824684946E+03 -0.15355996081E+03  0.26356507496E+03  0.00000000000E+00 0.  1.
         13    1    5    5    0    0 -0.14319273794E+03  0.19844270015E+03 -0.33962745332E+03  0.41860538995E+03  0.00000000000E+00 0. -1.
        -14    1    5    5    0    0 -0.52351349566E+03  0.51800308022E+03 -0.11945503786E+04  0.14033332385E+04  0.00000000000E+00 0.  1.
          4    1    6    6  502    0  0.46868954101E+02  0.57560247296E+02 -0.26130716527E+03  0.27164556972E+03  0.00000000000E+00 0. -1.
         -3    1    6    6    0  502  0.24625739444E+02 -0.27409798653E+02 -0.15605296668E+03  0.16034416894E+03  0.00000000000E+00 0.  1.
<mgrwt>
<rscale>  0 0.10247657E+04</rscale>
<asrwt>0</asrwt>
<pdfrwt beam="1">  1        1 0.45536730E+00 0.10247657E+04</pdfrwt>
<pdfrwt beam="2">  1       -2 0.64464607E-01 0.10247657E+04</pdfrwt>
<totfact> 0.12732727E+00</totfact>
</mgrwt>
</event>
<event>
12    3  0.2212098E-007  0.7372480E+03  0.7818608E-02  0.9655571E-01
          1   -1    0    0  501    0  0.00000000000E+00  0.00000000000E+00  0.30399821385E+03  0.30399821385E+03  0.00000000000E+00 0. -1.
         -2   -1    0    0    0  501 -0.00000000000E+00 -0.00000000000E+00 -0.26815831452E+04  0.26815831452E+04  0.00000000000E+00 0.  1.
        -24    2    1    2    0    0 -0.14342385945E+03 -0.68844648156E+03 -0.42575342834E+03  0.82589580628E+03  0.79428833915E+02 0.  0.
    5000000    2    1    2    0    0  0.14342385945E+03  0.68844648156E+03 -0.19518315030E+04  0.21596855528E+04  0.60005542185E+03 0.  0.
        -24    2    4    4    0    0  0.10376471499E+03  0.32688956309E+02 -0.55484895608E+02  0.15149696004E+03  0.89649714552E+02 0.  0.
         24    2    4    4    0    0  0.39659144465E+02  0.65575752525E+03 -0.18963466074E+04  0.20081885928E+04  0.71415606989E+02 0.  0.
         11    1    3    3    0    0 -0.51628749995E+02 -0.20919512770E+03 -0.89632799315E+02  0.23337130927E+03  0.00000000000E+00 0. -1.
        -12    1    3    3    0    0 -0.91795109457E+02 -0.47925135386E+03 -0.33612062903E+03  0.59252449701E+03  0.00000000000E+00 0.  1.
         11    1    5    5    0    0  0.14555243840E+02  0.18674757584E+02  0.22139940297E+02  0.32415716102E+02  0.00000000000E+00 0. -1.
        -12    1    5    5    0    0  0.89209471147E+02  0.14014198725E+02 -0.77624835904E+02  0.11908124394E+03  0.00000000000E+00 0.  1.
          2    1    6    6  502    0  0.23252069357E+02  0.47860549934E+03 -0.12829607515E+04  0.13695226076E+04  0.00000000000E+00 0. -1.
         -1    1    6    6    0  502  0.16407075108E+02  0.17715202591E+03 -0.61338585593E+03  0.63866598520E+03  0.00000000000E+00 0.  1.
<mgrwt>
<rscale>  0 0.73724796E+03</rscale>
<asrwt>0</asrwt>
<pdfrwt beam="1">  1        1 0.46768954E-01 0.73724796E+03</pdfrwt>
<pdfrwt beam="2">  1       -2 0.41255127E+00 0.73724796E+03</pdfrwt>
<totfact> 0.49496681E-01</totfact>
</mgrwt>
</event>
<event>
12    3  0.2212098E-007  0.3554569E+03  0.7818608E-02  0.1060397E+00
         -2   -1    0    0    0  501 -0.00000000000E+00  0.00000000000E+00  0.29394215797E+03  0.29394215797E+03  0.00000000000E+00 0.  1.
          1   -1    0    0  501    0  0.00000000000E+00 -0.00000000000E+00 -0.55188214990E+03  0.55188214990E+03  0.00000000000E+00 0. -1.
        -24    2    1    2    0    0 -0.10469668451E+02 -0.15492785232E+03 -0.11642284569E+03  0.21024140043E+03  0.80838815395E+02 0.  0.
    5000000    2    1    2    0    0  0.10469668451E+02  0.15492785232E+03 -0.14151714624E+03  0.63558290743E+03  0.59985521266E+03 0.  0.
        -24    2    4    4    0    0 -0.23952352093E+03  0.55998153311E+02  0.89060852213E+02  0.27257713192E+03  0.76545066415E+02 0.  0.
         24    2    4    4    0    0  0.24999318938E+03  0.98929699011E+02 -0.23057799845E+03  0.36300577552E+03  0.79519177594E+02 0.  0.
         11    1    3    3    0    0  0.34609680670E+02 -0.76351270123E+02 -0.46965122574E+02  0.96088860873E+02  0.00000000000E+00 0. -1.
        -12    1    3    3    0    0 -0.45079349122E+02 -0.78576582199E+02 -0.69457723117E+02  0.11415253956E+03  0.00000000000E+00 0.  1.
         11    1    5    5    0    0 -0.20787999771E+03  0.20636126384E+02  0.61800913883E+02  0.21785154606E+03  0.00000000000E+00 0. -1.
        -12    1    5    5    0    0 -0.31643523218E+02  0.35362026927E+02  0.27259938330E+02  0.54725585861E+02  0.00000000000E+00 0.  1.
          4    1    6    6  502    0  0.21367370181E+02  0.37901459685E+02 -0.41256247412E+02  0.59959678995E+02  0.00000000000E+00 0. -1.
         -3    1    6    6    0  502  0.22862581920E+03  0.61028239326E+02 -0.18932175104E+03  0.30304609652E+03  0.00000000000E+00 0.  1.
<mgrwt>
<rscale>  0 0.35545695E+03</rscale>
<asrwt>0</asrwt>
<pdfrwt beam="1">  1        1 0.84904947E-01 0.35545695E+03</pdfrwt>
<pdfrwt beam="2">  1       -2 0.45221870E-01 0.35545695E+03</pdfrwt>
<totfact> 0.16303591E+02</totfact>
</mgrwt>
</event>
<event>
12    3  0.2212098E-007  0.1185407E+04  0.7818608E-02  0.9125727E-01
         -2   -1    0    0    0  501 -0.00000000000E+00  0.00000000000E+00  0.13385371165E+04  0.13385371165E+04  0.00000000000E+00 0.  1.
          1   -1    0    0  501    0  0.00000000000E+00 -0.00000000000E+00 -0.11247099127E+04  0.11247099127E+04  0.00000000000E+00 0. -1.
        -24    2    1    2    0    0  0.11009461307E+04  0.25133550696E+03 -0.12837756535E+03  0.11394147926E+04  0.80829143901E+02 0.  0.
    5000000    2    1    2    0    0 -0.11009461307E+04 -0.25133550696E+03  0.34220476913E+03  0.13238322366E+04  0.60014645455E+03 0.  0.
        -24    2    4    4    0    0 -0.99570505054E+03 -0.38007334042E+03  0.19201444293E+03  0.10858152845E+04  0.78999961703E+02 0.  0.
         24    2    4    4    0    0 -0.10524108018E+03  0.12873783346E+03  0.15019032620E+03  0.23801695214E+03  0.80285868642E+02 0.  0.
         11    1    5    5    0    0 -0.55795324277E+03 -0.24909492570E+03  0.89799586153E+02  0.61759539247E+03  0.00000000000E+00 0. -1.
        -12    1    5    5    0    0 -0.43775180777E+03 -0.13097841472E+03  0.10221485678E+03  0.46821989201E+03  0.00000000000E+00 0.  1.
         11    1    3    3    0    0  0.54457478539E+03  0.16545534512E+03 -0.59499157806E+02  0.57225633931E+03  0.00000000000E+00 0. -1.
        -12    1    3    3    0    0  0.55637134533E+03  0.85880161843E+02 -0.68878407541E+02  0.56715845328E+03  0.00000000000E+00 0.  1.
          4    1    6    6  502    0  0.34568058670E+01  0.40166326933E+01  0.37430094973E+02  0.37803370943E+02  0.00000000000E+00 0. -1.
         -3    1    6    6    0  502 -0.10869788605E+03  0.12472120076E+03  0.11276023122E+03  0.20021358120E+03  0.00000000000E+00 0.  1.
<mgrwt>
<rscale>  0 0.11854069E+04</rscale>
<asrwt>0</asrwt>
<pdfrwt beam="1">  1        1 0.17303229E+00 0.11854069E+04</pdfrwt>
<pdfrwt beam="2">  1       -2 0.20592879E+00 0.11854069E+04</pdfrwt>
<totfact> 0.12651336E+00</totfact>
</mgrwt>
</event>
<event>
12    3  0.2212098E-007  0.2071760E+04  0.7818608E-02  0.8573786E-01
          3   -1    0    0  501    0  0.00000000000E+00  0.00000000000E+00  0.21041089168E+04  0.21041089168E+04  0.00000000000E+00 0. -1.
         -4   -1    0    0    0  501 -0.00000000000E+00 -0.00000000000E+00 -0.20999045374E+04  0.20999045374E+04  0.00000000000E+00 0.  1.
        -24    2    1    2    0    0  0.20526165085E+04  0.29713107618E+02  0.15221431752E+03  0.20600083693E+04  0.79673607172E+02 0.  0.
    5000000    2    1    2    0    0 -0.20526165085E+04 -0.29713107618E+02 -0.14800993817E+03  0.21440050849E+04  0.60061090785E+03 0.  0.
        -24    2    4    4    0    0 -0.40889194924E+03  0.13672780206E+03  0.14788878038E+03  0.46254859781E+03  0.78695590503E+02 0.  0.
         24    2    4    4    0    0 -0.16437245592E+04 -0.16644090968E+03 -0.29589871855E+03  0.16814564871E+04  0.10102902192E+03 0.  0.
         13    1    5    5    0    0 -0.32516632428E+03  0.73637828593E+02  0.11498208802E+03  0.35267059533E+03  0.00000000000E+00 0. -1.
        -14    1    5    5    0    0 -0.83725624962E+02  0.63089973464E+02  0.32906692361E+02  0.10987800248E+03  0.00000000000E+00 0.  1.
         13    1    3    3    0    0  0.31087703762E+03  0.17584340093E+02 -0.23430632596E+01  0.31138277326E+03  0.00000000000E+00 0. -1.
        -14    1    3    3    0    0  0.17417394709E+04  0.12128767525E+02  0.15455738077E+03  0.17486255961E+04  0.00000000000E+00 0.  1.
          4    1    6    6  502    0 -0.64196730365E+03 -0.64797030138E+02 -0.65607175253E+02  0.64855606968E+03  0.00000000000E+00 0. -1.
         -3    1    6    6    0  502 -0.10017572556E+04 -0.10164387954E+03 -0.23029154329E+03  0.10329004174E+04  0.00000000000E+00 0.  1.
<mgrwt>
<rscale>  0 0.20717602E+04</rscale>
<asrwt>0</asrwt>
<pdfrwt beam="1">  1        3 0.32370906E+00 0.20717602E+04</pdfrwt>
<pdfrwt beam="2">  1       -4 0.32306224E+00 0.20717602E+04</pdfrwt>
<totfact> 0.12444992E-03</totfact>
</mgrwt>
</event>
<event>
12    3  0.2212098E-007  0.5651067E+03  0.7818608E-02  0.9980566E-01
          3   -1    0    0  501    0  0.00000000000E+00  0.00000000000E+00  0.12425182986E+04  0.12425182986E+04  0.00000000000E+00 0. -1.
         -2   -1    0    0    0  501 -0.00000000000E+00 -0.00000000000E+00 -0.31865688087E+03  0.31865688087E+03  0.00000000000E+00 0.  1.
        -24    2    1    2    0    0 -0.24672223551E+03  0.40945004195E+03  0.43836162515E+03  0.65333663138E+03  0.78527964121E+02 0.  0.
    5000000    2    1    2    0    0  0.24672223551E+03 -0.40945004195E+03  0.48549979260E+03  0.90783854810E+03  0.59994964993E+03 0.  0.
        -24    2    4    4    0    0 -0.89590268681E+02 -0.26445963602E+03 -0.45015042858E+01  0.29103394038E+03  0.81946174935E+02 0.  0.
         24    2    4    4    0    0  0.33631250419E+03 -0.14499040593E+03  0.49000129688E+03  0.61680460772E+03  0.78856419312E+02 0.  0.
         11    1    3    3    0    0 -0.10946415510E+03  0.15065127211E+03  0.12450312253E+03  0.22400721988E+03  0.00000000000E+00 0. -1.
        -12    1    3    3    0    0 -0.13725808042E+03  0.25879876984E+03  0.31385850262E+03  0.42932941150E+03  0.00000000000E+00 0.  1.
         13    1    5    5    0    0 -0.65256495087E+02 -0.10668117672E+03 -0.31886579862E+02  0.12905827208E+03  0.00000000000E+00 0. -1.
        -14    1    5    5    0    0 -0.24333773593E+02 -0.15777845930E+03  0.27385075576E+02  0.16197566830E+03  0.00000000000E+00 0.  1.
          4    1    6    6  502    0  0.95784711437E+02 -0.36876151675E+02  0.20021576813E+03  0.22499092274E+03  0.00000000000E+00 0. -1.
         -3    1    6    6    0  502  0.24052779276E+03 -0.10811425426E+03  0.28978552875E+03  0.39181368498E+03  0.00000000000E+00 0.  1.
<mgrwt>
<rscale>  0 0.56510666E+03</rscale>
<asrwt>0</asrwt>
<pdfrwt beam="1">  1        3 0.19115666E+00 0.56510666E+03</pdfrwt>
<pdfrwt beam="2">  1       -2 0.49024136E-01 0.56510666E+03</pdfrwt>
<totfact> 0.27844293E+00</totfact>
</mgrwt>
</event>
<event>
12    3  0.2212098E-007  0.6035150E+03  0.7818608E-02  0.9898140E-01
         -2   -1    0    0    0  501 -0.00000000000E+00  0.00000000000E+00  0.12421706971E+04  0.12421706971E+04  0.00000000000E+00 0.  1.
          1   -1    0    0  501    0  0.00000000000E+00 -0.00000000000E+00 -0.36848001299E+03  0.36848001299E+03  0.00000000000E+00 0. -1.
        -24    2    1    2    0    0  0.53537414732E+03  0.27097223737E+01  0.43687537186E+03  0.69552895986E+03  0.79168322206E+02 0.  0.
    5000000    2    1    2    0    0 -0.53537414732E+03 -0.27097223737E+01  0.43681531220E+03  0.91512175019E+03  0.60000615036E+03 0.  0.
        -24    2    4    4    0    0 -0.21848853168E+03  0.19118294157E+03  0.44274317516E+03  0.53530831379E+03  0.79027311971E+02 0.  0.
         24    2    4    4    0    0 -0.31688561564E+03 -0.19389266395E+03 -0.59278629600E+01  0.37981343639E+03  0.78817817603E+02 0.  0.
         13    1    5    5    0    0 -0.94713530391E+02  0.61311205338E+02  0.23594819738E+03  0.26153636188E+03  0.00000000000E+00 0. -1.
        -14    1    5    5    0    0 -0.12377500129E+03  0.12987173624E+03  0.20679497778E+03  0.27377195191E+03  0.00000000000E+00 0.  1.
         13    1    3    3    0    0  0.31027411431E+03 -0.39096647455E+01  0.30216625377E+03  0.43311633126E+03  0.00000000000E+00 0. -1.
        -14    1    3    3    0    0  0.22510003301E+03  0.66193871192E+01  0.13470911810E+03  0.26241262859E+03  0.00000000000E+00 0.  1.
          2    1    6    6  502    0 -0.16846707546E+03 -0.14718424178E+03 -0.12751484049E+02  0.22406908954E+03  0.00000000000E+00 0. -1.
         -3    1    6    6    0  502 -0.14841854018E+03 -0.46708422165E+02  0.68236210887E+01  0.15574434685E+03  0.00000000000E+00 0.  1.
<mgrwt>
<rscale>  0 0.60351501E+03</rscale>
<asrwt>0</asrwt>
<pdfrwt beam="1">  1        1 0.56689233E-01 0.60351501E+03</pdfrwt>
<pdfrwt beam="2">  1       -2 0.19110318E+00 0.60351501E+03</pdfrwt>
<totfact> 0.92628588E+00</totfact>
</mgrwt>
</event>
<event>
12    3  0.2212098E-007  0.1007504E+04  0.7818608E-02  0.9300352E-01
          1   -1    0    0  501    0  0.00000000000E+00  0.00000000000E+00  0.61404397223E+03  0.61404397223E+03  0.00000000000E+00 0. -1.
         -2   -1    0    0    0  501 -0.00000000000E+00 -0.00000000000E+00 -0.16639672590E+04  0.16639672590E+04  0.00000000000E+00 0.  1.
        -24    2    1    2    0    0 -0.76519288553E+03 -0.51051602359E+03 -0.48444412083E+03  0.10427262309E+04  0.80281529591E+02 0.  0.
    5000000    2    1    2    0    0  0.76519288553E+03  0.51051602359E+03 -0.56547916592E+03  0.12352850003E+04  0.60001298528E+03 0.  0.
        -24    2    4    4    0    0  0.72158585574E+03  0.17217026220E+03 -0.40290149754E+03  0.84779085224E+03  0.78044641245E+02 0.  0.
         24    2    4    4    0    0  0.43607029790E+02  0.33834576138E+03 -0.16257766838E+03  0.38749414807E+03  0.85678405935E+02 0.  0.
         13    1    5    5    0    0  0.43276498626E+03  0.13083136469E+03 -0.21387115588E+03  0.50014323012E+03  0.00000000000E+00 0. -1.
        -14    1    5    5    0    0  0.28882086948E+03  0.41338897517E+02 -0.18903034166E+03  0.34764762212E+03  0.00000000000E+00 0.  1.
         13    1    3    3    0    0 -0.34408494094E+03 -0.25835201957E+03 -0.26263297154E+03  0.50409948456E+03  0.00000000000E+00 0. -1.
        -14    1    3    3    0    0 -0.42110794459E+03 -0.25216400402E+03 -0.22181114930E+03  0.53862674634E+03  0.00000000000E+00 0.  1.
          2    1    6    6  502    0  0.61148669694E+02  0.16812889466E+03 -0.63964038713E+02  0.18999442959E+03  0.00000000000E+00 0. -1.
         -1    1    6    6    0  502 -0.17541639904E+02  0.17021686672E+03 -0.98613629663E+02  0.19749971848E+03  0.00000000000E+00 0.  1.
<mgrwt>
<rscale>  0 0.10075044E+04</rscale>
<asrwt>0</asrwt>
<pdfrwt beam="1">  1        1 0.94468307E-01 0.10075044E+04</pdfrwt>
<pdfrwt beam="2">  1       -2 0.25599495E+00 0.10075044E+04</pdfrwt>
<totfact> 0.17162784E+00</totfact>
</mgrwt>
</event>
<event>
12    3  0.3000313E-007  0.1219275E+04  0.7818608E-02  0.9096150E-01
         -2   -1    0    0    0  501 -0.00000000000E+00  0.00000000000E+00  0.10174813403E+04  0.10174813403E+04  0.00000000000E+00 0.  1.
          1   -1    0    0  501    0  0.00000000000E+00 -0.00000000000E+00 -0.18068303676E+04  0.18068303676E+04  0.00000000000E+00 0. -1.
        -24    2    1    2    0    0  0.11365988067E+04  0.16972841482E+03 -0.98147270583E+03  0.15136636428E+04  0.84996287993E+02 0.  0.
    5000000    2    1    2    0    0 -0.11365988067E+04 -0.16972841482E+03  0.19212367847E+03  0.13106480651E+04  0.60018518864E+03 0.  0.
        -24    2    4    4    0    0 -0.31451846218E+03  0.20537085054E+03  0.38749121384E+01  0.38422574946E+03  0.80717794175E+02 0.  0.
         24    2    4    4    0    0 -0.82208034449E+03 -0.37509926536E+03  0.18824876633E+03  0.92642231567E+03  0.79405020491E+02 0.  0.
         11    1    5    5    0    0 -0.13710002516E+03  0.12507439842E+03 -0.25344712556E+02  0.18730290039E+03  0.00000000000E+00 0. -1.
        -12    1    5    5    0    0 -0.17741843702E+03  0.80296452121E+02  0.29219624694E+02  0.19692284907E+03  0.00000000000E+00 0.  1.
         11    1    3    3    0    0  0.57899353459E+03  0.12406398041E+03 -0.53160606344E+03  0.79575774644E+03  0.00000000000E+00 0. -1.
        -12    1    3    3    0    0  0.55760527209E+03  0.45664434405E+02 -0.44986664239E+03  0.71790589632E+03  0.00000000000E+00 0.  1.
          2    1    6    6  502    0 -0.61397282038E+03 -0.31468439821E+03  0.15599760705E+03  0.70733595133E+03  0.00000000000E+00 0. -1.
         -1    1    6    6    0  502 -0.20810752411E+03 -0.60414867142E+02  0.32251159285E+02  0.21908636434E+03  0.00000000000E+00 0.  1.
<mgrwt>
<rscale>  0 0.12192752E+04</rscale>
<asrwt>0</asrwt>
<pdfrwt beam="1">  1        1 0.27797390E+00 0.12192752E+04</pdfrwt>
<pdfrwt beam="2">  1       -2 0.15653559E+00 0.12192752E+04</pdfrwt>
<totfact> 0.92047950E-01</totfact>
</mgrwt>
</event>
<event>
12    3  0.2212098E-007  0.6302312E+03  0.7818608E-02  0.9844598E-01
          1   -1    0    0  501    0  0.00000000000E+00  0.00000000000E+00  0.51141845650E+03  0.51141845650E+03  0.00000000000E+00 0. -1.
         -2   -1    0    0    0  501 -0.00000000000E+00 -0.00000000000E+00 -0.88373863034E+03  0.88373863034E+03  0.00000000000E+00 0.  1.
        -24    2    1    2    0    0  0.47400423447E+03  0.24142593444E+03 -0.93003744482E+02  0.54608204022E+03  0.81175131946E+02 0.  0.
    5000000    2    1    2    0    0 -0.47400423447E+03 -0.24142593444E+03 -0.27931642936E+03  0.84907504662E+03  0.59995355735E+03 0.  0.
        -24    2    4    4    0    0 -0.46538013845E+03 -0.36266744480E+03 -0.77794536022E+02  0.60049904403E+03  0.80254366054E+02 0.  0.
         24    2    4    4    0    0 -0.86240960158E+01  0.12124151036E+03 -0.20152189334E+03  0.24857600259E+03  0.80031723101E+02 0.  0.
         11    1    3    3    0    0  0.16504903665E+03  0.89652667614E+02  0.59466746390E+01  0.18792059028E+03  0.00000000000E+00 0. -1.
        -12    1    3    3    0    0  0.30895519782E+03  0.15177326683E+03 -0.98950419121E+02  0.35816144994E+03  0.00000000000E+00 0.  1.
         13    1    5    5    0    0 -0.36944544112E+03 -0.26557271217E+03 -0.30391087948E+02  0.45600703683E+03  0.00000000000E+00 0. -1.
        -14    1    5    5    0    0 -0.95934697330E+02 -0.97094732628E+02 -0.47403448074E+02  0.14449200720E+03  0.00000000000E+00 0.  1.
          4    1    6    6  502    0  0.25969283912E+02  0.73621511602E+02 -0.71541603506E+02  0.10589018703E+03  0.00000000000E+00 0. -1.
         -3    1    6    6    0  502 -0.34593379928E+02  0.47619998755E+02 -0.12998028983E+03  0.14268581555E+03  0.00000000000E+00 0.  1.
<mgrwt>
<rscale>  0 0.63023119E+03</rscale>
<asrwt>0</asrwt>
<pdfrwt beam="1">  1        1 0.78679763E-01 0.63023119E+03</pdfrwt>
<pdfrwt beam="2">  1       -2 0.13595979E+00 0.63023119E+03</pdfrwt>
<totfact> 0.15017125E+01</totfact>
</mgrwt>
</event>
<event>
12    3  0.2212098E-007  0.5946683E+03  0.7818608E-02  0.9916530E-01
         -2   -1    0    0    0  501 -0.00000000000E+00  0.00000000000E+00  0.13780225489E+03  0.13780225489E+03  0.00000000000E+00 0.  1.
          1   -1    0    0  501    0  0.00000000000E+00 -0.00000000000E+00 -0.29463548271E+04  0.29463548271E+04  0.00000000000E+00 0. -1.
        -24    2    1    2    0    0  0.25943114124E+03 -0.41792911616E+03 -0.11235064277E+04  0.12291146368E+04  0.80540883750E+02 0.  0.
    5000000    2    1    2    0    0 -0.25943114124E+03  0.41792911616E+03 -0.16850461445E+04  0.18550424452E+04  0.59986056829E+03 0.  0.
        -24    2    4    4    0    0 -0.14972532695E+03  0.51808015590E+03 -0.15354955826E+04  0.16293811605E+04  0.79445329364E+02 0.  0.
         24    2    4    4    0    0 -0.10970581429E+03 -0.10015103975E+03 -0.14955056185E+03  0.22566128475E+03  0.80573248883E+02 0.  0.
         11    1    5    5    0    0 -0.86116253467E+02  0.19338836369E+03 -0.67738281549E+03  0.70969186768E+03  0.00000000000E+00 0. -1.
        -12    1    5    5    0    0 -0.63609073485E+02  0.32469179221E+03 -0.85811276713E+03  0.91968929279E+03  0.00000000000E+00 0.  1.
         13    1    3    3    0    0  0.22855502760E+03 -0.33407944520E+03 -0.85163756894E+03  0.94293850551E+03  0.00000000000E+00 0. -1.
        -14    1    3    3    0    0  0.30876113646E+02 -0.83849670958E+02 -0.27186885881E+03  0.28617613126E+03  0.00000000000E+00 0.  1.
          4    1    6    6  502    0 -0.10279790860E+02 -0.27913434366E+02 -0.77937665607E+02  0.83421302067E+02  0.00000000000E+00 0. -1.
         -3    1    6    6    0  502 -0.99426023431E+02 -0.72237605380E+02 -0.71612896240E+02  0.14223998269E+03  0.00000000000E+00 0.  1.
<mgrwt>
<rscale>  0 0.59466828E+03</rscale>
<asrwt>0</asrwt>
<pdfrwt beam="1">  1        1 0.45328540E+00 0.59466828E+03</pdfrwt>
<pdfrwt beam="2">  1       -2 0.21200345E-01 0.59466828E+03</pdfrwt>
<totfact> 0.12048542E+01</totfact>
</mgrwt>
</event>
<event>
12    3  0.2212098E-007  0.4110182E+03  0.7818608E-02  0.1040030E+00
         -2   -1    0    0    0  501 -0.00000000000E+00  0.00000000000E+00  0.24129928564E+03  0.24129928564E+03  0.00000000000E+00 0.  1.
          1   -1    0    0  501    0  0.00000000000E+00 -0.00000000000E+00 -0.77000113935E+03  0.77000113935E+03  0.00000000000E+00 0. -1.
        -24    2    1    2    0    0  0.15953183318E+03  0.13917801649E+03 -0.13687979215E+03  0.26412442440E+03  0.78769968846E+02 0.  0.
    5000000    2    1    2    0    0 -0.15953183318E+03 -0.13917801649E+03 -0.39182206156E+03  0.74717600059E+03  0.59993876509E+03 0.  0.
        -24    2    4    4    0    0 -0.21821279474E+03 -0.33608409997E+03 -0.19890720328E+03  0.45459223082E+03  0.80750695153E+02 0.  0.
         24    2    4    4    0    0  0.58680961553E+02  0.19690608348E+03 -0.19291485828E+03  0.29258376977E+03  0.78572634073E+02 0.  0.
         11    1    3    3    0    0  0.10065505168E+03  0.81525465191E+02 -0.12653014620E+03  0.18107379380E+03  0.00000000000E+00 0. -1.
        -12    1    3    3    0    0  0.58876781507E+02  0.57652551298E+02 -0.10349645949E+02  0.83050630600E+02  0.00000000000E+00 0.  1.
         13    1    5    5    0    0 -0.70139337723E+02 -0.15717527436E+03 -0.52032572559E+02  0.17980818161E+03  0.00000000000E+00 0. -1.
        -14    1    5    5    0    0 -0.14807345701E+03 -0.17890882561E+03 -0.14687463072E+03  0.27478404921E+03  0.00000000000E+00 0.  1.
          2    1    6    6  502    0  0.12140149530E+01  0.13469395114E+02 -0.53341375827E+02  0.55029090599E+02  0.00000000000E+00 0. -1.
         -1    1    6    6    0  502  0.57466946600E+02  0.18343668837E+03 -0.13957348245E+03  0.23755467917E+03  0.00000000000E+00 0.  1.
<mgrwt>
<rscale>  0 0.41101822E+03</rscale>
<asrwt>0</asrwt>
<pdfrwt beam="1">  1        1 0.11846171E+00 0.41101822E+03</pdfrwt>
<pdfrwt beam="2">  1       -2 0.37122967E-01 0.41101822E+03</pdfrwt>
<totfact> 0.14665682E+02</totfact>
</mgrwt>
</event>
<event>
12    3  0.2212098E-007  0.6459580E+03  0.7818608E-02  0.9814393E-01
         -2   -1    0    0    0  501 -0.00000000000E+00  0.00000000000E+00  0.70015444852E+03  0.70015444852E+03  0.00000000000E+00 0.  1.
          1   -1    0    0  501    0  0.00000000000E+00 -0.00000000000E+00 -0.60442135273E+03  0.60442135273E+03  0.00000000000E+00 0. -1.
        -24    2    1    2    0    0 -0.47181912267E+03 -0.18536663829E+03  0.73778286874E+02  0.51878080947E+03  0.81952532297E+02 0.  0.
    5000000    2    1    2    0    0  0.47181912267E+03  0.18536663829E+03  0.21954808919E+02  0.78579499178E+03  0.60001473346E+03 0.  0.
        -24    2    4    4    0    0  0.15424182477E+03  0.37063111214E+03  0.13961690521E+02  0.40947711604E+03  0.79489734925E+02 0.  0.
         24    2    4    4    0    0  0.31757729789E+03 -0.18526447385E+03  0.79931183982E+01  0.37631787574E+03  0.79830998065E+02 0.  0.
         11    1    5    5    0    0  0.15921725901E+03  0.37114360274E+03  0.15762475065E+02  0.40416106324E+03  0.00000000000E+00 0. -1.
        -12    1    5    5    0    0 -0.49754342319E+01 -0.51249059253E+00 -0.18007845443E+01  0.53160528006E+01  0.00000000000E+00 0.  1.
         13    1    3    3    0    0 -0.29339716990E+03 -0.14460264665E+03  0.18599869598E+02  0.32762444944E+03  0.00000000000E+00 0. -1.
        -14    1    3    3    0    0 -0.17842195277E+03 -0.40763991638E+02  0.55178417276E+02  0.19115636003E+03  0.00000000000E+00 0.  1.
          4    1    6    6  502    0  0.64960577818E+02 -0.69289888661E+02  0.23756995037E+02  0.97904852557E+02  0.00000000000E+00 0. -1.
         -3    1    6    6    0  502  0.25261672008E+03 -0.11597458519E+03 -0.15763876639E+02  0.27841302319E+03  0.00000000000E+00 0.  1.
<mgrwt>
<rscale>  0 0.64595796E+03</rscale>
<asrwt>0</asrwt>
<pdfrwt beam="1">  1        1 0.92987900E-01 0.64595796E+03</pdfrwt>
<pdfrwt beam="2">  1       -2 0.10771607E+00 0.64595796E+03</pdfrwt>
<totfact> 0.21104831E+01</totfact>
</mgrwt>
</event>
<event>
12    3  0.2212098E-007  0.1058966E+04  0.7818608E-02  0.9246136E-01
          1   -1    0    0  501    0  0.00000000000E+00  0.00000000000E+00  0.23379272372E+04  0.23379272372E+04  0.00000000000E+00 0. -1.
         -2   -1    0    0    0  501 -0.00000000000E+00 -0.00000000000E+00 -0.13156548965E+04  0.13156548965E+04  0.00000000000E+00 0.  1.
        -24    2    1    2    0    0  0.39518713545E+03 -0.90293758880E+03 -0.94829798093E+03  0.13700916720E+04  0.80081008034E+02 0.  0.
    5000000    2    1    2    0    0 -0.39518713545E+03  0.90293758880E+03  0.19705703216E+04  0.22834904617E+04  0.59976006453E+03 0.  0.
        -24    2    4    4    0    0 -0.23430833677E+03  0.93003877787E+03  0.15362626089E+04  0.18128265132E+04  0.79778684660E+02 0.  0.
         24    2    4    4    0    0 -0.16087879868E+03 -0.27101189062E+02  0.43430771270E+03  0.47066394848E+03  0.79277366074E+02 0.  0.
         13    1    5    5    0    0 -0.19698446559E+03  0.86209460180E+03  0.14287958180E+04  0.16803176698E+04  0.00000000000E+00 0. -1.
        -14    1    5    5    0    0 -0.37323871177E+02  0.67944176068E+02  0.10746679090E+03  0.13250884336E+03  0.00000000000E+00 0.  1.
         13    1    3    3    0    0  0.37201060824E+03 -0.83951014306E+03 -0.85310178676E+03  0.12533761732E+04  0.00000000000E+00 0. -1.
        -14    1    3    3    0    0  0.23176527212E+02 -0.63427445746E+02 -0.95196194166E+02  0.11671549885E+03  0.00000000000E+00 0.  1.
          4    1    6    6  502    0 -0.15013502524E+03 -0.38159641647E+02  0.42569283856E+03  0.45300229233E+03  0.00000000000E+00 0. -1.
         -3    1    6    6    0  502 -0.10743773444E+02  0.11058452585E+02  0.86148741357E+01  0.17661656145E+02  0.00000000000E+00 0.  1.
<mgrwt>
<rscale>  0 0.10589663E+04</rscale>
<asrwt>0</asrwt>
<pdfrwt beam="1">  1        1 0.35968111E+00 0.10589663E+04</pdfrwt>
<pdfrwt beam="2">  1       -2 0.20240845E+00 0.10589663E+04</pdfrwt>
<totfact> 0.19710280E-01</totfact>
</mgrwt>
</event>
<event>
12    3  0.2212098E-007  0.1459198E+04  0.7818608E-02  0.8912049E-01
          1   -1    0    0  501    0  0.00000000000E+00  0.00000000000E+00  0.26603827043E+04  0.26603827043E+04  0.00000000000E+00 0. -1.
         -2   -1    0    0    0  501 -0.00000000000E+00 -0.00000000000E+00 -0.86778033143E+03  0.86778033143E+03  0.00000000000E+00 0.  1.
        -24    2    1    2    0    0  0.13815609311E+04 -0.46649953427E+03  0.92046170718E+03  0.17262340810E+04  0.79384671925E+02 0.  0.
    5000000    2    1    2    0    0 -0.13815609311E+04  0.46649953427E+03  0.87214066566E+03  0.18019289547E+04  0.59998849598E+03 0.  0.
        -24    2    4    4    0    0 -0.58931578671E+03  0.21079400771E+03  0.70993238329E+03  0.94987528480E+03  0.80819908930E+02 0.  0.
         24    2    4    4    0    0 -0.79224514440E+03  0.25570552656E+03  0.16220828237E+03  0.85205366991E+03  0.81524501880E+02 0.  0.
         11    1    3    3    0    0  0.99704531413E+03 -0.33678707355E+03  0.70577019219E+03  0.12671371100E+04  0.00000000000E+00 0. -1.
        -12    1    3    3    0    0  0.38451561697E+03 -0.12971246073E+03  0.21469151499E+03  0.45909697099E+03  0.00000000000E+00 0.  1.
         13    1    5    5    0    0 -0.42820932384E+03  0.17539657390E+03  0.56490770657E+03  0.73023824886E+03  0.00000000000E+00 0. -1.
        -14    1    5    5    0    0 -0.16110646286E+03  0.35397433815E+02  0.14502467672E+03  0.21963703594E+03  0.00000000000E+00 0.  1.
          4    1    6    6  502    0 -0.88983193296E+02  0.26666528231E+02 -0.75625421635E+01  0.93200345821E+02  0.00000000000E+00 0. -1.
         -3    1    6    6    0  502 -0.70326195110E+03  0.22903899833E+03  0.16977082453E+03  0.75885332409E+03  0.00000000000E+00 0.  1.
<mgrwt>
<rscale>  0 0.14591975E+04</rscale>
<asrwt>0</asrwt>
<pdfrwt beam="1">  1        1 0.40928964E+00 0.14591975E+04</pdfrwt>
<pdfrwt beam="2">  1       -2 0.13350467E+00 0.14591975E+04</pdfrwt>
<totfact> 0.35550814E-01</totfact>
</mgrwt>
</event>
<event>
12    3  0.2212098E-007  0.7651613E+03  0.7818608E-02  0.9611860E-01
         -4   -1    0    0    0  501 -0.00000000000E+00  0.00000000000E+00  0.48980641779E+03  0.48980641779E+03  0.00000000000E+00 0.  1.
          1   -1    0    0  501    0  0.00000000000E+00 -0.00000000000E+00 -0.12925101363E+04  0.12925101363E+04  0.00000000000E+00 0. -1.
        -24    2    1    2    0    0  0.40048933153E+03 -0.55004035447E+03 -0.37480231751E+03  0.77945714640E+03  0.64347258275E+02 0.  0.
    5000000    2    1    2    0    0 -0.40048933153E+03  0.55004035447E+03 -0.42790140102E+03  0.10028594077E+04  0.59974268350E+03 0.  0.
        -24    2    4    4    0    0 -0.42391300484E+03  0.62714831735E+03 -0.26616241689E+03  0.80604437988E+03  0.76471318394E+02 0.  0.
         24    2    4    4    0    0  0.23423673305E+02 -0.77107962887E+02 -0.16173898413E+03  0.19681502782E+03  0.77989420939E+02 0.  0.
         11    1    5    5    0    0 -0.10377226735E+03  0.21051150211E+03 -0.98280107081E+02  0.25444597745E+03  0.00000000000E+00 0. -1.
        -12    1    5    5    0    0 -0.32014073749E+03  0.41663681524E+03 -0.16788230981E+03  0.55159840243E+03  0.00000000000E+00 0.  1.
         13    1    3    3    0    0  0.34678854324E+03 -0.43441690546E+03 -0.30962652140E+03  0.63627739565E+03  0.00000000000E+00 0. -1.
        -14    1    3    3    0    0  0.53700788299E+02 -0.11562344901E+03 -0.65175796110E+02  0.14317975075E+03  0.00000000000E+00 0.  1.
          4    1    6    6  502    0 -0.78883153502E+01 -0.23221368140E+02 -0.11837747977E+03  0.12089121214E+03  0.00000000000E+00 0. -1.
         -3    1    6    6    0  502  0.31311988655E+02 -0.53886594747E+02 -0.43361504361E+02  0.75923815680E+02  0.00000000000E+00 0.  1.
<mgrwt>
<rscale>  0 0.76516127E+03</rscale>
<asrwt>0</asrwt>
<pdfrwt beam="1">  1        1 0.19884772E+00 0.76516127E+03</pdfrwt>
<pdfrwt beam="2">  1       -4 0.75354833E-01 0.76516127E+03</pdfrwt>
<totfact> 0.71264715E+00</totfact>
</mgrwt>
</event>
<event>
12    3  0.2212098E-007  0.9681432E+03  0.7818608E-02  0.9344192E-01
         -2   -1    0    0    0  501 -0.00000000000E+00  0.00000000000E+00  0.15932306440E+04  0.15932306440E+04  0.00000000000E+00 0.  1.
          1   -1    0    0  501    0  0.00000000000E+00 -0.00000000000E+00 -0.60943875014E+03  0.60943875014E+03  0.00000000000E+00 0. -1.
        -24    2    1    2    0    0  0.77310208236E+03  0.44222046724E+03  0.50526663792E+03  0.10270552667E+04  0.79387492950E+02 0.  0.
    5000000    2    1    2    0    0 -0.77310208236E+03 -0.44222046724E+03  0.47852525596E+03  0.11756141275E+04  0.59986363847E+03 0.  0.
        -24    2    4    4    0    0 -0.59637393268E+03 -0.56533931565E+03  0.46052606814E+03  0.94521162762E+03  0.77912464736E+02 0.  0.
         24    2    4    4    0    0 -0.17672814968E+03  0.12311884841E+03  0.17999187815E+02  0.23040249986E+03  0.79813855034E+02 0.  0.
         11    1    5    5    0    0 -0.33310002963E+03 -0.32304116010E+03  0.21593998568E+03  0.51180201081E+03  0.00000000000E+00 0. -1.
        -12    1    5    5    0    0 -0.26327390305E+03 -0.24229815555E+03  0.24458608246E+03  0.43340961681E+03  0.00000000000E+00 0.  1.
         13    1    3    3    0    0  0.39435452048E+03  0.19834892062E+03  0.28671381735E+03  0.52636735765E+03  0.00000000000E+00 0. -1.
        -14    1    3    3    0    0  0.37874756188E+03  0.24387154662E+03  0.21855282057E+03  0.50068790904E+03  0.00000000000E+00 0.  1.
          2    1    6    6  502    0 -0.10234565434E+03  0.37122146794E+02 -0.19650044476E+02  0.11062915978E+03  0.00000000000E+00 0. -1.
         -1    1    6    6    0  502 -0.74382495339E+02  0.85996701620E+02  0.37649232292E+02  0.11977334008E+03  0.00000000000E+00 0.  1.
<mgrwt>
<rscale>  0 0.96814321E+03</rscale>
<asrwt>0</asrwt>
<pdfrwt beam="1">  1        1 0.93759808E-01 0.96814321E+03</pdfrwt>
<pdfrwt beam="2">  1       -2 0.24511241E+00 0.96814321E+03</pdfrwt>
<totfact> 0.20308923E+00</totfact>
</mgrwt>
</event>
<event>
12    3  0.2212098E-007  0.9439081E+03  0.7818608E-02  0.9372300E-01
         -2   -1    0    0    0  501 -0.00000000000E+00  0.00000000000E+00  0.59489382773E+03  0.59489382773E+03  0.00000000000E+00 0.  1.
          1   -1    0    0  501    0  0.00000000000E+00 -0.00000000000E+00 -0.19821641185E+04  0.19821641185E+04  0.00000000000E+00 0. -1.
        -24    2    1    2    0    0 -0.37548492302E+03 -0.77615514603E+03 -0.12457572810E+04  0.15170483583E+04  0.78222630384E+02 0.  0.
    5000000    2    1    2    0    0  0.37548492302E+03  0.77615514603E+03 -0.14151300975E+03  0.10600095880E+04  0.60015719323E+03 0.  0.
        -24    2    4    4    0    0  0.46292766447E+03  0.34805136646E+03 -0.18659497003E+03  0.61396331635E+03  0.81801557184E+02 0.  0.
         24    2    4    4    0    0 -0.87442741451E+02  0.42810377957E+03  0.45081960277E+02  0.44604627165E+03  0.77497188277E+02 0.  0.
         11    1    5    5    0    0  0.12013245402E+03  0.49414989908E+02 -0.50843174600E+02  0.13949435881E+03  0.00000000000E+00 0. -1.
        -12    1    5    5    0    0  0.34279521045E+03  0.29863637655E+03 -0.13575179543E+03  0.47446895754E+03  0.00000000000E+00 0.  1.
         11    1    3    3    0    0 -0.11436538122E+03 -0.16174651964E+03 -0.27744079988E+03  0.34090288130E+03  0.00000000000E+00 0. -1.
        -12    1    3    3    0    0 -0.26111954180E+03 -0.61440862639E+03 -0.96831648115E+03  0.11761454770E+04  0.00000000000E+00 0.  1.
          4    1    6    6  502    0 -0.37393721042E+02  0.24231737106E+03  0.61973187555E+02  0.25289656910E+03  0.00000000000E+00 0. -1.
         -3    1    6    6    0  502 -0.50049020410E+02  0.18578640851E+03 -0.16891227278E+02  0.19314970254E+03  0.00000000000E+00 0.  1.
<mgrwt>
<rscale>  0 0.94390811E+03</rscale>
<asrwt>0</asrwt>
<pdfrwt beam="1">  1        1 0.30494832E+00 0.94390811E+03</pdfrwt>
<pdfrwt beam="2">  1       -2 0.91522129E-01 0.94390811E+03</pdfrwt>
<totfact> 0.27718573E+00</totfact>
</mgrwt>
</event>
<event>
12    3  0.2212098E-007  0.9831955E+03  0.7818608E-02  0.9327170E-01
         -2   -1    0    0    0  501 -0.00000000000E+00  0.00000000000E+00  0.75865650443E+03  0.75865650443E+03  0.00000000000E+00 0.  1.
          1   -1    0    0  501    0  0.00000000000E+00 -0.00000000000E+00 -0.12995098898E+04  0.12995098898E+04  0.00000000000E+00 0. -1.
        -24    2    1    2    0    0 -0.36803813846E+03 -0.81990232464E+03 -0.18987747145E+03  0.92199902983E+03  0.79604419018E+02 0.  0.
    5000000    2    1    2    0    0  0.36803813846E+03  0.81990232464E+03 -0.35097591396E+03  0.11361673644E+04  0.60000024541E+03 0.  0.
        -24    2    4    4    0    0  0.43036598859E+03  0.25789887977E+03 -0.19335197726E+03  0.54217859135E+03  0.69612653207E+02 0.  0.
         24    2    4    4    0    0 -0.62327850135E+02  0.56200344487E+03 -0.15762393669E+03  0.59398877307E+03  0.90800463473E+02 0.  0.
         11    1    5    5    0    0  0.30332054653E+03  0.18405608864E+03 -0.10206143461E+03  0.36918360493E+03  0.00000000000E+00 0. -1.
        -12    1    5    5    0    0  0.12704544206E+03  0.73842791136E+02 -0.91290542651E+02  0.17299498643E+03  0.00000000000E+00 0.  1.
         13    1    3    3    0    0 -0.28044256222E+03 -0.60825091494E+03 -0.10633028436E+03  0.67817647822E+03  0.00000000000E+00 0. -1.
        -14    1    3    3    0    0 -0.87595576234E+02 -0.21165140970E+03 -0.83547187088E+02  0.24382255161E+03  0.00000000000E+00 0.  1.
          4    1    6    6  502    0 -0.34447502669E+02  0.39336691167E+03 -0.15154828581E+03  0.42295512831E+03  0.00000000000E+00 0. -1.
         -3    1    6    6    0  502 -0.27880347466E+02  0.16863653321E+03 -0.60756508859E+01  0.17103364476E+03  0.00000000000E+00 0.  1.
<mgrwt>
<rscale>  0 0.98319553E+03</rscale>
<asrwt>0</asrwt>
<pdfrwt beam="1">  1        1 0.19992460E+00 0.98319553E+03</pdfrwt>
<pdfrwt beam="2">  1       -2 0.11671639E+00 0.98319553E+03</pdfrwt>
<totfact> 0.45161802E+00</totfact>
</mgrwt>
</event>
<event>
12    3  0.2212098E-007  0.9787759E+03  0.7818608E-02  0.9332134E-01
          1   -1    0    0  501    0  0.00000000000E+00  0.00000000000E+00  0.11946225897E+04  0.11946225897E+04  0.00000000000E+00 0. -1.
         -2   -1    0    0    0  501 -0.00000000000E+00 -0.00000000000E+00 -0.13295038476E+04  0.13295038476E+04  0.00000000000E+00 0.  1.
        -24    2    1    2    0    0  0.89390511169E+03  0.17755839607E+03 -0.82598322283E+03  0.12324579423E+04  0.78172644302E+02 0.  0.
    5000000    2    1    2    0    0 -0.89390511169E+03 -0.17755839607E+03  0.69110196493E+03  0.12916684951E+04  0.60016018075E+03 0.  0.
        -24    2    4    4    0    0 -0.82539571971E+03  0.22734768965E+02  0.66665874543E+03  0.10651702942E+04  0.91427068997E+02 0.  0.
         24    2    4    4    0    0 -0.68509391977E+02 -0.20029316504E+03  0.24443219502E+02  0.22649820089E+03  0.76766368143E+02 0.  0.
         11    1    5    5    0    0 -0.79265026251E+03  0.13937566786E+02  0.65776112300E+03  0.10301157165E+04  0.00000000000E+00 0. -1.
        -12    1    5    5    0    0 -0.32745457203E+02  0.87972021791E+01  0.88976224306E+01  0.35054577712E+02  0.00000000000E+00 0.  1.
         13    1    3    3    0    0  0.40531983844E+03  0.10573448764E+03 -0.33868467003E+03  0.53867546725E+03  0.00000000000E+00 0. -1.
        -14    1    3    3    0    0  0.48858527326E+03  0.71823908428E+02 -0.48729855281E+03  0.69378247501E+03  0.00000000000E+00 0.  1.
          4    1    6    6  502    0 -0.79297737355E+01 -0.10456782687E+03  0.39823666292E+02  0.11217502452E+03  0.00000000000E+00 0. -1.
         -3    1    6    6    0  502 -0.60579618241E+02 -0.95725338163E+02 -0.15380446790E+02  0.11432317637E+03  0.00000000000E+00 0.  1.
<mgrwt>
<rscale>  0 0.97877585E+03</rscale>
<asrwt>0</asrwt>
<pdfrwt beam="1">  1        1 0.18378809E+00 0.97877585E+03</pdfrwt>
<pdfrwt beam="2">  1       -2 0.20453905E+00 0.97877585E+03</pdfrwt>
<totfact> 0.11750571E+00</totfact>
</mgrwt>
</event>
<event>
12    3  0.2976092E-007  0.1093177E+04  0.7818608E-02  0.9211867E-01
         -2   -1    0    0    0  501 -0.00000000000E+00  0.00000000000E+00  0.10605423082E+04  0.10605423082E+04  0.00000000000E+00 0.  1.
          1   -1    0    0  501    0  0.00000000000E+00 -0.00000000000E+00 -0.12045041429E+04  0.12045041429E+04  0.00000000000E+00 0. -1.
        -24    2    1    2    0    0  0.62784693740E+03 -0.83929645771E+03 -0.10896056967E+03  0.10567318608E+04  0.78736898139E+02 0.  0.
    5000000    2    1    2    0    0 -0.62784693740E+03  0.83929645771E+03 -0.35001264991E+02  0.12083145904E+04  0.60015726272E+03 0.  0.
        -24    2    4    4    0    0 -0.69167624624E+03  0.77471888508E+03 -0.13616076625E+03  0.10502131556E+04  0.76174388327E+02 0.  0.
         24    2    4    4    0    0  0.63829308834E+02  0.64577572634E+02  0.10115950126E+03  0.15810143476E+03  0.80736456598E+02 0.  0.
         11    1    3    3    0    0  0.27458273376E+03 -0.30517167079E+03 -0.52679703993E+02  0.41388473944E+03  0.00000000000E+00 0. -1.
        -12    1    3    3    0    0  0.35326420365E+03 -0.53412478692E+03 -0.56280865681E+02  0.64284712134E+03  0.00000000000E+00 0.  1.
         13    1    5    5    0    0 -0.55656029229E+03  0.58290915406E+03 -0.88354348516E+02  0.81077057898E+03  0.00000000000E+00 0. -1.
        -14    1    5    5    0    0 -0.13511595395E+03  0.19180973102E+03 -0.47806417731E+02  0.23944257663E+03  0.00000000000E+00 0.  1.
          4    1    6    6  502    0  0.39280354353E+02  0.20179704489E+02  0.97740187384E+02  0.10725348918E+03  0.00000000000E+00 0. -1.
         -3    1    6    6    0  502  0.24548954481E+02  0.44397868145E+02  0.34193138718E+01  0.50847945576E+02  0.00000000000E+00 0.  1.
<mgrwt>
<rscale>  0 0.10931771E+04</rscale>
<asrwt>0</asrwt>
<pdfrwt beam="1">  1        1 0.18530833E+00 0.10931771E+04</pdfrwt>
<pdfrwt beam="2">  1       -2 0.16316036E+00 0.10931771E+04</pdfrwt>
<totfact> 0.21894603E+00</totfact>
</mgrwt>
</event>
<event>
12    3  0.2212098E-007  0.9631722E+03  0.7818608E-02  0.9349885E-01
         -2   -1    0    0    0  501 -0.00000000000E+00  0.00000000000E+00  0.95528697534E+03  0.95528697534E+03  0.00000000000E+00 0.  1.
          1   -1    0    0  501    0  0.00000000000E+00 -0.00000000000E+00 -0.11578434035E+04  0.11578434035E+04  0.00000000000E+00 0. -1.
        -24    2    1    2    0    0 -0.92646463925E+03  0.24607448023E+03 -0.19877933347E+03  0.98224187000E+03  0.79978060604E+02 0.  0.
    5000000    2    1    2    0    0  0.92646463925E+03 -0.24607448023E+03 -0.37770946491E+01  0.11308885088E+04  0.60000431271E+03 0.  0.
        -24    2    4    4    0    0  0.70868241140E+03 -0.20252587125E+03  0.25131619253E+03  0.78297597743E+03  0.81511127195E+02 0.  0.
         24    2    4    4    0    0  0.21778222785E+03 -0.43548608980E+02 -0.25509328718E+03  0.34791253135E+03  0.81516649810E+02 0.  0.
         13    1    5    5    0    0  0.38248053030E+03 -0.92182453026E+02  0.17319368141E+03  0.42986627221E+03  0.00000000000E+00 0. -1.
        -14    1    5    5    0    0  0.32620188110E+03 -0.11034341823E+03  0.78122511124E+02  0.35310970523E+03  0.00000000000E+00 0.  1.
         13    1    3    3    0    0 -0.67614242013E+03  0.14556257849E+03 -0.15769471811E+03  0.70938329602E+03  0.00000000000E+00 0. -1.
        -14    1    3    3    0    0 -0.25032221911E+03  0.10051190175E+03 -0.41084615354E+02  0.27285857398E+03  0.00000000000E+00 0.  1.
          4    1    6    6  502    0  0.16400972413E+03 -0.11139805995E+02 -0.13628054680E+03  0.21353143170E+03  0.00000000000E+00 0. -1.
         -3    1    6    6    0  502  0.53772503714E+02 -0.32408802985E+02 -0.11881274038E+03  0.13438109965E+03  0.00000000000E+00 0.  1.
<mgrwt>
<rscale>  0 0.96317221E+03</rscale>
<asrwt>0</asrwt>
<pdfrwt beam="1">  1        1 0.17812975E+00 0.96317221E+03</pdfrwt>
<pdfrwt beam="2">  1       -2 0.14696723E+00 0.96317221E+03</pdfrwt>
<totfact> 0.31845507E+00</totfact>
</mgrwt>
</event>
<event>
12    3  0.2212098E-007  0.5049501E+03  0.7818608E-02  0.1012495E+00
         -2   -1    0    0    0  501 -0.00000000000E+00  0.00000000000E+00  0.22810818179E+03  0.22810818179E+03  0.00000000000E+00 0.  1.
          1   -1    0    0  501    0  0.00000000000E+00 -0.00000000000E+00 -0.15471593055E+04  0.15471593055E+04  0.00000000000E+00 0. -1.
        -24    2    1    2    0    0 -0.35087215761E+03 -0.14556818733E+03 -0.16472343680E+03  0.42000176820E+03  0.70472026459E+02 0.  0.
    5000000    2    1    2    0    0  0.35087215761E+03  0.14556818733E+03 -0.11543276869E+04  0.13552657191E+04  0.59997615988E+03 0.  0.
        -24    2    4    4    0    0  0.27847180741E+03  0.32293833518E+03 -0.10186135718E+04  0.11071435570E+04  0.79734129075E+02 0.  0.
         24    2    4    4    0    0  0.72400350196E+02 -0.17737014785E+03 -0.13571411508E+03  0.24812216204E+03  0.80276436205E+02 0.  0.
         11    1    5    5    0    0  0.19933607754E+03  0.17586812388E+03 -0.66118426823E+03  0.71262129168E+03  0.00000000000E+00 0. -1.
        -12    1    5    5    0    0  0.79135729868E+02  0.14707021130E+03 -0.35742930359E+03  0.39452226535E+03  0.00000000000E+00 0.  1.
         13    1    3    3    0    0 -0.21217482592E+03 -0.10304657708E+03 -0.13548203747E+03  0.27201495599E+03  0.00000000000E+00 0. -1.
        -14    1    3    3    0    0 -0.13869733168E+03 -0.42521610254E+02 -0.29241399334E+02  0.14798681222E+03  0.00000000000E+00 0.  1.
          2    1    6    6  502    0  0.54829200525E+02 -0.78817330648E+02 -0.25728289603E+02  0.99399988564E+02  0.00000000000E+00 0. -1.
         -1    1    6    6    0  502  0.17571149671E+02 -0.98552817198E+02 -0.10998582548E+03  0.14872217348E+03  0.00000000000E+00 0.  1.
<mgrwt>
<rscale>  0 0.50495013E+03</rscale>
<asrwt>0</asrwt>
<pdfrwt beam="1">  1        1 0.23802451E+00 0.50495013E+03</pdfrwt>
<pdfrwt beam="2">  1       -2 0.35093566E-01 0.50495013E+03</pdfrwt>
<totfact> 0.43061563E+01</totfact>
</mgrwt>
</event>
<event>
12    3  0.2212098E-007  0.5606295E+03  0.7818608E-02  0.9990631E-01
          1   -1    0    0  501    0  0.00000000000E+00  0.00000000000E+00  0.13413704838E+04  0.13413704838E+04  0.00000000000E+00 0. -1.
         -2   -1    0    0    0  501 -0.00000000000E+00 -0.00000000000E+00 -0.38093836746E+03  0.38093836746E+03  0.00000000000E+00 0.  1.
        -24    2    1    2    0    0  0.32192726963E+03 -0.43654565473E+03  0.66308500169E+03  0.86036480496E+03  0.79602779829E+02 0.  0.
    5000000    2    1    2    0    0 -0.32192726963E+03  0.43654565473E+03  0.29734711461E+03  0.86194404625E+03  0.60026907025E+03 0.  0.
        -24    2    4    4    0    0 -0.24165233656E+03  0.39456695641E+03  0.46116373327E+03  0.65787440055E+03  0.77767622880E+02 0.  0.
         24    2    4    4    0    0 -0.80274933078E+02  0.41978698320E+02 -0.16381661866E+03  0.20406964570E+03  0.81254290669E+02 0.  0.
         11    1    5    5    0    0 -0.20411206059E+03  0.33903384169E+03  0.42858806992E+03  0.58334673460E+03  0.00000000000E+00 0. -1.
        -12    1    5    5    0    0 -0.37540275963E+02  0.55533114723E+02  0.32575663349E+02  0.74527665956E+02  0.00000000000E+00 0.  1.
         13    1    3    3    0    0  0.49086234171E+02 -0.12372777921E+03  0.16451169157E+03  0.21161785935E+03  0.00000000000E+00 0. -1.
        -14    1    3    3    0    0  0.27284103546E+03 -0.31281787552E+03  0.49857331012E+03  0.64874694561E+03  0.00000000000E+00 0.  1.
          2    1    6    6  502    0 -0.36303500377E+02 -0.14177818047E+02 -0.10372832625E+03  0.11080848492E+03  0.00000000000E+00 0. -1.
         -1    1    6    6    0  502 -0.43971432701E+02  0.56156516367E+02 -0.60088292413E+02  0.93261160777E+02  0.00000000000E+00 0.  1.
<mgrwt>
<rscale>  0 0.56062953E+03</rscale>
<asrwt>0</asrwt>
<pdfrwt beam="1">  1        1 0.20636469E+00 0.56062953E+03</pdfrwt>
<pdfrwt beam="2">  1       -2 0.58605903E-01 0.56062953E+03</pdfrwt>
<totfact> 0.21282485E+01</totfact>
</mgrwt>
</event>
<event>
12    3  0.2212098E-007  0.9623094E+03  0.7818608E-02  0.9350877E-01
          1   -1    0    0  501    0  0.00000000000E+00  0.00000000000E+00  0.15821791561E+04  0.15821791561E+04  0.00000000000E+00 0. -1.
         -2   -1    0    0    0  501 -0.00000000000E+00 -0.00000000000E+00 -0.75869378082E+03  0.75869378082E+03  0.00000000000E+00 0.  1.
        -24    2    1    2    0    0  0.57559290119E+03  0.69276656581E+03 -0.11052533824E+03  0.91130325956E+03  0.83815737734E+02 0.  0.
    5000000    2    1    2    0    0 -0.57559290119E+03 -0.69276656581E+03  0.93401071357E+03  0.14295696774E+04  0.60005062027E+03 0.  0.
        -24    2    4    4    0    0 -0.51631048716E+03 -0.75467105939E+03  0.93736948044E+03  0.13119078769E+04  0.79597786178E+02 0.  0.
         24    2    4    4    0    0 -0.59282414025E+02  0.61904493575E+02 -0.33587668703E+01  0.11766180051E+03  0.80538481779E+02 0.  0.
         11    1    3    3    0    0  0.10121736043E+03  0.82458214252E+02 -0.31403859271E+02  0.13427774770E+03  0.00000000000E+00 0. -1.
        -12    1    3    3    0    0  0.47437554076E+03  0.61030835156E+03 -0.79121478972E+02  0.77702551186E+03  0.00000000000E+00 0.  1.
         13    1    5    5    0    0 -0.21859735820E+03 -0.25221551841E+03  0.34748127575E+03  0.48180982735E+03  0.00000000000E+00 0. -1.
        -14    1    5    5    0    0 -0.29771312896E+03 -0.50245554098E+03  0.58988820469E+03  0.83009804954E+03  0.00000000000E+00 0.  1.
          4    1    6    6  502    0 -0.70728011605E+02  0.49054972829E+02  0.20271932699E+02  0.88429594821E+02  0.00000000000E+00 0. -1.
         -1    1    6    6    0  502  0.11445597580E+02  0.12849520746E+02 -0.23630699569E+02  0.29232205690E+02  0.00000000000E+00 0.  1.
<mgrwt>
<rscale>  0 0.96230940E+03</rscale>
<asrwt>0</asrwt>
<pdfrwt beam="1">  1        1 0.24341218E+00 0.96230940E+03</pdfrwt>
<pdfrwt beam="2">  1       -2 0.11672212E+00 0.96230940E+03</pdfrwt>
<totfact> 0.28775329E+00</totfact>
</mgrwt>
</event>
<event>
12    3  0.2212098E-007  0.7092897E+03  0.7818608E-02  0.9701476E-01
         -2   -1    0    0    0  501 -0.00000000000E+00  0.00000000000E+00  0.52293956648E+03  0.52293956648E+03  0.00000000000E+00 0.  1.
          1   -1    0    0  501    0  0.00000000000E+00 -0.00000000000E+00 -0.13435093440E+04  0.13435093440E+04  0.00000000000E+00 0. -1.
        -24    2    1    2    0    0  0.59354280118E+02 -0.66029715661E+03 -0.69442730359E+03  0.96337153056E+03  0.79625123731E+02 0.  0.
    5000000    2    1    2    0    0 -0.59354280118E+02  0.66029715661E+03 -0.12614247398E+03  0.90307737997E+03  0.60010129551E+03 0.  0.
        -24    2    4    4    0    0  0.63256582614E+02  0.60975154823E+03 -0.28503650964E+03  0.68081298125E+03  0.80387547534E+02 0.  0.
         24    2    4    4    0    0 -0.12261086273E+03  0.50545608375E+02  0.15889403566E+03  0.22226439872E+03  0.81030032589E+02 0.  0.
         13    1    5    5    0    0  0.19843556255E+01  0.31313943364E+03 -0.17389991374E+03  0.35819187954E+03  0.00000000000E+00 0. -1.
        -14    1    5    5    0    0  0.61272226989E+02  0.29661211460E+03 -0.11113659589E+03  0.32262110172E+03  0.00000000000E+00 0.  1.
         13    1    3    3    0    0  0.76443789056E+01 -0.30319939489E+03 -0.26765469568E+03  0.40450877086E+03  0.00000000000E+00 0. -1.
        -14    1    3    3    0    0  0.51709901213E+02 -0.35709776172E+03 -0.42677260791E+03  0.55886275970E+03  0.00000000000E+00 0.  1.
          4    1    6    6  502    0 -0.94764054520E+02  0.19524167527E+02  0.57295989754E+02  0.11244665219E+03  0.00000000000E+00 0. -1.
         -3    1    6    6    0  502 -0.27846808213E+02  0.31021440849E+02  0.10159804591E+03  0.10981774653E+03  0.00000000000E+00 0.  1.
<mgrwt>
<rscale>  0 0.70928971E+03</rscale>
<asrwt>0</asrwt>
<pdfrwt beam="1">  1        1 0.20669374E+00 0.70928971E+03</pdfrwt>
<pdfrwt beam="2">  1       -2 0.80452243E-01 0.70928971E+03</pdfrwt>
<totfact> 0.10437701E+01</totfact>
</mgrwt>
</event>
<event>
12    3  0.2212098E-007  0.9027617E+03  0.7818608E-02  0.9422136E-01
          3   -1    0    0  501    0  0.00000000000E+00  0.00000000000E+00  0.75441917062E+03  0.75441917062E+03  0.00000000000E+00 0. -1.
         -4   -1    0    0    0  501 -0.00000000000E+00 -0.00000000000E+00 -0.13580768693E+04  0.13580768693E+04  0.00000000000E+00 0.  1.
        -24    2    1    2    0    0 -0.15951423841E+02  0.84722595951E+03 -0.65253393497E+03  0.10730234340E+04  0.86789856484E+02 0.  0.
    5000000    2    1    2    0    0  0.15951423841E+02 -0.84722595951E+03  0.48876236249E+02  0.10394726060E+04  0.60005677875E+03 0.  0.
        -24    2    4    4    0    0 -0.19321838273E+03 -0.25964289785E+03  0.20559126001E+03  0.39164187537E+03  0.79798587219E+02 0.  0.
         24    2    4    4    0    0  0.20916980658E+03 -0.58758306166E+03 -0.15671502376E+03  0.64783073061E+03  0.78225280554E+02 0.  0.
         11    1    3    3    0    0  0.41894572532E+01  0.48428937067E+03 -0.42377414073E+03  0.64353575538E+03  0.00000000000E+00 0. -1.
        -12    1    3    3    0    0 -0.20140881094E+02  0.36293658884E+03 -0.22875979424E+03  0.42948767860E+03  0.00000000000E+00 0.  1.
         13    1    5    5    0    0 -0.59435875437E+02 -0.14402422829E+03  0.83549993512E+02  0.17679423927E+03  0.00000000000E+00 0. -1.
        -14    1    5    5    0    0 -0.13378250730E+03 -0.11561866956E+03  0.12204126649E+03  0.21484763610E+03  0.00000000000E+00 0.  1.
          4    1    6    6  502    0  0.14431374403E+03 -0.45781069343E+03 -0.91011470340E+02  0.48856951959E+03  0.00000000000E+00 0. -1.
         -3    1    6    6    0  502  0.64856062542E+02 -0.12977236823E+03 -0.65703553418E+02  0.15926121102E+03  0.00000000000E+00 0.  1.
<mgrwt>
<rscale>  0 0.90276170E+03</rscale>
<asrwt>0</asrwt>
<pdfrwt beam="1">  1        3 0.11606449E+00 0.90276170E+03</pdfrwt>
<pdfrwt beam="2">  1       -4 0.20893490E+00 0.90276170E+03</pdfrwt>
<totfact> 0.15764765E-01</totfact>
</mgrwt>
</event>
<event>
12    3  0.2212098E-007  0.1668913E+04  0.7818608E-02  0.8779296E-01
         -2   -1    0    0    0  501 -0.00000000000E+00  0.00000000000E+00  0.18650258741E+04  0.18650258741E+04  0.00000000000E+00 0.  1.
          1   -1    0    0  501    0  0.00000000000E+00 -0.00000000000E+00 -0.43480040730E+04  0.43480040730E+04  0.00000000000E+00 0. -1.
        -24    2    1    2    0    0  0.11575015000E+04 -0.11531966722E+04 -0.37292460061E+04  0.40722606676E+04  0.79742609933E+02 0.  0.
    5000000    2    1    2    0    0 -0.11575015000E+04  0.11531966722E+04  0.12462678072E+04  0.21407692794E+04  0.60003114340E+03 0.  0.
        -24    2    4    4    0    0  0.26589188415E+02  0.10515836515E+03  0.20751492799E+03  0.24781849701E+03  0.81155994341E+02 0.  0.
         24    2    4    4    0    0 -0.11840906885E+04  0.10480383071E+04  0.10387528792E+04  0.18929507824E+04  0.61644699839E+02 0.  0.
         13    1    5    5    0    0  0.25451368592E+02  0.12328536766E+02  0.10754032613E+02  0.30255812655E+02  0.00000000000E+00 0. -1.
        -14    1    5    5    0    0  0.11378198224E+01  0.92829828386E+02  0.19676089538E+03  0.21756268435E+03  0.00000000000E+00 0.  1.
         13    1    3    3    0    0  0.80772899869E+03 -0.84067681969E+03 -0.27219488589E+04  0.29611094612E+04  0.00000000000E+00 0. -1.
        -14    1    3    3    0    0  0.34977250134E+03 -0.31251985254E+03 -0.10072971472E+04  0.11111512065E+04  0.00000000000E+00 0.  1.
          4    1    6    6  502    0 -0.10834510014E+04  0.94297832292E+03  0.92707560794E+03  0.17095447852E+04  0.00000000000E+00 0. -1.
         -1    1    6    6    0  502 -0.10063968707E+03  0.10505998416E+03  0.11167727126E+03  0.18340599718E+03  0.00000000000E+00 0.  1.
<mgrwt>
<rscale>  0 0.16689130E+04</rscale>
<asrwt>0</asrwt>
<pdfrwt beam="1">  1        1 0.66892370E+00 0.16689130E+04</pdfrwt>
<pdfrwt beam="2">  1       -2 0.28692706E+00 0.16689130E+04</pdfrwt>
<totfact> 0.14270018E-03</totfact>
</mgrwt>
</event>
<event>
12    3  0.2212098E-007  0.3886160E+03  0.7818608E-02  0.1047794E+00
         -2   -1    0    0    0  501 -0.00000000000E+00  0.00000000000E+00  0.48597336951E+03  0.48597336951E+03  0.00000000000E+00 0.  1.
          1   -1    0    0  501    0  0.00000000000E+00 -0.00000000000E+00 -0.53805026843E+03  0.53805026843E+03  0.00000000000E+00 0. -1.
        -24    2    1    2    0    0  0.98952424225E+02 -0.29937767327E+03 -0.11307756105E+03  0.34400031859E+03  0.78301410353E+02 0.  0.
    5000000    2    1    2    0    0 -0.98952424225E+02  0.29937767327E+03  0.61000662135E+02  0.68002331934E+03  0.59940976015E+03 0.  0.
        -24    2    4    4    0    0  0.70977150951E+02 -0.13360762449E+01 -0.20709660129E+03  0.23232203820E+03  0.77749508755E+02 0.  0.
         24    2    4    4    0    0 -0.16992957518E+03  0.30071374952E+03  0.26809726343E+03  0.44770128114E+03  0.96205378286E+02 0.  0.
         11    1    5    5    0    0  0.76016848713E+02  0.22481482371E+02 -0.17427789613E+03  0.19145956079E+03  0.00000000000E+00 0. -1.
        -12    1    5    5    0    0 -0.50396977625E+01 -0.23817558616E+02 -0.32818705158E+02  0.40862477412E+02  0.00000000000E+00 0.  1.
         11    1    3    3    0    0  0.83677544367E+02 -0.17946984865E+03 -0.10164867121E+03  0.22258438931E+03  0.00000000000E+00 0. -1.
        -12    1    3    3    0    0  0.15274879857E+02 -0.11990782462E+03 -0.11428889843E+02  0.12141592928E+03  0.00000000000E+00 0.  1.
          2    1    6    6  502    0 -0.16021223299E+02  0.10262364195E+03  0.49909232158E+02  0.11523551075E+03  0.00000000000E+00 0. -1.
         -1    1    6    6    0  502 -0.15390835188E+03  0.19809010756E+03  0.21818803127E+03  0.33246577039E+03  0.00000000000E+00 0.  1.
<mgrwt>
<rscale>  0 0.38861603E+03</rscale>
<asrwt>0</asrwt>
<pdfrwt beam="1">  1        1 0.82776963E-01 0.38861603E+03</pdfrwt>
<pdfrwt beam="2">  1       -2 0.74765135E-01 0.38861603E+03</pdfrwt>
<totfact> 0.59164541E+01</totfact>
</mgrwt>
</event>
<event>
12    3  0.2212098E-007  0.4147525E+03  0.7818608E-02  0.1038788E+00
          1   -1    0    0  501    0  0.00000000000E+00  0.00000000000E+00  0.38817296204E+03  0.38817296204E+03  0.00000000000E+00 0. -1.
         -2   -1    0    0    0  501 -0.00000000000E+00 -0.00000000000E+00 -0.89112237084E+03  0.89112237084E+03  0.00000000000E+00 0.  1.
        -24    2    1    2    0    0  0.22331713773E+03  0.19626959428E+03  0.15134805577E+03  0.34307451927E+03  0.80009962785E+02 0.  0.
    5000000    2    1    2    0    0 -0.22331713773E+03 -0.19626959428E+03 -0.65429746457E+03  0.93622081361E+03  0.60000995162E+03 0.  0.
        -24    2    4    4    0    0  0.32616136304E+02 -0.24469060121E+03 -0.38114927750E+02  0.26265440704E+03  0.81223685904E+02 0.  0.
         24    2    4    4    0    0 -0.25593327403E+03  0.48421006934E+02 -0.61618253682E+03  0.67356640656E+03  0.78513379125E+02 0.  0.
         11    1    3    3    0    0  0.62265692821E+02  0.38777415511E+02  0.75808325899E+02  0.10548747192E+03  0.00000000000E+00 0. -1.
        -12    1    3    3    0    0  0.16105144491E+03  0.15749217877E+03  0.75539729871E+02  0.23758704735E+03  0.00000000000E+00 0.  1.
         13    1    5    5    0    0  0.57130283983E+02 -0.12256741862E+03 -0.23230488526E+02  0.13720895398E+03  0.00000000000E+00 0. -1.
        -14    1    5    5    0    0 -0.24514147678E+02 -0.12212318259E+03 -0.14884439224E+02  0.12544545306E+03  0.00000000000E+00 0.  1.
          4    1    6    6  502    0 -0.12547691713E+03  0.61974375249E+02 -0.34601688792E+03  0.37324652262E+03  0.00000000000E+00 0. -1.
         -3    1    6    6    0  502 -0.13045635690E+03 -0.13553368315E+02 -0.27016564890E+03  0.30031988394E+03  0.00000000000E+00 0.  1.
<mgrwt>
<rscale>  0 0.41475251E+03</rscale>
<asrwt>0</asrwt>
<pdfrwt beam="1">  1        1 0.59718918E-01 0.41475251E+03</pdfrwt>
<pdfrwt beam="2">  1       -2 0.13709575E+00 0.41475251E+03</pdfrwt>
<totfact> 0.21822642E+01</totfact>
</mgrwt>
</event>
<event>
12    3  0.2212098E-007  0.8935587E+03  0.7818608E-02  0.9433669E-01
          1   -1    0    0  501    0  0.00000000000E+00  0.00000000000E+00  0.20374404426E+04  0.20374404426E+04  0.00000000000E+00 0. -1.
         -2   -1    0    0    0  501 -0.00000000000E+00 -0.00000000000E+00 -0.50448888976E+03  0.50448888976E+03  0.00000000000E+00 0.  1.
        -24    2    1    2    0    0  0.31225234812E+03 -0.73958588158E+03  0.12904190273E+03  0.81708983763E+03  0.80592710397E+02 0.  0.
    5000000    2    1    2    0    0 -0.31225234812E+03  0.73958588158E+03  0.14039096501E+04  0.17248394947E+04  0.59968339294E+03 0.  0.
        -24    2    4    4    0    0 -0.84621364317E+02  0.74338096754E+03  0.97640543773E+03  0.12325368226E+04  0.77481623337E+02 0.  0.
         24    2    4    4    0    0 -0.22763098380E+03 -0.37950859579E+01  0.42750421238E+03  0.49230267216E+03  0.88157824115E+02 0.  0.
         11    1    3    3    0    0  0.26588390901E+03 -0.65855832016E+03  0.89954997455E+02  0.71588072728E+03  0.00000000000E+00 0. -1.
        -12    1    3    3    0    0  0.46368439106E+02 -0.81027561419E+02  0.39086905279E+02  0.10120911036E+03  0.00000000000E+00 0.  1.
         13    1    5    5    0    0 -0.52457944552E+02  0.17041798312E+03  0.23403809067E+03  0.29422432395E+03  0.00000000000E+00 0. -1.
        -14    1    5    5    0    0 -0.32163419765E+02  0.57296298441E+03  0.74236734706E+03  0.93831249862E+03  0.00000000000E+00 0.  1.
          2    1    6    6  502    0 -0.80500094234E+02 -0.21141829643E+02  0.84185034016E+02  0.11838227099E+03  0.00000000000E+00 0. -1.
         -1    1    6    6    0  502 -0.14713088956E+03  0.17346743685E+02  0.34331917836E+03  0.37392040117E+03  0.00000000000E+00 0.  1.
<mgrwt>
<rscale>  0 0.89355873E+03</rscale>
<asrwt>0</asrwt>
<pdfrwt beam="1">  1        1 0.31345237E+00 0.89355873E+03</pdfrwt>
<pdfrwt beam="2">  1       -2 0.77613676E-01 0.89355873E+03</pdfrwt>
<totfact> 0.37313626E+00</totfact>
</mgrwt>
</event>
<event>
12    3  0.2212098E-007  0.7460595E+03  0.7818608E-02  0.9641553E-01
         -2   -1    0    0    0  501 -0.00000000000E+00  0.00000000000E+00  0.25569163041E+03  0.25569163041E+03  0.00000000000E+00 0.  1.
          1   -1    0    0  501    0  0.00000000000E+00 -0.00000000000E+00 -0.23558942278E+04  0.23558942278E+04  0.00000000000E+00 0. -1.
        -24    2    1    2    0    0 -0.61558704226E+03 -0.12508563463E+03 -0.56924805550E+03  0.85139156641E+03  0.78933060702E+02 0.  0.
    5000000    2    1    2    0    0  0.61558704226E+03  0.12508563463E+03 -0.15309545419E+04  0.17601942918E+04  0.59989025075E+03 0.  0.
        -24    2    4    4    0    0  0.24118792794E+03 -0.23137960481E+03 -0.55074004102E+03  0.64927440161E+03  0.80836363693E+02 0.  0.
         24    2    4    4    0    0  0.37439911432E+03  0.35646523944E+03 -0.98021450085E+03  0.11109198902E+04  0.77976733449E+02 0.  0.
         11    1    3    3    0    0 -0.42838454960E+03 -0.11446090788E+03 -0.43163670380E+03  0.61880923218E+03  0.00000000000E+00 0. -1.
        -12    1    3    3    0    0 -0.18720249266E+03 -0.10624726754E+02 -0.13761135170E+03  0.23258233423E+03  0.00000000000E+00 0.  1.
         13    1    5    5    0    0  0.48636501332E+02 -0.81267012066E+02 -0.10773996014E+03  0.14344941800E+03  0.00000000000E+00 0. -1.
        -14    1    5    5    0    0  0.19255142661E+03 -0.15011259275E+03 -0.44300008087E+03  0.50582498361E+03  0.00000000000E+00 0.  1.
          4    1    6    6  502    0  0.14706351014E+03  0.91444537218E+02 -0.30332608162E+03  0.34927996105E+03  0.00000000000E+00 0. -1.
         -3    1    6    6    0  502  0.22733560418E+03  0.26502070223E+03 -0.67688841923E+03  0.76163992911E+03  0.00000000000E+00 0.  1.
<mgrwt>
<rscale>  0 0.74605954E+03</rscale>
<asrwt>0</asrwt>
<pdfrwt beam="1">  1        1 0.36244529E+00 0.74605954E+03</pdfrwt>
<pdfrwt beam="2">  1       -2 0.39337171E-01 0.74605954E+03</pdfrwt>
<totfact> 0.95893785E+00</totfact>
</mgrwt>
</event>
<event>
12    3  0.2212098E-007  0.8962967E+03  0.7818608E-02  0.9430223E-01
         -2   -1    0    0    0  501 -0.00000000000E+00  0.00000000000E+00  0.77275683857E+03  0.77275683857E+03  0.00000000000E+00 0.  1.
          1   -1    0    0  501    0  0.00000000000E+00 -0.00000000000E+00 -0.10485894686E+04  0.10485894686E+04  0.00000000000E+00 0. -1.
        -24    2    1    2    0    0  0.72787513247E+03  0.32585229846E+03 -0.15126831468E+03  0.81557324652E+03  0.79345375000E+02 0.  0.
    5000000    2    1    2    0    0 -0.72787513247E+03 -0.32585229846E+03 -0.12456431534E+03  0.10057730606E+04  0.60006770615E+03 0.  0.
        -24    2    4    4    0    0 -0.82034235793E+03 -0.28521813257E+03 -0.11754626008E+03  0.87949543122E+03  0.73376582876E+02 0.  0.
         24    2    4    4    0    0  0.92467225456E+02 -0.40634165890E+02 -0.70180552628E+01  0.12627762942E+03  0.75468293813E+02 0.  0.
         11    1    5    5    0    0 -0.55097114994E+03 -0.15549717806E+03 -0.69927844926E+02  0.57674819805E+03  0.00000000000E+00 0. -1.
        -12    1    5    5    0    0 -0.26937120799E+03 -0.12972095451E+03 -0.47618415151E+02  0.30274723317E+03  0.00000000000E+00 0.  1.
         13    1    3    3    0    0  0.58187756421E+03  0.28616651372E+03 -0.10170323704E+03  0.65636599679E+03  0.00000000000E+00 0. -1.
        -14    1    3    3    0    0  0.14599756826E+03  0.39685784736E+02 -0.49565077636E+02  0.15920724974E+03  0.00000000000E+00 0.  1.
          2    1    6    6  502    0 -0.10725103860E+01  0.13346262726E+02 -0.12257416268E+02  0.18152610304E+02  0.00000000000E+00 0. -1.
         -1    1    6    6    0  502  0.93539735842E+02 -0.53980428616E+02  0.52393610053E+01  0.10812501912E+03  0.00000000000E+00 0.  1.
<mgrwt>
<rscale>  0 0.89629672E+03</rscale>
<asrwt>0</asrwt>
<pdfrwt beam="1">  1        1 0.16132146E+00 0.89629672E+03</pdfrwt>
<pdfrwt beam="2">  1       -2 0.11888567E+00 0.89629672E+03</pdfrwt>
<totfact> 0.66625273E+00</totfact>
</mgrwt>
</event>
<event>
12    3  0.2212098E-007  0.6107474E+03  0.7818608E-02  0.9883356E-01
          1   -1    0    0  501    0  0.00000000000E+00  0.00000000000E+00  0.16829199875E+04  0.16829199875E+04  0.00000000000E+00 0. -1.
         -2   -1    0    0    0  501 -0.00000000000E+00 -0.00000000000E+00 -0.22974316143E+03  0.22974316143E+03  0.00000000000E+00 0.  1.
        -24    2    1    2    0    0  0.45126601025E+03  0.13934333061E+03  0.51995441223E+03  0.70695736149E+03  0.79865789788E+02 0.  0.
    5000000    2    1    2    0    0 -0.45126601025E+03 -0.13934333061E+03  0.93322241388E+03  0.12057057875E+04  0.59980396498E+03 0.  0.
        -24    2    4    4    0    0  0.12509466932E+03 -0.68548460181E+02  0.31149411535E+03  0.35127397406E+03  0.77570956335E+02 0.  0.
         24    2    4    4    0    0 -0.57636067957E+03 -0.70794870433E+02  0.62172829852E+03  0.85443181342E+03  0.79398362468E+02 0.  0.
         11    1    5    5    0    0  0.93860003475E+01  0.13221673272E+02  0.64694746197E+02  0.66695725741E+02  0.00000000000E+00 0. -1.
        -12    1    5    5    0    0  0.11570866897E+03 -0.81770133453E+02  0.24679936915E+03  0.28457824832E+03  0.00000000000E+00 0.  1.
         13    1    3    3    0    0  0.28926962007E+03  0.12528741256E+03  0.36585957149E+03  0.48293589108E+03  0.00000000000E+00 0. -1.
        -14    1    3    3    0    0  0.16199639018E+03  0.14055918049E+02  0.15409484074E+03  0.22402147041E+03  0.00000000000E+00 0.  1.
          2    1    6    6  502    0 -0.38918909457E+03 -0.11298080512E+02  0.39936892125E+03  0.55775562141E+03  0.00000000000E+00 0. -1.
         -1    1    6    6    0  502 -0.18717158500E+03 -0.59496789921E+02  0.22235937728E+03  0.29667619201E+03  0.00000000000E+00 0.  1.
<mgrwt>
<rscale>  0 0.61074739E+03</rscale>
<asrwt>0</asrwt>
<pdfrwt beam="1">  1        1 0.25891076E+00 0.61074739E+03</pdfrwt>
<pdfrwt beam="2">  1       -2 0.35345103E-01 0.61074739E+03</pdfrwt>
<totfact> 0.33891792E+01</totfact>
</mgrwt>
</event>
<event>
12    3  0.2212098E-007  0.1067054E+04  0.7818608E-02  0.9237912E-01
          1   -1    0    0  501    0  0.00000000000E+00  0.00000000000E+00  0.19828555067E+04  0.19828555067E+04  0.00000000000E+00 0. -1.
         -2   -1    0    0    0  501 -0.00000000000E+00 -0.00000000000E+00 -0.71909850083E+03  0.71909850083E+03  0.00000000000E+00 0.  1.
        -24    2    1    2    0    0  0.93895463026E+03  0.49257825187E+03  0.99103998916E+03  0.14535115274E+04  0.79160395962E+02 0.  0.
    5000000    2    1    2    0    0 -0.93895463026E+03 -0.49257825187E+03  0.27271701672E+03  0.12484424801E+04  0.59997076851E+03 0.  0.
        -24    2    4    4    0    0 -0.59811952692E+03 -0.36615449218E+03  0.44886096072E+03  0.83662433219E+03  0.81535455615E+02 0.  0.
         24    2    4    4    0    0 -0.34083510334E+03 -0.12642375970E+03 -0.17614394401E+03  0.41181814794E+03  0.80099708339E+02 0.  0.
         11    1    3    3    0    0  0.43202267433E+03  0.20524539896E+03  0.39976131221E+03  0.62336054709E+03  0.00000000000E+00 0. -1.
        -12    1    3    3    0    0  0.50693195593E+03  0.28733285292E+03  0.59127867695E+03  0.83015098032E+03  0.00000000000E+00 0.  1.
         11    1    5    5    0    0 -0.51617320152E+03 -0.32254285786E+03  0.35504977776E+03  0.70464814894E+03  0.00000000000E+00 0. -1.
        -12    1    5    5    0    0 -0.81946325404E+02 -0.43611634317E+02  0.93811182965E+02  0.13197618325E+03  0.00000000000E+00 0.  1.
          2    1    6    6  502    0 -0.23715394527E+03 -0.48858391018E+02 -0.10328666466E+03  0.26324374869E+03  0.00000000000E+00 0. -1.
         -1    1    6    6    0  502 -0.10368115807E+03 -0.77565368678E+02 -0.72857279342E+02  0.14857439924E+03  0.00000000000E+00 0.  1.
<mgrwt>
<rscale>  0 0.10670540E+04</rscale>
<asrwt>0</asrwt>
<pdfrwt beam="1">  1        1 0.30505469E+00 0.10670540E+04</pdfrwt>
<pdfrwt beam="2">  1       -2 0.11063054E+00 0.10670540E+04</pdfrwt>
<totfact> 0.17344062E+00</totfact>
</mgrwt>
</event>
<event>
12    3  0.3334588E-007  0.1302242E+04  0.7818608E-02  0.9027789E-01
         -2   -1    0    0    0  501 -0.00000000000E+00  0.00000000000E+00  0.13107212235E+04  0.13107212235E+04  0.00000000000E+00 0.  1.
          1   -1    0    0  501    0  0.00000000000E+00 -0.00000000000E+00 -0.13862556817E+04  0.13862556817E+04  0.00000000000E+00 0. -1.
        -24    2    1    2    0    0 -0.45215588790E+03  0.11559551781E+04  0.27633813558E+03  0.12741328831E+04  0.79840576919E+02 0.  0.
    5000000    2    1    2    0    0  0.45215588790E+03 -0.11559551781E+04 -0.35187259379E+03  0.14228440221E+04  0.59999455677E+03 0.  0.
        -24    2    4    4    0    0  0.25394845456E+03 -0.76859559800E+02 -0.45248921799E+02  0.28095041692E+03  0.80550992142E+02 0.  0.
         24    2    4    4    0    0  0.19820743334E+03 -0.10790956183E+04 -0.30662367199E+03  0.11418936052E+04  0.78545459402E+02 0.  0.
         11    1    3    3    0    0 -0.23793205394E+03  0.63497025183E+03  0.11141169427E+03  0.68717643195E+03  0.00000000000E+00 0. -1.
        -12    1    3    3    0    0 -0.21422383397E+03  0.52098492631E+03  0.16492644130E+03  0.58695645113E+03  0.00000000000E+00 0.  1.
         13    1    5    5    0    0  0.11900872096E+03 -0.35222057631E+02  0.19434290832E+02  0.12562388574E+03  0.00000000000E+00 0. -1.
        -14    1    5    5    0    0  0.13493973360E+03 -0.41637502169E+02 -0.64683212631E+02  0.15532653118E+03  0.00000000000E+00 0.  1.
          4    1    6    6  502    0  0.18155544841E+02 -0.17299322176E+03 -0.22631821074E+02  0.17540945786E+03  0.00000000000E+00 0. -1.
         -3    1    6    6    0  502  0.18005188850E+03 -0.90610239658E+03 -0.28399185092E+03  0.96648414733E+03  0.00000000000E+00 0.  1.
<mgrwt>
<rscale>  0 0.13022423E+04</rscale>
<asrwt>0</asrwt>
<pdfrwt beam="1">  1        1 0.21327010E+00 0.13022423E+04</pdfrwt>
<pdfrwt beam="2">  1       -2 0.20164942E+00 0.13022423E+04</pdfrwt>
<totfact> 0.86085010E-01</totfact>
</mgrwt>
</event>
<event>
12    3  0.2212098E-007  0.4853234E+03  0.7818608E-02  0.1017682E+00
         -2   -1    0    0    0  501 -0.00000000000E+00  0.00000000000E+00  0.65683159570E+02  0.65683159570E+02  0.00000000000E+00 0.  1.
          1   -1    0    0  501    0  0.00000000000E+00 -0.00000000000E+00 -0.41189772323E+04  0.41189772323E+04  0.00000000000E+00 0. -1.
        -24    2    1    2    0    0 -0.27894784021E+03 -0.11478533295E+03 -0.20036391185E+04  0.20277843479E+04  0.79699901409E+02 0.  0.
    5000000    2    1    2    0    0  0.27894784021E+03  0.11478533295E+03 -0.20496549542E+04  0.21568760439E+04  0.60003438845E+03 0.  0.
        -24    2    4    4    0    0  0.43315661589E+03 -0.28971530647E+02 -0.14677811962E+04  0.15328001564E+04  0.81428963437E+02 0.  0.
         24    2    4    4    0    0 -0.15420877568E+03  0.14375686360E+03 -0.58187375801E+03  0.62407588752E+03  0.80294836641E+02 0.  0.
         13    1    5    5    0    0  0.22781464485E+03 -0.52798058352E+02 -0.72435226589E+03  0.76116578514E+03  0.00000000000E+00 0. -1.
        -14    1    5    5    0    0  0.20534197105E+03  0.23826527705E+02 -0.74342893033E+03  0.77163437129E+03  0.00000000000E+00 0.  1.
         13    1    3    3    0    0 -0.20150035590E+03 -0.58202484206E+02 -0.11705376692E+04  0.11891796995E+04  0.00000000000E+00 0. -1.
        -14    1    3    3    0    0 -0.77447484313E+02 -0.56582848744E+02 -0.83310144928E+03  0.83860464844E+03  0.00000000000E+00 0.  1.
          2    1    6    6  502    0 -0.82871545327E+02  0.26203334799E+02 -0.25702859654E+03  0.27132638504E+03  0.00000000000E+00 0. -1.
         -1    1    6    6    0  502 -0.71337230356E+02  0.11755352880E+03 -0.32484516147E+03  0.35274950248E+03  0.00000000000E+00 0.  1.
<mgrwt>
<rscale>  0 0.48532339E+03</rscale>
<asrwt>0</asrwt>
<pdfrwt beam="1">  1        1 0.63368899E+00 0.48532339E+03</pdfrwt>
<pdfrwt beam="2">  1       -2 0.10105099E-01 0.48532339E+03</pdfrwt>
<totfact> 0.52313345E+00</totfact>
</mgrwt>
</event>
<event>
12    3  0.2212098E-007  0.6076538E+03  0.7818608E-02  0.9889653E-01
         -2   -1    0    0    0  501 -0.00000000000E+00  0.00000000000E+00  0.57814128962E+03  0.57814128962E+03  0.00000000000E+00 0.  1.
          1   -1    0    0  501    0  0.00000000000E+00 -0.00000000000E+00 -0.13931828090E+04  0.13931828090E+04  0.00000000000E+00 0. -1.
        -24    2    1    2    0    0 -0.24506555663E+03  0.51587359646E+03  0.24412092518E+03  0.62668914573E+03  0.83435991563E+02 0.  0.
    5000000    2    1    2    0    0  0.24506555663E+03 -0.51587359646E+03 -0.10591624445E+04  0.13446349528E+04  0.60002948091E+03 0.  0.
        -24    2    4    4    0    0 -0.38788350166E+02 -0.89412530376E+02 -0.70637294286E+03  0.71744482974E+03  0.79153096080E+02 0.  0.
         24    2    4    4    0    0  0.28385390680E+03 -0.42646106609E+03 -0.35278950166E+03  0.62719012311E+03  0.80404830392E+02 0.  0.
         13    1    3    3    0    0 -0.10351471808E+03  0.16997996279E+03  0.12233007281E+03  0.23360892817E+03  0.00000000000E+00 0. -1.
        -14    1    3    3    0    0 -0.14155083855E+03  0.34589363367E+03  0.12179085236E+03  0.39308021755E+03  0.00000000000E+00 0.  1.
         13    1    5    5    0    0 -0.35071623497E+02  0.70528122791E+00 -0.22012587099E+03  0.22290337655E+03  0.00000000000E+00 0. -1.
        -14    1    5    5    0    0 -0.37167266689E+01 -0.90117811604E+02 -0.48624707187E+03  0.49454145320E+03  0.00000000000E+00 0.  1.
          4    1    6    6  502    0  0.22983448293E+02 -0.83357844980E+01 -0.26925780905E+02  0.36369243544E+02  0.00000000000E+00 0. -1.
         -3    1    6    6    0  502  0.26087045851E+03 -0.41812528159E+03 -0.32586372075E+03  0.59082087956E+03  0.00000000000E+00 0.  1.
<mgrwt>
<rscale>  0 0.60765384E+03</rscale>
<asrwt>0</asrwt>
<pdfrwt beam="1">  1        1 0.21433582E+00 0.60765384E+03</pdfrwt>
<pdfrwt beam="2">  1       -2 0.88944814E-01 0.60765384E+03</pdfrwt>
<totfact> 0.77949006E+00</totfact>
</mgrwt>
</event>
<event>
12    3  0.2212098E-007  0.6477063E+03  0.7818608E-02  0.9811093E-01
          1   -1    0    0  501    0  0.00000000000E+00  0.00000000000E+00  0.55463524282E+03  0.55463524282E+03  0.00000000000E+00 0. -1.
         -2   -1    0    0    0  501 -0.00000000000E+00 -0.00000000000E+00 -0.90021717936E+03  0.90021717936E+03  0.00000000000E+00 0.  1.
        -24    2    1    2    0    0  0.53579968472E+03 -0.92847113443E+02 -0.33807512966E+03  0.64514719650E+03  0.78855711544E+02 0.  0.
    5000000    2    1    2    0    0 -0.53579968472E+03  0.92847113443E+02 -0.75068068814E+01  0.80970522568E+03  0.59988691579E+03 0.  0.
        -24    2    4    4    0    0 -0.24025226755E+03 -0.20838411919E+03 -0.14495630027E+03  0.35864588144E+03  0.80432866974E+02 0.  0.
         24    2    4    4    0    0 -0.29554741716E+03  0.30123123264E+03  0.13744949339E+03  0.45105934424E+03  0.80458918006E+02 0.  0.
         11    1    3    3    0    0  0.15356201703E+03  0.37217496022E+01 -0.72988641213E+02  0.17006612314E+03  0.00000000000E+00 0. -1.
        -12    1    3    3    0    0  0.38223766769E+03 -0.96568863045E+02 -0.26508648845E+03  0.47508107336E+03  0.00000000000E+00 0.  1.
         13    1    5    5    0    0 -0.18292823311E+03 -0.19346957855E+03 -0.10053000282E+03  0.28460410707E+03  0.00000000000E+00 0. -1.
        -14    1    5    5    0    0 -0.57324034439E+02 -0.14914540647E+02 -0.44426297449E+02  0.74041774372E+02  0.00000000000E+00 0.  1.
          2    1    6    6  502    0 -0.84940408079E+02  0.81928077624E+02  0.77403212592E+02  0.14113234975E+03  0.00000000000E+00 0. -1.
         -1    1    6    6    0  502 -0.21060700909E+03  0.21930315501E+03  0.60046280801E+02  0.30992699449E+03  0.00000000000E+00 0.  1.
<mgrwt>
<rscale>  0 0.64770633E+03</rscale>
<asrwt>0</asrwt>
<pdfrwt beam="1">  1        1 0.85328500E-01 0.64770633E+03</pdfrwt>
<pdfrwt beam="2">  1       -2 0.13849495E+00 0.64770633E+03</pdfrwt>
<totfact> 0.12771180E+01</totfact>
</mgrwt>
</event>
<event>
12    3  0.2212098E-007  0.9209500E+03  0.7818608E-02  0.9399765E-01
         -2   -1    0    0    0  501 -0.00000000000E+00  0.00000000000E+00  0.73683970964E+03  0.73683970964E+03  0.00000000000E+00 0.  1.
          1   -1    0    0  501    0  0.00000000000E+00 -0.00000000000E+00 -0.15551037966E+04  0.15551037966E+04  0.00000000000E+00 0. -1.
        -24    2    1    2    0    0 -0.53703350250E+03  0.67305447131E+03 -0.88840012680E+03  0.12399979967E+04  0.83264292176E+02 0.  0.
    5000000    2    1    2    0    0  0.53703350250E+03 -0.67305447131E+03  0.70136039827E+02  0.10519455096E+04  0.60021911570E+03 0.  0.
        -24    2    4    4    0    0 -0.15235313528E+02 -0.29843554448E+03 -0.15181823030E+03  0.34417190367E+03  0.78164155706E+02 0.  0.
         24    2    4    4    0    0  0.55226881603E+03 -0.37461892683E+03  0.22195427012E+03  0.70777360590E+03  0.79621565410E+02 0.  0.
         11    1    3    3    0    0 -0.31230646062E+03  0.45516153048E+03 -0.56071885297E+03  0.78683732515E+03  0.00000000000E+00 0. -1.
        -12    1    3    3    0    0 -0.22472704188E+03  0.21789294083E+03 -0.32768127383E+03  0.45316067154E+03  0.00000000000E+00 0.  1.
         13    1    5    5    0    0 -0.35474895387E+02 -0.25203012136E+03 -0.10536464450E+03  0.27546208194E+03  0.00000000000E+00 0. -1.
        -14    1    5    5    0    0  0.20239581859E+02 -0.46405423117E+02 -0.46453585795E+02  0.68709821726E+02  0.00000000000E+00 0.  1.
          2    1    6    6  502    0  0.47926803782E+03 -0.29081922796E+03  0.19343751468E+03  0.59303604234E+03  0.00000000000E+00 0. -1.
         -1    1    6    6    0  502  0.73000778208E+02 -0.83799698870E+02  0.28516755445E+02  0.11473756356E+03  0.00000000000E+00 0.  1.
<mgrwt>
<rscale>  0 0.92095003E+03</rscale>
<asrwt>0</asrwt>
<pdfrwt beam="1">  1        1 0.23924673E+00 0.92095003E+03</pdfrwt>
<pdfrwt beam="2">  1       -2 0.11335996E+00 0.92095003E+03</pdfrwt>
<totfact> 0.32425746E+00</totfact>
</mgrwt>
</event>
<event>
12    3  0.2212098E-007  0.1528951E+04  0.7818608E-02  0.8865426E-01
          1   -1    0    0  501    0  0.00000000000E+00  0.00000000000E+00  0.25497578156E+04  0.25497578156E+04  0.00000000000E+00 0. -1.
         -2   -1    0    0    0  501 -0.00000000000E+00 -0.00000000000E+00 -0.92334739902E+03  0.92334739902E+03  0.00000000000E+00 0.  1.
        -24    2    1    2    0    0  0.11161324572E+04  0.96295010491E+03  0.74064290016E+03  0.16516712106E+04  0.80257809233E+02 0.  0.
    5000000    2    1    2    0    0 -0.11161324572E+04 -0.96295010491E+03  0.88576751644E+03  0.18214340040E+04  0.60001097602E+03 0.  0.
        -24    2    4    4    0    0 -0.71713118328E+03 -0.93224545513E+03  0.59585884633E+03  0.13208689716E+04  0.79299134066E+02 0.  0.
         24    2    4    4    0    0 -0.39900127389E+03 -0.30704649783E+02  0.28990867011E+03  0.50056503246E+03  0.79834344932E+02 0.  0.
         11    1    5    5    0    0 -0.13417446786E+03 -0.22314035243E+03  0.14759731581E+03  0.29929813288E+03  0.00000000000E+00 0. -1.
        -12    1    5    5    0    0 -0.58295671542E+03 -0.70910510270E+03  0.44826153052E+03  0.10215708387E+04  0.00000000000E+00 0.  1.
         13    1    3    3    0    0  0.49763759285E+03  0.41940711445E+03  0.28330352178E+03  0.70979320011E+03  0.00000000000E+00 0. -1.
        -14    1    3    3    0    0  0.61849486431E+03  0.54354299047E+03  0.45733937838E+03  0.94187801051E+03  0.00000000000E+00 0.  1.
          2    1    6    6  502    0 -0.15010640751E+03 -0.43065023747E+02  0.14012604970E+03  0.20981382140E+03  0.00000000000E+00 0. -1.
         -1    1    6    6    0  502 -0.24889486638E+03  0.12360373964E+02  0.14978262041E+03  0.29075121105E+03  0.00000000000E+00 0.  1.
<mgrwt>
<rscale>  0 0.15289514E+04</rscale>
<asrwt>0</asrwt>
<pdfrwt beam="1">  1        1 0.39227043E+00 0.15289514E+04</pdfrwt>
<pdfrwt beam="2">  1       -2 0.14205345E+00 0.15289514E+04</pdfrwt>
<totfact> 0.35863872E-01</totfact>
</mgrwt>
</event>
<event>
12    3  0.2212098E-007  0.6208536E+03  0.7818608E-02  0.9863062E-01
          1   -1    0    0  501    0  0.00000000000E+00  0.00000000000E+00  0.10190814087E+04  0.10190814087E+04  0.00000000000E+00 0. -1.
         -2   -1    0    0    0  501 -0.00000000000E+00 -0.00000000000E+00 -0.52810524213E+03  0.52810524213E+03  0.00000000000E+00 0.  1.
        -24    2    1    2    0    0 -0.37877494383E+03 -0.42385641848E+03 -0.20598876729E+02  0.57515017463E+03  0.85139227671E+02 0.  0.
    5000000    2    1    2    0    0  0.37877494383E+03  0.42385641848E+03  0.51157504331E+03  0.97203647622E+03  0.60001763692E+03 0.  0.
        -24    2    4    4    0    0  0.40276644890E+03  0.23921971223E+03  0.64146216942E+02  0.48056133144E+03  0.85892799790E+02 0.  0.
         24    2    4    4    0    0 -0.23991505064E+02  0.18463670625E+03  0.44742882637E+03  0.49147514478E+03  0.81786048099E+02 0.  0.
         13    1    5    5    0    0  0.36613054548E+02  0.25524693140E+02 -0.19045377109E+02  0.48525788117E+02  0.00000000000E+00 0. -1.
        -14    1    5    5    0    0  0.36615339435E+03  0.21369501909E+03  0.83191594051E+02  0.43203554333E+03  0.00000000000E+00 0.  1.
         13    1    3    3    0    0 -0.12207443177E+03 -0.82640188314E+02 -0.14320726079E+02  0.14811026572E+03  0.00000000000E+00 0. -1.
        -14    1    3    3    0    0 -0.25670051206E+03 -0.34121623017E+03 -0.62781506493E+01  0.42703990890E+03  0.00000000000E+00 0.  1.
          4    1    6    6  502    0 -0.41075066875E+02  0.58812494572E+02  0.11407176504E+03  0.13475324937E+03  0.00000000000E+00 0. -1.
         -3    1    6    6    0  502  0.17083561812E+02  0.12582421168E+03  0.33335706133E+03  0.35672189541E+03  0.00000000000E+00 0.  1.
<mgrwt>
<rscale>  0 0.62085364E+03</rscale>
<asrwt>0</asrwt>
<pdfrwt beam="1">  1        1 0.15678176E+00 0.62085364E+03</pdfrwt>
<pdfrwt beam="2">  1       -2 0.81246960E-01 0.62085364E+03</pdfrwt>
<totfact> 0.17792322E+01</totfact>
</mgrwt>
</event>
<event>
12    3  0.2212098E-007  0.1446915E+04  0.7818608E-02  0.8920542E-01
         -2   -1    0    0    0  501 -0.00000000000E+00  0.00000000000E+00  0.23516988099E+04  0.23516988099E+04  0.00000000000E+00 0.  1.
          1   -1    0    0  501    0  0.00000000000E+00 -0.00000000000E+00 -0.10397967063E+04  0.10397967063E+04  0.00000000000E+00 0. -1.
        -24    2    1    2    0    0 -0.14926141465E+03  0.13922005536E+04  0.12309738933E+04  0.18660632349E+04  0.79961987559E+02 0.  0.
    5000000    2    1    2    0    0  0.14926141465E+03 -0.13922005536E+04  0.80928210323E+02  0.15254322814E+04  0.59991075873E+03 0.  0.
        -24    2    4    4    0    0  0.18769896602E+03 -0.14013417269E+04  0.14259819308E+03  0.14229992124E+04  0.74853030900E+02 0.  0.
         24    2    4    4    0    0 -0.38437551367E+02  0.91411733175E+01 -0.61669982756E+02  0.10243306901E+03  0.71612432222E+02 0.  0.
         11    1    3    3    0    0 -0.14628269277E+03  0.11179331414E+04  0.10133464531E+04  0.15159301333E+04  0.00000000000E+00 0. -1.
        -12    1    3    3    0    0 -0.29787218850E+01  0.27426741218E+03  0.21762744016E+03  0.35013310166E+03  0.00000000000E+00 0.  1.
         13    1    5    5    0    0  0.14712967969E+03 -0.11806325923E+04  0.14508735249E+03  0.11985786584E+04  0.00000000000E+00 0. -1.
        -14    1    5    5    0    0  0.40569286331E+02 -0.22070913465E+03 -0.24891594108E+01  0.22442055393E+03  0.00000000000E+00 0.  1.
          2    1    6    6  502    0 -0.16853301579E+02  0.38177252768E+02 -0.17283095661E+02  0.45169035839E+02  0.00000000000E+00 0. -1.
         -1    1    6    6    0  502 -0.21584249787E+02 -0.29036079451E+02 -0.44386887096E+02  0.57264033169E+02  0.00000000000E+00 0.  1.
<mgrwt>
<rscale>  0 0.14469149E+04</rscale>
<asrwt>0</asrwt>
<pdfrwt beam="1">  1        1 0.15996872E+00 0.14469149E+04</pdfrwt>
<pdfrwt beam="2">  1       -2 0.36179982E+00 0.14469149E+04</pdfrwt>
<totfact> 0.15462714E-01</totfact>
</mgrwt>
</event>
<event>
12    3  0.2212098E-007  0.7808231E+03  0.7818608E-02  0.9588197E-01
          1   -1    0    0  501    0  0.00000000000E+00  0.00000000000E+00  0.94011235701E+03  0.94011235701E+03  0.00000000000E+00 0. -1.
         -2   -1    0    0    0  501 -0.00000000000E+00 -0.00000000000E+00 -0.72964290432E+03  0.72964290432E+03  0.00000000000E+00 0.  1.
        -24    2    1    2    0    0 -0.49162649256E+03  0.52007933898E+03  0.45770010610E+02  0.72109866368E+03  0.75559657692E+02 0.  0.
    5000000    2    1    2    0    0  0.49162649256E+03 -0.52007933898E+03  0.16469944208E+03  0.94865659765E+03  0.60053668249E+03 0.  0.
        -24    2    4    4    0    0  0.50602660310E+03 -0.23726866779E+03  0.28285222416E+03  0.63168201041E+03  0.81593123491E+02 0.  0.
         24    2    4    4    0    0 -0.14400110539E+02 -0.28281067119E+03 -0.11815278208E+03  0.31697458724E+03  0.79520878521E+02 0.  0.
         11    1    3    3    0    0 -0.30105733507E+03  0.28817784838E+03  0.57566582734E+02  0.42070880992E+03  0.00000000000E+00 0. -1.
        -12    1    3    3    0    0 -0.19056915749E+03  0.23190149060E+03 -0.11796572124E+02  0.30038985376E+03  0.00000000000E+00 0.  1.
         13    1    5    5    0    0  0.40814498842E+03 -0.20372450032E+03  0.19559000886E+03  0.49632797138E+03  0.00000000000E+00 0. -1.
        -14    1    5    5    0    0  0.97881614685E+02 -0.33544167469E+02  0.87262215300E+02  0.13535403904E+03  0.00000000000E+00 0.  1.
          2    1    6    6  502    0  0.68698520911E+01 -0.17915376595E+03 -0.35648604812E+02  0.18279521259E+03  0.00000000000E+00 0. -1.
         -1    1    6    6    0  502 -0.21269962630E+02 -0.10365690524E+03 -0.82504177268E+02  0.13417937464E+03  0.00000000000E+00 0.  1.
<mgrwt>
<rscale>  0 0.78082315E+03</rscale>
<asrwt>0</asrwt>
<pdfrwt beam="1">  1        1 0.14463267E+00 0.78082315E+03</pdfrwt>
<pdfrwt beam="2">  1       -2 0.11225275E+00 0.78082315E+03</pdfrwt>
<totfact> 0.94377416E+00</totfact>
</mgrwt>
</event>
<event>
12    3  0.2212098E-007  0.6605188E+03  0.7818608E-02  0.9787239E-01
         -2   -1    0    0    0  501 -0.00000000000E+00  0.00000000000E+00  0.70188364798E+03  0.70188364798E+03  0.00000000000E+00 0.  1.
          1   -1    0    0  501    0  0.00000000000E+00 -0.00000000000E+00 -0.19810951716E+04  0.19810951716E+04  0.00000000000E+00 0. -1.
        -24    2    1    2    0    0  0.54578076116E+03  0.80183731701E+02 -0.16833156891E+04  0.17732370771E+04  0.80696668617E+02 0.  0.
    5000000    2    1    2    0    0 -0.54578076116E+03 -0.80183731701E+02  0.40410416543E+03  0.90974174254E+03  0.60001982593E+03 0.  0.
        -24    2    4    4    0    0 -0.20698451627E+03 -0.28794812725E+03  0.33584639030E+03  0.49445635141E+03  0.77055639693E+02 0.  0.
         24    2    4    4    0    0 -0.33879624489E+03  0.20776439555E+03  0.68257775130E+02  0.41528539112E+03  0.99266774936E+02 0.  0.
         11    1    3    3    0    0  0.40092030050E+03  0.79560518389E+02 -0.13295730899E+04  0.13909822303E+04  0.00000000000E+00 0. -1.
        -12    1    3    3    0    0  0.14486046066E+03  0.62321331221E+00 -0.35374259913E+03  0.38225484680E+03  0.00000000000E+00 0.  1.
         13    1    5    5    0    0 -0.19699097699E+03 -0.24548054389E+03  0.31767663679E+03  0.44719636404E+03  0.00000000000E+00 0. -1.
        -14    1    5    5    0    0 -0.99935392795E+01 -0.42467583362E+02  0.18169753508E+02  0.47259987373E+02  0.00000000000E+00 0.  1.
          4    1    6    6  502    0 -0.10825485191E+03  0.12195061703E+03  0.38001470498E+02  0.16743708584E+03  0.00000000000E+00 0. -1.
         -3    1    6    6    0  502 -0.23054139298E+03  0.85813778527E+02  0.30256304632E+02  0.24784830529E+03  0.00000000000E+00 0.  1.
<mgrwt>
<rscale>  0 0.66051883E+03</rscale>
<asrwt>0</asrwt>
<pdfrwt beam="1">  1        1 0.30478386E+00 0.66051883E+03</pdfrwt>
<pdfrwt beam="2">  1       -2 0.10798210E+00 0.66051883E+03</pdfrwt>
<totfact> 0.19664732E+00</totfact>
</mgrwt>
</event>
<event>
12    3  0.2212098E-007  0.1040951E+04  0.7818608E-02  0.9264737E-01
          1   -1    0    0  501    0  0.00000000000E+00  0.00000000000E+00  0.23671233009E+04  0.23671233009E+04  0.00000000000E+00 0. -1.
         -2   -1    0    0    0  501 -0.00000000000E+00 -0.00000000000E+00 -0.55409754648E+03  0.55409754648E+03  0.00000000000E+00 0.  1.
        -24    2    1    2    0    0 -0.76936023355E+03 -0.69144518501E+03  0.52218959889E+03  0.11615293003E+04  0.80353751129E+02 0.  0.
    5000000    2    1    2    0    0  0.76936023355E+03  0.69144518501E+03  0.12908361555E+04  0.17596915471E+04  0.60020392173E+03 0.  0.
        -24    2    4    4    0    0  0.26739374348E+03  0.27237626338E+03  0.93146574436E+03  0.10097639921E+04  0.79414380509E+02 0.  0.
         24    2    4    4    0    0  0.50196649007E+03  0.41906892164E+03  0.35937041114E+03  0.74992755502E+03  0.75200579364E+02 0.  0.
         11    1    3    3    0    0 -0.39971368819E+03 -0.33274822377E+03  0.30155420656E+03  0.60118828369E+03  0.00000000000E+00 0. -1.
        -12    1    3    3    0    0 -0.36964654537E+03 -0.35869696124E+03  0.22063539232E+03  0.56034101657E+03  0.00000000000E+00 0.  1.
         13    1    5    5    0    0 -0.51176082623E+00  0.21967659691E+02  0.73480634969E+02  0.76695786630E+02  0.00000000000E+00 0. -1.
        -14    1    5    5    0    0  0.26790550431E+03  0.25040860368E+03  0.85798510939E+03  0.93306820543E+03  0.00000000000E+00 0.  1.
          2    1    6    6  502    0  0.21716732826E+02  0.16967937756E+01  0.14941845819E+02  0.26415040228E+02  0.00000000000E+00 0. -1.
         -1    1    6    6    0  502  0.48024975725E+03  0.41737212786E+03  0.34442856532E+03  0.72351251479E+03  0.00000000000E+00 0.  1.
<mgrwt>
<rscale>  0 0.10409511E+04</rscale>
<asrwt>0</asrwt>
<pdfrwt beam="1">  1        1 0.36417281E+00 0.10409511E+04</pdfrwt>
<pdfrwt beam="2">  1       -2 0.85245778E-01 0.10409511E+04</pdfrwt>
<totfact> 0.17704515E+00</totfact>
</mgrwt>
</event>
<event>
12    3  0.2212098E-007  0.1147540E+04  0.7818608E-02  0.9160056E-01
         -2   -1    0    0    0  501 -0.00000000000E+00  0.00000000000E+00  0.91616685801E+03  0.91616685801E+03  0.00000000000E+00 0.  1.
          1   -1    0    0  501    0  0.00000000000E+00 -0.00000000000E+00 -0.15316085647E+04  0.15316085647E+04  0.00000000000E+00 0. -1.
        -24    2    1    2    0    0  0.10384314264E+04  0.34650015569E+03 -0.45843199815E+03  0.11895699022E+04  0.80712266374E+02 0.  0.
    5000000    2    1    2    0    0 -0.10384314264E+04 -0.34650015569E+03 -0.15700970858E+03  0.12582055206E+04  0.60002241464E+03 0.  0.
        -24    2    4    4    0    0 -0.97190305750E+03 -0.15821830861E+03 -0.25818827897E+03  0.10209569511E+04  0.77867337802E+02 0.  0.
         24    2    4    4    0    0 -0.66528368948E+02 -0.18828184709E+03  0.10117857039E+03  0.23724856945E+03  0.78572913790E+02 0.  0.
         11    1    3    3    0    0  0.40986851044E+03  0.11910933755E+03 -0.14026868193E+03  0.44928224233E+03  0.00000000000E+00 0. -1.
        -12    1    3    3    0    0  0.62856291600E+03  0.22739081814E+03 -0.31816331622E+03  0.74028765986E+03  0.00000000000E+00 0.  1.
         13    1    5    5    0    0 -0.43714947540E+03 -0.32017046754E+02 -0.11652271555E+03  0.45354415261E+03  0.00000000000E+00 0. -1.
        -14    1    5    5    0    0 -0.53475358209E+03 -0.12620126185E+03 -0.14166556341E+03  0.56741279851E+03  0.00000000000E+00 0.  1.
          2    1    6    6  502    0 -0.76701458564E+01 -0.12649781380E+03  0.78054091309E+02  0.14883873557E+03  0.00000000000E+00 0. -1.
         -1    1    6    6    0  502 -0.58858223092E+02 -0.61784033284E+02  0.23124479076E+02  0.88409833881E+02  0.00000000000E+00 0.  1.
<mgrwt>
<rscale>  0 0.11475400E+04</rscale>
<asrwt>0</asrwt>
<pdfrwt beam="1">  1        1 0.23563208E+00 0.11475400E+04</pdfrwt>
<pdfrwt beam="2">  1       -2 0.14094875E+00 0.11475400E+04</pdfrwt>
<totfact> 0.18906972E+00</totfact>
</mgrwt>
</event>
<event>
12    3  0.2212098E-007  0.7703662E+03  0.7818608E-02  0.9603930E-01
          1   -1    0    0  501    0  0.00000000000E+00  0.00000000000E+00  0.11838934302E+04  0.11838934302E+04  0.00000000000E+00 0. -1.
         -2   -1    0    0    0  501 -0.00000000000E+00 -0.00000000000E+00 -0.65181408879E+03  0.65181408879E+03  0.00000000000E+00 0.  1.
        -24    2    1    2    0    0  0.96740030902E+02 -0.64850074831E+03 -0.19360823832E+03  0.68838292246E+03  0.80467657174E+02 0.  0.
    5000000    2    1    2    0    0 -0.96740030902E+02  0.64850074831E+03  0.72568757974E+03  0.11473245965E+04  0.59984949138E+03 0.  0.
        -24    2    4    4    0    0  0.12939551617E+03 -0.41587634915E+02  0.14103778308E+03  0.21160976199E+03  0.80089350916E+02 0.  0.
         24    2    4    4    0    0 -0.22613554707E+03  0.69008838323E+03  0.58464979666E+03  0.93571483456E+03  0.79922491002E+02 0.  0.
         11    1    3    3    0    0  0.28847576200E+02 -0.30313808096E+03 -0.12815341832E+03  0.33037581238E+03  0.00000000000E+00 0. -1.
        -12    1    3    3    0    0  0.67892454702E+02 -0.34536266735E+03 -0.65454820002E+02  0.35800711008E+03  0.00000000000E+00 0.  1.
         11    1    5    5    0    0  0.53639795233E+02 -0.59264172304E+02  0.69365550357E+02  0.10583500993E+03  0.00000000000E+00 0. -1.
        -12    1    5    5    0    0  0.75755720933E+02  0.17676537389E+02  0.71672232728E+02  0.10577475205E+03  0.00000000000E+00 0.  1.
          4    1    6    6  502    0 -0.38546627120E+02  0.93245663798E+02  0.11777132168E+03  0.15508281816E+03  0.00000000000E+00 0. -1.
         -3    1    6    6    0  502 -0.18758891995E+03  0.59684271943E+03  0.46687847498E+03  0.78063201640E+03  0.00000000000E+00 0.  1.
<mgrwt>
<rscale>  0 0.77036620E+03</rscale>
<asrwt>0</asrwt>
<pdfrwt beam="1">  1        1 0.18213745E+00 0.77036620E+03</pdfrwt>
<pdfrwt beam="2">  1       -2 0.10027909E+00 0.77036620E+03</pdfrwt>
<totfact> 0.80950509E+00</totfact>
</mgrwt>
</event>
<event>
12    3  0.2212098E-007  0.7636421E+03  0.7818608E-02  0.9614188E-01
          3   -1    0    0  501    0  0.00000000000E+00  0.00000000000E+00  0.14087083286E+04  0.14087083286E+04  0.00000000000E+00 0. -1.
         -4   -1    0    0    0  501 -0.00000000000E+00 -0.00000000000E+00 -0.47197150366E+03  0.47197150366E+03  0.00000000000E+00 0.  1.
        -24    2    1    2    0    0 -0.63926764174E+03 -0.25177693094E+03  0.57533899035E+03  0.89966919567E+03  0.79592506435E+02 0.  0.
    5000000    2    1    2    0    0  0.63926764174E+03  0.25177693094E+03  0.36139783457E+03  0.98101063656E+03  0.59976556544E+03 0.  0.
        -24    2    4    4    0    0  0.58319668551E+03  0.18948465380E+02  0.66997462576E+02  0.59251723175E+03  0.78170273094E+02 0.  0.
         24    2    4    4    0    0  0.56070956235E+02  0.23282846556E+03  0.29440037199E+03  0.38849340482E+03  0.83081285801E+02 0.  0.
         11    1    3    3    0    0 -0.22903502659E+03 -0.53581727330E+02  0.21709394445E+03  0.32009033979E+03  0.00000000000E+00 0. -1.
        -12    1    3    3    0    0 -0.41023261516E+03 -0.19819520361E+03  0.35824504590E+03  0.57957885588E+03  0.00000000000E+00 0.  1.
         13    1    5    5    0    0  0.11056886009E+03 -0.65758454948E+01  0.42268199517E+02  0.11855511485E+03  0.00000000000E+00 0. -1.
        -14    1    5    5    0    0  0.47262782542E+03  0.25524310875E+02  0.24729263059E+02  0.47396211690E+03  0.00000000000E+00 0.  1.
          2    1    6    6  502    0  0.76175480856E+02  0.16699194264E+03  0.22966548867E+03  0.29399872359E+03  0.00000000000E+00 0. -1.
         -1    1    6    6    0  502 -0.20104524621E+02  0.65836522923E+02  0.64734883321E+02  0.94494681223E+02  0.00000000000E+00 0.  1.
<mgrwt>
<rscale>  0 0.76364211E+03</rscale>
<asrwt>0</asrwt>
<pdfrwt beam="1">  1        3 0.21672436E+00 0.76364211E+03</pdfrwt>
<pdfrwt beam="2">  1       -4 0.72611001E-01 0.76364211E+03</pdfrwt>
<totfact> 0.45411401E-01</totfact>
</mgrwt>
</event>
<event>
12    3  0.2212098E-007  0.1172588E+04  0.7818608E-02  0.9137194E-01
          1   -1    0    0  501    0  0.00000000000E+00  0.00000000000E+00  0.97349394265E+03  0.97349394265E+03  0.00000000000E+00 0. -1.
         -2   -1    0    0    0  501 -0.00000000000E+00 -0.00000000000E+00 -0.22620801507E+04  0.22620801507E+04  0.00000000000E+00 0.  1.
        -24    2    1    2    0    0  0.11229884516E+04  0.21904496548E+03  0.30241817305E+03  0.11861079906E+04  0.79445922607E+02 0.  0.
    5000000    2    1    2    0    0 -0.11229884516E+04 -0.21904496548E+03 -0.15910043811E+04  0.20494661027E+04  0.59994383589E+03 0.  0.
        -24    2    4    4    0    0 -0.40034518228E+03 -0.24926155934E+03 -0.10146490408E+04  0.11211918293E+04  0.71769437444E+02 0.  0.
         24    2    4    4    0    0 -0.72264326934E+03  0.30216593861E+02 -0.57635534029E+03  0.92827427343E+03  0.79883109437E+02 0.  0.
         11    1    5    5    0    0 -0.38515508160E+03 -0.22286799774E+03 -0.92408593588E+03  0.10256458444E+04  0.00000000000E+00 0. -1.
        -12    1    5    5    0    0 -0.15190100683E+02 -0.26393561604E+02 -0.90563104907E+02  0.95545984862E+02  0.00000000000E+00 0.  1.
         13    1    3    3    0    0  0.46377537307E+03  0.12684174261E+03  0.11011907086E+03  0.49325716832E+03  0.00000000000E+00 0. -1.
        -14    1    3    3    0    0  0.65921307855E+03  0.92203222874E+02  0.19229910219E+03  0.69285082229E+03  0.00000000000E+00 0.  1.
          2    1    6    6  502    0 -0.20708373585E+03  0.60995123949E+01 -0.12054491075E+03  0.23969137075E+03  0.00000000000E+00 0. -1.
         -1    1    6    6    0  502 -0.51555953349E+03  0.24117081466E+02 -0.45581042954E+03  0.68858290268E+03  0.00000000000E+00 0.  1.
<mgrwt>
<rscale>  0 0.11725879E+04</rscale>
<asrwt>0</asrwt>
<pdfrwt beam="1">  1        1 0.14976830E+00 0.11725879E+04</pdfrwt>
<pdfrwt beam="2">  1       -2 0.34801233E+00 0.11725879E+04</pdfrwt>
<totfact> 0.22053221E-01</totfact>
</mgrwt>
</event>
<event>
12    3  0.2212098E-007  0.1430953E+04  0.7818608E-02  0.8931713E-01
          1   -1    0    0  501    0  0.00000000000E+00  0.00000000000E+00  0.23378129771E+04  0.23378129771E+04  0.00000000000E+00 0. -1.
         -2   -1    0    0    0  501 -0.00000000000E+00 -0.00000000000E+00 -0.92859978103E+03  0.92859978103E+03  0.00000000000E+00 0.  1.
        -24    2    1    2    0    0  0.79759266726E+03  0.11641898267E+04  0.68990681524E+03  0.15726236082E+04  0.75376281881E+02 0.  0.
    5000000    2    1    2    0    0 -0.79759266726E+03 -0.11641898267E+04  0.71930638086E+03  0.16937891499E+04  0.60002333232E+03 0.  0.
        -24    2    4    4    0    0 -0.79333411534E+03 -0.10368614675E+04  0.78979130676E+03  0.15279090362E+04  0.79214854917E+02 0.  0.
         24    2    4    4    0    0 -0.42585519202E+01 -0.12732835927E+03 -0.70484925899E+02  0.16588011378E+03  0.79482331554E+02 0.  0.
         11    1    5    5    0    0 -0.25158245522E+02 -0.31509246182E+02  0.41938597677E+02  0.58177451714E+02  0.00000000000E+00 0. -1.
        -12    1    5    5    0    0 -0.76817586982E+03 -0.10053522213E+04  0.74785270909E+03  0.14697315844E+04  0.00000000000E+00 0.  1.
         13    1    3    3    0    0  0.71476326368E+03  0.10766106671E+04  0.64126515206E+03  0.14426357984E+04  0.00000000000E+00 0. -1.
        -14    1    3    3    0    0  0.82829403583E+02  0.87579159595E+02  0.48641663179E+02  0.12998780978E+03  0.00000000000E+00 0.  1.
          4    1    6    6  502    0 -0.17682475980E+02 -0.23584795861E+01 -0.28010094389E+02  0.33208399095E+02  0.00000000000E+00 0. -1.
         -3    1    6    6    0  502  0.13423924060E+02 -0.12496987968E+03 -0.42474831509E+02  0.13267171468E+03  0.00000000000E+00 0.  1.
<mgrwt>
<rscale>  0 0.14309532E+04</rscale>
<asrwt>0</asrwt>
<pdfrwt beam="1">  1        1 0.35966353E+00 0.14309532E+04</pdfrwt>
<pdfrwt beam="2">  1       -2 0.14286151E+00 0.14309532E+04</pdfrwt>
<totfact> 0.50010825E-01</totfact>
</mgrwt>
</event>
<event>
12    3  0.2212098E-007  0.1794068E+04  0.7818608E-02  0.8709460E-01
         -2   -1    0    0    0  501 -0.00000000000E+00  0.00000000000E+00  0.13854273703E+04  0.13854273703E+04  0.00000000000E+00 0.  1.
          1   -1    0    0  501    0  0.00000000000E+00 -0.00000000000E+00 -0.26209023086E+04  0.26209023086E+04  0.00000000000E+00 0. -1.
        -24    2    1    2    0    0 -0.17405782628E+04  0.12469048265E+03 -0.12717028768E+04  0.21606757578E+04  0.78301456196E+02 0.  0.
    5000000    2    1    2    0    0  0.17405782628E+04 -0.12469048265E+03  0.36227938550E+02  0.18456539211E+04  0.59997127232E+03 0.  0.
        -24    2    4    4    0    0  0.68249951176E+02 -0.13720467451E+03  0.28212850348E+02  0.17141126982E+03  0.71433045248E+02 0.  0.
         24    2    4    4    0    0  0.16723283116E+04  0.12514191858E+02  0.80150882023E+01  0.16742426513E+04  0.78648756709E+02 0.  0.
         11    1    3    3    0    0 -0.12154256474E+04  0.10895964250E+03 -0.85337065823E+03  0.14890846814E+04  0.00000000000E+00 0. -1.
        -12    1    3    3    0    0 -0.52515261542E+03  0.15730840146E+02 -0.41833221858E+03  0.67159107641E+03  0.00000000000E+00 0.  1.
         13    1    5    5    0    0 -0.15269808374E+02 -0.21896933101E+02  0.45913851588E+01  0.27087331812E+02  0.00000000000E+00 0. -1.
        -14    1    5    5    0    0  0.83519759550E+02 -0.11530774141E+03  0.23621465189E+02  0.14432393801E+03  0.00000000000E+00 0.  1.
          4    1    6    6  502    0  0.57731076456E+03  0.31822767670E+02 -0.22575513353E+02  0.57862773976E+03  0.00000000000E+00 0. -1.
         -1    1    6    6    0  502  0.10950175470E+04 -0.19308575812E+02  0.30590601555E+02  0.10956149115E+04  0.00000000000E+00 0.  1.
<mgrwt>
<rscale>  0 0.17940680E+04</rscale>
<asrwt>0</asrwt>
<pdfrwt beam="1">  1        1 0.40321574E+00 0.17940680E+04</pdfrwt>
<pdfrwt beam="2">  1       -2 0.21314267E+00 0.17940680E+04</pdfrwt>
<totfact> 0.97433235E-02</totfact>
</mgrwt>
</event>
<event>
12    3  0.2212098E-007  0.1342701E+04  0.7818608E-02  0.8996372E-01
         -4   -1    0    0    0  501 -0.00000000000E+00  0.00000000000E+00  0.26657253836E+04  0.26657253836E+04  0.00000000000E+00 0.  1.
          3   -1    0    0  501    0  0.00000000000E+00 -0.00000000000E+00 -0.12158135332E+04  0.12158135332E+04  0.00000000000E+00 0. -1.
        -24    2    1    2    0    0  0.18010266622E+03  0.12645694775E+04  0.19937386804E+04  0.23691583888E+04  0.79653070405E+02 0.  0.
    5000000    2    1    2    0    0 -0.18010266622E+03 -0.12645694775E+04 -0.54382683006E+03  0.15123805280E+04  0.59997858845E+03 0.  0.
        -24    2    4    4    0    0 -0.39115287875E+03 -0.86026401471E+03 -0.37335613766E+03  0.10193169575E+04  0.80978421583E+02 0.  0.
         24    2    4    4    0    0  0.21105021253E+03 -0.40430546279E+03 -0.17047069240E+03  0.49306357050E+03  0.77758138752E+02 0.  0.
         11    1    3    3    0    0 -0.29723427486E+01  0.15141610592E+03  0.22089404560E+03  0.26782429190E+03  0.00000000000E+00 0. -1.
        -12    1    3    3    0    0  0.18307500897E+03  0.11131533716E+04  0.17728446348E+04  0.21013340969E+04  0.00000000000E+00 0.  1.
         13    1    5    5    0    0 -0.27812559214E+03 -0.54874552735E+03 -0.27307846393E+03  0.67308791867E+03  0.00000000000E+00 0. -1.
        -14    1    5    5    0    0 -0.11302728661E+03 -0.31151848736E+03 -0.10027767374E+03  0.34622903884E+03  0.00000000000E+00 0.  1.
          2    1    6    6  502    0  0.16326666386E+03 -0.25775597512E+03 -0.84641080997E+02  0.31663584577E+03  0.00000000000E+00 0. -1.
         -3    1    6    6    0  502  0.47783548670E+02 -0.14654948767E+03 -0.85829611405E+02  0.17642772473E+03  0.00000000000E+00 0.  1.
<mgrwt>
<rscale>  0 0.13427011E+04</rscale>
<asrwt>0</asrwt>
<pdfrwt beam="1">  1        3 0.18704824E+00 0.13427011E+04</pdfrwt>
<pdfrwt beam="2">  1       -4 0.41011160E+00 0.13427011E+04</pdfrwt>
<totfact> 0.22151637E-03</totfact>
</mgrwt>
</event>
<event>
12    3  0.2212098E-007  0.1067597E+04  0.7818608E-02  0.9237362E-01
         -2   -1    0    0    0  501 -0.00000000000E+00  0.00000000000E+00  0.15731065533E+04  0.15731065533E+04  0.00000000000E+00 0.  1.
          1   -1    0    0  501    0  0.00000000000E+00 -0.00000000000E+00 -0.86277296960E+03  0.86277296960E+03  0.00000000000E+00 0. -1.
        -24    2    1    2    0    0 -0.57001870563E+03  0.82169478903E+03  0.77503733167E+03  0.12678161279E+04  0.81063047534E+02 0.  0.
    5000000    2    1    2    0    0  0.57001870563E+03 -0.82169478903E+03 -0.64703748010E+02  0.11680633949E+04  0.60006821984E+03 0.  0.
        -24    2    4    4    0    0  0.65917831284E+03 -0.58603982767E+03  0.32894244042E+02  0.88642486354E+03  0.81904088282E+02 0.  0.
         24    2    4    4    0    0 -0.89159607206E+02 -0.23565496135E+03 -0.97597992052E+02  0.28163853138E+03  0.79449341956E+02 0.  0.
         11    1    3    3    0    0 -0.18334387099E+03  0.27739868143E+03  0.30582116624E+03  0.45176497121E+03  0.00000000000E+00 0. -1.
        -12    1    3    3    0    0 -0.38667483464E+03  0.54429610760E+03  0.46921616543E+03  0.81605115673E+03  0.00000000000E+00 0.  1.
         13    1    5    5    0    0  0.27296345495E+02 -0.25930619778E+02  0.18408696291E+02  0.41909039820E+02  0.00000000000E+00 0. -1.
        -14    1    5    5    0    0  0.63188196735E+03 -0.56010920790E+03  0.14485547751E+02  0.84451582372E+03  0.00000000000E+00 0.  1.
          2    1    6    6  502    0 -0.95689451174E+01 -0.10691522632E+02  0.12320273739E+02  0.18911967424E+02  0.00000000000E+00 0. -1.
         -1    1    6    6    0  502 -0.79590662089E+02 -0.22496343872E+03 -0.10991826579E+03  0.26272656396E+03  0.00000000000E+00 0.  1.
<mgrwt>
<rscale>  0 0.10675974E+04</rscale>
<asrwt>0</asrwt>
<pdfrwt beam="1">  1        1 0.13273430E+00 0.10675974E+04</pdfrwt>
<pdfrwt beam="2">  1       -2 0.24201639E+00 0.10675974E+04</pdfrwt>
<totfact> 0.12231218E+00</totfact>
</mgrwt>
</event>
<event>
12    3  0.2212098E-007  0.1903744E+03  0.7818608E-02  0.1158124E+00
          1   -1    0    0  501    0  0.00000000000E+00  0.00000000000E+00  0.11806129781E+04  0.11806129781E+04  0.00000000000E+00 0. -1.
         -2   -1    0    0    0  501 -0.00000000000E+00 -0.00000000000E+00 -0.12971954555E+03  0.12971954555E+03  0.00000000000E+00 0.  1.
        -24    2    1    2    0    0 -0.83239837251E+02  0.62038525010E+02  0.51721132125E+02  0.14044497031E+03  0.79196370404E+02 0.  0.
    5000000    2    1    2    0    0  0.83239837251E+02 -0.62038525010E+02  0.99917230046E+03  0.11698875534E+04  0.59959482356E+03 0.  0.
        -24    2    4    4    0    0  0.81177959990E+02 -0.13727514121E+03  0.10376711407E+04  0.10530316467E+04  0.81730820845E+02 0.  0.
         24    2    4    4    0    0  0.20618772606E+01  0.75236616200E+02 -0.38498840258E+02  0.11685590668E+03  0.80674298692E+02 0.  0.
         11    1    5    5    0    0 -0.35002781786E+01 -0.55294433824E+02  0.46999336793E+03  0.47324781274E+03  0.00000000000E+00 0. -1.
        -12    1    5    5    0    0  0.84678238169E+02 -0.81980707386E+02  0.56767777279E+03  0.57978383396E+03  0.00000000000E+00 0.  1.
         11    1    3    3    0    0 -0.73610667950E+02  0.67360117189E+01  0.23155603732E+02  0.77460223819E+02  0.00000000000E+00 0. -1.
        -12    1    3    3    0    0 -0.96291693010E+01  0.55302513291E+02  0.28565528393E+02  0.62984746488E+02  0.00000000000E+00 0.  1.
          4    1    6    6  502    0  0.49210279163E+01  0.74238449664E+02  0.37527240094E+01  0.74495951982E+02  0.00000000000E+00 0. -1.
         -3    1    6    6    0  502 -0.28591506556E+01  0.99816653623E+00 -0.42251564267E+02  0.42359954697E+02  0.00000000000E+00 0.  1.
<mgrwt>
<rscale>  0 0.19037438E+03</rscale>
<asrwt>0</asrwt>
<pdfrwt beam="1">  1        1 0.18163276E+00 0.19037438E+03</pdfrwt>
<pdfrwt beam="2">  1       -2 0.19956854E-01 0.19037438E+03</pdfrwt>
<totfact> 0.22397615E+02</totfact>
</mgrwt>
</event>
<event>
12    3  0.2212098E-007  0.1286093E+04  0.7818608E-02  0.9040667E-01
         -2   -1    0    0    0  501 -0.00000000000E+00  0.00000000000E+00  0.18369751702E+04  0.18369751702E+04  0.00000000000E+00 0.  1.
          1   -1    0    0  501    0  0.00000000000E+00 -0.00000000000E+00 -0.13675295121E+04  0.13675295121E+04  0.00000000000E+00 0. -1.
        -24    2    1    2    0    0 -0.49206024100E+03 -0.11517974411E+04 -0.65649383651E+03  0.14165082023E+04  0.82162666986E+02 0.  0.
    5000000    2    1    2    0    0  0.49206024100E+03  0.11517974411E+04  0.11259394946E+04  0.17879964800E+04  0.60035909324E+03 0.  0.
        -24    2    4    4    0    0  0.28595616240E+03  0.23613555654E+03  0.93599694326E+02  0.39061357053E+03  0.79291429736E+02 0.  0.
         24    2    4    4    0    0  0.20610407860E+03  0.91566188456E+03  0.10323398002E+04  0.13973829094E+04  0.77704275007E+02 0.  0.
         11    1    5    5    0    0  0.24420963835E+03  0.22585466250E+03  0.64873125462E+02  0.33890588434E+03  0.00000000000E+00 0. -1.
        -12    1    5    5    0    0  0.41746524042E+02  0.10280894043E+02  0.28726568864E+02  0.51707686185E+02  0.00000000000E+00 0.  1.
         13    1    3    3    0    0 -0.40798722292E+03 -0.10187695453E+04 -0.58583999190E+03  0.12440070163E+04  0.00000000000E+00 0. -1.
        -14    1    3    3    0    0 -0.84073018079E+02 -0.13302789583E+03 -0.70653844607E+02  0.17250118607E+03  0.00000000000E+00 0.  1.
          2    1    6    6  502    0  0.16931526074E+03  0.58358301355E+03  0.67076679798E+03  0.90507728316E+03  0.00000000000E+00 0. -1.
         -1    1    6    6    0  502  0.36788817858E+02  0.33207887101E+03  0.36157300226E+03  0.49230562627E+03  0.00000000000E+00 0.  1.
<mgrwt>
<rscale>  0 0.12860932E+04</rscale>
<asrwt>0</asrwt>
<pdfrwt beam="1">  1        1 0.21038916E+00 0.12860932E+04</pdfrwt>
<pdfrwt beam="2">  1       -2 0.28261156E+00 0.12860932E+04</pdfrwt>
<totfact> 0.27883004E-01</totfact>
</mgrwt>
</event>
<event>
12    3  0.2212098E-007  0.8336061E+03  0.7818608E-02  0.9512608E-01
          1   -1    0    0  501    0  0.00000000000E+00  0.00000000000E+00  0.38660289627E+03  0.38660289627E+03  0.00000000000E+00 0. -1.
         -2   -1    0    0    0  501 -0.00000000000E+00 -0.00000000000E+00 -0.49462021389E+04  0.49462021389E+04  0.00000000000E+00 0.  1.
        -24    2    1    2    0    0 -0.30437563958E+03 -0.75673305661E+03 -0.41669860602E+04  0.42467834005E+04  0.78147140441E+02 0.  0.
    5000000    2    1    2    0    0  0.30437563958E+03  0.75673305661E+03 -0.39261318246E+03  0.10860216347E+04  0.60000702592E+03 0.  0.
        -24    2    4    4    0    0  0.11194027753E+03  0.73173188307E+02  0.12727810727E+03  0.20223162888E+03  0.82540740891E+02 0.  0.
         24    2    4    4    0    0  0.19243536205E+03  0.68355986831E+03 -0.51989128973E+03  0.88379000587E+03  0.80699189668E+02 0.  0.
         11    1    3    3    0    0 -0.27059593999E+03 -0.61322121091E+03 -0.33054452917E+04  0.33727186352E+04  0.00000000000E+00 0. -1.
        -12    1    3    3    0    0 -0.33779699593E+02 -0.14351184570E+03 -0.86154076854E+03  0.87406476523E+03  0.00000000000E+00 0.  1.
         11    1    5    5    0    0  0.29794045535E+02  0.94685060604E+01  0.84000742702E+02  0.89629585132E+02  0.00000000000E+00 0. -1.
        -12    1    5    5    0    0  0.82146231997E+02  0.63704682247E+02  0.43277364566E+02  0.11260204374E+03  0.00000000000E+00 0.  1.
          2    1    6    6  502    0  0.11617540448E+03  0.53307729576E+03 -0.38424769323E+03  0.66731882756E+03  0.00000000000E+00 0. -1.
         -3    1    6    6    0  502  0.76259957566E+02  0.15048257255E+03 -0.13564359650E+03  0.21647117831E+03  0.00000000000E+00 0.  1.
<mgrwt>
<rscale>  0 0.83360612E+03</rscale>
<asrwt>0</asrwt>
<pdfrwt beam="1">  1        1 0.59477367E-01 0.83360612E+03</pdfrwt>
<pdfrwt beam="2">  1       -2 0.76095419E+00 0.83360612E+03</pdfrwt>
<totfact> 0.76543819E-03</totfact>
</mgrwt>
</event>
<event>
12    3  0.4058258E-007  0.1434843E+04  0.7818608E-02  0.8928976E-01
          1   -1    0    0  501    0  0.00000000000E+00  0.00000000000E+00  0.17597056910E+04  0.17597056910E+04  0.00000000000E+00 0. -1.
         -2   -1    0    0    0  501 -0.00000000000E+00 -0.00000000000E+00 -0.13854639978E+04  0.13854639978E+04  0.00000000000E+00 0.  1.
        -24    2    1    2    0    0 -0.11754226059E+04 -0.71376596031E+03  0.78992450576E+03  0.15883188828E+04  0.87726850227E+02 0.  0.
    5000000    2    1    2    0    0  0.11754226059E+04  0.71376596031E+03 -0.41568281250E+03  0.15568508060E+04  0.59992673137E+03 0.  0.
        -24    2    4    4    0    0  0.11741532955E+04  0.51631979180E+03 -0.38384426417E+03  0.13411816937E+04  0.78802460374E+02 0.  0.
         24    2    4    4    0    0  0.12693104043E+01  0.19744616851E+03 -0.31838548335E+02  0.21566911227E+03  0.80702368117E+02 0.  0.
         13    1    5    5    0    0  0.51241937325E+03  0.25917352978E+03 -0.19670218935E+03  0.60698952538E+03  0.00000000000E+00 0. -1.
        -14    1    5    5    0    0  0.66173392224E+03  0.25714626202E+03 -0.18714207482E+03  0.73419216836E+03  0.00000000000E+00 0.  1.
         13    1    3    3    0    0 -0.76134162377E+03 -0.50358015570E+03  0.54856907680E+03  0.10649704565E+04  0.00000000000E+00 0. -1.
        -14    1    3    3    0    0 -0.41408098212E+03 -0.21018580461E+03  0.24135542896E+03  0.52334842629E+03  0.00000000000E+00 0.  1.
          2    1    6    6  502    0  0.31953154261E+02  0.65788647062E+02 -0.33565425264E+02  0.80472280461E+02  0.00000000000E+00 0. -1.
         -1    1    6    6    0  502 -0.30683843856E+02  0.13165752145E+03  0.17268769293E+01  0.13519683181E+03  0.00000000000E+00 0.  1.
<mgrwt>
<rscale>  0 0.14348433E+04</rscale>
<asrwt>0</asrwt>
<pdfrwt beam="1">  1        1 0.27072395E+00 0.14348433E+04</pdfrwt>
<pdfrwt beam="2">  1       -2 0.21314831E+00 0.14348433E+04</pdfrwt>
<totfact> 0.39439991E-01</totfact>
</mgrwt>
</event>
<event>
12    3  0.2212098E-007  0.5023032E+03  0.7818608E-02  0.1013179E+00
         -2   -1    0    0    0  501 -0.00000000000E+00  0.00000000000E+00  0.22058749307E+03  0.22058749307E+03  0.00000000000E+00 0.  1.
          1   -1    0    0  501    0  0.00000000000E+00 -0.00000000000E+00 -0.16053256281E+04  0.16053256281E+04  0.00000000000E+00 0. -1.
        -24    2    1    2    0    0 -0.27904911862E+03  0.32279563999E+03 -0.67780447350E+03  0.80519898632E+03  0.82831560817E+02 0.  0.
    5000000    2    1    2    0    0  0.27904911862E+03 -0.32279563999E+03 -0.70693366151E+03  0.10207141348E+04  0.60003058877E+03 0.  0.
        -24    2    4    4    0    0 -0.45866864920E+01 -0.26858404331E+03 -0.34688904721E+02  0.28248269303E+03  0.80216742249E+02 0.  0.
         24    2    4    4    0    0  0.28363580512E+03 -0.54211596680E+02 -0.67224475679E+03  0.73823144180E+03  0.98409763077E+02 0.  0.
         11    1    3    3    0    0 -0.27423082991E+03  0.32251461253E+03 -0.67905906067E+03  0.80021211641E+03  0.00000000000E+00 0. -1.
        -12    1    3    3    0    0 -0.48182887094E+01  0.28102745697E+00  0.12545871673E+01  0.49868699080E+01  0.00000000000E+00 0.  1.
         13    1    5    5    0    0 -0.32813672708E+02 -0.10297401170E+03 -0.37685070093E+02  0.11445762845E+03  0.00000000000E+00 0. -1.
        -14    1    5    5    0    0  0.28226986216E+02 -0.16561003161E+03  0.29961653716E+01  0.16802506458E+03  0.00000000000E+00 0.  1.
          2    1    6    6  502    0  0.21724468074E+03 -0.76517009506E+02 -0.56498976320E+03  0.61013403165E+03  0.00000000000E+00 0. -1.
         -1    1    6    6    0  502  0.66391124376E+02  0.22305412826E+02 -0.10725499359E+03  0.12809741015E+03  0.00000000000E+00 0.  1.
<mgrwt>
<rscale>  0 0.50230320E+03</rscale>
<asrwt>0</asrwt>
<pdfrwt beam="1">  1        1 0.24697318E+00 0.50230320E+03</pdfrwt>
<pdfrwt beam="2">  1       -2 0.33936536E-01 0.50230320E+03</pdfrwt>
<totfact> 0.41945706E+01</totfact>
</mgrwt>
</event>
<event>
12    3  0.2212098E-007  0.4042222E+03  0.7818608E-02  0.1042327E+00
          1   -1    0    0  501    0  0.00000000000E+00  0.00000000000E+00  0.15403558365E+04  0.15403558365E+04  0.00000000000E+00 0. -1.
         -2   -1    0    0    0  501 -0.00000000000E+00 -0.00000000000E+00 -0.43205015410E+03  0.43205015410E+03  0.00000000000E+00 0.  1.
        -24    2    1    2    0    0 -0.22195573659E+03 -0.10159987897E+03 -0.31610516080E+03  0.40744771213E+03  0.80649122890E+02 0.  0.
    5000000    2    1    2    0    0  0.22195573659E+03  0.10159987897E+03  0.14244108432E+04  0.15649582785E+04  0.60046755008E+03 0.  0.
        -24    2    4    4    0    0  0.78050128591E+01  0.27711441495E+03  0.35361381316E+03  0.45616326685E+03  0.78669434735E+02 0.  0.
         24    2    4    4    0    0  0.21415072373E+03 -0.17551453598E+03  0.10707970300E+04  0.11087950116E+04  0.78448794972E+02 0.  0.
         11    1    3    3    0    0 -0.19523399773E+03 -0.10457419293E+03 -0.23925116546E+03  0.32602637296E+03  0.00000000000E+00 0. -1.
        -12    1    3    3    0    0 -0.26721738863E+02  0.29743139565E+01 -0.76853995345E+02  0.81421339168E+02  0.00000000000E+00 0.  1.
         13    1    5    5    0    0  0.31689894381E+02  0.14799584452E+03  0.14458469804E+03  0.20931257561E+03  0.00000000000E+00 0. -1.
        -14    1    5    5    0    0 -0.23884881522E+02  0.12911857043E+03  0.20902911512E+03  0.24685069124E+03  0.00000000000E+00 0.  1.
          2    1    6    6  502    0  0.13086938381E+03 -0.11797252493E+03  0.52749405258E+03  0.55614232690E+03  0.00000000000E+00 0. -1.
         -1    1    6    6    0  502  0.83281339918E+02 -0.57542011051E+02  0.54330297746E+03  0.55265268472E+03  0.00000000000E+00 0.  1.
<mgrwt>
<rscale>  0 0.40422218E+03</rscale>
<asrwt>0</asrwt>
<pdfrwt beam="1">  1        1 0.23697782E+00 0.40422218E+03</pdfrwt>
<pdfrwt beam="2">  1       -2 0.66469255E-01 0.40422218E+03</pdfrwt>
<totfact> 0.12308634E+01</totfact>
</mgrwt>
</event>
<event>
12    3  0.2212098E-007  0.6036220E+03  0.7818608E-02  0.9897920E-01
         -2   -1    0    0    0  501 -0.00000000000E+00  0.00000000000E+00  0.89790570917E+03  0.89790570917E+03  0.00000000000E+00 0.  1.
          1   -1    0    0  501    0  0.00000000000E+00 -0.00000000000E+00 -0.82957097129E+03  0.82957097129E+03  0.00000000000E+00 0. -1.
        -24    2    1    2    0    0  0.55777003259E+03  0.77083801637E+02  0.53567463438E+03  0.78122483456E+03  0.79470790212E+02 0.  0.
    5000000    2    1    2    0    0 -0.55777003259E+03 -0.77083801637E+02 -0.46733989650E+03  0.94625184589E+03  0.59994721039E+03 0.  0.
        -24    2    4    4    0    0 -0.55061038197E+03 -0.40921393257E+02 -0.98555454417E+02  0.56628927774E+03  0.78256088137E+02 0.  0.
         24    2    4    4    0    0 -0.71596506142E+01 -0.36162408379E+02 -0.36878444208E+03  0.37996256814E+03  0.83729374128E+02 0.  0.
         11    1    5    5    0    0 -0.48796044071E+03 -0.21088640039E+02 -0.10710404911E+03  0.50002139932E+03  0.00000000000E+00 0. -1.
        -12    1    5    5    0    0 -0.62649941260E+02 -0.19832753218E+02  0.85485946910E+01  0.66267878428E+02  0.00000000000E+00 0.  1.
         13    1    3    3    0    0  0.22645338801E+03  0.70714998753E+02  0.21914991855E+03  0.32296816374E+03  0.00000000000E+00 0. -1.
        -14    1    3    3    0    0  0.33131664458E+03  0.63688028839E+01  0.31652471583E+03  0.45825667082E+03  0.00000000000E+00 0.  1.
          4    1    6    6  502    0 -0.35014288053E+02  0.44031700702E+01 -0.23045387146E+03  0.23314024780E+03  0.00000000000E+00 0. -1.
         -3    1    6    6    0  502  0.27854637438E+02 -0.40565578450E+02 -0.13833057062E+03  0.14682232034E+03  0.00000000000E+00 0.  1.
<mgrwt>
<rscale>  0 0.60362198E+03</rscale>
<asrwt>0</asrwt>
<pdfrwt beam="1">  1        1 0.12762630E+00 0.60362198E+03</pdfrwt>
<pdfrwt beam="2">  1       -2 0.13813934E+00 0.60362198E+03</pdfrwt>
<totfact> 0.70859492E+00</totfact>
</mgrwt>
</event>
<event>
12    3  0.2212098E-007  0.6589723E+03  0.7818608E-02  0.9790087E-01
          1   -1    0    0  501    0  0.00000000000E+00  0.00000000000E+00  0.20322336152E+04  0.20322336152E+04  0.00000000000E+00 0. -1.
         -2   -1    0    0    0  501 -0.00000000000E+00 -0.00000000000E+00 -0.22023603808E+03  0.22023603808E+03  0.00000000000E+00 0.  1.
        -24    2    1    2    0    0  0.41903679571E+03 -0.32043688842E+03  0.80643472400E+03  0.96815711348E+03  0.93378780792E+02 0.  0.
    5000000    2    1    2    0    0 -0.41903679571E+03  0.32043688842E+03  0.10055628531E+04  0.12843125398E+04  0.60002534336E+03 0.  0.
        -24    2    4    4    0    0  0.46463845030E+02 -0.11239780280E+03  0.10556965043E+03  0.17991165435E+03  0.80194122670E+02 0.  0.
         24    2    4    4    0    0 -0.46550064074E+03  0.43283469122E+03  0.89999320265E+03  0.11044008854E+04  0.75344770435E+02 0.  0.
         13    1    5    5    0    0 -0.20639507853E+02 -0.15096673633E+02  0.84463755659E+01  0.26930282200E+02  0.00000000000E+00 0. -1.
        -14    1    5    5    0    0  0.67103352883E+02 -0.97301129166E+02  0.97123274868E+02  0.15298137215E+03  0.00000000000E+00 0.  1.
         13    1    3    3    0    0  0.67463422785E+02 -0.97328558671E+02  0.20265020134E+03  0.23471528679E+03  0.00000000000E+00 0. -1.
        -14    1    3    3    0    0  0.35157337292E+03 -0.22310832975E+03  0.60378452266E+03  0.73344182670E+03  0.00000000000E+00 0.  1.
          2    1    6    6  502    0 -0.35403108949E+03  0.36688167805E+03  0.69592018497E+03  0.86269640191E+03  0.00000000000E+00 0. -1.
         -1    1    6    6    0  502 -0.11146955125E+03  0.65953013169E+02  0.20407301767E+03  0.24170448350E+03  0.00000000000E+00 0.  1.
<mgrwt>
<rscale>  0 0.65897234E+03</rscale>
<asrwt>0</asrwt>
<pdfrwt beam="1">  1        1 0.31265131E+00 0.65897234E+03</pdfrwt>
<pdfrwt beam="2">  1       -2 0.33882469E-01 0.65897234E+03</pdfrwt>
<totfact> 0.21325662E+01</totfact>
</mgrwt>
</event>
<event>
12    3  0.2212098E-007  0.6132948E+03  0.7818608E-02  0.9878201E-01
          1   -1    0    0  501    0  0.00000000000E+00  0.00000000000E+00  0.43017536689E+04  0.43017536689E+04  0.00000000000E+00 0. -1.
         -2   -1    0    0    0  501 -0.00000000000E+00 -0.00000000000E+00 -0.11846663953E+03  0.11846663953E+03  0.00000000000E+00 0.  1.
        -24    2    1    2    0    0 -0.55241528559E+03  0.63936586915E+02  0.22851579905E+04  0.23532726157E+04  0.81819480385E+02 0.  0.
    5000000    2    1    2    0    0  0.55241528559E+03 -0.63936586915E+02  0.18981290388E+04  0.20669476927E+04  0.60010697492E+03 0.  0.
        -24    2    4    4    0    0  0.47102748328E+03 -0.17936612025E+03  0.18138887213E+04  0.18842940459E+04  0.79578030047E+02 0.  0.
         24    2    4    4    0    0  0.81387802304E+02  0.11542953334E+03  0.84240317466E+02  0.18265364677E+03  0.79485672059E+02 0.  0.
         11    1    3    3    0    0 -0.13964574281E+03  0.48590104536E+02  0.53752311117E+03  0.55748814049E+03  0.00000000000E+00 0. -1.
        -12    1    3    3    0    0 -0.41276954277E+03  0.15346482379E+02  0.17476348793E+04  0.17957844752E+04  0.00000000000E+00 0.  1.
         13    1    5    5    0    0  0.21078151372E+03 -0.78465732617E+02  0.66580263982E+03  0.70276516199E+03  0.00000000000E+00 0. -1.
        -14    1    5    5    0    0  0.26024596957E+03 -0.10090038763E+03  0.11480860815E+04  0.11815288839E+04  0.00000000000E+00 0.  1.
          2    1    6    6  502    0  0.69667282465E+02  0.30742908720E+02  0.46295751276E+02  0.89117637249E+02  0.00000000000E+00 0. -1.
         -1    1    6    6    0  502  0.11720519838E+02  0.84686624617E+02  0.37944566190E+02  0.93536009524E+02  0.00000000000E+00 0.  1.
<mgrwt>
<rscale>  0 0.61329477E+03</rscale>
<asrwt>0</asrwt>
<pdfrwt beam="1">  1        1 0.66180813E+00 0.61329477E+03</pdfrwt>
<pdfrwt beam="2">  1       -2 0.18225640E-01 0.61329477E+03</pdfrwt>
<totfact> 0.12879421E+00</totfact>
</mgrwt>
</event>
<event>
12    3  0.2212098E-007  0.6419965E+03  0.7818608E-02  0.9821914E-01
         -2   -1    0    0    0  501 -0.00000000000E+00  0.00000000000E+00  0.66722692938E+03  0.66722692938E+03  0.00000000000E+00 0.  1.
          1   -1    0    0  501    0  0.00000000000E+00 -0.00000000000E+00 -0.63653155389E+03  0.63653155389E+03  0.00000000000E+00 0. -1.
        -24    2    1    2    0    0  0.26531202285E+03  0.42836045348E+03 -0.66618235005E+02  0.51413178320E+03  0.77526470929E+02 0.  0.
    5000000    2    1    2    0    0 -0.26531202285E+03 -0.42836045348E+03  0.97313610495E+02  0.78962670007E+03  0.60013101828E+03 0.  0.
        -24    2    4    4    0    0  0.17725815881E+03 -0.64051659952E+02  0.41225712441E+02  0.20824015729E+03  0.78366662135E+02 0.  0.
         24    2    4    4    0    0 -0.44257018165E+03 -0.36430879352E+03  0.56087898054E+02  0.58138654278E+03  0.79216141649E+02 0.  0.
         11    1    3    3    0    0 -0.24686490509E+01  0.86431375709E+01  0.62707259642E+01  0.10959929713E+02  0.00000000000E+00 0. -1.
        -12    1    3    3    0    0  0.26778067190E+03  0.41971731590E+03 -0.72888960969E+02  0.50317185349E+03  0.00000000000E+00 0.  1.
         11    1    5    5    0    0  0.99764393597E+02 -0.70391194406E+02  0.45672667300E+02  0.13036045036E+03  0.00000000000E+00 0. -1.
        -12    1    5    5    0    0  0.77493765208E+02  0.63395344537E+01 -0.44469548594E+01  0.77879706925E+02  0.00000000000E+00 0.  1.
          2    1    6    6  502    0 -0.89280465944E+02 -0.11161750413E+03  0.31322586187E+02  0.14632352248E+03  0.00000000000E+00 0. -1.
         -1    1    6    6    0  502 -0.35328971571E+03 -0.25269128940E+03  0.24765311868E+02  0.43506302030E+03  0.00000000000E+00 0.  1.
<mgrwt>
<rscale>  0 0.64199649E+03</rscale>
<asrwt>0</asrwt>
<pdfrwt beam="1">  1        1 0.97927931E-01 0.64199649E+03</pdfrwt>
<pdfrwt beam="2">  1       -2 0.10265030E+00 0.64199649E+03</pdfrwt>
<totfact> 0.21986362E+01</totfact>
</mgrwt>
</event>
<event>
12    3  0.2212098E-007  0.9955241E+03  0.7818608E-02  0.9313468E-01
         -2   -1    0    0    0  501 -0.00000000000E+00  0.00000000000E+00  0.12047639333E+04  0.12047639333E+04  0.00000000000E+00 0.  1.
          1   -1    0    0  501    0  0.00000000000E+00 -0.00000000000E+00 -0.90637869025E+03  0.90637869025E+03  0.00000000000E+00 0. -1.
        -24    2    1    2    0    0 -0.35949915844E+03 -0.87295438387E+03 -0.21250217546E+02  0.94777430476E+03  0.80842809169E+02 0.  0.
    5000000    2    1    2    0    0  0.35949915844E+03  0.87295438387E+03  0.31963546055E+03  0.11633683187E+04  0.59997501297E+03 0.  0.
        -24    2    4    4    0    0  0.25030323772E+03  0.12837191482E+03  0.28034843398E+03  0.40515233289E+03  0.80138062637E+02 0.  0.
         24    2    4    4    0    0  0.10919592072E+03  0.74458246905E+03  0.39287026575E+02  0.75821598586E+03  0.83792651440E+02 0.  0.
         11    1    5    5    0    0  0.22453266069E+03  0.91719738959E+02  0.20539375403E+03  0.31782702910E+03  0.00000000000E+00 0. -1.
        -12    1    5    5    0    0  0.25770577029E+02  0.36652175861E+02  0.74954679948E+02  0.87325303789E+02  0.00000000000E+00 0.  1.
         11    1    3    3    0    0 -0.10358228146E+03 -0.35497084603E+03 -0.99895473425E+01  0.36990996421E+03  0.00000000000E+00 0. -1.
        -12    1    3    3    0    0 -0.25591687698E+03 -0.51798353783E+03 -0.11260670204E+02  0.57786434055E+03  0.00000000000E+00 0.  1.
          2    1    6    6  502    0 -0.10938083936E+02  0.89143037891E+02 -0.80939605957E+01  0.90175579193E+02  0.00000000000E+00 0. -1.
         -1    1    6    6    0  502  0.12013400465E+03  0.65543943116E+03  0.47380987171E+02  0.66804040666E+03  0.00000000000E+00 0.  1.
<mgrwt>
<rscale>  0 0.99552407E+03</rscale>
<asrwt>0</asrwt>
<pdfrwt beam="1">  1        1 0.13944287E+00 0.99552407E+03</pdfrwt>
<pdfrwt beam="2">  1       -2 0.18534830E+00 0.99552407E+03</pdfrwt>
<totfact> 0.26172208E+00</totfact>
</mgrwt>
</event>
<event>
12    3  0.2212098E-007  0.4508438E+03  0.7818608E-02  0.1027471E+00
          1   -1    0    0  501    0  0.00000000000E+00  0.00000000000E+00  0.21102476578E+04  0.21102476578E+04  0.00000000000E+00 0. -1.
         -2   -1    0    0    0  501 -0.00000000000E+00 -0.00000000000E+00 -0.18047911605E+03  0.18047911605E+03  0.00000000000E+00 0.  1.
        -24    2    1    2    0    0  0.29176133649E+03  0.29471273345E+03  0.34138760288E+03  0.54284375020E+03  0.78444687584E+02 0.  0.
    5000000    2    1    2    0    0 -0.29176133649E+03 -0.29471273345E+03  0.15883809389E+04  0.17478830237E+04  0.60013397226E+03 0.  0.
        -24    2    4    4    0    0 -0.22412000855E+02 -0.15146061024E+03  0.52856804637E+02  0.18026805594E+03  0.79120894588E+02 0.  0.
         24    2    4    4    0    0 -0.26934933563E+03 -0.14325212321E+03  0.15355241343E+04  0.15676149677E+04  0.80697489096E+02 0.  0.
         11    1    5    5    0    0 -0.17081704208E+02  0.54410902803E+00 -0.45683341704E+01  0.17690402776E+02  0.00000000000E+00 0. -1.
        -12    1    5    5    0    0 -0.53302966464E+01 -0.15200471927E+03  0.57425138808E+02  0.16257765317E+03  0.00000000000E+00 0.  1.
         13    1    3    3    0    0  0.25074706291E+03  0.22893005677E+03  0.24273297290E+03  0.41737555820E+03  0.00000000000E+00 0. -1.
        -14    1    3    3    0    0  0.41014273577E+02  0.65782676685E+02  0.98654629981E+02  0.12546819201E+03  0.00000000000E+00 0.  1.
          4    1    6    6  502    0 -0.75895876558E+02 -0.20207838530E+01  0.35121873654E+03  0.35933114052E+03  0.00000000000E+00 0. -1.
         -3    1    6    6    0  502 -0.19345345907E+03 -0.14123133936E+03  0.11843053977E+04  0.12082838272E+04  0.00000000000E+00 0.  1.
<mgrwt>
<rscale>  0 0.45084376E+03</rscale>
<asrwt>0</asrwt>
<pdfrwt beam="1">  1        1 0.32465347E+00 0.45084376E+03</pdfrwt>
<pdfrwt beam="2">  1       -2 0.27766019E-01 0.45084376E+03</pdfrwt>
<totfact> 0.28426669E+01</totfact>
</mgrwt>
</event>
<event>
12    3  0.2212098E-007  0.6851388E+03  0.7818608E-02  0.9742990E-01
          1   -1    0    0  501    0  0.00000000000E+00  0.00000000000E+00  0.14997379358E+04  0.14997379358E+04  0.00000000000E+00 0. -1.
         -2   -1    0    0    0  501 -0.00000000000E+00 -0.00000000000E+00 -0.34456775029E+03  0.34456775029E+03  0.00000000000E+00 0.  1.
        -24    2    1    2    0    0 -0.22525252790E+03 -0.52720894651E+03  0.66158890475E+03  0.87875524085E+03  0.76308058736E+02 0.  0.
    5000000    2    1    2    0    0  0.22525252790E+03  0.52720894651E+03  0.49358128078E+03  0.96555044527E+03  0.59998100554E+03 0.  0.
        -24    2    4    4    0    0 -0.15292734725E+03  0.32927358144E+03  0.11354428147E+03  0.38864445572E+03  0.79651391282E+02 0.  0.
         24    2    4    4    0    0  0.37817987515E+03  0.19793536507E+03  0.38003699931E+03  0.57690598955E+03  0.78701799327E+02 0.  0.
         11    1    5    5    0    0 -0.29789850057E+02  0.29721367039E+02  0.36565493430E+02  0.55747915969E+02  0.00000000000E+00 0. -1.
        -12    1    5    5    0    0 -0.12313749719E+03  0.29955221440E+03  0.76978788038E+02  0.33289653975E+03  0.00000000000E+00 0.  1.
         11    1    3    3    0    0 -0.15300071012E+03 -0.42910723455E+03  0.54206249671E+03  0.70807766973E+03  0.00000000000E+00 0. -1.
        -12    1    3    3    0    0 -0.72251817785E+02 -0.98101711957E+02  0.11952640804E+03  0.17067757111E+03  0.00000000000E+00 0.  1.
          2    1    6    6  502    0  0.13496398450E+03  0.66450120680E+02  0.18554732841E+03  0.23886964380E+03  0.00000000000E+00 0. -1.
         -1    1    6    6    0  502  0.24321589066E+03  0.13148524439E+03  0.19448967090E+03  0.33803634575E+03  0.00000000000E+00 0.  1.
<mgrwt>
<rscale>  0 0.68513884E+03</rscale>
<asrwt>0</asrwt>
<pdfrwt beam="1">  1        1 0.23072891E+00 0.68513884E+03</pdfrwt>
<pdfrwt beam="2">  1       -2 0.53010424E-01 0.68513884E+03</pdfrwt>
<totfact> 0.20025930E+01</totfact>
</mgrwt>
</event>
<event>
12    3  0.2212098E-007  0.6725929E+03  0.7818608E-02  0.9765285E-01
          1   -1    0    0  501    0  0.00000000000E+00  0.00000000000E+00  0.10188491133E+04  0.10188491133E+04  0.00000000000E+00 0. -1.
         -2   -1    0    0    0  501 -0.00000000000E+00 -0.00000000000E+00 -0.92232586222E+03  0.92232586222E+03  0.00000000000E+00 0.  1.
        -24    2    1    2    0    0 -0.48082443808E+03  0.28592634146E+03  0.71527137753E+03  0.91367689615E+03  0.10122407844E+03 0.  0.
    5000000    2    1    2    0    0  0.48082443808E+03 -0.28592634146E+03 -0.61874812641E+03  0.10274980794E+04  0.59996420415E+03 0.  0.
        -24    2    4    4    0    0  0.31445315231E+03 -0.44138401917E+03 -0.29065157188E+03  0.62010142685E+03  0.79666843593E+02 0.  0.
         24    2    4    4    0    0  0.16637128577E+03  0.15545767771E+03 -0.32809655453E+03  0.40739665256E+03  0.80487198591E+02 0.  0.
         13    1    3    3    0    0 -0.26951629319E+03  0.10221207730E+03  0.37634741849E+03  0.47405033534E+03  0.00000000000E+00 0. -1.
        -14    1    3    3    0    0 -0.21130814489E+03  0.18371426416E+03  0.33892395905E+03  0.43962656081E+03  0.00000000000E+00 0.  1.
         13    1    5    5    0    0  0.39169429177E+02 -0.86034546758E+02 -0.79300223373E+02  0.12338846318E+03  0.00000000000E+00 0. -1.
        -14    1    5    5    0    0  0.27528372313E+03 -0.35534947241E+03 -0.21135134851E+03  0.49671296367E+03  0.00000000000E+00 0.  1.
          2    1    6    6  502    0  0.29761189904E+02  0.57671251752E+02 -0.47773112330E+02  0.80585184524E+02  0.00000000000E+00 0. -1.
         -1    1    6    6    0  502  0.13661009586E+03  0.97786425954E+02 -0.28032344220E+03  0.32681146804E+03  0.00000000000E+00 0.  1.
<mgrwt>
<rscale>  0 0.67259291E+03</rscale>
<asrwt>0</asrwt>
<pdfrwt beam="1">  1        1 0.15674602E+00 0.67259291E+03</pdfrwt>
<pdfrwt beam="2">  1       -2 0.14189629E+00 0.67259291E+03</pdfrwt>
<totfact> 0.46132099E+00</totfact>
</mgrwt>
</event>
<event>
12    3  0.2212098E-007  0.9600084E+03  0.7818608E-02  0.9353528E-01
         -2   -1    0    0    0  501 -0.00000000000E+00  0.00000000000E+00  0.14814022319E+04  0.14814022319E+04  0.00000000000E+00 0.  1.
          1   -1    0    0  501    0  0.00000000000E+00 -0.00000000000E+00 -0.83281763902E+03  0.83281763902E+03  0.00000000000E+00 0. -1.
        -24    2    1    2    0    0 -0.73604467394E+03 -0.49868361167E+03 -0.23682339870E+03  0.92340051527E+03  0.78333152898E+02 0.  0.
    5000000    2    1    2    0    0  0.73604467394E+03  0.49868361167E+03  0.88540799155E+03  0.13908193556E+04  0.59998671809E+03 0.  0.
        -24    2    4    4    0    0  0.55618661029E+03  0.59842934135E+03  0.82080972726E+03  0.11607370508E+04  0.78234714967E+02 0.  0.
         24    2    4    4    0    0  0.17985806365E+03 -0.99745729684E+02  0.64598264288E+02  0.23008230484E+03  0.80416401321E+02 0.  0.
         11    1    3    3    0    0 -0.63618283272E+03 -0.41394452474E+03 -0.22626075034E+03  0.79200542507E+03  0.00000000000E+00 0. -1.
        -12    1    3    3    0    0 -0.99861841225E+02 -0.84739086931E+02 -0.10562648359E+02  0.13139509019E+03  0.00000000000E+00 0.  1.
         13    1    5    5    0    0  0.44301897552E+03  0.47382844873E+03  0.69429184339E+03  0.95016860362E+03  0.00000000000E+00 0. -1.
        -14    1    5    5    0    0  0.11316763477E+03  0.12460089262E+03  0.12651788387E+03  0.21056844716E+03  0.00000000000E+00 0.  1.
          2    1    6    6  502    0  0.13329552885E+03 -0.43894326502E+02  0.70647759069E+02  0.15711624923E+03  0.00000000000E+00 0. -1.
         -1    1    6    6    0  502  0.46562534805E+02 -0.55851403182E+02 -0.60494947811E+01  0.72966055615E+02  0.00000000000E+00 0.  1.
<mgrwt>
<rscale>  0 0.96000845E+03</rscale>
<asrwt>0</asrwt>
<pdfrwt beam="1">  1        1 0.12812579E+00 0.96000845E+03</pdfrwt>
<pdfrwt beam="2">  1       -2 0.22790804E+00 0.96000845E+03</pdfrwt>
<totfact> 0.16060032E+00</totfact>
</mgrwt>
</event>
<event>
12    3  0.2212098E-007  0.1094248E+04  0.7818608E-02  0.9210817E-01
          1   -1    0    0  501    0  0.00000000000E+00  0.00000000000E+00  0.71711836217E+03  0.71711836217E+03  0.00000000000E+00 0. -1.
         -2   -1    0    0    0  501 -0.00000000000E+00 -0.00000000000E+00 -0.19583290533E+04  0.19583290533E+04  0.00000000000E+00 0.  1.
        -24    2    1    2    0    0 -0.48219228073E+03 -0.97188935811E+03 -0.32978016537E+03  0.11366565197E+04  0.78452319375E+02 0.  0.
    5000000    2    1    2    0    0  0.48219228073E+03  0.97188935811E+03 -0.91143052573E+03  0.15387908957E+04  0.60007790946E+03 0.  0.
        -24    2    4    4    0    0  0.27137153969E+03  0.41962584344E+03 -0.77766379658E+03  0.92745704732E+03  0.75413745929E+02 0.  0.
         24    2    4    4    0    0  0.21082074104E+03  0.55226351467E+03 -0.13376672915E+03  0.61133384837E+03  0.79969755828E+02 0.  0.
         11    1    3    3    0    0 -0.33691789155E+03 -0.60256314158E+03 -0.22651793327E+03  0.72657166153E+03  0.00000000000E+00 0. -1.
        -12    1    3    3    0    0 -0.14527438918E+03 -0.36932621652E+03 -0.10326223210E+03  0.41008485822E+03  0.00000000000E+00 0.  1.
         13    1    5    5    0    0  0.11613988759E+03  0.11807093114E+03 -0.23416729982E+03  0.28681621742E+03  0.00000000000E+00 0. -1.
        -14    1    5    5    0    0  0.15523165211E+03  0.30155491230E+03 -0.54349649676E+03  0.64064082990E+03  0.00000000000E+00 0.  1.
          4    1    6    6  502    0  0.19603466999E+03  0.42115530950E+03 -0.10695749102E+03  0.47669832330E+03  0.00000000000E+00 0. -1.
         -3    1    6    6    0  502  0.14786071050E+02  0.13110820517E+03 -0.26809238129E+02  0.13463552507E+03  0.00000000000E+00 0.  1.
<mgrwt>
<rscale>  0 0.10942478E+04</rscale>
<asrwt>0</asrwt>
<pdfrwt beam="1">  1        1 0.11032590E+00 0.10942478E+04</pdfrwt>
<pdfrwt beam="2">  1       -2 0.30128139E+00 0.10942478E+04</pdfrwt>
<totfact> 0.71574606E-01</totfact>
</mgrwt>
</event>
<event>
12    3  0.2212098E-007  0.8577109E+03  0.7818608E-02  0.9480046E-01
          1   -1    0    0  501    0  0.00000000000E+00  0.00000000000E+00  0.46956390416E+03  0.46956390416E+03  0.00000000000E+00 0. -1.
         -2   -1    0    0    0  501 -0.00000000000E+00 -0.00000000000E+00 -0.19007371230E+04  0.19007371230E+04  0.00000000000E+00 0.  1.
        -24    2    1    2    0    0  0.83172260161E+03  0.57570158191E+02 -0.45459796745E+03  0.95295836566E+03  0.79959524300E+02 0.  0.
    5000000    2    1    2    0    0 -0.83172260161E+03 -0.57570158191E+02 -0.97657525136E+03  0.14173426615E+04  0.60007015369E+03 0.  0.
        -24    2    4    4    0    0 -0.78503510457E+03 -0.45233051382E+02 -0.10376790987E+04  0.13043721903E+04  0.79263828212E+02 0.  0.
         24    2    4    4    0    0 -0.46687497040E+02 -0.12337106809E+02  0.61103847378E+02  0.11297047121E+03  0.81833493243E+02 0.  0.
         13    1    5    5    0    0 -0.16684821712E+03 -0.31703987235E+02 -0.18558995964E+03  0.25156928168E+03  0.00000000000E+00 0. -1.
        -14    1    5    5    0    0 -0.61818688744E+03 -0.13529064147E+02 -0.85208913909E+03  0.10528029086E+04  0.00000000000E+00 0.  1.
         13    1    3    3    0    0  0.45716880804E+03  0.68921596740E+02 -0.26706311579E+03  0.53392528818E+03  0.00000000000E+00 0. -1.
        -14    1    3    3    0    0  0.37455379356E+03 -0.11351438549E+02 -0.18753485166E+03  0.41903307747E+03  0.00000000000E+00 0.  1.
          2    1    6    6  502    0 -0.41557395174E+02 -0.42591322711E+02  0.22411762811E+02  0.63587144740E+02  0.00000000000E+00 0. -1.
         -1    1    6    6    0  502 -0.51301018665E+01  0.30254215902E+02  0.38692084567E+02  0.49383326469E+02  0.00000000000E+00 0.  1.
<mgrwt>
<rscale>  0 0.85771094E+03</rscale>
<asrwt>0</asrwt>
<pdfrwt beam="1">  1        1 0.72240600E-01 0.85771094E+03</pdfrwt>
<pdfrwt beam="2">  1       -2 0.29242110E+00 0.85771094E+03</pdfrwt>
<totfact> 0.15374613E+00</totfact>
</mgrwt>
</event>
<event>
12    3  0.2212098E-007  0.1107935E+04  0.7818608E-02  0.9197492E-01
          1   -1    0    0  501    0  0.00000000000E+00  0.00000000000E+00  0.28584235857E+04  0.28584235857E+04  0.00000000000E+00 0. -1.
         -2   -1    0    0    0  501 -0.00000000000E+00 -0.00000000000E+00 -0.55158768668E+03  0.55158768668E+03  0.00000000000E+00 0.  1.
        -24    2    1    2    0    0 -0.77688602786E+03  0.69923897225E+03  0.18397384221E+04  0.21174170572E+04  0.79564388517E+02 0.  0.
    5000000    2    1    2    0    0  0.77688602786E+03 -0.69923897225E+03  0.46709747695E+03  0.12925942152E+04  0.60011058276E+03 0.  0.
        -24    2    4    4    0    0  0.71869290234E+03 -0.33226047106E+03  0.44476535574E+03  0.91162149721E+03  0.79504867800E+02 0.  0.
         24    2    4    4    0    0  0.58193125515E+02 -0.36697850119E+03  0.22332121209E+02  0.38097271797E+03  0.81128466069E+02 0.  0.
         11    1    5    5    0    0  0.68914080161E+03 -0.33234041499E+03  0.41842772794E+03  0.87203609982E+03  0.00000000000E+00 0. -1.
        -12    1    5    5    0    0  0.29552100732E+02  0.79943921653E-01  0.26337627801E+02  0.39585397394E+02  0.00000000000E+00 0.  1.
         13    1    3    3    0    0 -0.48257857479E+03  0.44500862329E+03  0.10779593435E+04  0.12621058204E+04  0.00000000000E+00 0. -1.
        -14    1    3    3    0    0 -0.29430745307E+03  0.25423034896E+03  0.76177907856E+03  0.85531123680E+03  0.00000000000E+00 0.  1.
          2    1    6    6  502    0  0.69598151779E+02 -0.30305844486E+03  0.40438222406E+02  0.31356589987E+03  0.00000000000E+00 0. -1.
         -1    1    6    6    0  502 -0.11405026264E+02 -0.63920056327E+02 -0.18106101197E+02  0.67406818094E+02  0.00000000000E+00 0.  1.
<mgrwt>
<rscale>  0 0.11079352E+04</rscale>
<asrwt>0</asrwt>
<pdfrwt beam="1">  1        1 0.43975747E+00 0.11079352E+04</pdfrwt>
<pdfrwt beam="2">  1       -2 0.84859646E-01 0.11079352E+04</pdfrwt>
<totfact> 0.80754875E-01</totfact>
</mgrwt>
</event>
<event>
12    3  0.2212098E-007  0.1387950E+04  0.7818608E-02  0.8962588E-01
         -2   -1    0    0    0  501 -0.00000000000E+00  0.00000000000E+00  0.19980099558E+04  0.19980099558E+04  0.00000000000E+00 0.  1.
          1   -1    0    0  501    0  0.00000000000E+00 -0.00000000000E+00 -0.19723864633E+04  0.19723864633E+04  0.00000000000E+00 0. -1.
        -24    2    1    2    0    0  0.64081028956E+03 -0.12046212648E+04 -0.13647162095E+04  0.19321097819E+04  0.94061989092E+02 0.  0.
    5000000    2    1    2    0    0 -0.64081028956E+03  0.12046212648E+04  0.13903397020E+04  0.20382866373E+04  0.59984807232E+03 0.  0.
        -24    2    4    4    0    0 -0.67214627232E+03  0.10521186969E+04  0.97046051514E+03  0.15833323317E+04  0.80083065589E+02 0.  0.
         24    2    4    4    0    0  0.31335982763E+02  0.15250256797E+03  0.41987918682E+03  0.45495430558E+03  0.80286434640E+02 0.  0.
         11    1    5    5    0    0 -0.53700100870E+03  0.87840962722E+03  0.77008023397E+03  0.12856893572E+04  0.00000000000E+00 0. -1.
        -12    1    5    5    0    0 -0.13514526362E+03  0.17370906965E+03  0.20038028117E+03  0.29764297445E+03  0.00000000000E+00 0.  1.
         13    1    3    3    0    0  0.79770567140E+02 -0.22368786552E+03 -0.24863441955E+03  0.34382943322E+03  0.00000000000E+00 0. -1.
        -14    1    3    3    0    0  0.56103972242E+03 -0.98093339933E+03 -0.11160817899E+04  0.15882803486E+04  0.00000000000E+00 0.  1.
          4    1    6    6  502    0  0.64858952991E+01  0.10429172303E+03  0.17234940786E+03  0.20155185119E+03  0.00000000000E+00 0. -1.
         -3    1    6    6    0  502  0.24850087464E+02  0.48210844947E+02  0.24752977896E+03  0.25340245439E+03  0.00000000000E+00 0.  1.
<mgrwt>
<rscale>  0 0.13879496E+04</rscale>
<asrwt>0</asrwt>
<pdfrwt beam="1">  1        1 0.30344407E+00 0.13879496E+04</pdfrwt>
<pdfrwt beam="2">  1       -2 0.30738615E+00 0.13879496E+04</pdfrwt>
<totfact> 0.74599170E-02</totfact>
</mgrwt>
</event>
<event>
12    3  0.2212098E-007  0.7858117E+03  0.7818608E-02  0.9580784E-01
          1   -1    0    0  501    0  0.00000000000E+00  0.00000000000E+00  0.51800224173E+03  0.51800224173E+03  0.00000000000E+00 0. -1.
         -2   -1    0    0    0  501 -0.00000000000E+00 -0.00000000000E+00 -0.16640291701E+04  0.16640291701E+04  0.00000000000E+00 0.  1.
        -24    2    1    2    0    0  0.17366376440E+03 -0.74595674459E+03 -0.14016663295E+03  0.78268206197E+03  0.79586162610E+02 0.  0.
    5000000    2    1    2    0    0 -0.17366376440E+03  0.74595674459E+03 -0.10058602954E+04  0.13993493499E+04  0.59984423077E+03 0.  0.
        -24    2    4    4    0    0 -0.15246415708E+03  0.24218495344E+03 -0.79152633620E+03  0.84564065896E+03  0.81824888204E+02 0.  0.
         24    2    4    4    0    0 -0.21199607326E+02  0.50377179115E+03 -0.21433395922E+03  0.55370869089E+03  0.80117584742E+02 0.  0.
         11    1    3    3    0    0  0.24167956858E+02 -0.27027654849E+03 -0.44922180847E+02  0.27504818693E+03  0.00000000000E+00 0. -1.
        -12    1    3    3    0    0  0.14949580754E+03 -0.47568019610E+03 -0.95244452103E+02  0.50763387504E+03  0.00000000000E+00 0.  1.
         11    1    5    5    0    0 -0.15777285736E+03  0.19956075613E+03 -0.68996330651E+03  0.73536802639E+03  0.00000000000E+00 0. -1.
        -12    1    5    5    0    0  0.53087002863E+01  0.42624197305E+02 -0.10156302969E+03  0.11027263258E+03  0.00000000000E+00 0.  1.
          4    1    6    6  502    0 -0.90048705659E+01  0.12070978787E+03 -0.15767549676E+02  0.12206783444E+03  0.00000000000E+00 0. -1.
         -3    1    6    6    0  502 -0.12194736761E+02  0.38306200329E+03 -0.19856640954E+03  0.43164085646E+03  0.00000000000E+00 0.  1.
<mgrwt>
<rscale>  0 0.78581168E+03</rscale>
<asrwt>0</asrwt>
<pdfrwt beam="1">  1        1 0.79692654E-01 0.78581168E+03</pdfrwt>
<pdfrwt beam="2">  1       -2 0.25600448E+00 0.78581168E+03</pdfrwt>
<totfact> 0.22480649E+00</totfact>
</mgrwt>
</event>
<event>
12    3  0.2212098E-007  0.2700386E+03  0.7818608E-02  0.1101258E+00
          1   -1    0    0  501    0  0.00000000000E+00  0.00000000000E+00  0.28313700944E+04  0.28313700944E+04  0.00000000000E+00 0. -1.
         -2   -1    0    0    0  501 -0.00000000000E+00 -0.00000000000E+00 -0.68198369747E+02  0.68198369747E+02  0.00000000000E+00 0.  1.
        -24    2    1    2    0    0 -0.11471096114E+03  0.17247292006E+03  0.46462055999E+03  0.51500902311E+03  0.80352450878E+02 0.  0.
    5000000    2    1    2    0    0  0.11471096114E+03 -0.17247292006E+03  0.22985511646E+04  0.23845594410E+04  0.59990062384E+03 0.  0.
        -24    2    4    4    0    0 -0.49928683846E+02 -0.10638252241E+03  0.21056808692E+04  0.21103678905E+04  0.77140103647E+02 0.  0.
         24    2    4    4    0    0  0.16463964499E+03 -0.66090397652E+02  0.19287029538E+03  0.27419155050E+03  0.80671569724E+02 0.  0.
         11    1    3    3    0    0 -0.69780751939E+02  0.11857257635E+03  0.21125695490E+03  0.25210773530E+03  0.00000000000E+00 0. -1.
        -12    1    3    3    0    0 -0.44930209206E+02  0.53900343711E+02  0.25336360509E+03  0.26290128781E+03  0.00000000000E+00 0.  1.
         13    1    5    5    0    0 -0.67582905968E+02 -0.58031520099E+02  0.13517640892E+04  0.13546960026E+04  0.00000000000E+00 0. -1.
        -14    1    5    5    0    0  0.17654222121E+02 -0.48351002306E+02  0.75391678004E+03  0.75567188793E+03  0.00000000000E+00 0.  1.
          2    1    6    6  502    0  0.89768275831E+01  0.14063591025E+02  0.50787504787E+01  0.17440233152E+02  0.00000000000E+00 0. -1.
         -1    1    6    6    0  502  0.15566281741E+03 -0.80153988677E+02  0.18779154490E+03  0.25675131735E+03  0.00000000000E+00 0.  1.
<mgrwt>
<rscale>  0 0.27003857E+03</rscale>
<asrwt>0</asrwt>
<pdfrwt beam="1">  1        1 0.43559531E+00 0.27003857E+03</pdfrwt>
<pdfrwt beam="2">  1       -2 0.10492059E-01 0.27003857E+03</pdfrwt>
<totfact> 0.51282958E+01</totfact>
</mgrwt>
</event>
<event>
12    3  0.2212098E-007  0.7175767E+03  0.7818608E-02  0.9687637E-01
         -2   -1    0    0    0  501 -0.00000000000E+00  0.00000000000E+00  0.40038649307E+03  0.40038649307E+03  0.00000000000E+00 0.  1.
          1   -1    0    0  501    0  0.00000000000E+00 -0.00000000000E+00 -0.14259988342E+04  0.14259988342E+04  0.00000000000E+00 0. -1.
        -24    2    1    2    0    0  0.34318700857E+03  0.50444311641E+03 -0.22659033997E+03  0.65562866414E+03  0.79155432739E+02 0.  0.
    5000000    2    1    2    0    0 -0.34318700857E+03 -0.50444311641E+03 -0.79902200113E+03  0.11707566631E+04  0.59999568780E+03 0.  0.
        -24    2    4    4    0    0 -0.47075511379E+03 -0.46712455726E+03 -0.50366731351E+03  0.83652267218E+03  0.79206623612E+02 0.  0.
         24    2    4    4    0    0  0.12756810522E+03 -0.37318559145E+02 -0.29535468761E+03  0.33423399092E+03  0.82532859281E+02 0.  0.
         13    1    3    3    0    0  0.45755673115E+02  0.34363891928E+02 -0.36028858735E+02  0.67620539427E+02  0.00000000000E+00 0. -1.
        -14    1    3    3    0    0  0.29743133545E+03  0.47007922448E+03 -0.19056148123E+03  0.58800812471E+03  0.00000000000E+00 0.  1.
         13    1    5    5    0    0 -0.20120246362E+03 -0.24100757811E+03 -0.27076903342E+03  0.41458769101E+03  0.00000000000E+00 0. -1.
        -14    1    5    5    0    0 -0.26955265017E+03 -0.22611697915E+03 -0.23289828009E+03  0.42193498117E+03  0.00000000000E+00 0.  1.
          2    1    6    6  502    0 -0.11800432415E+02 -0.49140125434E+01 -0.33139150964E+02  0.35519023791E+02  0.00000000000E+00 0. -1.
         -1    1    6    6    0  502  0.13936853764E+03 -0.32404546601E+02 -0.26221553665E+03  0.29871496712E+03  0.00000000000E+00 0.  1.
<mgrwt>
<rscale>  0 0.71757670E+03</rscale>
<asrwt>0</asrwt>
<pdfrwt beam="1">  1        1 0.21938444E+00 0.71757670E+03</pdfrwt>
<pdfrwt beam="2">  1       -2 0.61597921E-01 0.71757670E+03</pdfrwt>
<totfact> 0.16373891E+01</totfact>
</mgrwt>
</event>
<event>
12    3  0.2212098E-007  0.1632657E+04  0.7818608E-02  0.8800733E-01
          1   -1    0    0  501    0  0.00000000000E+00  0.00000000000E+00  0.11226066984E+04  0.11226066984E+04  0.00000000000E+00 0. -1.
         -2   -1    0    0    0  501 -0.00000000000E+00 -0.00000000000E+00 -0.24702780125E+04  0.24702780125E+04  0.00000000000E+00 0.  1.
        -24    2    1    2    0    0  0.11669691484E+04  0.10866466311E+04 -0.41043432364E+03  0.16484112400E+04  0.78647237292E+02 0.  0.
    5000000    2    1    2    0    0 -0.11669691484E+04 -0.10866466311E+04 -0.93723699047E+03  0.19444734709E+04  0.59995500542E+03 0.  0.
        -24    2    4    4    0    0 -0.67260218500E+03 -0.30980251028E+03 -0.22579576208E+03  0.77803848711E+03  0.77387767796E+02 0.  0.
         24    2    4    4    0    0 -0.49436696338E+03 -0.77684412077E+03 -0.71144122839E+03  0.11664349838E+04  0.80848422495E+02 0.  0.
         11    1    5    5    0    0 -0.45892687585E+03 -0.17122309178E+03 -0.14440805102E+03  0.51067103867E+03  0.00000000000E+00 0. -1.
        -12    1    5    5    0    0 -0.21367530915E+03 -0.13857941851E+03 -0.81387711060E+02  0.26736744844E+03  0.00000000000E+00 0.  1.
         11    1    3    3    0    0  0.36856926921E+03  0.29423373143E+03 -0.12290043686E+03  0.48736158270E+03  0.00000000000E+00 0. -1.
        -12    1    3    3    0    0  0.79839987917E+03  0.79241289962E+03 -0.28753388678E+03  0.11610496572E+04  0.00000000000E+00 0.  1.
          2    1    6    6  502    0 -0.17470815441E+03 -0.20643158924E+03 -0.21286927356E+03  0.34416604696E+03  0.00000000000E+00 0. -1.
         -1    1    6    6    0  502 -0.31965880897E+03 -0.57041253152E+03 -0.49857195483E+03  0.82226893679E+03  0.00000000000E+00 0.  1.
<mgrwt>
<rscale>  0 0.16326566E+04</rscale>
<asrwt>0</asrwt>
<pdfrwt beam="1">  1        1 0.17270873E+00 0.16326566E+04</pdfrwt>
<pdfrwt beam="2">  1       -2 0.38004276E+00 0.16326566E+04</pdfrwt>
<totfact> 0.99988543E-02</totfact>
</mgrwt>
</event>
<event>
12    3  0.2212098E-007  0.1019600E+04  0.7818608E-02  0.9287305E-01
         -2   -1    0    0    0  501 -0.00000000000E+00  0.00000000000E+00  0.16366951656E+04  0.16366951656E+04  0.00000000000E+00 0.  1.
          1   -1    0    0  501    0  0.00000000000E+00 -0.00000000000E+00 -0.76989467944E+03  0.76989467944E+03  0.00000000000E+00 0. -1.
        -24    2    1    2    0    0 -0.70942332051E+03  0.68248286812E+03  0.76514254140E+03  0.12492575797E+04  0.78339509407E+02 0.  0.
    5000000    2    1    2    0    0  0.70942332051E+03 -0.68248286812E+03  0.10165794477E+03  0.11573322654E+04  0.60001610129E+03 0.  0.
        -24    2    4    4    0    0  0.38197322304E+03 -0.12436215449E+03 -0.18053431698E+03  0.44729423199E+03  0.78166500335E+02 0.  0.
         24    2    4    4    0    0  0.32745009747E+03 -0.55812071363E+03  0.28219226174E+03  0.71003803339E+03  0.76152734409E+02 0.  0.
         11    1    5    5    0    0  0.24437794833E+03 -0.72648565108E+02 -0.73083468777E+02  0.26521611763E+03  0.00000000000E+00 0. -1.
        -12    1    5    5    0    0  0.13759527471E+03 -0.51713589379E+02 -0.10745084820E+03  0.18207811436E+03  0.00000000000E+00 0.  1.
         13    1    3    3    0    0 -0.62282955573E+03  0.56057939039E+03  0.65331005328E+03  0.10625346743E+04  0.00000000000E+00 0. -1.
        -14    1    3    3    0    0 -0.86593764783E+02  0.12190347773E+03  0.11183248812E+03  0.18672290534E+03  0.00000000000E+00 0.  1.
          4    1    6    6  502    0  0.94474358966E+02 -0.21718382682E+03  0.12828352720E+03  0.26935271019E+03  0.00000000000E+00 0. -1.
         -3    1    6    6    0  502  0.23297573850E+03 -0.34093688681E+03  0.15390873455E+03  0.44068532320E+03  0.00000000000E+00 0.  1.
<mgrwt>
<rscale>  0 0.10196001E+04</rscale>
<asrwt>0</asrwt>
<pdfrwt beam="1">  1        1 0.11844534E+00 0.10196001E+04</pdfrwt>
<pdfrwt beam="2">  1       -2 0.25179926E+00 0.10196001E+04</pdfrwt>
<totfact> 0.12896491E+00</totfact>
</mgrwt>
</event>
<event>
12    3  0.2212098E-007  0.1257782E+04  0.7818608E-02  0.9063731E-01
          1   -1    0    0  501    0  0.00000000000E+00  0.00000000000E+00  0.19904834900E+04  0.19904834900E+04  0.00000000000E+00 0. -1.
         -2   -1    0    0    0  501 -0.00000000000E+00 -0.00000000000E+00 -0.95575288348E+03  0.95575288348E+03  0.00000000000E+00 0.  1.
        -24    2    1    2    0    0 -0.73369005767E+03  0.10016886823E+04  0.38085449748E+02  0.12446034274E+04  0.76849678881E+02 0.  0.
    5000000    2    1    2    0    0  0.73369005767E+03 -0.10016886823E+04  0.99664515680E+03  0.17016329461E+04  0.60047630893E+03 0.  0.
        -24    2    4    4    0    0  0.46385942641E+02 -0.18982871336E+03  0.46296206900E+03  0.50881643977E+03  0.79835430451E+02 0.  0.
         24    2    4    4    0    0  0.68730411503E+03 -0.81185996895E+03  0.53368308780E+03  0.11928165063E+04  0.80560683850E+02 0.  0.
         11    1    3    3    0    0 -0.11195864301E+03  0.14695638230E+03  0.32905207768E+02  0.18765305418E+03  0.00000000000E+00 0. -1.
        -12    1    3    3    0    0 -0.62173141465E+03  0.85473230000E+03  0.51802419809E+01  0.10569503733E+04  0.00000000000E+00 0.  1.
         13    1    5    5    0    0  0.42732296260E+02 -0.42636984631E+02  0.95801455444E+02  0.11323374262E+03  0.00000000000E+00 0. -1.
        -14    1    5    5    0    0  0.36536463812E+01 -0.14719172872E+03  0.36716061355E+03  0.39558269715E+03  0.00000000000E+00 0.  1.
          2    1    6    6  502    0  0.56355660291E+03 -0.61881175925E+03  0.40393233082E+03  0.92934674151E+03  0.00000000000E+00 0. -1.
         -1    1    6    6    0  502  0.12374751212E+03 -0.19304820969E+03  0.12975075697E+03  0.26346976479E+03  0.00000000000E+00 0.  1.
<mgrwt>
<rscale>  0 0.12577821E+04</rscale>
<asrwt>0</asrwt>
<pdfrwt beam="1">  1        1 0.30622823E+00 0.12577821E+04</pdfrwt>
<pdfrwt beam="2">  1       -2 0.14703891E+00 0.12577821E+04</pdfrwt>
<totfact> 0.81381015E-01</totfact>
</mgrwt>
</event>
<event>
12    3  0.2212098E-007  0.4381817E+03  0.7818608E-02  0.1031306E+00
         -2   -1    0    0    0  501 -0.00000000000E+00  0.00000000000E+00  0.32683383010E+03  0.32683383010E+03  0.00000000000E+00 0.  1.
          1   -1    0    0  501    0  0.00000000000E+00 -0.00000000000E+00 -0.79256138528E+03  0.79256138528E+03  0.00000000000E+00 0. -1.
        -24    2    1    2    0    0 -0.20174060290E+03 -0.25391258688E+03 -0.12096938427E+03  0.35512195989E+03  0.79417515884E+02 0.  0.
    5000000    2    1    2    0    0  0.20174060290E+03  0.25391258688E+03 -0.34475817092E+03  0.76427325549E+03  0.60007044587E+03 0.  0.
        -24    2    4    4    0    0  0.31661998456E+03  0.79114028786E+02  0.20352588909E+02  0.33679927408E+03  0.80698692498E+02 0.  0.
         24    2    4    4    0    0 -0.11487938166E+03  0.17479855810E+03 -0.36511075983E+03  0.42747398141E+03  0.75341420205E+02 0.  0.
         11    1    3    3    0    0 -0.14178713974E+03 -0.11573241031E+03 -0.59736814965E+02  0.19252550702E+03  0.00000000000E+00 0. -1.
        -12    1    3    3    0    0 -0.59953463168E+02 -0.13818017657E+03 -0.61232569300E+02  0.16259645287E+03  0.00000000000E+00 0.  1.
         13    1    5    5    0    0  0.61064667689E+02  0.35040046650E+02  0.31725872237E+02  0.77221949460E+02  0.00000000000E+00 0. -1.
        -14    1    5    5    0    0  0.25555531688E+03  0.44073982136E+02 -0.11373283328E+02  0.25957732462E+03  0.00000000000E+00 0.  1.
          2    1    6    6  502    0 -0.59927723092E+02  0.12585493905E+03 -0.29288051861E+03  0.32436059541E+03  0.00000000000E+00 0. -1.
         -1    1    6    6    0  502 -0.54951658568E+02  0.48943619050E+02 -0.72230241218E+02  0.10311338600E+03  0.00000000000E+00 0.  1.
<mgrwt>
<rscale>  0 0.43818173E+03</rscale>
<asrwt>0</asrwt>
<pdfrwt beam="1">  1        1 0.12193252E+00 0.43818173E+03</pdfrwt>
<pdfrwt beam="2">  1       -2 0.50282127E-01 0.43818173E+03</pdfrwt>
<totfact> 0.77098288E+01</totfact>
</mgrwt>
</event>
<event>
12    3  0.2212098E-007  0.1247776E+04  0.7818608E-02  0.9072036E-01
          1   -1    0    0  501    0  0.00000000000E+00  0.00000000000E+00  0.21066446416E+04  0.21066446416E+04  0.00000000000E+00 0. -1.
         -2   -1    0    0    0  501 -0.00000000000E+00 -0.00000000000E+00 -0.79451522794E+03  0.79451522794E+03  0.00000000000E+00 0.  1.
        -24    2    1    2    0    0  0.75312499999E+03 -0.96184070423E+03  0.68089935619E+03  0.14008254957E+04  0.79707780789E+02 0.  0.
    5000000    2    1    2    0    0 -0.75312499999E+03  0.96184070423E+03  0.63123005745E+03  0.15003343738E+04  0.60018084089E+03 0.  0.
        -24    2    4    4    0    0 -0.66113769803E+03  0.58122165233E+03  0.18818830809E+03  0.90387079554E+03  0.81522456088E+02 0.  0.
         24    2    4    4    0    0 -0.91987301960E+02  0.38061905190E+03  0.44304174935E+03  0.59646357823E+03  0.78423734209E+02 0.  0.
         11    1    3    3    0    0  0.50136320079E+03 -0.61787995379E+03  0.48349806695E+03  0.93108059648E+03  0.00000000000E+00 0. -1.
        -12    1    3    3    0    0  0.25176179920E+03 -0.34396075044E+03  0.19740128923E+03  0.46974489925E+03  0.00000000000E+00 0.  1.
         13    1    5    5    0    0 -0.10385957229E+03  0.11861869926E+03  0.98332380215E+01  0.15796803202E+03  0.00000000000E+00 0. -1.
        -14    1    5    5    0    0 -0.55727812574E+03  0.46260295307E+03  0.17835507007E+03  0.74590276353E+03  0.00000000000E+00 0.  1.
          2    1    6    6  502    0 -0.33771873647E+02  0.15752033462E+03  0.24106195930E+03  0.28993803389E+03  0.00000000000E+00 0. -1.
         -1    1    6    6    0  502 -0.58215428313E+02  0.22309871728E+03  0.20197979005E+03  0.30652554434E+03  0.00000000000E+00 0.  1.
<mgrwt>
<rscale>  0 0.12477760E+04</rscale>
<asrwt>0</asrwt>
<pdfrwt beam="1">  1        1 0.32409917E+00 0.12477760E+04</pdfrwt>
<pdfrwt beam="2">  1       -2 0.12223311E+00 0.12477760E+04</pdfrwt>
<totfact> 0.10945703E+00</totfact>
</mgrwt>
</event>
<event>
12    3  0.2212098E-007  0.8934615E+03  0.7818608E-02  0.9433792E-01
         -2   -1    0    0    0  501 -0.00000000000E+00  0.00000000000E+00  0.56754715854E+03  0.56754715854E+03  0.00000000000E+00 0.  1.
          1   -1    0    0  501    0  0.00000000000E+00 -0.00000000000E+00 -0.21060682565E+04  0.21060682565E+04  0.00000000000E+00 0. -1.
        -24    2    1    2    0    0  0.61576148273E+03 -0.55358206064E+03 -0.68146579903E+01  0.83197689483E+03  0.80770121225E+02 0.  0.
    5000000    2    1    2    0    0 -0.61576148273E+03  0.55358206064E+03 -0.15317064400E+04  0.18416385202E+04  0.59991042618E+03 0.  0.
        -24    2    4    4    0    0 -0.46873091713E+03  0.10956163271E+03 -0.10872348966E+04  0.11915881058E+04  0.78038898439E+02 0.  0.
         24    2    4    4    0    0 -0.14703056560E+03  0.44402042793E+03 -0.44447154343E+03  0.65005041439E+03  0.78983926779E+02 0.  0.
         13    1    3    3    0    0  0.45350633860E+03 -0.44744946122E+03  0.11853437177E+02  0.63719661289E+03  0.00000000000E+00 0. -1.
        -14    1    3    3    0    0  0.16225514413E+03 -0.10613259942E+03 -0.18668095167E+02  0.19478028194E+03  0.00000000000E+00 0.  1.
         13    1    5    5    0    0 -0.39786178702E+03  0.12078201577E+03 -0.93590002656E+03  0.10241050516E+04  0.00000000000E+00 0. -1.
        -14    1    5    5    0    0 -0.70869130111E+02 -0.11220383054E+02 -0.15133487000E+03  0.16748305430E+03  0.00000000000E+00 0.  1.
          2    1    6    6  502    0 -0.35081232022E+02  0.14318532033E+03 -0.18966763118E+03  0.24022185395E+03  0.00000000000E+00 0. -1.
         -1    1    6    6    0  502 -0.11194933358E+03  0.30083510760E+03 -0.25480391225E+03  0.40982856043E+03  0.00000000000E+00 0.  1.
<mgrwt>
<rscale>  0 0.89346150E+03</rscale>
<asrwt>0</asrwt>
<pdfrwt beam="1">  1        1 0.32401050E+00 0.89346150E+03</pdfrwt>
<pdfrwt beam="2">  1       -2 0.87314947E-01 0.89346150E+03</pdfrwt>
<totfact> 0.25689401E+00</totfact>
</mgrwt>
</event>
<event>
12    3  0.2212098E-007  0.5564597E+03  0.7818608E-02  0.1000010E+00
          1   -1    0    0  501    0  0.00000000000E+00  0.00000000000E+00  0.50871568257E+03  0.50871568257E+03  0.00000000000E+00 0. -1.
         -2   -1    0    0    0  501 -0.00000000000E+00 -0.00000000000E+00 -0.79614542969E+03  0.79614542969E+03  0.00000000000E+00 0.  1.
        -24    2    1    2    0    0  0.40664442750E+03 -0.25392634665E+02  0.16868313142E+03  0.44805551779E+03  0.79342749410E+02 0.  0.
    5000000    2    1    2    0    0 -0.40664442750E+03  0.25392634665E+02 -0.45611287853E+03  0.85680559447E+03  0.60006032400E+03 0.  0.
        -24    2    4    4    0    0 -0.35158997895E+03 -0.23635141505E+03 -0.35639384192E+03  0.55946570797E+03  0.80670956006E+02 0.  0.
         24    2    4    4    0    0 -0.55054448550E+02  0.26174404972E+03 -0.99719036611E+02  0.29733988650E+03  0.83223686352E+02 0.  0.
         11    1    3    3    0    0  0.53810750810E+02 -0.20962920204E+02  0.48105965352E+02  0.75161325352E+02  0.00000000000E+00 0. -1.
        -12    1    3    3    0    0  0.35283367669E+03 -0.44297144614E+01  0.12057716607E+03  0.37289419244E+03  0.00000000000E+00 0.  1.
         11    1    5    5    0    0 -0.21658766339E+03 -0.97290077129E+02 -0.19822726636E+03  0.30930506651E+03  0.00000000000E+00 0. -1.
        -12    1    5    5    0    0 -0.13500231555E+03 -0.13906133793E+03 -0.15816657557E+03  0.25016064146E+03  0.00000000000E+00 0.  1.
          4    1    6    6  502    0  0.52231253764E+01  0.66917596352E+02 -0.59023025637E+02  0.89381000753E+02  0.00000000000E+00 0. -1.
         -3    1    6    6    0  502 -0.60277573927E+02  0.19482645337E+03 -0.40696010974E+02  0.20795888574E+03  0.00000000000E+00 0.  1.
<mgrwt>
<rscale>  0 0.55645971E+03</rscale>
<asrwt>0</asrwt>
<pdfrwt beam="1">  1        1 0.78263952E-01 0.55645971E+03</pdfrwt>
<pdfrwt beam="2">  1       -2 0.12248391E+00 0.55645971E+03</pdfrwt>
<totfact> 0.19834185E+01</totfact>
</mgrwt>
</event>
<event>
12    3  0.2212098E-007  0.4097667E+03  0.7818608E-02  0.1040449E+00
          1   -1    0    0  501    0  0.00000000000E+00  0.00000000000E+00  0.98409789949E+03  0.98409789949E+03  0.00000000000E+00 0. -1.
         -2   -1    0    0    0  501 -0.00000000000E+00 -0.00000000000E+00 -0.31503520073E+03  0.31503520073E+03  0.00000000000E+00 0.  1.
        -24    2    1    2    0    0 -0.36677694470E+03  0.65550618737E+01  0.39383393699E+03  0.54394097029E+03  0.78729367076E+02 0.  0.
    5000000    2    1    2    0    0  0.36677694470E+03 -0.65550618737E+01  0.27522876177E+03  0.75519212992E+03  0.59999665482E+03 0.  0.
        -24    2    4    4    0    0  0.52946175347E+02 -0.80683104921E+02 -0.16321833783E+03  0.20515373903E+03  0.78324772147E+02 0.  0.
         24    2    4    4    0    0  0.31383076935E+03  0.74128043047E+02  0.43844709960E+03  0.55003839089E+03  0.79508828144E+02 0.  0.
         11    1    3    3    0    0 -0.23574997152E+03 -0.66139709437E+01  0.19794340094E+03  0.30790158112E+03  0.00000000000E+00 0. -1.
        -12    1    3    3    0    0 -0.13102697318E+03  0.13169032817E+02  0.19589053605E+03  0.23603938917E+03  0.00000000000E+00 0.  1.
         11    1    5    5    0    0  0.28665371689E+01  0.13182658920E+02 -0.47857244996E+01  0.14314422465E+02  0.00000000000E+00 0. -1.
        -12    1    5    5    0    0  0.50079638178E+02 -0.93865763841E+02 -0.15843261333E+03  0.19083931656E+03  0.00000000000E+00 0.  1.
          2    1    6    6  502    0  0.28522071121E+03  0.90407061834E+02  0.39533656097E+03  0.49579762744E+03  0.00000000000E+00 0. -1.
         -1    1    6    6    0  502  0.28610058145E+02 -0.16279018787E+02  0.43110538623E+02  0.54240763454E+02  0.00000000000E+00 0.  1.
<mgrwt>
<rscale>  0 0.40976673E+03</rscale>
<asrwt>0</asrwt>
<pdfrwt beam="1">  1        1 0.15139968E+00 0.40976673E+03</pdfrwt>
<pdfrwt beam="2">  1       -2 0.48466954E-01 0.40976673E+03</pdfrwt>
<totfact> 0.58378374E+01</totfact>
</mgrwt>
</event>
<event>
12    3  0.2212098E-007  0.3973657E+03  0.7818608E-02  0.1044696E+00
          1   -1    0    0  501    0  0.00000000000E+00  0.00000000000E+00  0.19201212463E+04  0.19201212463E+04  0.00000000000E+00 0. -1.
         -2   -1    0    0    0  501 -0.00000000000E+00 -0.00000000000E+00 -0.14220623247E+03  0.14220623247E+03  0.00000000000E+00 0.  1.
        -24    2    1    2    0    0  0.12598286138E+03 -0.10333189234E+03  0.11995325176E+04  0.12131594846E+04  0.79551951000E+02 0.  0.
    5000000    2    1    2    0    0 -0.12598286138E+03  0.10333189234E+03  0.57838249626E+03  0.84916799422E+03  0.60000900751E+03 0.  0.
        -24    2    4    4    0    0 -0.25167106531E+03  0.28499264574E+03  0.34306673440E+03  0.51820687085E+03  0.79274482073E+02 0.  0.
         24    2    4    4    0    0  0.12568820393E+03 -0.18166075340E+03  0.23531576186E+03  0.33096112337E+03  0.73236626538E+02 0.  0.
         13    1    3    3    0    0  0.10697665448E+03 -0.11321084281E+03  0.94737472903E+03  0.96009352500E+03  0.00000000000E+00 0. -1.
        -14    1    3    3    0    0  0.19006206898E+02  0.98789504743E+01  0.25215778855E+03  0.25306595956E+03  0.00000000000E+00 0.  1.
         13    1    5    5    0    0 -0.54324569385E+02  0.26290272836E+02  0.77383192197E+02  0.98135089134E+02  0.00000000000E+00 0. -1.
        -14    1    5    5    0    0 -0.19734649593E+03  0.25870237290E+03  0.26568354220E+03  0.42007178172E+03  0.00000000000E+00 0.  1.
          4    1    6    6  502    0  0.10849576050E+03 -0.97330282860E+02  0.16182193407E+03  0.21778625383E+03  0.00000000000E+00 0. -1.
         -1    1    6    6    0  502  0.17192443429E+02 -0.84330470541E+02  0.73493827789E+02  0.11317486954E+03  0.00000000000E+00 0.  1.
<mgrwt>
<rscale>  0 0.39736565E+03</rscale>
<asrwt>0</asrwt>
<pdfrwt beam="1">  1        1 0.29540325E+00 0.39736565E+03</pdfrwt>
<pdfrwt beam="2">  1       -2 0.21877883E-01 0.39736565E+03</pdfrwt>
<totfact> 0.58677320E+01</totfact>
</mgrwt>
</event>
<event>
12    3  0.2212098E-007  0.3863745E+03  0.7818608E-02  0.1048603E+00
         -2   -1    0    0    0  501 -0.00000000000E+00  0.00000000000E+00  0.32124082211E+03  0.32124082211E+03  0.00000000000E+00 0.  1.
          1   -1    0    0  501    0  0.00000000000E+00 -0.00000000000E+00 -0.21619108219E+04  0.21619108219E+04  0.00000000000E+00 0. -1.
        -24    2    1    2    0    0 -0.21831446781E+03  0.29892950886E+03 -0.17281632014E+04  0.17691703766E+04  0.79973198095E+02 0.  0.
    5000000    2    1    2    0    0  0.21831446781E+03 -0.29892950886E+03 -0.11250679837E+03  0.71398126746E+03  0.60007617223E+03 0.  0.
        -24    2    4    4    0    0  0.70329151496E+02 -0.60939726855E+02  0.23179700107E+03  0.26296745644E+03  0.82232557915E+02 0.  0.
         24    2    4    4    0    0  0.14798531632E+03 -0.23798978200E+03 -0.34430379944E+03  0.45101381102E+03  0.79558539689E+02 0.  0.
         11    1    5    5    0    0  0.25315225946E+02  0.49519453283E+01  0.10728473216E+02  0.27937118047E+02  0.00000000000E+00 0. -1.
        -12    1    5    5    0    0  0.45013925549E+02 -0.65891672183E+02  0.22106852785E+03  0.23503033839E+03  0.00000000000E+00 0.  1.
         13    1    3    3    0    0 -0.69299041604E+02  0.15243424623E+03 -0.86647814342E+03  0.88250945016E+03  0.00000000000E+00 0. -1.
        -14    1    3    3    0    0 -0.14901542621E+03  0.14649526262E+03 -0.86168505801E+03  0.88666092641E+03  0.00000000000E+00 0.  1.
          4    1    6    6  502    0  0.74263506514E+02 -0.18671668311E+03 -0.22455745031E+03  0.30133741328E+03  0.00000000000E+00 0. -1.
         -3    1    6    6    0  502  0.73721809805E+02 -0.51273098895E+02 -0.11974634913E+03  0.14967639774E+03  0.00000000000E+00 0.  1.
<mgrwt>
<rscale>  0 0.38637452E+03</rscale>
<asrwt>0</asrwt>
<pdfrwt beam="1">  1        1 0.33260165E+00 0.38637452E+03</pdfrwt>
<pdfrwt beam="2">  1       -2 0.49421667E-01 0.38637452E+03</pdfrwt>
<totfact> 0.88953003E+00</totfact>
</mgrwt>
</event>
<event>
12    3  0.2212098E-007  0.1267877E+04  0.7818608E-02  0.9055434E-01
          1   -1    0    0  501    0  0.00000000000E+00  0.00000000000E+00  0.17042066355E+04  0.17042066355E+04  0.00000000000E+00 0. -1.
         -2   -1    0    0    0  501 -0.00000000000E+00 -0.00000000000E+00 -0.20131613462E+04  0.20131613462E+04  0.00000000000E+00 0.  1.
        -24    2    1    2    0    0  0.12612380909E+04  0.23273565180E+02 -0.14429398570E+04  0.19181871591E+04  0.78124038291E+02 0.  0.
    5000000    2    1    2    0    0 -0.12612380909E+04 -0.23273565180E+02  0.11339851463E+04  0.17991808226E+04  0.59988843919E+03 0.  0.
        -24    2    4    4    0    0 -0.10767822048E+04 -0.60887513451E+02  0.11686758480E+04  0.15923140374E+04  0.80582566288E+02 0.  0.
         24    2    4    4    0    0 -0.18445588611E+03  0.37613948271E+02 -0.34690701658E+02  0.20686678524E+03  0.78432385087E+02 0.  0.
         11    1    3    3    0    0  0.10256648264E+04  0.25211513775E+02 -0.11265685885E+04  0.15237390659E+04  0.00000000000E+00 0. -1.
        -12    1    3    3    0    0  0.23557326456E+03 -0.19379485958E+01 -0.31637126853E+03  0.39444809312E+03  0.00000000000E+00 0.  1.
         13    1    5    5    0    0 -0.66288083987E+03 -0.76370170749E+02  0.71347018917E+03  0.97687415857E+03  0.00000000000E+00 0. -1.
        -14    1    5    5    0    0 -0.41390136496E+03  0.15482657299E+02  0.45520565882E+03  0.61543987880E+03  0.00000000000E+00 0.  1.
          4    1    6    6  502    0 -0.13360270798E+03  0.78821381723E+01 -0.54803341583E+02  0.14462094569E+03  0.00000000000E+00 0. -1.
         -3    1    6    6    0  502 -0.50853178121E+02  0.29731810099E+02  0.20112639926E+02  0.62245839552E+02  0.00000000000E+00 0.  1.
<mgrwt>
<rscale>  0 0.12678771E+04</rscale>
<asrwt>0</asrwt>
<pdfrwt beam="1">  1        1 0.26218564E+00 0.12678771E+04</pdfrwt>
<pdfrwt beam="2">  1       -2 0.30971713E+00 0.12678771E+04</pdfrwt>
<totfact> 0.11169317E-01</totfact>
</mgrwt>
</event>
<event>
12    3  0.2212098E-007  0.6213315E+03  0.7818608E-02  0.9862112E-01
          1   -1    0    0  501    0  0.00000000000E+00  0.00000000000E+00  0.16991904370E+04  0.16991904370E+04  0.00000000000E+00 0. -1.
         -2   -1    0    0    0  501 -0.00000000000E+00 -0.00000000000E+00 -0.63171625546E+03  0.63171625546E+03  0.00000000000E+00 0.  1.
        -24    2    1    2    0    0  0.21529011554E+03  0.42612565703E+03 -0.43037237872E+03  0.64817603090E+03  0.83539650783E+02 0.  0.
    5000000    2    1    2    0    0 -0.21529011554E+03 -0.42612565703E+03  0.14978465603E+04  0.16827306616E+04  0.60008770348E+03 0.  0.
        -24    2    4    4    0    0  0.14096935587E+03  0.42743781329E+02  0.41637079548E+03  0.44877247002E+03  0.79578265803E+02 0.  0.
         24    2    4    4    0    0 -0.35625947140E+03 -0.46886943836E+03  0.10814757648E+04  0.12339581916E+04  0.79395386991E+02 0.  0.
         11    1    5    5    0    0  0.11747098765E+03  0.93874446057E+00  0.26216556546E+03  0.28728226171E+03  0.00000000000E+00 0. -1.
        -12    1    5    5    0    0  0.23498368220E+02  0.41805036869E+02  0.15420523001E+03  0.16149020831E+03  0.00000000000E+00 0.  1.
         11    1    3    3    0    0  0.49395277743E+02  0.42110049619E+02 -0.75900531225E+02  0.99870117565E+02  0.00000000000E+00 0. -1.
        -12    1    3    3    0    0  0.16589483779E+03  0.38401560741E+03 -0.35447184749E+03  0.54830591334E+03  0.00000000000E+00 0.  1.
          2    1    6    6  502    0 -0.13265711406E+03 -0.23883911436E+03  0.48208916220E+03  0.55412272356E+03  0.00000000000E+00 0. -1.
         -1    1    6    6    0  502 -0.22360235734E+03 -0.23003032400E+03  0.59938660260E+03  0.67983546800E+03  0.00000000000E+00 0.  1.
<mgrwt>
<rscale>  0 0.62133148E+03</rscale>
<asrwt>0</asrwt>
<pdfrwt beam="1">  1        1 0.26141391E+00 0.62133148E+03</pdfrwt>
<pdfrwt beam="2">  1       -2 0.97187117E-01 0.62133148E+03</pdfrwt>
<totfact> 0.39256335E+00</totfact>
</mgrwt>
</event>
<event>
12    3  0.2212098E-007  0.8367822E+03  0.7818608E-02  0.9508251E-01
          3   -1    0    0  501    0  0.00000000000E+00  0.00000000000E+00  0.11046173138E+04  0.11046173138E+04  0.00000000000E+00 0. -1.
         -4   -1    0    0    0  501 -0.00000000000E+00 -0.00000000000E+00 -0.13151972490E+04  0.13151972490E+04  0.00000000000E+00 0.  1.
        -24    2    1    2    0    0 -0.53464191800E+03 -0.62280893170E+03  0.67950887765E+03  0.10684957304E+04  0.78853441030E+02 0.  0.
    5000000    2    1    2    0    0  0.53464191800E+03  0.62280893170E+03 -0.89008881285E+03  0.13513188324E+04  0.60005961890E+03 0.  0.
        -24    2    4    4    0    0  0.87521353784E+02  0.20288535163E+03 -0.64382718020E+03  0.68547072645E+03  0.80834556819E+02 0.  0.
         24    2    4    4    0    0  0.44712056421E+03  0.41992358007E+03 -0.24626163265E+03  0.66584810599E+03  0.80351082666E+02 0.  0.
         11    1    5    5    0    0  0.55182836933E+02  0.37568056508E+02 -0.17515129452E+03  0.18744193857E+03  0.00000000000E+00 0. -1.
        -12    1    5    5    0    0  0.32338516852E+02  0.16531729512E+03 -0.46867588568E+03  0.49802878788E+03  0.00000000000E+00 0.  1.
         13    1    3    3    0    0 -0.12586744361E+03 -0.20125743880E+03  0.19250683205E+03  0.30562403442E+03  0.00000000000E+00 0. -1.
        -14    1    3    3    0    0 -0.40877447439E+03 -0.42155149290E+03  0.48700204559E+03  0.76287169596E+03  0.00000000000E+00 0.  1.
          2    1    6    6  502    0  0.28237871774E+02  0.19648285666E+02  0.41828654363E+01  0.34654421005E+02  0.00000000000E+00 0. -1.
         -1    1    6    6    0  502  0.41888269244E+03  0.40027529441E+03 -0.25044449809E+03  0.63119368498E+03  0.00000000000E+00 0.  1.
<mgrwt>
<rscale>  0 0.83678223E+03</rscale>
<asrwt>0</asrwt>
<pdfrwt beam="1">  1        3 0.16994112E+00 0.83678223E+03</pdfrwt>
<pdfrwt beam="2">  1       -4 0.20233804E+00 0.83678223E+03</pdfrwt>
<totfact> 0.65957218E-02</totfact>
</mgrwt>
</event>
<event>
12    3  0.2212098E-007  0.7645441E+03  0.7818608E-02  0.9612805E-01
          1   -1    0    0  501    0  0.00000000000E+00  0.00000000000E+00  0.20110463499E+04  0.20110463499E+04  0.00000000000E+00 0. -1.
         -2   -1    0    0    0  501 -0.00000000000E+00 -0.00000000000E+00 -0.86845993700E+03  0.86845993700E+03  0.00000000000E+00 0.  1.
        -24    2    1    2    0    0 -0.66063916270E+03  0.12580237437E+03  0.16930552291E+04  0.18234417100E+04  0.78951379593E+02 0.  0.
    5000000    2    1    2    0    0  0.66063916270E+03 -0.12580237437E+03 -0.55046881621E+03  0.10560645769E+04  0.59998844341E+03 0.  0.
        -24    2    4    4    0    0  0.42962388811E+03 -0.33308499892E+03 -0.47553807927E+03  0.72697535345E+03  0.82670417610E+02 0.  0.
         24    2    4    4    0    0  0.23101527459E+03  0.20728262455E+03 -0.74930736940E+02  0.32908922343E+03  0.79692898690E+02 0.  0.
         11    1    3    3    0    0 -0.59786359600E+03  0.10576718806E+03  0.14590031419E+04  0.15802903991E+04  0.00000000000E+00 0. -1.
        -12    1    3    3    0    0 -0.62775566708E+02  0.20035186311E+02  0.23405208715E+03  0.24315131084E+03  0.00000000000E+00 0.  1.
         11    1    5    5    0    0  0.50263463756E+02 -0.38315689843E+02 -0.94999782021E+02  0.11410287665E+03  0.00000000000E+00 0. -1.
        -12    1    5    5    0    0  0.37936042436E+03 -0.29476930908E+03 -0.38053829725E+03  0.61287247680E+03  0.00000000000E+00 0.  1.
          2    1    6    6  502    0  0.16017079487E+03  0.16482811351E+03 -0.86744070508E+02  0.24565733106E+03  0.00000000000E+00 0. -1.
         -1    1    6    6    0  502  0.70844479720E+02  0.42454511039E+02  0.11813333568E+02  0.83431892370E+02  0.00000000000E+00 0.  1.
<mgrwt>
<rscale>  0 0.76454408E+03</rscale>
<asrwt>0</asrwt>
<pdfrwt beam="1">  1        1 0.30939174E+00 0.76454408E+03</pdfrwt>
<pdfrwt beam="2">  1       -2 0.13360922E+00 0.76454408E+03</pdfrwt>
<totfact> 0.10861863E+00</totfact>
</mgrwt>
</event>
<event>
12    3  0.2212098E-007  0.7720830E+03  0.7818608E-02  0.9601329E-01
          3   -1    0    0  501    0  0.00000000000E+00  0.00000000000E+00  0.15932238493E+04  0.15932238493E+04  0.00000000000E+00 0. -1.
         -4   -1    0    0    0  501 -0.00000000000E+00 -0.00000000000E+00 -0.60557808945E+03  0.60557808945E+03  0.00000000000E+00 0.  1.
        -24    2    1    2    0    0  0.43034434699E+03 -0.62230981328E+03 -0.73366971414E+02  0.76414423621E+03  0.77896986739E+02 0.  0.
    5000000    2    1    2    0    0 -0.43034434699E+03  0.62230981328E+03  0.10610127313E+04  0.14346577026E+04  0.60002412191E+03 0.  0.
        -24    2    4    4    0    0 -0.39134200057E+03  0.54094008515E+03  0.11144876511E+04  0.13028891883E+04  0.98350269936E+02 0.  0.
         24    2    4    4    0    0 -0.39002346428E+02  0.81369728126E+02 -0.53474919758E+02  0.13176851423E+03  0.79756871915E+02 0.  0.
         11    1    5    5    0    0 -0.89084931858E+02  0.19971557979E+03  0.38069847558E+03  0.43903731869E+03  0.00000000000E+00 0. -1.
        -12    1    5    5    0    0 -0.30225706871E+03  0.34122450537E+03  0.73378917549E+03  0.86385186966E+03  0.00000000000E+00 0.  1.
         11    1    3    3    0    0  0.10293057033E+03 -0.12330522751E+03  0.12787489364E+02  0.16112852424E+03  0.00000000000E+00 0. -1.
        -12    1    3    3    0    0  0.32741377667E+03 -0.49900458577E+03 -0.86154460777E+02  0.60301571197E+03  0.00000000000E+00 0.  1.
          2    1    6    6  502    0 -0.41447180888E+01 -0.11909239076E+02  0.78187748681E+01  0.14837179781E+02  0.00000000000E+00 0. -1.
         -1    1    6    6    0  502 -0.34857628339E+02  0.93278967202E+02 -0.61293694626E+02  0.11693133445E+03  0.00000000000E+00 0.  1.
<mgrwt>
<rscale>  0 0.77208297E+03</rscale>
<asrwt>0</asrwt>
<pdfrwt beam="1">  1        3 0.24511136E+00 0.77208297E+03</pdfrwt>
<pdfrwt beam="2">  1       -4 0.93165861E-01 0.77208297E+03</pdfrwt>
<totfact> 0.17430024E-01</totfact>
</mgrwt>
</event>
<event>
12    3  0.2212098E-007  0.9425225E+03  0.7818608E-02  0.9373934E-01
          1   -1    0    0  501    0  0.00000000000E+00  0.00000000000E+00  0.15205535240E+04  0.15205535240E+04  0.00000000000E+00 0. -1.
         -2   -1    0    0    0  501 -0.00000000000E+00 -0.00000000000E+00 -0.69202658254E+03  0.69202658254E+03  0.00000000000E+00 0.  1.
        -24    2    1    2    0    0  0.36547969954E+03 -0.80288363755E+03  0.41406901195E+02  0.88675798018E+03  0.80172549664E+02 0.  0.
    5000000    2    1    2    0    0 -0.36547969954E+03  0.80288363755E+03  0.78712004024E+03  0.13258221263E+04  0.60004067087E+03 0.  0.
        -24    2    4    4    0    0  0.82913336494E+02  0.34688120901E+03  0.50153502564E+03  0.62062646632E+03  0.80241100613E+02 0.  0.
         24    2    4    4    0    0 -0.44839303604E+03  0.45600242854E+03  0.28558501460E+03  0.70519566001E+03  0.82143707784E+02 0.  0.
         11    1    3    3    0    0  0.19920224173E+03 -0.37994406977E+03  0.52314516987E+02  0.43217570263E+03  0.00000000000E+00 0. -1.
        -12    1    3    3    0    0  0.16627745781E+03 -0.42293956779E+03 -0.10907615792E+02  0.45458227755E+03  0.00000000000E+00 0.  1.
         11    1    5    5    0    0  0.42518483327E+02  0.93239592034E+02  0.94886565061E+02  0.13965995552E+03  0.00000000000E+00 0. -1.
        -12    1    5    5    0    0  0.40394853167E+02  0.25364161698E+03  0.40664846058E+03  0.48096651080E+03  0.00000000000E+00 0.  1.
          4    1    6    6  502    0 -0.14589929022E+02  0.26746885733E+01 -0.20248121515E+01  0.14970632989E+02  0.00000000000E+00 0. -1.
         -3    1    6    6    0  502 -0.43380310701E+03  0.45332773997E+03  0.28760982675E+03  0.69022502702E+03  0.00000000000E+00 0.  1.
<mgrwt>
<rscale>  0 0.94252249E+03</rscale>
<asrwt>0</asrwt>
<pdfrwt beam="1">  1        1 0.23393131E+00 0.94252249E+03</pdfrwt>
<pdfrwt beam="2">  1       -2 0.10646563E+00 0.94252249E+03</pdfrwt>
<totfact> 0.39776122E+00</totfact>
</mgrwt>
</event>
<event>
12    3  0.2212098E-007  0.3523862E+03  0.7818608E-02  0.1061640E+00
          1   -1    0    0  501    0  0.00000000000E+00  0.00000000000E+00  0.11187745978E+04  0.11187745978E+04  0.00000000000E+00 0. -1.
         -2   -1    0    0    0  501 -0.00000000000E+00 -0.00000000000E+00 -0.21599716138E+03  0.21599716138E+03  0.00000000000E+00 0.  1.
        -24    2    1    2    0    0 -0.25594133254E+03 -0.12382435406E+03  0.14940675261E+03  0.33057675770E+03  0.78231570667E+02 0.  0.
    5000000    2    1    2    0    0  0.25594133254E+03  0.12382435406E+03  0.75337068379E+03  0.10041950015E+04  0.60000148116E+03 0.  0.
        -24    2    4    4    0    0  0.30307355210E+03  0.10969042537E+03  0.82417394178E+03  0.88852920620E+03  0.79598345128E+02 0.  0.
         24    2    4    4    0    0 -0.47132219563E+02  0.14133928689E+02 -0.70803257995E+02  0.11566579526E+03  0.77099032348E+02 0.  0.
         13    1    5    5    0    0  0.19557797003E+03  0.77860538649E+02  0.43062110293E+03  0.47931987246E+03  0.00000000000E+00 0. -1.
        -14    1    5    5    0    0  0.10749558208E+03  0.31829886721E+02  0.39355283885E+03  0.40920933374E+03  0.00000000000E+00 0.  1.
         13    1    3    3    0    0 -0.11763567189E+03 -0.14785054147E+02  0.54060188538E+02  0.13030446314E+03  0.00000000000E+00 0. -1.
        -14    1    3    3    0    0 -0.13830566064E+03 -0.10903929991E+03  0.95346564072E+02  0.20027229457E+03  0.00000000000E+00 0.  1.
          4    1    6    6  502    0  0.17558780070E+02 -0.77376321657E+01 -0.31473715044E+02  0.36861584987E+02  0.00000000000E+00 0. -1.
         -3    1    6    6    0  502 -0.64690999633E+02  0.21871560855E+02 -0.39329542950E+02  0.78804210271E+02  0.00000000000E+00 0.  1.
<mgrwt>
<rscale>  0 0.35238624E+03</rscale>
<asrwt>0</asrwt>
<pdfrwt beam="1">  1        1 0.17211917E+00 0.35238624E+03</pdfrwt>
<pdfrwt beam="2">  1       -2 0.33230333E-01 0.35238624E+03</pdfrwt>
<totfact> 0.96951768E+01</totfact>
</mgrwt>
</event>
<event>
12    3  0.2212098E-007  0.1580929E+04  0.7818608E-02  0.8832351E-01
         -2   -1    0    0    0  501 -0.00000000000E+00  0.00000000000E+00  0.19665917899E+04  0.19665917899E+04  0.00000000000E+00 0.  1.
          1   -1    0    0  501    0  0.00000000000E+00 -0.00000000000E+00 -0.20635151754E+04  0.20635151754E+04  0.00000000000E+00 0. -1.
        -24    2    1    2    0    0  0.15768067684E+04  0.55767741299E+02 -0.12256502928E+04  0.19995738766E+04  0.81531724075E+02 0.  0.
    5000000    2    1    2    0    0 -0.15768067684E+04 -0.55767741299E+02  0.11287269073E+04  0.20305330886E+04  0.59967538460E+03 0.  0.
        -24    2    4    4    0    0 -0.41756220816E+03  0.22973754160E+02  0.26151766367E+02  0.42679923284E+03  0.81164519394E+02 0.  0.
         24    2    4    4    0    0 -0.11592445602E+04 -0.78741495458E+02  0.11025751410E+04  0.16037338558E+04  0.79007374401E+02 0.  0.
         13    1    3    3    0    0  0.56294656083E+03 -0.18853747250E+02 -0.43079401492E+03  0.70911760479E+03  0.00000000000E+00 0. -1.
        -14    1    3    3    0    0  0.10138602076E+04  0.74621488549E+02 -0.79485627789E+03  0.12904562718E+04  0.00000000000E+00 0.  1.
         13    1    5    5    0    0 -0.30483769886E+03  0.34010002378E+02  0.50740213023E+02  0.31089752673E+03  0.00000000000E+00 0. -1.
        -14    1    5    5    0    0 -0.11272450930E+03 -0.11036248218E+02 -0.24588446656E+02  0.11590170611E+03  0.00000000000E+00 0.  1.
          4    1    6    6  502    0 -0.33901289800E+03 -0.16653956299E+02  0.37180104369E+03  0.50343134126E+03  0.00000000000E+00 0. -1.
         -3    1    6    6    0  502 -0.82023166224E+03 -0.62087539160E+02  0.73077409727E+03  0.11003025145E+04  0.00000000000E+00 0.  1.
<mgrwt>
<rscale>  0 0.15809286E+04</rscale>
<asrwt>0</asrwt>
<pdfrwt beam="1">  1        1 0.31746387E+00 0.15809286E+04</pdfrwt>
<pdfrwt beam="2">  1       -2 0.30255258E+00 0.15809286E+04</pdfrwt>
<totfact> 0.67534023E-02</totfact>
</mgrwt>
</event>
<event>
12    3  0.2212098E-007  0.4628785E+03  0.7818608E-02  0.1023950E+00
          1   -1    0    0  501    0  0.00000000000E+00  0.00000000000E+00  0.17766706133E+04  0.17766706133E+04  0.00000000000E+00 0. -1.
         -2   -1    0    0    0  501 -0.00000000000E+00 -0.00000000000E+00 -0.18978902267E+03  0.18978902267E+03  0.00000000000E+00 0.  1.
        -24    2    1    2    0    0  0.29929566096E+03  0.19867947488E+03  0.21423168885E+03  0.42593421463E+03  0.80456897000E+02 0.  0.
    5000000    2    1    2    0    0 -0.29929566096E+03 -0.19867947488E+03  0.13726499018E+04  0.15405254213E+04  0.59999949543E+03 0.  0.
        -24    2    4    4    0    0 -0.35993364960E+02 -0.27206355780E+03  0.24070404495E+03  0.37321225031E+03  0.77684263021E+02 0.  0.
         24    2    4    4    0    0 -0.26330229600E+03  0.73384082927E+02  0.11319458568E+04  0.11673131710E+04  0.81272958275E+02 0.  0.
         11    1    5    5    0    0 -0.44567768024E+02 -0.70116792932E+02  0.68977987315E+02  0.10798431984E+03  0.00000000000E+00 0. -1.
        -12    1    5    5    0    0  0.85744030643E+01 -0.20194676487E+03  0.17172605764E+03  0.26522793047E+03  0.00000000000E+00 0.  1.
         13    1    3    3    0    0  0.22669262754E+02  0.15195448695E+02  0.46742274071E+02  0.54126124193E+02  0.00000000000E+00 0. -1.
        -14    1    3    3    0    0  0.27662639821E+03  0.18348402618E+03  0.16748941478E+03  0.37180809043E+03  0.00000000000E+00 0.  1.
          2    1    6    6  502    0 -0.15355288827E+03  0.84430731934E+01  0.52214117474E+03  0.54431716980E+03  0.00000000000E+00 0. -1.
         -1    1    6    6    0  502 -0.10974940774E+03  0.64941009734E+02  0.60980468210E+03  0.62299600124E+03  0.00000000000E+00 0.  1.
<mgrwt>
<rscale>  0 0.46287846E+03</rscale>
<asrwt>0</asrwt>
<pdfrwt beam="1">  1        1 0.27333393E+00 0.46287846E+03</pdfrwt>
<pdfrwt beam="2">  1       -2 0.29198312E-01 0.46287846E+03</pdfrwt>
<totfact> 0.42951665E+01</totfact>
</mgrwt>
</event>
<event>
12    3  0.2212098E-007  0.5771518E+03  0.7818608E-02  0.9953976E-01
          1   -1    0    0  501    0  0.00000000000E+00  0.00000000000E+00  0.21972948933E+04  0.21972948933E+04  0.00000000000E+00 0. -1.
         -2   -1    0    0    0  501 -0.00000000000E+00 -0.00000000000E+00 -0.21234155731E+03  0.21234155731E+03  0.00000000000E+00 0.  1.
        -24    2    1    2    0    0 -0.21137285316E+03  0.40372128614E+03  0.26820213243E+03  0.53482342261E+03  0.80214397655E+02 0.  0.
    5000000    2    1    2    0    0  0.21137285316E+03 -0.40372128614E+03  0.17167512036E+04  0.18748130280E+04  0.60001652905E+03 0.  0.
        -24    2    4    4    0    0 -0.17184622418E+03 -0.13238613187E+03  0.29460323183E+03  0.37490968798E+03  0.81908468790E+02 0.  0.
         24    2    4    4    0    0  0.38321907734E+03 -0.27133515427E+03  0.14221479718E+04  0.14999033401E+04  0.82009443123E+02 0.  0.
         13    1    3    3    0    0 -0.37761001589E+02  0.15339560966E+03  0.96901194546E+02  0.18532659768E+03  0.00000000000E+00 0. -1.
        -14    1    3    3    0    0 -0.17361185157E+03  0.25032567648E+03  0.17130093789E+03  0.34949682493E+03  0.00000000000E+00 0.  1.
         13    1    5    5    0    0 -0.65650412457E+02 -0.54120194310E+02  0.54763179723E+02  0.10118289352E+03  0.00000000000E+00 0. -1.
        -14    1    5    5    0    0 -0.10619581172E+03 -0.78265937560E+02  0.23984005210E+03  0.27372679446E+03  0.00000000000E+00 0.  1.
          4    1    6    6  502    0  0.10905883780E+03 -0.11751903422E+03  0.41774019871E+03  0.44744991577E+03  0.00000000000E+00 0. -1.
         -1    1    6    6    0  502  0.27416023954E+03 -0.15381612006E+03  0.10044077731E+04  0.10524534243E+04  0.00000000000E+00 0.  1.
<mgrwt>
<rscale>  0 0.57715178E+03</rscale>
<asrwt>0</asrwt>
<pdfrwt beam="1">  1        1 0.33804535E+00 0.57715178E+03</pdfrwt>
<pdfrwt beam="2">  1       -2 0.32667933E-01 0.57715178E+03</pdfrwt>
<totfact> 0.17974400E+01</totfact>
</mgrwt>
</event>
<event>
12    3  0.3781321E-007  0.1429202E+04  0.7818608E-02  0.8932948E-01
         -2   -1    0    0    0  501 -0.00000000000E+00  0.00000000000E+00  0.11134182685E+04  0.11134182685E+04  0.00000000000E+00 0.  1.
          1   -1    0    0  501    0  0.00000000000E+00 -0.00000000000E+00 -0.18656060785E+04  0.18656060785E+04  0.00000000000E+00 0. -1.
        -24    2    1    2    0    0 -0.92812170380E+03 -0.10153622847E+04 -0.43707615270E+03  0.14456568033E+04  0.80731427626E+02 0.  0.
    5000000    2    1    2    0    0  0.92812170380E+03  0.10153622847E+04 -0.31511165726E+03  0.15333675437E+04  0.59962505059E+03 0.  0.
        -24    2    4    4    0    0  0.14402793009E+03 -0.51101599336E+02 -0.89379472575E+01  0.17236347707E+03  0.79207722022E+02 0.  0.
         24    2    4    4    0    0  0.78409377371E+03  0.10664638841E+04 -0.30617371000E+03  0.13610040666E+04  0.80258748782E+02 0.  0.
         11    1    5    5    0    0  0.11763946694E+03 -0.24471234142E+02  0.23915856734E+02  0.12251470804E+03  0.00000000000E+00 0. -1.
        -12    1    5    5    0    0  0.26388463148E+02 -0.26630365195E+02 -0.32853803992E+02  0.49848769037E+02  0.00000000000E+00 0.  1.
         11    1    3    3    0    0 -0.56885856741E+03 -0.65749805490E+03 -0.24354359091E+03  0.90289381579E+03  0.00000000000E+00 0. -1.
        -12    1    3    3    0    0 -0.35926313638E+03 -0.35786422981E+03 -0.19353256179E+03  0.54276298752E+03  0.00000000000E+00 0.  1.
          2    1    6    6  502    0  0.23444704736E+03  0.28978237549E+03 -0.53812610508E+02  0.37660993111E+03  0.00000000000E+00 0. -1.
         -1    1    6    6    0  502  0.54964672635E+03  0.77668150857E+03 -0.25236109949E+03  0.98439413553E+03  0.00000000000E+00 0.  1.
<mgrwt>
<rscale>  0 0.14292020E+04</rscale>
<asrwt>0</asrwt>
<pdfrwt beam="1">  1        1 0.28701632E+00 0.14292020E+04</pdfrwt>
<pdfrwt beam="2">  1       -2 0.17129512E+00 0.14292020E+04</pdfrwt>
<totfact> 0.64003449E-01</totfact>
</mgrwt>
</event>
<event>
12    3  0.2212098E-007  0.5432184E+03  0.7818608E-02  0.1003076E+00
          1   -1    0    0  501    0  0.00000000000E+00  0.00000000000E+00  0.50598171945E+03  0.50598171945E+03  0.00000000000E+00 0. -1.
         -2   -1    0    0    0  501 -0.00000000000E+00 -0.00000000000E+00 -0.83948486212E+03  0.83948486212E+03  0.00000000000E+00 0.  1.
        -24    2    1    2    0    0  0.15210853857E+03  0.39243251416E+03 -0.42942398162E+03  0.60624636571E+03  0.77391306140E+02 0.  0.
    5000000    2    1    2    0    0 -0.15210853857E+03 -0.39243251416E+03  0.95920838942E+02  0.73922021586E+03  0.60008785567E+03 0.  0.
        -24    2    4    4    0    0 -0.12292395906E+03 -0.51505613247E+03 -0.43880859860E+02  0.53740255505E+03  0.80516190970E+02 0.  0.
         24    2    4    4    0    0 -0.29184579507E+02  0.12262361831E+03  0.13980169880E+03  0.20181766081E+03  0.72784351206E+02 0.  0.
         11    1    3    3    0    0  0.84065341948E+02  0.21586608184E+03 -0.29019803322E+03  0.37132202398E+03  0.00000000000E+00 0. -1.
        -12    1    3    3    0    0  0.68043196619E+02  0.17656643232E+03 -0.13922594840E+03  0.23492434173E+03  0.00000000000E+00 0.  1.
         13    1    5    5    0    0 -0.99573584367E+02 -0.33633405590E+03 -0.62187815127E+02  0.35623422100E+03  0.00000000000E+00 0. -1.
        -14    1    5    5    0    0 -0.23350374693E+02 -0.17872207656E+03  0.18306955267E+02  0.18116833405E+03  0.00000000000E+00 0.  1.
          4    1    6    6  502    0 -0.42247311476E+02  0.90641848679E+02  0.13333609467E+03  0.16667121587E+03  0.00000000000E+00 0. -1.
         -3    1    6    6    0  502  0.13062731969E+02  0.31981769629E+02  0.64656041307E+01  0.35146444939E+02  0.00000000000E+00 0.  1.
<mgrwt>
<rscale>  0 0.54321835E+03</rscale>
<asrwt>0</asrwt>
<pdfrwt beam="1">  1        1 0.77843342E-01 0.54321835E+03</pdfrwt>
<pdfrwt beam="2">  1       -2 0.12915152E+00 0.54321835E+03</pdfrwt>
<totfact> 0.17531053E+01</totfact>
</mgrwt>
</event>
<event>
12    3  0.2212098E-007  0.1262500E+04  0.7818608E-02  0.9059843E-01
          1   -1    0    0  501    0  0.00000000000E+00  0.00000000000E+00  0.16687262673E+04  0.16687262673E+04  0.00000000000E+00 0. -1.
         -2   -1    0    0    0  501 -0.00000000000E+00 -0.00000000000E+00 -0.19274324604E+04  0.19274324604E+04  0.00000000000E+00 0.  1.
        -24    2    1    2    0    0  0.58955553673E+03 -0.10411644263E+04 -0.13955956926E+04  0.18400300334E+04  0.80150441844E+02 0.  0.
    5000000    2    1    2    0    0 -0.58955553673E+03  0.10411644263E+04  0.11368894995E+04  0.17561286943E+04  0.59989262673E+03 0.  0.
        -24    2    4    4    0    0 -0.27027263240E+03  0.52075662491E+02  0.16440296674E+03  0.33043571266E+03  0.80001589228E+02 0.  0.
         24    2    4    4    0    0 -0.31928290433E+03  0.98908876383E+03  0.97248653272E+03  0.14256929817E+04  0.81438725317E+02 0.  0.
         11    1    5    5    0    0 -0.15755153829E+03 -0.80713962440E+01  0.76309105453E+02  0.17524472669E+03  0.00000000000E+00 0. -1.
        -12    1    5    5    0    0 -0.11272109411E+03  0.60147058735E+02  0.88093861283E+02  0.15519098597E+03  0.00000000000E+00 0.  1.
         13    1    3    3    0    0  0.30441721551E+03 -0.50030506821E+03 -0.62819653093E+03  0.85883984761E+03  0.00000000000E+00 0. -1.
        -14    1    3    3    0    0  0.28513832122E+03 -0.54085935811E+03 -0.76739916163E+03  0.98119018583E+03  0.00000000000E+00 0.  1.
          4    1    6    6  502    0 -0.16885667960E+02  0.14144878780E+03  0.14016218803E+03  0.19984575129E+03  0.00000000000E+00 0. -1.
         -3    1    6    6    0  502 -0.30239723637E+03  0.84763997603E+03  0.83232434469E+03  0.12258472304E+04  0.00000000000E+00 0.  1.
<mgrwt>
<rscale>  0 0.12625001E+04</rscale>
<asrwt>0</asrwt>
<pdfrwt beam="1">  1        1 0.25672712E+00 0.12625001E+04</pdfrwt>
<pdfrwt beam="2">  1       -2 0.29652807E+00 0.12625001E+04</pdfrwt>
<totfact> 0.14224113E-01</totfact>
</mgrwt>
</event>
<event>
12    3  0.2212098E-007  0.8534933E+03  0.7818608E-02  0.9485660E-01
          1   -1    0    0  501    0  0.00000000000E+00  0.00000000000E+00  0.65528813188E+03  0.65528813188E+03  0.00000000000E+00 0. -1.
         -2   -1    0    0    0  501 -0.00000000000E+00 -0.00000000000E+00 -0.27653477559E+04  0.27653477559E+04  0.00000000000E+00 0.  1.
        -24    2    1    2    0    0  0.60755632226E+03 -0.53365810911E+03  0.25383509711E+03  0.85120912565E+03  0.78797569268E+02 0.  0.
    5000000    2    1    2    0    0 -0.60755632226E+03  0.53365810911E+03 -0.23638947212E+04  0.25694267622E+04  0.60003330847E+03 0.  0.
        -24    2    4    4    0    0 -0.55841692411E+03  0.27723142089E+03 -0.10202349209E+04  0.11983129269E+04  0.79924058433E+02 0.  0.
         24    2    4    4    0    0 -0.49139398154E+02  0.25642668822E+03 -0.13436598003E+04  0.13711138353E+04  0.79763171411E+02 0.  0.
         11    1    3    3    0    0  0.20041559716E+03 -0.15404180317E+03  0.11375994004E+03  0.27719417863E+03  0.00000000000E+00 0. -1.
        -12    1    3    3    0    0  0.40714072511E+03 -0.37961630594E+03  0.14007515707E+03  0.57401494702E+03  0.00000000000E+00 0.  1.
         11    1    5    5    0    0 -0.41366053953E+03  0.18284080364E+03 -0.79198176744E+03  0.91202024177E+03  0.00000000000E+00 0. -1.
        -12    1    5    5    0    0 -0.14475638458E+03  0.94390617246E+02 -0.22825315347E+03  0.28629268515E+03  0.00000000000E+00 0.  1.
          4    1    6    6  502    0 -0.68072063686E+02  0.15495918787E+03 -0.79242128602E+03  0.81029479222E+03  0.00000000000E+00 0. -1.
         -3    1    6    6    0  502  0.18932665532E+02  0.10146750034E+03 -0.55123851424E+03  0.56081904304E+03  0.00000000000E+00 0.  1.
<mgrwt>
<rscale>  0 0.85349332E+03</rscale>
<asrwt>0</asrwt>
<pdfrwt beam="1">  1        1 0.10081356E+00 0.85349332E+03</pdfrwt>
<pdfrwt beam="2">  1       -2 0.42543811E+00 0.85349332E+03</pdfrwt>
<totfact> 0.13982497E-01</totfact>
</mgrwt>
</event>
<event>
12    3  0.2212098E-007  0.4302542E+03  0.7818608E-02  0.1033780E+00
          1   -1    0    0  501    0  0.00000000000E+00  0.00000000000E+00  0.31375510906E+03  0.31375510906E+03  0.00000000000E+00 0. -1.
         -4   -1    0    0    0  501 -0.00000000000E+00 -0.00000000000E+00 -0.10502762744E+04  0.10502762744E+04  0.00000000000E+00 0.  1.
        -24    2    1    2    0    0  0.29332102024E+03 -0.14249102933E+03 -0.57029800299E+03  0.66106792666E+03  0.73689056739E+02 0.  0.
    5000000    2    1    2    0    0 -0.29332102024E+03  0.14249102933E+03 -0.16622316237E+03  0.70296345682E+03  0.60015545283E+03 0.  0.
        -24    2    4    4    0    0 -0.30935439935E+03  0.24835091267E+03 -0.30751451620E+03  0.50845896269E+03  0.81160451270E+02 0.  0.
         24    2    4    4    0    0  0.16033379105E+02 -0.10585988334E+03  0.14129135383E+03  0.19450449413E+03  0.80033539366E+02 0.  0.
         13    1    3    3    0    0  0.11004664183E+03 -0.78743827894E+02 -0.17996161735E+03  0.22516002649E+03  0.00000000000E+00 0. -1.
        -14    1    3    3    0    0  0.18327437842E+03 -0.63747201437E+02 -0.39033638564E+03  0.43590790017E+03  0.00000000000E+00 0.  1.
         13    1    5    5    0    0 -0.77648154235E+02  0.10745127045E+03 -0.11943740875E+03  0.17843852158E+03  0.00000000000E+00 0. -1.
        -14    1    5    5    0    0 -0.23170624511E+03  0.14089964222E+03 -0.18807710745E+03  0.33002044111E+03  0.00000000000E+00 0.  1.
          2    1    6    6  502    0  0.42498278286E+02 -0.50289833649E+02  0.43359776379E+02  0.78836801263E+02  0.00000000000E+00 0. -1.
         -1    1    6    6    0  502 -0.26464899181E+02 -0.55570049693E+02  0.97931577447E+02  0.11566769287E+03  0.00000000000E+00 0.  1.
<mgrwt>
<rscale>  0 0.43025419E+03</rscale>
<asrwt>0</asrwt>
<pdfrwt beam="1">  1        1 0.48270017E-01 0.43025419E+03</pdfrwt>
<pdfrwt beam="2">  1       -4 0.16158096E+00 0.43025419E+03</pdfrwt>
<totfact> 0.98034996E+00</totfact>
</mgrwt>
</event>
<event>
12    3  0.2212098E-007  0.7049345E+03  0.7818608E-02  0.9708830E-01
         -2   -1    0    0    0  501 -0.00000000000E+00  0.00000000000E+00  0.86963792012E+03  0.86963792012E+03  0.00000000000E+00 0.  1.
          1   -1    0    0  501    0  0.00000000000E+00 -0.00000000000E+00 -0.13240630989E+04  0.13240630989E+04  0.00000000000E+00 0. -1.
        -24    2    1    2    0    0  0.45816408695E+03  0.45915830019E+03  0.55119548965E+03  0.85497147382E+03  0.80119148989E+02 0.  0.
    5000000    2    1    2    0    0 -0.45816408695E+03 -0.45915830019E+03 -0.10056206685E+04  0.13387295452E+04  0.60015263994E+03 0.  0.
        -24    2    4    4    0    0 -0.24996326431E+03 -0.47938821344E+03 -0.96145056019E+03  0.11059351691E+04  0.80067008976E+02 0.  0.
         24    2    4    4    0    0 -0.20820082264E+03  0.20229913254E+02 -0.44170108285E+02  0.23279437612E+03  0.92116182866E+02 0.  0.
         11    1    3    3    0    0  0.38252389468E+02  0.73929474720E+02  0.59545856898E+02  0.10234511032E+03  0.00000000000E+00 0. -1.
        -12    1    3    3    0    0  0.41991169748E+03  0.38522882547E+03  0.49164963275E+03  0.75262636350E+03  0.00000000000E+00 0.  1.
         13    1    5    5    0    0 -0.13260665858E+03 -0.29252555617E+03 -0.49723460490E+03  0.59194423658E+03  0.00000000000E+00 0. -1.
        -14    1    5    5    0    0 -0.11735660573E+03 -0.18686265727E+03 -0.46421595529E+03  0.51399093254E+03  0.00000000000E+00 0.  1.
          4    1    6    6  502    0 -0.17117062391E+03 -0.30612933096E+01 -0.80926847654E+00  0.17119990924E+03  0.00000000000E+00 0. -1.
         -1    1    6    6    0  502 -0.37030198732E+02  0.23291206563E+02 -0.43360839809E+02  0.61594466880E+02  0.00000000000E+00 0.  1.
<mgrwt>
<rscale>  0 0.70493455E+03</rscale>
<asrwt>0</asrwt>
<pdfrwt beam="1">  1        1 0.20370201E+00 0.70493455E+03</pdfrwt>
<pdfrwt beam="2">  1       -2 0.13379045E+00 0.70493455E+03</pdfrwt>
<totfact> 0.31960191E+00</totfact>
</mgrwt>
</event>
<event>
12    3  0.2212098E-007  0.6541888E+03  0.7818608E-02  0.9798951E-01
         -2   -1    0    0    0  501 -0.00000000000E+00  0.00000000000E+00  0.73071214631E+03  0.73071214631E+03  0.00000000000E+00 0.  1.
          1   -1    0    0  501    0  0.00000000000E+00 -0.00000000000E+00 -0.82339424414E+03  0.82339424414E+03  0.00000000000E+00 0. -1.
        -24    2    1    2    0    0  0.10016206839E+02 -0.61580953512E+03 -0.26848258248E+03  0.67670154198E+03  0.80748819701E+02 0.  0.
    5000000    2    1    2    0    0 -0.10016206839E+02  0.61580953512E+03  0.17580048465E+03  0.87740484848E+03  0.59967637088E+03 0.  0.
        -24    2    4    4    0    0 -0.14305822139E+03  0.42232191720E+03 -0.14156378764E+03  0.47455474048E+03  0.79626875439E+02 0.  0.
         24    2    4    4    0    0  0.13304201455E+03  0.19348761792E+03  0.31736427228E+03  0.40285010799E+03  0.80190350183E+02 0.  0.
         11    1    3    3    0    0  0.22725720415E+02 -0.37609363453E+03 -0.20248521996E+03  0.42774191355E+03  0.00000000000E+00 0. -1.
        -12    1    3    3    0    0 -0.12709513576E+02 -0.23971590059E+03 -0.65997362512E+02  0.24895962843E+03  0.00000000000E+00 0.  1.
         11    1    5    5    0    0 -0.85774420782E+02  0.18449131670E+03 -0.29894094516E+02  0.20564035130E+03  0.00000000000E+00 0. -1.
        -12    1    5    5    0    0 -0.57283800611E+02  0.23783060050E+03 -0.11166969312E+03  0.26891438918E+03  0.00000000000E+00 0.  1.
          2    1    6    6  502    0  0.95772482873E+01  0.63356231518E+02  0.12077771431E+03  0.13672231724E+03  0.00000000000E+00 0. -1.
         -1    1    6    6    0  502  0.12346476627E+03  0.13013138640E+03  0.19658655798E+03  0.26612779076E+03  0.00000000000E+00 0.  1.
<mgrwt>
<rscale>  0 0.65418882E+03</rscale>
<asrwt>0</asrwt>
<pdfrwt beam="1">  1        1 0.12667604E+00 0.65418882E+03</pdfrwt>
<pdfrwt beam="2">  1       -2 0.11241725E+00 0.65418882E+03</pdfrwt>
<totfact> 0.11907550E+01</totfact>
</mgrwt>
</event>
<event>
12    3  0.2212098E-007  0.6725328E+03  0.7818608E-02  0.9765393E-01
          1   -1    0    0  501    0  0.00000000000E+00  0.00000000000E+00  0.88868273172E+03  0.88868273172E+03  0.00000000000E+00 0. -1.
         -4   -1    0    0    0  501 -0.00000000000E+00 -0.00000000000E+00 -0.62265328154E+03  0.62265328154E+03  0.00000000000E+00 0.  1.
        -24    2    1    2    0    0 -0.87688167515E+01 -0.54899605127E+03  0.40427845517E+03  0.68654833746E+03  0.80212180480E+02 0.  0.
    5000000    2    1    2    0    0  0.87688167515E+01  0.54899605127E+03 -0.13824900499E+03  0.82478767579E+03  0.59974024903E+03 0.  0.
        -24    2    4    4    0    0 -0.26415017100E+03  0.41230190470E+03 -0.58009627860E+02  0.49905784318E+03  0.76976882606E+02 0.  0.
         24    2    4    4    0    0  0.27291898775E+03  0.13669414657E+03 -0.80239377134E+02  0.32572983261E+03  0.80569861789E+02 0.  0.
         11    1    5    5    0    0 -0.17169416303E+03  0.27417528092E+03 -0.74691932506E+02  0.33200881775E+03  0.00000000000E+00 0. -1.
        -12    1    5    5    0    0 -0.92456007970E+02  0.13812662379E+03  0.16682304646E+02  0.16704902543E+03  0.00000000000E+00 0.  1.
         13    1    3    3    0    0  0.77600439889E+01 -0.11950178964E+03  0.50916450419E+02  0.13012832487E+03  0.00000000000E+00 0. -1.
        -14    1    3    3    0    0 -0.16528860740E+02 -0.42949426163E+03  0.35336200475E+03  0.55642001259E+03  0.00000000000E+00 0.  1.
          4    1    6    6  502    0  0.13028186362E+02  0.11217270134E+02 -0.27384361749E+02  0.32333636627E+02  0.00000000000E+00 0. -1.
         -3    1    6    6    0  502  0.25989080139E+03  0.12547687643E+03 -0.52855015385E+02  0.29339619599E+03  0.00000000000E+00 0.  1.
<mgrwt>
<rscale>  0 0.67253279E+03</rscale>
<asrwt>0</asrwt>
<pdfrwt beam="1">  1        1 0.13672042E+00 0.67253279E+03</pdfrwt>
<pdfrwt beam="2">  1       -4 0.95792812E-01 0.67253279E+03</pdfrwt>
<totfact> 0.82904737E+00</totfact>
</mgrwt>
</event>
<event>
12    3  0.2212098E-007  0.8776032E+03  0.7818608E-02  0.9454020E-01
          1   -1    0    0  501    0  0.00000000000E+00  0.00000000000E+00  0.78783527366E+03  0.78783527366E+03  0.00000000000E+00 0. -1.
         -2   -1    0    0    0  501 -0.00000000000E+00 -0.00000000000E+00 -0.11632706858E+04  0.11632706858E+04  0.00000000000E+00 0.  1.
        -24    2    1    2    0    0 -0.76499108626E+03  0.39423186829E+03 -0.13801803262E+03  0.87540358332E+03  0.81561806810E+02 0.  0.
    5000000    2    1    2    0    0  0.76499108626E+03 -0.39423186829E+03 -0.23741737956E+03  0.10757023762E+04  0.60011537389E+03 0.  0.
        -24    2    4    4    0    0  0.50280650421E+03 -0.14800052066E+03 -0.41215594615E+03  0.67164857965E+03  0.80751196926E+02 0.  0.
         24    2    4    4    0    0  0.26218458205E+03 -0.24623134763E+03  0.17473856659E+03  0.40405379654E+03  0.57924711684E+02 0.  0.
         11    1    3    3    0    0 -0.98910474289E+02  0.82015271325E+02 -0.11814710909E+02  0.12903245347E+03  0.00000000000E+00 0. -1.
        -12    1    3    3    0    0 -0.66608061197E+03  0.31221659696E+03 -0.12620332171E+03  0.74637112985E+03  0.00000000000E+00 0.  1.
         13    1    5    5    0    0  0.44239019073E+03 -0.15609575833E+03 -0.35813508397E+03  0.59019971619E+03  0.00000000000E+00 0. -1.
        -14    1    5    5    0    0  0.60416313481E+02  0.80952376741E+01 -0.54020862178E+02  0.81448863454E+02  0.00000000000E+00 0.  1.
          2    1    6    6  502    0  0.15988103333E+03 -0.17046136672E+03  0.86701567894E+02  0.24927130648E+03  0.00000000000E+00 0. -1.
         -1    1    6    6    0  502  0.10230354872E+03 -0.75769980915E+02  0.88036998691E+02  0.15478249005E+03  0.00000000000E+00 0.  1.
<mgrwt>
<rscale>  0 0.87760317E+03</rscale>
<asrwt>0</asrwt>
<pdfrwt beam="1">  1        1 0.12120543E+00 0.87760317E+03</pdfrwt>
<pdfrwt beam="2">  1       -2 0.17896472E+00 0.87760317E+03</pdfrwt>
<totfact> 0.36947428E+00</totfact>
</mgrwt>
</event>
<event>
12    3  0.2212098E-007  0.1881106E+04  0.7818608E-02  0.8664319E-01
         -2   -1    0    0    0  501 -0.00000000000E+00  0.00000000000E+00  0.15703419260E+04  0.15703419260E+04  0.00000000000E+00 0.  1.
          1   -1    0    0  501    0  0.00000000000E+00 -0.00000000000E+00 -0.24208063324E+04  0.24208063324E+04  0.00000000000E+00 0. -1.
        -24    2    1    2    0    0 -0.18515336296E+04 -0.30807815430E+02  0.32338563105E+02  0.18538130554E+04  0.80319103992E+02 0.  0.
    5000000    2    1    2    0    0  0.18515336296E+04  0.30807815430E+02 -0.88280296942E+03  0.21373352030E+04  0.59977894617E+03 0.  0.
        -24    2    4    4    0    0  0.17891946351E+04  0.12159029989E+03 -0.74070904632E+03  0.19420809164E+04  0.83825720073E+02 0.  0.
         24    2    4    4    0    0  0.62338994539E+02 -0.90782484462E+02 -0.14209392311E+03  0.19525428664E+03  0.76196743655E+02 0.  0.
         11    1    3    3    0    0 -0.13996712147E+04 -0.36076134983E+02  0.56488157639E+02  0.14012751010E+04  0.00000000000E+00 0. -1.
        -12    1    3    3    0    0 -0.45186241496E+03  0.52683195525E+01 -0.24149594534E+02  0.45253795438E+03  0.00000000000E+00 0.  1.
         13    1    5    5    0    0  0.35755847347E+03  0.30180388509E+02 -0.18441420877E+03  0.40344456645E+03  0.00000000000E+00 0. -1.
        -14    1    5    5    0    0  0.14316361616E+04  0.91409911383E+02 -0.55629483755E+03  0.15386363500E+04  0.00000000000E+00 0.  1.
          4    1    6    6  502    0  0.60255376164E+01  0.35095012172E+01  0.71285698537E+01  0.99719712454E+01  0.00000000000E+00 0. -1.
         -3    1    6    6    0  502  0.56313456922E+02 -0.94291985680E+02 -0.14922249296E+03  0.18528231540E+03  0.00000000000E+00 0.  1.
<mgrwt>
<rscale>  0 0.18811058E+04</rscale>
<asrwt>0</asrwt>
<pdfrwt beam="1">  1        1 0.37243174E+00 0.18811058E+04</pdfrwt>
<pdfrwt beam="2">  1       -2 0.24159106E+00 0.18811058E+04</pdfrwt>
<totfact> 0.87997050E-02</totfact>
</mgrwt>
</event>
<event>
12    3  0.2212098E-007  0.4058923E+03  0.7818608E-02  0.1041758E+00
         -2   -1    0    0    0  501 -0.00000000000E+00  0.00000000000E+00  0.38617634846E+03  0.38617634846E+03  0.00000000000E+00 0.  1.
          1   -1    0    0  501    0  0.00000000000E+00 -0.00000000000E+00 -0.96779431313E+03  0.96779431313E+03  0.00000000000E+00 0. -1.
        -24    2    1    2    0    0  0.55564628439E+02 -0.17441681149E+03 -0.68927269569E+03  0.71747551830E+03  0.78521450986E+02 0.  0.
    5000000    2    1    2    0    0 -0.55564628439E+02  0.17441681149E+03  0.10765473102E+03  0.63649514329E+03  0.60002322810E+03 0.  0.
        -24    2    4    4    0    0 -0.31643996030E+03  0.65002003622E+02  0.63086212777E+02  0.33855632584E+03  0.79252801670E+02 0.  0.
         24    2    4    4    0    0  0.26087533186E+03  0.10941480787E+03  0.44568518245E+02  0.29793881745E+03  0.82180576599E+02 0.  0.
         11    1    3    3    0    0  0.66861310417E+02 -0.11177138469E+03 -0.37942468226E+03  0.40115628722E+03  0.00000000000E+00 0. -1.
        -12    1    3    3    0    0 -0.11296681978E+02 -0.62645426797E+02 -0.30984801343E+03  0.31631923107E+03  0.00000000000E+00 0.  1.
         13    1    5    5    0    0 -0.24759675441E+03  0.57759667565E+02  0.15821708988E+02  0.25473644904E+03  0.00000000000E+00 0. -1.
        -14    1    5    5    0    0 -0.68843205893E+02  0.72423360562E+01  0.47264503790E+02  0.83819876805E+02  0.00000000000E+00 0.  1.
          2    1    6    6  502    0  0.85663785056E+02  0.79110342008E+02  0.22584570622E+02  0.11877202159E+03  0.00000000000E+00 0. -1.
         -1    1    6    6    0  502  0.17521154681E+03  0.30304465862E+02  0.21983947623E+02  0.17916679586E+03  0.00000000000E+00 0.  1.
<mgrwt>
<rscale>  0 0.40589234E+03</rscale>
<asrwt>0</asrwt>
<pdfrwt beam="1">  1        1 0.14889143E+00 0.40589234E+03</pdfrwt>
<pdfrwt beam="2">  1       -2 0.59411746E-01 0.40589234E+03</pdfrwt>
<totfact> 0.39643709E+01</totfact>
</mgrwt>
</event>
<event>
12    3  0.2212098E-007  0.9172434E+03  0.7818608E-02  0.9404279E-01
          1   -1    0    0  501    0  0.00000000000E+00  0.00000000000E+00  0.35921366776E+04  0.35921366776E+04  0.00000000000E+00 0. -1.
         -4   -1    0    0    0  501 -0.00000000000E+00 -0.00000000000E+00 -0.51943374311E+03  0.51943374311E+03  0.00000000000E+00 0.  1.
        -24    2    1    2    0    0 -0.68362893536E+03 -0.48086306579E+03 -0.32674297423E+02  0.84019091303E+03  0.79217115044E+02 0.  0.
    5000000    2    1    2    0    0  0.68362893536E+03  0.48086306579E+03  0.31053772320E+04  0.32713795077E+04  0.59998193430E+03 0.  0.
        -24    2    4    4    0    0  0.75900647185E+03  0.37976482604E+03  0.23101131520E+04  0.24623271532E+04  0.78230986024E+02 0.  0.
         24    2    4    4    0    0 -0.75377536490E+02  0.10109823975E+03  0.79526407998E+03  0.80905235449E+03  0.78855109658E+02 0.  0.
         13    1    3    3    0    0 -0.25239779251E+03 -0.16076328162E+03  0.23719755301E+02  0.30018678381E+03  0.00000000000E+00 0. -1.
        -14    1    3    3    0    0 -0.43123114285E+03 -0.32009978417E+03 -0.56394052725E+02  0.54000412922E+03  0.00000000000E+00 0.  1.
         13    1    5    5    0    0  0.61129327025E+03  0.28810094606E+03  0.17542342494E+04  0.18798987790E+04  0.00000000000E+00 0. -1.
        -14    1    5    5    0    0  0.14771320160E+03  0.91663879981E+02  0.55587890255E+03  0.58242837424E+03  0.00000000000E+00 0.  1.
          4    1    6    6  502    0 -0.23944631161E+02  0.93564715990E+02  0.49835273071E+03  0.50762500495E+03  0.00000000000E+00 0. -1.
         -3    1    6    6    0  502 -0.51432905329E+02  0.75335237580E+01  0.29691134926E+03  0.30142734954E+03  0.00000000000E+00 0.  1.
<mgrwt>
<rscale>  0 0.91724335E+03</rscale>
<asrwt>0</asrwt>
<pdfrwt beam="1">  1        1 0.55263639E+00 0.91724335E+03</pdfrwt>
<pdfrwt beam="2">  1       -4 0.79912886E-01 0.91724335E+03</pdfrwt>
<totfact> 0.14870043E-01</totfact>
</mgrwt>
</event>
<event>
12    3  0.2212098E-007  0.1065703E+04  0.7818608E-02  0.9239280E-01
          1   -1    0    0  501    0  0.00000000000E+00  0.00000000000E+00  0.20954484843E+04  0.20954484843E+04  0.00000000000E+00 0. -1.
         -4   -1    0    0    0  501 -0.00000000000E+00 -0.00000000000E+00 -0.62585607286E+03  0.62585607286E+03  0.00000000000E+00 0.  1.
        -24    2    1    2    0    0 -0.97243349415E+03 -0.41119441956E+03  0.84970057098E+03  0.13577680936E+04  0.82676384313E+02 0.  0.
    5000000    2    1    2    0    0  0.97243349415E+03  0.41119441956E+03  0.61989184049E+03  0.13635364636E+04  0.60021499676E+03 0.  0.
        -24    2    4    4    0    0  0.35075420378E+03  0.22816844394E+03  0.56577165035E+03  0.70825429874E+03  0.80232419028E+02 0.  0.
         24    2    4    4    0    0  0.62167929037E+03  0.18302597562E+03  0.54120190143E+02  0.65528216483E+03  0.80511320512E+02 0.  0.
         11    1    5    5    0    0  0.30440292873E+03  0.17784804793E+03  0.42859550234E+03  0.55496412118E+03  0.00000000000E+00 0. -1.
        -12    1    5    5    0    0  0.46351275057E+02  0.50320396013E+02  0.13717614801E+03  0.15329017756E+03  0.00000000000E+00 0.  1.
         13    1    3    3    0    0 -0.44677558557E+03 -0.22330251843E+03  0.36737082788E+03  0.62002722825E+03  0.00000000000E+00 0. -1.
        -14    1    3    3    0    0 -0.52565790859E+03 -0.18789190114E+03  0.48232974309E+03  0.73774086538E+03  0.00000000000E+00 0.  1.
          2    1    6    6  502    0  0.55037887438E+03  0.13474864941E+03  0.40213248360E+02  0.56805915997E+03  0.00000000000E+00 0. -1.
         -1    1    6    6    0  502  0.71300415994E+02  0.48277326212E+02  0.13906941783E+02  0.87223004860E+02  0.00000000000E+00 0.  1.
<mgrwt>
<rscale>  0 0.10657033E+04</rscale>
<asrwt>0</asrwt>
<pdfrwt beam="1">  1        1 0.32237669E+00 0.10657033E+04</pdfrwt>
<pdfrwt beam="2">  1       -4 0.96285551E-01 0.10657033E+04</pdfrwt>
<totfact> 0.11143176E+00</totfact>
</mgrwt>
</event>
<event>
12    3  0.2212098E-007  0.4443723E+03  0.7818608E-02  0.1029414E+00
         -2   -1    0    0    0  501 -0.00000000000E+00  0.00000000000E+00  0.46044055450E+03  0.46044055450E+03  0.00000000000E+00 0.  1.
          1   -1    0    0  501    0  0.00000000000E+00 -0.00000000000E+00 -0.77006733471E+03  0.77006733471E+03  0.00000000000E+00 0. -1.
        -24    2    1    2    0    0 -0.49575607216E+02 -0.35751139158E+03 -0.37537945747E+03  0.52723922433E+03  0.82458029608E+02 0.  0.
    5000000    2    1    2    0    0  0.49575607216E+02  0.35751139158E+03  0.65752677249E+02  0.70326866488E+03  0.59999272037E+03 0.  0.
        -24    2    4    4    0    0  0.49149535771E+02 -0.51524964592E+02  0.23157751608E+03  0.25497137515E+03  0.79446569151E+02 0.  0.
         24    2    4    4    0    0  0.42607144489E+00  0.40903635617E+03 -0.16582483883E+03  0.44829728973E+03  0.78496245753E+02 0.  0.
         11    1    3    3    0    0 -0.64419626733E+02 -0.18968222338E+03 -0.18075105969E+03  0.26981508437E+03  0.00000000000E+00 0. -1.
        -12    1    3    3    0    0  0.14844019516E+02 -0.16782916819E+03 -0.19462839778E+03  0.25742413996E+03  0.00000000000E+00 0.  1.
         13    1    5    5    0    0  0.56213526199E+02 -0.20413497360E+01  0.11085984275E+03  0.12431424846E+03  0.00000000000E+00 0. -1.
        -14    1    5    5    0    0 -0.70639904279E+01 -0.49483614856E+02  0.12071767334E+03  0.13065712669E+03  0.00000000000E+00 0.  1.
          4    1    6    6  502    0  0.30036193145E+02  0.26179346694E+03 -0.80356047424E+02  0.27549062886E+03  0.00000000000E+00 0. -1.
         -3    1    6    6    0  502 -0.29610121700E+02  0.14724288923E+03 -0.85468791409E+02  0.17280666087E+03  0.00000000000E+00 0.  1.
<mgrwt>
<rscale>  0 0.44437228E+03</rscale>
<asrwt>0</asrwt>
<pdfrwt beam="1">  1        1 0.11847190E+00 0.44437228E+03</pdfrwt>
<pdfrwt beam="2">  1       -2 0.70837008E-01 0.44437228E+03</pdfrwt>
<totfact> 0.39302392E+01</totfact>
</mgrwt>
</event>
<event>
12    3  0.2212098E-007  0.8869624E+03  0.7818608E-02  0.9442027E-01
         -2   -1    0    0    0  501 -0.00000000000E+00  0.00000000000E+00  0.32298352817E+03  0.32298352817E+03  0.00000000000E+00 0.  1.
          1   -1    0    0  501    0  0.00000000000E+00 -0.00000000000E+00 -0.27166649730E+04  0.27166649730E+04  0.00000000000E+00 0. -1.
        -24    2    1    2    0    0  0.45212074280E+03 -0.69746023420E+03 -0.89490269995E+03  0.12238338832E+04  0.77811226735E+02 0.  0.
    5000000    2    1    2    0    0 -0.45212074280E+03  0.69746023420E+03 -0.14987787448E+04  0.18158146179E+04  0.59998421334E+03 0.  0.
        -24    2    4    4    0    0  0.87474268191E+02  0.96130800877E+02 -0.54896856764E+03  0.56633042716E+03  0.49707001434E+02 0.  0.
         24    2    4    4    0    0 -0.53959501099E+03  0.60132943332E+03 -0.94981017721E+03  0.12494841908E+04  0.79444993294E+02 0.  0.
         11    1    3    3    0    0  0.96233515857E+02 -0.12923060274E+03 -0.13300050564E+03  0.20892719487E+03  0.00000000000E+00 0. -1.
        -12    1    3    3    0    0  0.35588722694E+03 -0.56822963146E+03 -0.76190219431E+03  0.10149066883E+04  0.00000000000E+00 0.  1.
         13    1    5    5    0    0  0.86579916681E+01  0.28892171030E+02 -0.68934887922E+02  0.75244515677E+02  0.00000000000E+00 0. -1.
        -14    1    5    5    0    0  0.78816276523E+02  0.67238629846E+02 -0.48003367972E+03  0.49108591148E+03  0.00000000000E+00 0.  1.
          4    1    6    6  502    0 -0.16562155651E+03  0.20688781336E+03 -0.25999004116E+03  0.37125178625E+03  0.00000000000E+00 0. -1.
         -3    1    6    6    0  502 -0.37397345448E+03  0.39444161996E+03 -0.68982013605E+03  0.87823240450E+03  0.00000000000E+00 0.  1.
<mgrwt>
<rscale>  0 0.88696241E+03</rscale>
<asrwt>0</asrwt>
<pdfrwt beam="1">  1        1 0.41794847E+00 0.88696241E+03</pdfrwt>
<pdfrwt beam="2">  1       -2 0.49689773E-01 0.88696241E+03</pdfrwt>
<totfact> 0.33329611E+00</totfact>
</mgrwt>
</event>
<event>
12    3  0.2212098E-007  0.5177272E+03  0.7818608E-02  0.1009253E+00
         -2   -1    0    0    0  501 -0.00000000000E+00  0.00000000000E+00  0.71413806099E+03  0.71413806099E+03  0.00000000000E+00 0.  1.
          1   -1    0    0  501    0  0.00000000000E+00 -0.00000000000E+00 -0.52765941550E+03  0.52765941550E+03  0.00000000000E+00 0. -1.
        -24    2    1    2    0    0 -0.22280650402E+03  0.30128435046E+03 -0.20339492938E+03  0.43410611491E+03  0.81631021302E+02 0.  0.
    5000000    2    1    2    0    0  0.22280650402E+03 -0.30128435046E+03  0.38987357486E+03  0.80769136158E+03  0.59995744277E+03 0.  0.
        -24    2    4    4    0    0  0.21074484505E+03 -0.44086471700E+03  0.41290567396E+03  0.64466488697E+03  0.79540131310E+02 0.  0.
         24    2    4    4    0    0  0.12061658968E+02  0.13958036654E+03 -0.23032099102E+02  0.16302647461E+03  0.80118608924E+02 0.  0.
         11    1    5    5    0    0  0.19803627252E+03 -0.43920857806E+03  0.39733310835E+03  0.62449670877E+03  0.00000000000E+00 0. -1.
        -12    1    5    5    0    0  0.12708572533E+02 -0.16561389387E+01  0.15572565617E+02  0.20168178200E+02  0.00000000000E+00 0.  1.
         13    1    3    3    0    0 -0.15760005711E+03  0.14590618329E+03 -0.12144865991E+03  0.24673096546E+03  0.00000000000E+00 0. -1.
        -14    1    3    3    0    0 -0.65206446915E+02  0.15537816717E+03 -0.81946269471E+02  0.18737514945E+03  0.00000000000E+00 0.  1.
          4    1    6    6  502    0 -0.21072867219E+02  0.91081139654E+01 -0.16467729151E+02  0.28252602999E+02  0.00000000000E+00 0. -1.
         -3    1    6    6    0  502  0.33134526187E+02  0.13047225257E+03 -0.65643699505E+01  0.13477387161E+03  0.00000000000E+00 0.  1.
<mgrwt>
<rscale>  0 0.51772721E+03</rscale>
<asrwt>0</asrwt>
<pdfrwt beam="1">  1        1 0.81178372E-01 0.51772721E+03</pdfrwt>
<pdfrwt beam="2">  1       -2 0.10986739E+00 0.51772721E+03</pdfrwt>
<totfact> 0.24705666E+01</totfact>
</mgrwt>
</event>
<event>
12    3  0.2212098E-007  0.1261603E+04  0.7818608E-02  0.9060581E-01
         -4   -1    0    0    0  501 -0.00000000000E+00  0.00000000000E+00  0.33123103364E+04  0.33123103364E+04  0.00000000000E+00 0.  1.
          3   -1    0    0  501    0  0.00000000000E+00 -0.00000000000E+00 -0.58634899106E+03  0.58634899106E+03  0.00000000000E+00 0. -1.
        -24    2    1    2    0    0  0.62484538101E+03 -0.10939743687E+04  0.71509391473E+03  0.14510500012E+04  0.83517241324E+02 0.  0.
    5000000    2    1    2    0    0 -0.62484538101E+03  0.10939743687E+04  0.20108674306E+04  0.24476093262E+04  0.59999326717E+03 0.  0.
        -24    2    4    4    0    0 -0.31910000859E+03  0.53206831346E+03  0.48812724232E+03  0.79398787831E+03  0.85012002310E+02 0.  0.
         24    2    4    4    0    0 -0.30574537242E+03  0.56190605527E+03  0.15227401883E+04  0.16536214479E+04  0.80669475205E+02 0.  0.
         13    1    3    3    0    0  0.40366232762E+03 -0.63636878309E+03  0.40233315119E+03  0.85427189313E+03  0.00000000000E+00 0. -1.
        -14    1    3    3    0    0  0.22118305339E+03 -0.45760558564E+03  0.31276076353E+03  0.59677810811E+03  0.00000000000E+00 0.  1.
         13    1    5    5    0    0  0.20458517233E-01  0.33479888282E+01  0.16757265701E+02  0.17088458137E+02  0.00000000000E+00 0. -1.
        -14    1    5    5    0    0 -0.31912046710E+03  0.52872032463E+03  0.47136997662E+03  0.77689942017E+03  0.00000000000E+00 0.  1.
          4    1    6    6  502    0 -0.11833299800E+03  0.18687468056E+03  0.62006452685E+03  0.65833491636E+03  0.00000000000E+00 0. -1.
         -3    1    6    6    0  502 -0.18741237442E+03  0.37503137472E+03  0.90267566143E+03  0.99528653153E+03  0.00000000000E+00 0.  1.
<mgrwt>
<rscale>  0 0.12616026E+04</rscale>
<asrwt>0</asrwt>
<pdfrwt beam="1">  1        3 0.90207540E-01 0.12616026E+04</pdfrwt>
<pdfrwt beam="2">  1       -4 0.50958619E+00 0.12616026E+04</pdfrwt>
<totfact> 0.24988832E-03</totfact>
</mgrwt>
</event>
<event>
12    3  0.2212098E-007  0.2722247E+03  0.7818608E-02  0.1100013E+00
         -2   -1    0    0    0  501 -0.00000000000E+00  0.00000000000E+00  0.28416271609E+03  0.28416271609E+03  0.00000000000E+00 0.  1.
          1   -1    0    0  501    0  0.00000000000E+00 -0.00000000000E+00 -0.67214253383E+03  0.67214253383E+03  0.00000000000E+00 0. -1.
        -24    2    1    2    0    0  0.56238359687E+02  0.37242687521E+01 -0.33800442892E+03  0.35155391680E+03  0.78527314811E+02 0.  0.
    5000000    2    1    2    0    0 -0.56238359687E+02 -0.37242687521E+01 -0.49975388816E+02  0.60475133312E+03  0.60004167534E+03 0.  0.
        -24    2    4    4    0    0 -0.22143333420E+03 -0.12514327788E+03  0.15526496939E+03  0.30867075767E+03  0.80478968869E+02 0.  0.
         24    2    4    4    0    0  0.16519497451E+03  0.12141900913E+03 -0.20524035820E+03  0.29608057545E+03  0.59229613727E+02 0.  0.
         11    1    3    3    0    0  0.64889329900E+00 -0.11073091617E+02 -0.21995385701E+03  0.22023336176E+03  0.00000000000E+00 0. -1.
        -12    1    3    3    0    0  0.55589466388E+02  0.14797360369E+02 -0.11805057191E+03  0.13132055504E+03  0.00000000000E+00 0.  1.
         11    1    5    5    0    0 -0.20403500418E+03 -0.81375760886E+02  0.12659820791E+03  0.25353383134E+03  0.00000000000E+00 0. -1.
        -12    1    5    5    0    0 -0.17398330018E+02 -0.43767516992E+02  0.28666761479E+02  0.55136926326E+02  0.00000000000E+00 0.  1.
          2    1    6    6  502    0  0.28184068833E+02  0.42376013418E+02 -0.77731740750E+02  0.92910127377E+02  0.00000000000E+00 0. -1.
         -1    1    6    6    0  502  0.13701090568E+03  0.79042995707E+02 -0.12750861745E+03  0.20317044807E+03  0.00000000000E+00 0.  1.
<mgrwt>
<rscale>  0 0.27222466E+03</rscale>
<asrwt>0</asrwt>
<pdfrwt beam="1">  1        1 0.10340654E+00 0.27222466E+03</pdfrwt>
<pdfrwt beam="2">  1       -2 0.43717341E-01 0.27222466E+03</pdfrwt>
<totfact> 0.13323921E+02</totfact>
</mgrwt>
</event>
<event>
12    3  0.2212098E-007  0.1013156E+04  0.7818608E-02  0.9294232E-01
          3   -1    0    0  501    0  0.00000000000E+00  0.00000000000E+00  0.12528603700E+04  0.12528603700E+04  0.00000000000E+00 0. -1.
         -4   -1    0    0    0  501 -0.00000000000E+00 -0.00000000000E+00 -0.85643342273E+03  0.85643342273E+03  0.00000000000E+00 0.  1.
        -24    2    1    2    0    0  0.94496337807E+03 -0.50439741256E+02  0.14324796224E+03  0.96057286143E+03  0.81733041348E+02 0.  0.
    5000000    2    1    2    0    0 -0.94496337807E+03  0.50439741256E+02  0.25317898501E+03  0.11487209313E+04  0.59996685419E+03 0.  0.
        -24    2    4    4    0    0 -0.68791098830E+03  0.25688172784E+03  0.27149878143E+02  0.74176793634E+03  0.10135484976E+03 0.  0.
         24    2    4    4    0    0 -0.25705238976E+03 -0.20644198658E+03  0.22602910687E+03  0.40695299495E+03  0.76337134059E+02 0.  0.
         11    1    3    3    0    0  0.70688446834E+02 -0.11918156461E+02  0.31652295437E+02  0.78363044706E+02  0.00000000000E+00 0. -1.
        -12    1    3    3    0    0  0.87427493123E+03 -0.38521584795E+02  0.11159566680E+03  0.88220981672E+03  0.00000000000E+00 0.  1.
         13    1    5    5    0    0 -0.14475099266E+03  0.99547809929E+02  0.11753294016E+02  0.17607031623E+03  0.00000000000E+00 0. -1.
        -14    1    5    5    0    0 -0.54315999564E+03  0.15733391791E+03  0.15396584128E+02  0.56569762010E+03  0.00000000000E+00 0.  1.
          4    1    6    6  502    0 -0.21868821853E+03 -0.13431605693E+03  0.17506033865E+03  0.31066293993E+03  0.00000000000E+00 0. -1.
         -3    1    6    6    0  502 -0.38364171230E+02 -0.72125929649E+02  0.50968768215E+02  0.96290055017E+02  0.00000000000E+00 0.  1.
<mgrwt>
<rscale>  0 0.10131558E+04</rscale>
<asrwt>0</asrwt>
<pdfrwt beam="1">  1        3 0.19274775E+00 0.10131558E+04</pdfrwt>
<pdfrwt beam="2">  1       -4 0.13175899E+00 0.10131558E+04</pdfrwt>
<totfact> 0.15135768E-01</totfact>
</mgrwt>
</event>
<event>
12    3  0.2212098E-007  0.7717528E+03  0.7818608E-02  0.9601829E-01
          1   -1    0    0  501    0  0.00000000000E+00  0.00000000000E+00  0.30991745772E+03  0.30991745772E+03  0.00000000000E+00 0. -1.
         -2   -1    0    0    0  501 -0.00000000000E+00 -0.00000000000E+00 -0.21507492880E+04  0.21507492880E+04  0.00000000000E+00 0.  1.
        -24    2    1    2    0    0  0.14448574492E+03  0.66160330095E+03 -0.10858158766E+04  0.12822795891E+04  0.81546112311E+02 0.  0.
    5000000    2    1    2    0    0 -0.14448574492E+03 -0.66160330095E+03 -0.75501595360E+03  0.11783871566E+04  0.59996011719E+03 0.  0.
        -24    2    4    4    0    0 -0.33259691703E+03 -0.49725105418E+03 -0.35527442658E+03  0.70053179369E+03  0.81520277792E+02 0.  0.
         24    2    4    4    0    0  0.18811117211E+03 -0.16435224678E+03 -0.39974152702E+03  0.47785536286E+03  0.78453714380E+02 0.  0.
         11    1    5    5    0    0 -0.22612058193E+03 -0.28680562249E+03 -0.18328822407E+03  0.40863499084E+03  0.00000000000E+00 0. -1.
        -12    1    5    5    0    0 -0.10647633510E+03 -0.21044543169E+03 -0.17198620252E+03  0.29189680285E+03  0.00000000000E+00 0.  1.
         11    1    3    3    0    0  0.78706530437E+02  0.51718888994E+03 -0.81805646962E+03  0.97102803940E+03  0.00000000000E+00 0. -1.
        -12    1    3    3    0    0  0.65779214483E+02  0.14441441102E+03 -0.26775940701E+03  0.31125154973E+03  0.00000000000E+00 0.  1.
          4    1    6    6  502    0  0.82907462279E+02 -0.26193404006E+02 -0.15576888951E+03  0.17839195233E+03  0.00000000000E+00 0. -1.
         -3    1    6    6    0  502  0.10520370983E+03 -0.13815884277E+03 -0.24397263751E+03  0.29946341053E+03  0.00000000000E+00 0.  1.
<mgrwt>
<rscale>  0 0.77175276E+03</rscale>
<asrwt>0</asrwt>
<pdfrwt beam="1">  1        1 0.47679609E-01 0.77175276E+03</pdfrwt>
<pdfrwt beam="2">  1       -2 0.33088450E+00 0.77175276E+03</pdfrwt>
<totfact> 0.15783047E+00</totfact>
</mgrwt>
</event>
<event>
12    3  0.2212098E-007  0.5757168E+03  0.7818608E-02  0.9957107E-01
         -2   -1    0    0    0  501 -0.00000000000E+00  0.00000000000E+00  0.60565462947E+03  0.60565462947E+03  0.00000000000E+00 0.  1.
          1   -1    0    0  501    0  0.00000000000E+00 -0.00000000000E+00 -0.77228467039E+03  0.77228467039E+03  0.00000000000E+00 0. -1.
        -24    2    1    2    0    0 -0.36166956819E+03  0.41230726620E+03 -0.83121732112E+02  0.56038902897E+03  0.79526619020E+02 0.  0.
    5000000    2    1    2    0    0  0.36166956819E+03 -0.41230726620E+03 -0.83508308808E+02  0.81755027089E+03  0.60051032420E+03 0.  0.
        -24    2    4    4    0    0  0.15747811234E+03 -0.25804699906E+02  0.21724795213E+03  0.28125246281E+03  0.80256069706E+02 0.  0.
         24    2    4    4    0    0  0.20419145584E+03 -0.38650256629E+03 -0.30075626094E+03  0.53629780808E+03  0.77991192256E+02 0.  0.
         11    1    5    5    0    0  0.60269954993E+02  0.58172338219E+01  0.14184749849E+03  0.15423041370E+03  0.00000000000E+00 0. -1.
        -12    1    5    5    0    0  0.97208157352E+02 -0.31621933728E+02  0.75400453643E+02  0.12702204910E+03  0.00000000000E+00 0.  1.
         13    1    3    3    0    0 -0.82612295316E+02  0.11774027194E+03 -0.53817209261E+02  0.15357035842E+03  0.00000000000E+00 0. -1.
        -14    1    3    3    0    0 -0.27905727287E+03  0.29456699426E+03 -0.29304522851E+02  0.40681867055E+03  0.00000000000E+00 0.  1.
          2    1    6    6  502    0  0.43349009828E+02 -0.50510790981E+02 -0.76889258653E+02  0.10169776180E+03  0.00000000000E+00 0. -1.
         -1    1    6    6    0  502  0.16084244601E+03 -0.33599177531E+03 -0.22386700229E+03  0.43460004628E+03  0.00000000000E+00 0.  1.
<mgrwt>
<rscale>  0 0.57571683E+03</rscale>
<asrwt>0</asrwt>
<pdfrwt beam="1">  1        1 0.11881303E+00 0.57571683E+03</pdfrwt>
<pdfrwt beam="2">  1       -2 0.93177635E-01 0.57571683E+03</pdfrwt>
<totfact> 0.20788458E+01</totfact>
</mgrwt>
</event>
<event>
12    3  0.2212098E-007  0.8429186E+03  0.7818608E-02  0.9499891E-01
         -2   -1    0    0    0  501 -0.00000000000E+00  0.00000000000E+00  0.70763616101E+03  0.70763616101E+03  0.00000000000E+00 0.  1.
          1   -1    0    0  501    0  0.00000000000E+00 -0.00000000000E+00 -0.15400699892E+04  0.15400699892E+04  0.00000000000E+00 0. -1.
        -24    2    1    2    0    0 -0.43279990820E+03  0.60174450675E+03  0.26744762653E+03  0.79207100771E+03  0.80224911176E+02 0.  0.
    5000000    2    1    2    0    0  0.43279990820E+03 -0.60174450675E+03 -0.10998814547E+04  0.14556351425E+04  0.59976849010E+03 0.  0.
        -24    2    4    4    0    0  0.70803953165E+02 -0.57336763643E+03 -0.66918903433E+03  0.88716062660E+03  0.74002482631E+02 0.  0.
         24    2    4    4    0    0  0.36199595503E+03 -0.28376870326E+02 -0.43069242040E+03  0.56847451592E+03  0.76295452189E+02 0.  0.
         13    1    5    5    0    0  0.26557283903E+02 -0.11016190802E+03 -0.93344534883E+02  0.14681327426E+03  0.00000000000E+00 0. -1.
        -14    1    5    5    0    0  0.44246669261E+02 -0.46320572840E+03 -0.57584449945E+03  0.74034735234E+03  0.00000000000E+00 0.  1.
         13    1    3    3    0    0 -0.30044154470E+03  0.38577915298E+03  0.14057304012E+03  0.50877446503E+03  0.00000000000E+00 0. -1.
        -14    1    3    3    0    0 -0.13235836349E+03  0.21596535378E+03  0.12687458641E+03  0.28329654268E+03  0.00000000000E+00 0.  1.
          4    1    6    6  502    0  0.11691488580E+03  0.79259939351E+01 -0.92774668308E+02  0.14946254040E+03  0.00000000000E+00 0. -1.
         -3    1    6    6    0  502  0.24508106923E+03 -0.36302864261E+02 -0.33791775209E+03  0.41901197552E+03  0.00000000000E+00 0.  1.
<mgrwt>
<rscale>  0 0.84291863E+03</rscale>
<asrwt>0</asrwt>
<pdfrwt beam="1">  1        1 0.23693384E+00 0.84291863E+03</pdfrwt>
<pdfrwt beam="2">  1       -2 0.10886710E+00 0.84291863E+03</pdfrwt>
<totfact> 0.37012421E+00</totfact>
</mgrwt>
</event>
<event>
12    3  0.2212098E-007  0.1072760E+04  0.7818608E-02  0.9232156E-01
         -2   -1    0    0    0  501 -0.00000000000E+00  0.00000000000E+00  0.10795047625E+04  0.10795047625E+04  0.00000000000E+00 0.  1.
          1   -1    0    0  501    0  0.00000000000E+00 -0.00000000000E+00 -0.12727389776E+04  0.12727389776E+04  0.00000000000E+00 0. -1.
        -24    2    1    2    0    0 -0.25778999792E+03  0.98275472768E+03 -0.49695318190E+03  0.11338766791E+04  0.80320113644E+02 0.  0.
    5000000    2    1    2    0    0  0.25778999792E+03 -0.98275472768E+03  0.30371896682E+03  0.12183670611E+04  0.59992545108E+03 0.  0.
        -24    2    4    4    0    0  0.59032326580E+01 -0.82592233536E+03  0.71053599875E+02  0.83294914447E+03  0.81074724863E+02 0.  0.
         24    2    4    4    0    0  0.25188676526E+03 -0.15683239232E+03  0.23266536694E+03  0.38541791659E+03  0.79815134268E+02 0.  0.
         11    1    3    3    0    0 -0.31882547595E+02  0.12758561818E+03 -0.95524470882E+02  0.16254079901E+03  0.00000000000E+00 0. -1.
        -12    1    3    3    0    0 -0.22590745032E+03  0.85516910950E+03 -0.40142871102E+03  0.97133588011E+03  0.00000000000E+00 0.  1.
         13    1    5    5    0    0 -0.92307019608E+01 -0.53120061113E+03  0.88490934798E+01  0.53135449709E+03  0.00000000000E+00 0. -1.
        -14    1    5    5    0    0  0.15133934619E+02 -0.29472172423E+03  0.62204506395E+02  0.30159464737E+03  0.00000000000E+00 0.  1.
          2    1    6    6  502    0  0.16595767984E+03 -0.67489499459E+02  0.10588459048E+03  0.20810653650E+03  0.00000000000E+00 0. -1.
         -1    1    6    6    0  502  0.85929085422E+02 -0.89342892862E+02  0.12678077647E+03  0.17731138009E+03  0.00000000000E+00 0.  1.
<mgrwt>
<rscale>  0 0.10727598E+04</rscale>
<asrwt>0</asrwt>
<pdfrwt beam="1">  1        1 0.19580600E+00 0.10727598E+04</pdfrwt>
<pdfrwt beam="2">  1       -2 0.16607766E+00 0.10727598E+04</pdfrwt>
<totfact> 0.18648241E+00</totfact>
</mgrwt>
</event>
<event>
12    3  0.2212098E-007  0.6445172E+03  0.7818608E-02  0.9817122E-01
          1   -1    0    0  501    0  0.00000000000E+00  0.00000000000E+00  0.18219523915E+04  0.18219523915E+04  0.00000000000E+00 0. -1.
         -2   -1    0    0    0  501 -0.00000000000E+00 -0.00000000000E+00 -0.39124070964E+03  0.39124070964E+03  0.00000000000E+00 0.  1.
        -24    2    1    2    0    0  0.96303079843E+02 -0.52080698481E+03 -0.42448054397E+02  0.53669456367E+03  0.75663853590E+02 0.  0.
    5000000    2    1    2    0    0 -0.96303079843E+02  0.52080698481E+03  0.14731597362E+04  0.16764985375E+04  0.59994461327E+03 0.  0.
        -24    2    4    4    0    0 -0.25216515240E+03  0.62988306374E+02  0.30433003321E+03  0.40898480222E+03  0.84243744637E+02 0.  0.
         24    2    4    4    0    0  0.15586207255E+03  0.45781867843E+03  0.11688297030E+04  0.12675137352E+04  0.80853363167E+02 0.  0.
         11    1    3    3    0    0  0.58999427701E+02 -0.34954427343E+03  0.70589977351E+01  0.35455882588E+03  0.00000000000E+00 0. -1.
        -12    1    3    3    0    0  0.37303652143E+02 -0.17126271137E+03 -0.49507052132E+02  0.18213573779E+03  0.00000000000E+00 0.  1.
         11    1    5    5    0    0 -0.18007145833E+03  0.82963829072E+02  0.21482502941E+03  0.29233289295E+03  0.00000000000E+00 0. -1.
        -12    1    5    5    0    0 -0.72093694063E+02 -0.19975522698E+02  0.89505003804E+02  0.11665190927E+03  0.00000000000E+00 0.  1.
          2    1    6    6  502    0  0.85010595471E+02  0.17388348880E+03  0.38681067725E+03  0.43253296875E+03  0.00000000000E+00 0. -1.
         -1    1    6    6    0  502  0.70851477082E+02  0.28393518963E+03  0.78201902578E+03  0.83498076649E+03  0.00000000000E+00 0.  1.
<mgrwt>
<rscale>  0 0.64451719E+03</rscale>
<asrwt>0</asrwt>
<pdfrwt beam="1">  1        1 0.28030036E+00 0.64451719E+03</pdfrwt>
<pdfrwt beam="2">  1       -2 0.60190879E-01 0.64451719E+03</pdfrwt>
<totfact> 0.93845914E+00</totfact>
</mgrwt>
</event>
<event>
12    3  0.2212098E-007  0.4728785E+03  0.7818608E-02  0.1021111E+00
          1   -1    0    0  501    0  0.00000000000E+00  0.00000000000E+00  0.35145897001E+03  0.35145897001E+03  0.00000000000E+00 0. -1.
         -2   -1    0    0    0  501 -0.00000000000E+00 -0.00000000000E+00 -0.84713358577E+03  0.84713358577E+03  0.00000000000E+00 0.  1.
        -24    2    1    2    0    0 -0.36345145446E+03  0.16701444087E+02 -0.75119544737E+02  0.38048091364E+03  0.82139403803E+02 0.  0.
    5000000    2    1    2    0    0  0.36345145446E+03 -0.16701444087E+02 -0.42055507102E+03  0.81811164214E+03  0.60005349200E+03 0.  0.
        -24    2    4    4    0    0  0.44766108751E+03  0.34903662248E+01 -0.85627216116E+02  0.46246046800E+03  0.78262586160E+02 0.  0.
         24    2    4    4    0    0 -0.84209633050E+02 -0.20191810312E+02 -0.33492785491E+03  0.35565117414E+03  0.82535557046E+02 0.  0.
         13    1    5    5    0    0  0.26695470475E+03 -0.36348280336E+02 -0.51108512042E+02  0.27422270488E+03  0.00000000000E+00 0. -1.
        -14    1    5    5    0    0  0.18070638277E+03  0.39838646561E+02 -0.34518704073E+02  0.18823776312E+03  0.00000000000E+00 0.  1.
         13    1    3    3    0    0 -0.15229093368E+03 -0.33326662976E+02 -0.35550548492E+02  0.15989695571E+03  0.00000000000E+00 0. -1.
        -14    1    3    3    0    0 -0.21116052078E+03  0.50028107063E+02 -0.39568996244E+02  0.22058395793E+03  0.00000000000E+00 0.  1.
          2    1    6    6  502    0  0.15044526405E+02 -0.11153222072E+02 -0.74111132618E+02  0.76440775213E+02  0.00000000000E+00 0. -1.
         -1    1    6    6    0  502 -0.99254159455E+02 -0.90385882391E+01 -0.26081672229E+03  0.27921039893E+03  0.00000000000E+00 0.  1.
<mgrwt>
<rscale>  0 0.47287854E+03</rscale>
<asrwt>0</asrwt>
<pdfrwt beam="1">  1        1 0.54070612E-01 0.47287854E+03</pdfrwt>
<pdfrwt beam="2">  1       -2 0.13032824E+00 0.47287854E+03</pdfrwt>
<totfact> 0.27998842E+01</totfact>
</mgrwt>
</event>
<event>
12    3  0.2212098E-007  0.1865817E+04  0.7818608E-02  0.8672061E-01
         -2   -1    0    0    0  501 -0.00000000000E+00  0.00000000000E+00  0.23701748646E+04  0.23701748646E+04  0.00000000000E+00 0.  1.
          1   -1    0    0  501    0  0.00000000000E+00 -0.00000000000E+00 -0.17904838938E+04  0.17904838938E+04  0.00000000000E+00 0. -1.
        -24    2    1    2    0    0  0.35777361148E+02  0.18242042210E+04 -0.58099075824E+03  0.19164820204E+04  0.79699524355E+02 0.  0.
    5000000    2    1    2    0    0 -0.35777361148E+02 -0.18242042210E+04  0.11606817290E+04  0.22441767379E+04  0.60012173392E+03 0.  0.
        -24    2    4    4    0    0 -0.22444166581E+03 -0.32758406722E+03  0.17976824012E+03  0.44318360981E+03  0.80060660774E+02 0.  0.
         24    2    4    4    0    0  0.18866430466E+03 -0.14966201537E+04  0.98091348892E+03  0.18009931281E+04  0.76934194541E+02 0.  0.
         11    1    3    3    0    0  0.51638634030E+02  0.86573527793E+03 -0.25542942028E+03  0.90410635919E+03  0.00000000000E+00 0. -1.
        -12    1    3    3    0    0 -0.15861272881E+02  0.95846894303E+03 -0.32556133796E+03  0.10123756613E+04  0.00000000000E+00 0.  1.
         11    1    5    5    0    0 -0.13423860603E+03 -0.18699188297E+03  0.14652856301E+03  0.27286734400E+03  0.00000000000E+00 0. -1.
        -12    1    5    5    0    0 -0.90203059781E+02 -0.14059218425E+03  0.33239677114E+02  0.17031626581E+03  0.00000000000E+00 0.  1.
          4    1    6    6  502    0  0.76757699858E+02 -0.66526623849E+03  0.48038964207E+03  0.82416328526E+03  0.00000000000E+00 0. -1.
         -3    1    6    6    0  502  0.11190660480E+03 -0.83135391525E+03  0.50052384684E+03  0.97682984284E+03  0.00000000000E+00 0.  1.
<mgrwt>
<rscale>  0 0.18658168E+04</rscale>
<asrwt>0</asrwt>
<pdfrwt beam="1">  1        1 0.27545906E+00 0.18658168E+04</pdfrwt>
<pdfrwt beam="2">  1       -2 0.36464229E+00 0.18658168E+04</pdfrwt>
<totfact> 0.41121252E-02</totfact>
</mgrwt>
</event>
<event>
12    3  0.2212098E-007  0.2720598E+04  0.7818608E-02  0.8328352E-01
         -2   -1    0    0    0  501 -0.00000000000E+00  0.00000000000E+00  0.16798884852E+04  0.16798884852E+04  0.00000000000E+00 0.  1.
          1   -1    0    0  501    0  0.00000000000E+00 -0.00000000000E+00 -0.45160251852E+04  0.45160251852E+04  0.00000000000E+00 0. -1.
        -24    2    1    2    0    0 -0.25952272617E+04 -0.80899799378E+03 -0.15410321670E+04  0.31255369060E+04  0.67219919764E+02 0.  0.
    5000000    2    1    2    0    0  0.25952272617E+04  0.80899799378E+03 -0.12951045330E+04  0.30703767644E+04  0.60019615956E+03 0.  0.
        -24    2    4    4    0    0  0.42250334945E+03  0.11202470453E+03 -0.45939365436E+03  0.63905997009E+03  0.79350494614E+02 0.  0.
         24    2    4    4    0    0  0.21727239122E+04  0.69697328925E+03 -0.83571087869E+03  0.24313167943E+04  0.79923192126E+02 0.  0.
         11    1    3    3    0    0 -0.92704429035E+03 -0.27227891976E+03 -0.57991145177E+03  0.11268736479E+04  0.00000000000E+00 0. -1.
        -12    1    3    3    0    0 -0.16681829713E+04 -0.53671907402E+03 -0.96112071524E+03  0.19986632582E+04  0.00000000000E+00 0.  1.
         13    1    5    5    0    0  0.38232074182E+03  0.83412260981E+02 -0.37915984869E+03  0.54487516530E+03  0.00000000000E+00 0. -1.
        -14    1    5    5    0    0  0.40182607630E+02  0.28612443550E+02 -0.80233805670E+02  0.94184804794E+02  0.00000000000E+00 0.  1.
          2    1    6    6  502    0  0.18477598253E+03  0.50997767211E+02 -0.92664707415E+02  0.21290768887E+03  0.00000000000E+00 0. -1.
         -1    1    6    6    0  502  0.19879479297E+04  0.64597552204E+03 -0.74304617127E+03  0.22184091054E+04  0.00000000000E+00 0.  1.
<mgrwt>
<rscale>  0 0.27205983E+04</rscale>
<asrwt>0</asrwt>
<pdfrwt beam="1">  1        1 0.69477310E+00 0.27205983E+04</pdfrwt>
<pdfrwt beam="2">  1       -2 0.25844438E+00 0.27205983E+04</pdfrwt>
<totfact> 0.12768236E-03</totfact>
</mgrwt>
</event>
<event>
12    3  0.2212098E-007  0.6217865E+03  0.7818608E-02  0.9861209E-01
         -2   -1    0    0    0  501 -0.00000000000E+00  0.00000000000E+00  0.71082711495E+03  0.71082711495E+03  0.00000000000E+00 0.  1.
          1   -1    0    0  501    0  0.00000000000E+00 -0.00000000000E+00 -0.68729861615E+03  0.68729861615E+03  0.00000000000E+00 0. -1.
        -24    2    1    2    0    0 -0.55441482752E+02  0.54309315947E+03 -0.14289108918E+03  0.57008855107E+03  0.80988609195E+02 0.  0.
    5000000    2    1    2    0    0  0.55441482752E+02 -0.54309315947E+03  0.16641958798E+03  0.82803718003E+03  0.59993845883E+03 0.  0.
        -24    2    4    4    0    0 -0.27642937681E+02  0.56325925321E+02  0.18907778634E+03  0.21742320312E+03  0.87095913216E+02 0.  0.
         24    2    4    4    0    0  0.83084420433E+02 -0.59941908479E+03 -0.22658198360E+02  0.61061397692E+03  0.78292877848E+02 0.  0.
         11    1    5    5    0    0 -0.48025005997E+02  0.30695286517E+02  0.54290770036E+02  0.78715243292E+02  0.00000000000E+00 0. -1.
        -12    1    5    5    0    0  0.20382068316E+02  0.25630638803E+02  0.13478701631E+03  0.13870795983E+03  0.00000000000E+00 0.  1.
         11    1    3    3    0    0 -0.28334786806E+02  0.12885218417E+03 -0.27989387680E+01  0.13196052276E+03  0.00000000000E+00 0. -1.
        -12    1    3    3    0    0 -0.27106695946E+02  0.41424097530E+03 -0.14009215041E+03  0.43812802831E+03  0.00000000000E+00 0.  1.
          2    1    6    6  502    0  0.44506635704E+02 -0.17380443999E+03  0.22749489966E+02  0.18084900684E+03  0.00000000000E+00 0. -1.
         -1    1    6    6    0  502  0.38577784729E+02 -0.42561464480E+03 -0.45407688326E+02  0.42976497008E+03  0.00000000000E+00 0.  1.
<mgrwt>
<rscale>  0 0.62178650E+03</rscale>
<asrwt>0</asrwt>
<pdfrwt beam="1">  1        1 0.10573825E+00 0.62178650E+03</pdfrwt>
<pdfrwt beam="2">  1       -2 0.10935802E+00 0.62178650E+03</pdfrwt>
<totfact> 0.16905404E+01</totfact>
</mgrwt>
</event>
<event>
12    3  0.2212098E-007  0.7261015E+03  0.7818608E-02  0.9673608E-01
          1   -1    0    0  501    0  0.00000000000E+00  0.00000000000E+00  0.10638007345E+04  0.10638007345E+04  0.00000000000E+00 0. -1.
         -2   -1    0    0    0  501 -0.00000000000E+00 -0.00000000000E+00 -0.58341025499E+03  0.58341025499E+03  0.00000000000E+00 0.  1.
        -24    2    1    2    0    0  0.62225827482E+03 -0.19703536324E+03  0.36796437567E+03  0.75362851068E+03  0.80807520749E+02 0.  0.
    5000000    2    1    2    0    0 -0.62225827482E+03  0.19703536324E+03  0.11242610382E+03  0.89358247877E+03  0.59985141710E+03 0.  0.
        -24    2    4    4    0    0 -0.54929427604E+03 -0.35568147031E+02 -0.95977431879E+02  0.56330383840E+03  0.71486027693E+02 0.  0.
         24    2    4    4    0    0 -0.72963998779E+02  0.23260351027E+03  0.20840353570E+03  0.33027864037E+03  0.78891117898E+02 0.  0.
         11    1    3    3    0    0  0.60264321350E+03 -0.19263545919E+03  0.33734513667E+03  0.71700000290E+03  0.00000000000E+00 0. -1.
        -12    1    3    3    0    0  0.19615061314E+02 -0.43999040510E+01  0.30619238995E+02  0.36628507786E+02  0.00000000000E+00 0.  1.
         11    1    5    5    0    0 -0.89339187643E+02 -0.27292961384E+02 -0.32542784529E+02  0.98921327401E+02  0.00000000000E+00 0. -1.
        -12    1    5    5    0    0 -0.45995508840E+03 -0.82751856473E+01 -0.63434647350E+02  0.46438251100E+03  0.00000000000E+00 0.  1.
          4    1    6    6  502    0 -0.63202124078E+02  0.14967066818E+03  0.17902611392E+03  0.24175642053E+03  0.00000000000E+00 0. -1.
         -3    1    6    6    0  502 -0.97618747011E+01  0.82932842091E+02  0.29377421779E+02  0.88522219839E+02  0.00000000000E+00 0.  1.
<mgrwt>
<rscale>  0 0.72610153E+03</rscale>
<asrwt>0</asrwt>
<pdfrwt beam="1">  1        1 0.16366165E+00 0.72610153E+03</pdfrwt>
<pdfrwt beam="2">  1       -2 0.89755424E-01 0.72610153E+03</pdfrwt>
<totfact> 0.12943028E+01</totfact>
</mgrwt>
</event>
<event>
12    3  0.2947663E-007  0.1354269E+04  0.7818608E-02  0.8987602E-01
          1   -1    0    0  501    0  0.00000000000E+00  0.00000000000E+00  0.12510517015E+04  0.12510517015E+04  0.00000000000E+00 0. -1.
         -4   -1    0    0    0  501 -0.00000000000E+00 -0.00000000000E+00 -0.15330920890E+04  0.15330920890E+04  0.00000000000E+00 0.  1.
        -24    2    1    2    0    0 -0.10307008448E+02  0.13016918646E+04  0.77152072167E+02  0.13064382966E+04  0.79502426420E+02 0.  0.
    5000000    2    1    2    0    0  0.10307008448E+02 -0.13016918646E+04 -0.35919245974E+03  0.14777054939E+04  0.60007196126E+03 0.  0.
        -24    2    4    4    0    0 -0.21881006459E+03 -0.98175089023E+03 -0.13616951832E+03  0.10183051491E+04  0.81795991445E+02 0.  0.
         24    2    4    4    0    0  0.22911707303E+03 -0.31994097439E+03 -0.22302294142E+03  0.45940034475E+03  0.80327978339E+02 0.  0.
         11    1    5    5    0    0 -0.14421400030E+03 -0.72614819717E+03 -0.13200695997E+03  0.75200712738E+03  0.00000000000E+00 0. -1.
        -12    1    5    5    0    0 -0.74596064284E+02 -0.25560269305E+03 -0.41625583437E+01  0.26629802176E+03  0.00000000000E+00 0.  1.
         13    1    3    3    0    0  0.22248481701E+02  0.10195055877E+04  0.47803317168E+02  0.10208681577E+04  0.00000000000E+00 0. -1.
        -14    1    3    3    0    0 -0.32555490149E+02  0.28218627689E+03  0.29348754998E+02  0.28557013889E+03  0.00000000000E+00 0.  1.
          4    1    6    6  502    0  0.98926625692E+02 -0.18991508359E+03 -0.14996462137E+03  0.26142609646E+03  0.00000000000E+00 0. -1.
         -3    1    6    6    0  502  0.13019044734E+03 -0.13002589080E+03 -0.73058320051E+02  0.19797424829E+03  0.00000000000E+00 0.  1.
<mgrwt>
<rscale>  0 0.13542694E+04</rscale>
<asrwt>0</asrwt>
<pdfrwt beam="1">  1        1 0.19246949E+00 0.13542694E+04</pdfrwt>
<pdfrwt beam="2">  1       -4 0.23586032E+00 0.13542694E+04</pdfrwt>
<totfact> 0.34700218E-01</totfact>
</mgrwt>
</event>
<event>
12    3  0.2212098E-007  0.9878630E+03  0.7818608E-02  0.9321957E-01
         -2   -1    0    0    0  501 -0.00000000000E+00  0.00000000000E+00  0.78366076624E+03  0.78366076624E+03  0.00000000000E+00 0.  1.
          1   -1    0    0  501    0  0.00000000000E+00 -0.00000000000E+00 -0.24551974509E+04  0.24551974509E+04  0.00000000000E+00 0. -1.
        -24    2    1    2    0    0  0.44053629537E+03 -0.85118448796E+03  0.26350321942E+03  0.99768852342E+03  0.85797336985E+02 0.  0.
    5000000    2    1    2    0    0 -0.44053629537E+03  0.85118448796E+03 -0.19350399041E+04  0.22411696938E+04  0.59989574559E+03 0.  0.
        -24    2    4    4    0    0 -0.31521121600E+03  0.80618407802E+03 -0.11543780026E+04  0.14451001424E+04  0.80218267977E+02 0.  0.
         24    2    4    4    0    0 -0.12532507937E+03  0.45000409942E+02 -0.78066190156E+03  0.79606955132E+03  0.81008108099E+02 0.  0.
         11    1    5    5    0    0 -0.30418185533E+03  0.78514993013E+03 -0.10961893137E+04  0.13822510718E+04  0.00000000000E+00 0. -1.
        -12    1    5    5    0    0 -0.11029360671E+02  0.21034147893E+02 -0.58188688841E+02  0.62849070665E+02  0.00000000000E+00 0.  1.
         13    1    3    3    0    0  0.22230046197E+03 -0.50069834128E+03  0.12211853506E+03  0.56127467515E+03  0.00000000000E+00 0. -1.
        -14    1    3    3    0    0  0.21823583340E+03 -0.35048614668E+03  0.14138468435E+03  0.43641384828E+03  0.00000000000E+00 0.  1.
          4    1    6    6  502    0 -0.96934443738E+02  0.10579849331E+01 -0.38747482633E+03  0.39941725896E+03  0.00000000000E+00 0. -1.
         -3    1    6    6    0  502 -0.28390635631E+02  0.43942425009E+02 -0.39318707523E+03  0.39665229236E+03  0.00000000000E+00 0.  1.
<mgrwt>
<rscale>  0 0.98786302E+03</rscale>
<asrwt>0</asrwt>
<pdfrwt beam="1">  1        1 0.37772268E+00 0.98786302E+03</pdfrwt>
<pdfrwt beam="2">  1       -2 0.12056320E+00 0.98786302E+03</pdfrwt>
<totfact> 0.67908381E-01</totfact>
</mgrwt>
</event>
<event>
12    3  0.2212098E-007  0.8537591E+03  0.7818608E-02  0.9485305E-01
         -2   -1    0    0    0  501 -0.00000000000E+00  0.00000000000E+00  0.97317762193E+03  0.97317762193E+03  0.00000000000E+00 0.  1.
          1   -1    0    0  501    0  0.00000000000E+00 -0.00000000000E+00 -0.79323308455E+03  0.79323308455E+03  0.00000000000E+00 0. -1.
        -24    2    1    2    0    0  0.77300462307E+03 -0.12957752478E+00  0.42656202783E+02  0.77828437207E+03  0.79817592605E+02 0.  0.
    5000000    2    1    2    0    0 -0.77300462307E+03  0.12957752478E+00  0.13728833460E+03  0.98812633442E+03  0.60000783484E+03 0.  0.
        -24    2    4    4    0    0 -0.70750568473E+03  0.17690525951E+03 -0.14966744862E+02  0.73395492809E+03  0.81277722990E+02 0.  0.
         24    2    4    4    0    0 -0.65498938341E+02 -0.17677568198E+03  0.15225507946E+03  0.25417140632E+03  0.76692515312E+02 0.  0.
         11    1    3    3    0    0  0.70275282714E+03 -0.11629218064E+02  0.58752843458E+02  0.70530041216E+03  0.00000000000E+00 0. -1.
        -12    1    3    3    0    0  0.70251795926E+02  0.11499640539E+02 -0.16096640675E+02  0.72983959911E+02  0.00000000000E+00 0.  1.
         13    1    5    5    0    0 -0.56865629163E+03  0.11585705042E+03  0.89261227500E+01  0.58040719311E+03  0.00000000000E+00 0. -1.
        -14    1    5    5    0    0 -0.13884939310E+03  0.61048209086E+02 -0.23892867612E+02  0.15354773498E+03  0.00000000000E+00 0.  1.
          4    1    6    6  502    0  0.11561754571E+02 -0.62987117251E+02  0.32147081464E+02  0.71655327472E+02  0.00000000000E+00 0. -1.
         -3    1    6    6    0  502 -0.77060692911E+02 -0.11378856473E+03  0.12010799800E+03  0.18251607885E+03  0.00000000000E+00 0.  1.
<mgrwt>
<rscale>  0 0.85375913E+03</rscale>
<asrwt>0</asrwt>
<pdfrwt beam="1">  1        1 0.12203586E+00 0.85375913E+03</pdfrwt>
<pdfrwt beam="2">  1       -2 0.14971963E+00 0.85375913E+03</pdfrwt>
<totfact> 0.59772935E+00</totfact>
</mgrwt>
</event>
<event>
12    3  0.2212098E-007  0.4984536E+03  0.7818608E-02  0.1014183E+00
         -2   -1    0    0    0  501 -0.00000000000E+00  0.00000000000E+00  0.26641457747E+03  0.26641457747E+03  0.00000000000E+00 0.  1.
          1   -1    0    0  501    0  0.00000000000E+00 -0.00000000000E+00 -0.12812675352E+04  0.12812675352E+04  0.00000000000E+00 0. -1.
        -24    2    1    2    0    0 -0.22816901768E+03  0.30408440164E+03 -0.63104719908E+03  0.74033153712E+03  0.73087573714E+02 0.  0.
    5000000    2    1    2    0    0  0.22816901768E+03 -0.30408440164E+03 -0.38380575866E+03  0.80735057557E+03  0.59998305605E+03 0.  0.
        -24    2    4    4    0    0  0.33272727583E+03 -0.36273124655E+03 -0.12965461121E+03  0.51536175146E+03  0.80659899303E+02 0.  0.
         24    2    4    4    0    0 -0.10455825815E+03  0.58646844905E+02 -0.25415114746E+03  0.29198882412E+03  0.79327081694E+02 0.  0.
         11    1    3    3    0    0 -0.12997604539E+03  0.13032081385E+03 -0.35249093834E+03  0.39765204452E+03  0.00000000000E+00 0. -1.
        -12    1    3    3    0    0 -0.98192972289E+02  0.17376358779E+03 -0.27855626074E+03  0.34267949260E+03  0.00000000000E+00 0.  1.
         13    1    5    5    0    0  0.27957394451E+03 -0.28638799990E+03 -0.13447531098E+03  0.42221237097E+03  0.00000000000E+00 0. -1.
        -14    1    5    5    0    0  0.53153331321E+02 -0.76343246648E+02  0.48206997764E+01  0.93149380490E+02  0.00000000000E+00 0.  1.
          2    1    6    6  502    0 -0.63570074551E+02  0.32529204163E+02 -0.22325600840E+03  0.23439826959E+03  0.00000000000E+00 0. -1.
         -1    1    6    6    0  502 -0.40988183601E+02  0.26117640743E+02 -0.30895139057E+02  0.57590554523E+02  0.00000000000E+00 0.  1.
<mgrwt>
<rscale>  0 0.49845355E+03</rscale>
<asrwt>0</asrwt>
<pdfrwt beam="1">  1        1 0.19711808E+00 0.49845355E+03</pdfrwt>
<pdfrwt beam="2">  1       -2 0.40986858E-01 0.49845355E+03</pdfrwt>
<totfact> 0.48690006E+01</totfact>
</mgrwt>
</event>
<event>
12    3  0.2212098E-007  0.4560510E+03  0.7818608E-02  0.1025933E+00
         -2   -1    0    0    0  501 -0.00000000000E+00  0.00000000000E+00  0.31851969564E+03  0.31851969564E+03  0.00000000000E+00 0.  1.
          1   -1    0    0  501    0  0.00000000000E+00 -0.00000000000E+00 -0.10320721534E+04  0.10320721534E+04  0.00000000000E+00 0. -1.
        -24    2    1    2    0    0 -0.35282459506E+01 -0.32843798034E+03 -0.55353613855E+03  0.64826903192E+03  0.77243288528E+02 0.  0.
    5000000    2    1    2    0    0  0.35282459506E+01  0.32843798034E+03 -0.16001631922E+03  0.70232281711E+03  0.59980677020E+03 0.  0.
        -24    2    4    4    0    0 -0.10272976113E+02  0.44582941919E+03  0.41644429459E+02  0.45513923090E+03  0.80920058977E+02 0.  0.
         24    2    4    4    0    0  0.13801222064E+02 -0.11739143885E+03 -0.20166074868E+03  0.24718358621E+03  0.80383108243E+02 0.  0.
         11    1    3    3    0    0  0.35056858353E+02 -0.12597285843E+03 -0.23307013678E+03  0.26724489338E+03  0.00000000000E+00 0. -1.
        -12    1    3    3    0    0 -0.38585104304E+02 -0.20246512191E+03 -0.32046600177E+03  0.38102413854E+03  0.00000000000E+00 0.  1.
         13    1    5    5    0    0 -0.20918792571E+02  0.17875501988E+03  0.52984994069E+02  0.18761226668E+03  0.00000000000E+00 0. -1.
        -14    1    5    5    0    0  0.10645816458E+02  0.26707439931E+03 -0.11340564610E+02  0.26752696422E+03  0.00000000000E+00 0.  1.
          4    1    6    6  502    0 -0.14546376277E+02 -0.12069509637E+02 -0.11611007073E+01  0.18937219450E+02  0.00000000000E+00 0. -1.
         -3    1    6    6    0  502  0.28347598340E+02 -0.10532192921E+03 -0.20049964797E+03  0.22824636676E+03  0.00000000000E+00 0.  1.
<mgrwt>
<rscale>  0 0.45605100E+03</rscale>
<asrwt>0</asrwt>
<pdfrwt beam="1">  1        1 0.15878033E+00 0.45605100E+03</pdfrwt>
<pdfrwt beam="2">  1       -2 0.49003030E-01 0.45605100E+03</pdfrwt>
<totfact> 0.52143742E+01</totfact>
</mgrwt>
</event>
<event>
12    3  0.2212098E-007  0.4933849E+03  0.7818608E-02  0.1015520E+00
         -2   -1    0    0    0  501 -0.00000000000E+00  0.00000000000E+00  0.24156641398E+03  0.24156641398E+03  0.00000000000E+00 0.  1.
          1   -1    0    0  501    0  0.00000000000E+00 -0.00000000000E+00 -0.11811269926E+04  0.11811269926E+04  0.00000000000E+00 0. -1.
        -24    2    1    2    0    0 -0.27084013993E+03 -0.18576595985E+03 -0.13122621486E+03  0.36340783763E+03  0.83555752338E+02 0.  0.
    5000000    2    1    2    0    0  0.27084013993E+03  0.18576595985E+03 -0.80833436372E+03  0.10592855689E+04  0.60068136289E+03 0.  0.
        -24    2    4    4    0    0  0.24283377601E+03  0.37066430888E+03 -0.41156507295E+03  0.61376635613E+03  0.10470462260E+03 0.  0.
         24    2    4    4    0    0  0.28006363918E+02 -0.18489834903E+03 -0.39676929077E+03  0.44551921280E+03  0.78036805280E+02 0.  0.
         11    1    5    5    0    0  0.18735147507E+02  0.10608646011E+03 -0.11411028991E+03  0.15692833088E+03  0.00000000000E+00 0. -1.
        -12    1    5    5    0    0  0.22409862850E+03  0.26457784877E+03 -0.29745478304E+03  0.45683802525E+03  0.00000000000E+00 0.  1.
         13    1    3    3    0    0 -0.20500228484E+03 -0.16904491392E+03 -0.12918216072E+03  0.29544906560E+03  0.00000000000E+00 0. -1.
        -14    1    3    3    0    0 -0.65837855082E+02 -0.16721045933E+02 -0.20440541405E+01  0.67958772033E+02  0.00000000000E+00 0.  1.
          4    1    6    6  502    0 -0.87514691386E+01 -0.14162615398E+03 -0.24030278498E+03  0.27906985536E+03  0.00000000000E+00 0. -1.
         -3    1    6    6    0  502  0.36757833057E+02 -0.43272195048E+02 -0.15646650579E+03  0.16644935744E+03  0.00000000000E+00 0.  1.
<mgrwt>
<rscale>  0 0.49338493E+03</rscale>
<asrwt>0</asrwt>
<pdfrwt beam="1">  1        1 0.18171184E+00 0.49338493E+03</pdfrwt>
<pdfrwt beam="2">  1       -2 0.37164065E-01 0.49338493E+03</pdfrwt>
<totfact> 0.69315590E+01</totfact>
</mgrwt>
</event>
<event>
12    3  0.2212098E-007  0.7524737E+03  0.7818608E-02  0.9631477E-01
         -2   -1    0    0    0  501 -0.00000000000E+00  0.00000000000E+00  0.44113745750E+03  0.44113745750E+03  0.00000000000E+00 0.  1.
          1   -1    0    0  501    0  0.00000000000E+00 -0.00000000000E+00 -0.18689175818E+04  0.18689175818E+04  0.00000000000E+00 0. -1.
        -24    2    1    2    0    0  0.54459702634E+03 -0.32426706754E+03 -0.31641009887E+01  0.63934377670E+03  0.83757991123E+02 0.  0.
    5000000    2    1    2    0    0 -0.54459702634E+03  0.32426706754E+03 -0.14246160233E+04  0.16707112626E+04  0.60000854738E+03 0.  0.
        -24    2    4    4    0    0 -0.23189400020E+03 -0.15824335084E+03 -0.49779804790E+03  0.57716994243E+03  0.80662634124E+02 0.  0.
         24    2    4    4    0    0 -0.31270302614E+03  0.48251041838E+03 -0.92681797543E+03  0.10935413202E+04  0.79003626311E+02 0.  0.
         11    1    5    5    0    0 -0.12227827696E+03 -0.40935311545E+02 -0.26040170869E+03  0.29057998320E+03  0.00000000000E+00 0. -1.
        -12    1    5    5    0    0 -0.10961572324E+03 -0.11730803929E+03 -0.23739633921E+03  0.28658995924E+03  0.00000000000E+00 0.  1.
         11    1    3    3    0    0  0.18370097235E+03 -0.64689005070E+02 -0.35957957994E+01  0.19479128412E+03  0.00000000000E+00 0. -1.
        -12    1    3    3    0    0  0.36089605399E+03 -0.25957806247E+03  0.43169481066E+00  0.44455249258E+03  0.00000000000E+00 0.  1.
          2    1    6    6  502    0 -0.23506311192E+03  0.39002213209E+03 -0.78255973215E+03  0.90541242784E+03  0.00000000000E+00 0. -1.
         -3    1    6    6    0  502 -0.77639914214E+02  0.92488286295E+02 -0.14425824328E+03  0.18812889235E+03  0.00000000000E+00 0.  1.
<mgrwt>
<rscale>  0 0.75247371E+03</rscale>
<asrwt>0</asrwt>
<pdfrwt beam="1">  1        1 0.28752578E+00 0.75247371E+03</pdfrwt>
<pdfrwt beam="2">  1       -2 0.67867302E-01 0.75247371E+03</pdfrwt>
<totfact> 0.66384849E+00</totfact>
</mgrwt>
</event>
<event>
12    3  0.2212098E-007  0.8463438E+03  0.7818608E-02  0.9495257E-01
         -2   -1    0    0    0  501 -0.00000000000E+00  0.00000000000E+00  0.13800468859E+04  0.13800468859E+04  0.00000000000E+00 0.  1.
          1   -1    0    0  501    0  0.00000000000E+00 -0.00000000000E+00 -0.54820127332E+03  0.54820127332E+03  0.00000000000E+00 0. -1.
        -24    2    1    2    0    0 -0.66157397684E+03  0.36101209678E+03  0.50125666587E+03  0.90976954824E+03  0.91719817728E+02 0.  0.
    5000000    2    1    2    0    0  0.66157397684E+03 -0.36101209678E+03  0.33058894676E+03  0.10184786110E+04  0.59999980710E+03 0.  0.
        -24    2    4    4    0    0 -0.56669848843E+02  0.68197285475E+02  0.13848548035E+02  0.12022235999E+03  0.79995575160E+02 0.  0.
         24    2    4    4    0    0  0.71824382569E+03 -0.42920938226E+03  0.31674039872E+03  0.89825625103E+03  0.80280292536E+02 0.  0.
         11    1    3    3    0    0 -0.31852975116E+03  0.12236935528E+03  0.23307317103E+03  0.41322943330E+03  0.00000000000E+00 0. -1.
        -12    1    3    3    0    0 -0.34304422568E+03  0.23864274150E+03  0.26818349483E+03  0.49654011494E+03  0.00000000000E+00 0.  1.
         13    1    5    5    0    0 -0.51015782185E+02  0.35830911437E+02 -0.26882862791E+02  0.67890739856E+02  0.00000000000E+00 0. -1.
        -14    1    5    5    0    0 -0.56540666579E+01  0.32366374038E+02  0.40731410826E+02  0.52331620136E+02  0.00000000000E+00 0.  1.
          2    1    6    6  502    0  0.35708810687E+03 -0.18271077795E+03  0.11925808124E+03  0.41847058963E+03  0.00000000000E+00 0. -1.
         -1    1    6    6    0  502  0.36115571882E+03 -0.24649860431E+03  0.19748231749E+03  0.47978566140E+03  0.00000000000E+00 0.  1.
<mgrwt>
<rscale>  0 0.84634376E+03</rscale>
<asrwt>0</asrwt>
<pdfrwt beam="1">  1        1 0.84338658E-01 0.84634376E+03</pdfrwt>
<pdfrwt beam="2">  1       -2 0.21231490E+00 0.84634376E+03</pdfrwt>
<totfact> 0.38337237E+00</totfact>
</mgrwt>
</event>
<event>
12    3  0.2212098E-007  0.2431701E+04  0.7818608E-02  0.8427730E-01
         -2   -1    0    0    0  501 -0.00000000000E+00  0.00000000000E+00  0.17210759296E+04  0.17210759296E+04  0.00000000000E+00 0.  1.
          1   -1    0    0  501    0  0.00000000000E+00 -0.00000000000E+00 -0.34545639558E+04  0.34545639558E+04  0.00000000000E+00 0. -1.
        -24    2    1    2    0    0  0.87975501383E+03 -0.22334813723E+04 -0.81703913268E+03  0.25370351301E+04  0.81156529626E+02 0.  0.
    5000000    2    1    2    0    0 -0.87975501383E+03  0.22334813723E+04 -0.91644889347E+03  0.26386047552E+04  0.59995712771E+03 0.  0.
        -24    2    4    4    0    0  0.30602332809E+02  0.49217143299E+02 -0.82392937916E+02  0.12822954347E+03  0.79343491431E+02 0.  0.
         24    2    4    4    0    0 -0.91035734664E+03  0.21842642290E+04 -0.83405595556E+03  0.25103752118E+04  0.81078024363E+02 0.  0.
         13    1    5    5    0    0  0.68488397351E+01 -0.20899653401E+02 -0.83487034683E+01  0.23524518435E+02  0.00000000000E+00 0. -1.
        -14    1    5    5    0    0  0.23753493074E+02  0.70116796700E+02 -0.74044234448E+02  0.10470502504E+03  0.00000000000E+00 0.  1.
         13    1    3    3    0    0  0.31857856321E+03 -0.87209928658E+03 -0.34981876914E+03  0.99218074858E+03  0.00000000000E+00 0. -1.
        -14    1    3    3    0    0  0.56117645062E+03 -0.13613820857E+04 -0.46722036353E+03  0.15448543815E+04  0.00000000000E+00 0.  1.
          2    1    6    6  502    0 -0.65053938716E+03  0.15490033816E+04 -0.55323783916E+03  0.17688089431E+04  0.00000000000E+00 0. -1.
         -1    1    6    6    0  502 -0.25981795949E+03  0.63526084739E+03 -0.28081811640E+03  0.74156626865E+03  0.00000000000E+00 0.  1.
<mgrwt>
<rscale>  0 0.24317007E+04</rscale>
<asrwt>0</asrwt>
<pdfrwt beam="1">  1        1 0.53147137E+00 0.24317007E+04</pdfrwt>
<pdfrwt beam="2">  1       -2 0.26478091E+00 0.24317007E+04</pdfrwt>
<totfact> 0.10533346E-02</totfact>
</mgrwt>
</event>
<event>
12    3  0.2212098E-007  0.7525483E+03  0.7818608E-02  0.9631361E-01
         -2   -1    0    0    0  501 -0.00000000000E+00  0.00000000000E+00  0.36871863801E+03  0.36871863801E+03  0.00000000000E+00 0.  1.
          1   -1    0    0  501    0  0.00000000000E+00 -0.00000000000E+00 -0.18103858982E+04  0.18103858982E+04  0.00000000000E+00 0. -1.
        -24    2    1    2    0    0 -0.29353728183E+03  0.60369363813E+03 -0.90967057098E+03  0.11332987799E+04  0.79091290732E+02 0.  0.
    5000000    2    1    2    0    0  0.29353728183E+03 -0.60369363813E+03 -0.53199668926E+03  0.10458057564E+04  0.60006587813E+03 0.  0.
        -24    2    4    4    0    0 -0.44659424681E+02 -0.45113598389E+03 -0.47759039415E+03  0.66220295268E+03  0.70014468344E+02 0.  0.
         24    2    4    4    0    0  0.33819670651E+03 -0.15255765425E+03 -0.54406295105E+02  0.38360280368E+03  0.80871601188E+02 0.  0.
         13    1    3    3    0    0 -0.23125435726E+03  0.49845642970E+03 -0.78909010710E+03  0.96156153583E+03  0.00000000000E+00 0. -1.
        -14    1    3    3    0    0 -0.62282924566E+02  0.10523720844E+03 -0.12058046387E+03  0.17173724407E+03  0.00000000000E+00 0.  1.
         13    1    5    5    0    0 -0.15158222956E+02 -0.45448248746E+02 -0.80973357202E+02  0.94085065839E+02  0.00000000000E+00 0. -1.
        -14    1    5    5    0    0 -0.29501201725E+02 -0.40568773514E+03 -0.39661703695E+03  0.56811788684E+03  0.00000000000E+00 0.  1.
          4    1    6    6  502    0  0.21354225152E+03 -0.13533183425E+03 -0.22702174094E+02  0.25383141502E+03  0.00000000000E+00 0. -1.
         -1    1    6    6    0  502  0.12465445499E+03 -0.17225819997E+02 -0.31704121011E+02  0.12977138865E+03  0.00000000000E+00 0.  1.
<mgrwt>
<rscale>  0 0.75254829E+03</rscale>
<asrwt>0</asrwt>
<pdfrwt beam="1">  1        1 0.27852091E+00 0.75254829E+03</pdfrwt>
<pdfrwt beam="2">  1       -2 0.56725944E-01 0.75254829E+03</pdfrwt>
<totfact> 0.10639460E+01</totfact>
</mgrwt>
</event>
<event>
12    3  0.2212098E-007  0.3407768E+03  0.7818608E-02  0.1066466E+00
          1   -1    0    0  501    0  0.00000000000E+00  0.00000000000E+00  0.22887668567E+03  0.22887668567E+03  0.00000000000E+00 0. -1.
         -2   -1    0    0    0  501 -0.00000000000E+00 -0.00000000000E+00 -0.56232263158E+03  0.56232263158E+03  0.00000000000E+00 0.  1.
        -24    2    1    2    0    0  0.25475585324E+02 -0.65860056974E+02 -0.83432994656E+02  0.13731116544E+03  0.83106792766E+02 0.  0.
    5000000    2    1    2    0    0 -0.25475585324E+02  0.65860056974E+02 -0.25001295126E+03  0.65388815182E+03  0.60006390222E+03 0.  0.
        -24    2    4    4    0    0  0.12489843432E+03  0.28764049780E+03 -0.15557915607E+03  0.35907272222E+03  0.79947927840E+02 0.  0.
         24    2    4    4    0    0 -0.15037401964E+03 -0.22178044083E+03 -0.94433795181E+02  0.29481542960E+03  0.78736815643E+02 0.  0.
         13    1    5    5    0    0  0.50483946108E+02  0.20493953449E+03 -0.11697749257E+03  0.24131426684E+03  0.00000000000E+00 0. -1.
        -14    1    5    5    0    0  0.74414488212E+02  0.82700963315E+02 -0.38601663504E+02  0.11775845538E+03  0.00000000000E+00 0.  1.
         13    1    3    3    0    0  0.36883806137E+02 -0.34529543896E+02 -0.34329626403E+01  0.50640791753E+02  0.00000000000E+00 0. -1.
        -14    1    3    3    0    0 -0.11408220814E+02 -0.31330513078E+02 -0.80000032015E+02  0.86670373683E+02  0.00000000000E+00 0.  1.
          2    1    6    6  502    0 -0.81240960500E+02 -0.65073286766E+02 -0.59884645761E+02  0.12008662337E+03  0.00000000000E+00 0. -1.
         -1    1    6    6    0  502 -0.69133059145E+02 -0.15670715406E+03 -0.34549149420E+02  0.17472880623E+03  0.00000000000E+00 0.  1.
<mgrwt>
<rscale>  0 0.34077676E+03</rscale>
<asrwt>0</asrwt>
<pdfrwt beam="1">  1        1 0.35211798E-01 0.34077676E+03</pdfrwt>
<pdfrwt beam="2">  1       -2 0.86511173E-01 0.34077676E+03</pdfrwt>
<totfact> 0.13011504E+02</totfact>
</mgrwt>
</event>
<event>
12    3  0.2212098E-007  0.5629947E+03  0.7818608E-02  0.9985301E-01
          1   -1    0    0  501    0  0.00000000000E+00  0.00000000000E+00  0.16849886518E+04  0.16849886518E+04  0.00000000000E+00 0. -1.
         -2   -1    0    0    0  501 -0.00000000000E+00 -0.00000000000E+00 -0.24182038707E+03  0.24182038707E+03  0.00000000000E+00 0.  1.
        -24    2    1    2    0    0  0.38777573910E+03  0.18936482427E+03  0.92589881648E+03  0.10246833731E+04  0.80363775070E+02 0.  0.
    5000000    2    1    2    0    0 -0.38777573910E+03 -0.18936482427E+03  0.51726944821E+03  0.90212566567E+03  0.60002831108E+03 0.  0.
        -24    2    4    4    0    0  0.13193713428E+03  0.14321618979E+02  0.20641945106E+03  0.25807615216E+03  0.79886133744E+02 0.  0.
         24    2    4    4    0    0 -0.51971287339E+03 -0.20368644325E+03  0.31084999715E+03  0.64404951351E+03  0.81132097219E+02 0.  0.
         11    1    3    3    0    0  0.28972420961E+03  0.12938049343E+03  0.75233056102E+03  0.81650517620E+03  0.00000000000E+00 0. -1.
        -12    1    3    3    0    0  0.98051529488E+02  0.59984330847E+02  0.17356825545E+03  0.20817819695E+03  0.00000000000E+00 0.  1.
         13    1    5    5    0    0  0.90324393634E+02  0.17036345785E+02  0.19382364735E+03  0.21451419402E+03  0.00000000000E+00 0. -1.
        -14    1    5    5    0    0  0.41612740648E+02 -0.27147268052E+01  0.12595803707E+02  0.43561958139E+02  0.00000000000E+00 0.  1.
          4    1    6    6  502    0 -0.45231573018E+03 -0.15986515923E+03  0.29152960799E+03  0.56136966540E+03  0.00000000000E+00 0. -1.
         -3    1    6    6    0  502 -0.67397143209E+02 -0.43821284024E+02  0.19320389166E+02  0.82679848111E+02  0.00000000000E+00 0.  1.
<mgrwt>
<rscale>  0 0.56299469E+03</rscale>
<asrwt>0</asrwt>
<pdfrwt beam="1">  1        1 0.25922902E+00 0.56299469E+03</pdfrwt>
<pdfrwt beam="2">  1       -2 0.37203137E-01 0.56299469E+03</pdfrwt>
<totfact> 0.30857531E+01</totfact>
</mgrwt>
</event>
<event>
12    3  0.2212098E-007  0.6881452E+03  0.7818608E-02  0.9737723E-01
         -2   -1    0    0    0  501 -0.00000000000E+00  0.00000000000E+00  0.49575120401E+03  0.49575120401E+03  0.00000000000E+00 0.  1.
          1   -1    0    0  501    0  0.00000000000E+00 -0.00000000000E+00 -0.21761149401E+04  0.21761149401E+04  0.00000000000E+00 0. -1.
        -24    2    1    2    0    0  0.22540707544E+03  0.54805729358E+03  0.18418634928E+03  0.62545591213E+03  0.78072658833E+02 0.  0.
    5000000    2    1    2    0    0 -0.22540707544E+03 -0.54805729358E+03 -0.18645500853E+04  0.20464102319E+04  0.60006055527E+03 0.  0.
        -24    2    4    4    0    0  0.13061498157E+03 -0.34241602382E+03 -0.12278162978E+04  0.12837601250E+04  0.78728587302E+02 0.  0.
         24    2    4    4    0    0 -0.35602205700E+03 -0.20564126976E+03 -0.63673378749E+03  0.76265010696E+03  0.84647697089E+02 0.  0.
         11    1    5    5    0    0  0.75544762531E+02 -0.23542739626E+03 -0.69944113071E+03  0.74185643178E+03  0.00000000000E+00 0. -1.
        -12    1    5    5    0    0  0.55070219035E+02 -0.10698862756E+03 -0.52837516713E+03  0.54190369319E+03  0.00000000000E+00 0.  1.
         13    1    3    3    0    0  0.11622298748E+03  0.37807868554E+03  0.11511159267E+03  0.41194897019E+03  0.00000000000E+00 0. -1.
        -14    1    3    3    0    0  0.10918408796E+03  0.16997860804E+03  0.69074756604E+02  0.21350694194E+03  0.00000000000E+00 0.  1.
          2    1    6    6  502    0 -0.28931216795E+02 -0.16995058069E+02 -0.10685038177E+03  0.11199487215E+03  0.00000000000E+00 0. -1.
         -1    1    6    6    0  502 -0.32709084021E+03 -0.18864621169E+03 -0.52988340572E+03  0.65065523481E+03  0.00000000000E+00 0.  1.
<mgrwt>
<rscale>  0 0.68814522E+03</rscale>
<asrwt>0</asrwt>
<pdfrwt beam="1">  1        1 0.33478691E+00 0.68814522E+03</pdfrwt>
<pdfrwt beam="2">  1       -2 0.76269416E-01 0.68814522E+03</pdfrwt>
<totfact> 0.32378551E+00</totfact>
</mgrwt>
</event>
<event>
12    3  0.2212098E-007  0.1217913E+04  0.7818608E-02  0.9097321E-01
          1   -1    0    0  501    0  0.00000000000E+00  0.00000000000E+00  0.51230860987E+04  0.51230860987E+04  0.00000000000E+00 0. -1.
         -2   -1    0    0    0  501 -0.00000000000E+00 -0.00000000000E+00 -0.31403120452E+03  0.31403120452E+03  0.00000000000E+00 0.  1.
        -24    2    1    2    0    0 -0.74547954377E+03  0.92493499665E+03  0.25705219341E+04  0.28328341702E+04  0.78242725702E+02 0.  0.
    5000000    2    1    2    0    0  0.74547954377E+03 -0.92493499665E+03  0.22385329601E+04  0.26042831330E+04  0.60001360418E+03 0.  0.
        -24    2    4    4    0    0  0.50773295785E+03 -0.34476260939E+03  0.15518919671E+04  0.16709918451E+04  0.84800091161E+02 0.  0.
         24    2    4    4    0    0  0.23774658593E+03 -0.58017238725E+03  0.68664099296E+03  0.93329128790E+03  0.80208084313E+02 0.  0.
         11    1    3    3    0    0 -0.56107193658E+03  0.71781108873E+03  0.18963749212E+04  0.21038755474E+04  0.00000000000E+00 0. -1.
        -12    1    3    3    0    0 -0.18440760719E+03  0.20712390792E+03  0.67414701287E+03  0.72895862282E+03  0.00000000000E+00 0.  1.
         11    1    5    5    0    0  0.20625680323E+02 -0.31784678418E+01  0.26818420775E+02  0.33981598542E+02  0.00000000000E+00 0. -1.
        -12    1    5    5    0    0  0.48710727752E+03 -0.34158414155E+03  0.15250735463E+04  0.16370102465E+04  0.00000000000E+00 0.  1.
          2    1    6    6  502    0  0.33470198416E+02 -0.30739261498E+02  0.59288807054E+02  0.74701532925E+02  0.00000000000E+00 0. -1.
         -1    1    6    6    0  502  0.20427638751E+03 -0.54943312576E+03  0.62735218591E+03  0.85858975497E+03  0.00000000000E+00 0.  1.
<mgrwt>
<rscale>  0 0.12179125E+04</rscale>
<asrwt>0</asrwt>
<pdfrwt beam="1">  1        1 0.78816703E+00 0.12179125E+04</pdfrwt>
<pdfrwt beam="2">  1       -2 0.48312497E-01 0.12179125E+04</pdfrwt>
<totfact> 0.22310001E-02</totfact>
</mgrwt>
</event>
<event>
12    3  0.2212098E-007  0.1202669E+04  0.7818608E-02  0.9110523E-01
         -2   -1    0    0    0  501 -0.00000000000E+00  0.00000000000E+00  0.16454075882E+04  0.16454075882E+04  0.00000000000E+00 0.  1.
          1   -1    0    0  501    0  0.00000000000E+00 -0.00000000000E+00 -0.26788382213E+04  0.26788382213E+04  0.00000000000E+00 0. -1.
        -24    2    1    2    0    0 -0.11945667576E+04  0.65530977311E+02 -0.22281533474E+04  0.25301741547E+04  0.76353558794E+02 0.  0.
    5000000    2    1    2    0    0  0.11945667576E+04 -0.65530977311E+02  0.11947227143E+04  0.17940716549E+04  0.60003890829E+03 0.  0.
        -24    2    4    4    0    0  0.66899384136E+03 -0.82531672129E+02  0.27587260340E+03  0.73240004342E+03  0.77070705285E+02 0.  0.
         24    2    4    4    0    0  0.52557291623E+03  0.17000694818E+02  0.91885011089E+03  0.10616716115E+04  0.79656577810E+02 0.  0.
         13    1    3    3    0    0 -0.95947060676E+03  0.78752053074E+02 -0.18222120923E+04  0.20608839464E+04  0.00000000000E+00 0. -1.
        -14    1    3    3    0    0 -0.23509615083E+03 -0.13221075763E+02 -0.40594125509E+03  0.46929020826E+03  0.00000000000E+00 0.  1.
         13    1    5    5    0    0  0.44687183078E+03 -0.28127047626E+02  0.20902361020E+03  0.49414211880E+03  0.00000000000E+00 0. -1.
        -14    1    5    5    0    0  0.22212201058E+03 -0.54404624503E+02  0.66848993197E+02  0.23825792462E+03  0.00000000000E+00 0.  1.
          2    1    6    6  502    0  0.52767271362E+03  0.18737055594E+02  0.90683874791E+03  0.10493550803E+04  0.00000000000E+00 0. -1.
         -1    1    6    6    0  502 -0.20997973851E+01 -0.17363607757E+01  0.12011362986E+02  0.12316531110E+02  0.00000000000E+00 0.  1.
<mgrwt>
<rscale>  0 0.12026693E+04</rscale>
<asrwt>0</asrwt>
<pdfrwt beam="1">  1        1 0.41212896E+00 0.12026693E+04</pdfrwt>
<pdfrwt beam="2">  1       -2 0.25313963E+00 0.12026693E+04</pdfrwt>
<totfact> 0.53823583E-02</totfact>
</mgrwt>
</event>
<event>
12    3  0.2212098E-007  0.5788899E+03  0.7818608E-02  0.9950197E-01
          1   -1    0    0  501    0  0.00000000000E+00  0.00000000000E+00  0.56952381407E+03  0.56952381407E+03  0.00000000000E+00 0. -1.
         -2   -1    0    0    0  501 -0.00000000000E+00 -0.00000000000E+00 -0.64818964456E+03  0.64818964456E+03  0.00000000000E+00 0.  1.
        -24    2    1    2    0    0 -0.41474271652E+03  0.18242296161E+03  0.12633577298E+02  0.46027277545E+03  0.80011016249E+02 0.  0.
    5000000    2    1    2    0    0  0.41474271652E+03 -0.18242296161E+03 -0.91299407786E+02  0.75744068318E+03  0.60007595257E+03 0.  0.
        -24    2    4    4    0    0  0.49201884835E+03 -0.27480332455E+03  0.29183287966E+02  0.56994089228E+03  0.79884554749E+02 0.  0.
         24    2    4    4    0    0 -0.77276131829E+02  0.92380362940E+02 -0.12048269575E+03  0.18749979090E+03  0.78322152702E+02 0.  0.
         13    1    5    5    0    0  0.36076832708E+03 -0.16382007424E+03  0.36524660137E+02  0.39790055711E+03  0.00000000000E+00 0. -1.
        -14    1    5    5    0    0  0.13125052127E+03 -0.11098325031E+03 -0.73413721714E+01  0.17204033518E+03  0.00000000000E+00 0.  1.
         13    1    3    3    0    0 -0.21003716901E+03  0.81270910261E+02  0.44978737011E+02  0.22965987896E+03  0.00000000000E+00 0. -1.
        -14    1    3    3    0    0 -0.20470554750E+03  0.10115205135E+03 -0.32345159713E+02  0.23061289649E+03  0.00000000000E+00 0.  1.
          4    1    6    6  502    0 -0.60709531676E+02  0.23196440990E+02 -0.87736318304E+02  0.10918508900E+03  0.00000000000E+00 0. -1.
         -3    1    6    6    0  502 -0.16566600153E+02  0.69183921951E+02 -0.32746377447E+02  0.78314701896E+02  0.00000000000E+00 0.  1.
<mgrwt>
<rscale>  0 0.57888990E+03</rscale>
<asrwt>0</asrwt>
<pdfrwt beam="1">  1        1 0.87619049E-01 0.57888990E+03</pdfrwt>
<pdfrwt beam="2">  1       -2 0.99721483E-01 0.57888990E+03</pdfrwt>
<totfact> 0.27800310E+01</totfact>
</mgrwt>
</event>
<event>
12    3  0.2212098E-007  0.1187509E+04  0.7818608E-02  0.9123861E-01
          1   -1    0    0  501    0  0.00000000000E+00  0.00000000000E+00  0.17880642540E+04  0.17880642540E+04  0.00000000000E+00 0. -1.
         -2   -1    0    0    0  501 -0.00000000000E+00 -0.00000000000E+00 -0.84307230118E+03  0.84307230118E+03  0.00000000000E+00 0.  1.
        -24    2    1    2    0    0 -0.10219615391E+04  0.46129270946E+03  0.73290734998E+03  0.13419025184E+04  0.79704667532E+02 0.  0.
    5000000    2    1    2    0    0  0.10219615391E+04 -0.46129270946E+03  0.21208460286E+03  0.12892340368E+04  0.59995680813E+03 0.  0.
        -24    2    4    4    0    0  0.89252031323E+03 -0.57573518437E+03  0.25394185614E+03  0.10949072972E+04  0.79196029560E+02 0.  0.
         24    2    4    4    0    0  0.12944122588E+03  0.11444247490E+03 -0.41857253280E+02  0.19432673960E+03  0.78477646823E+02 0.  0.
         11    1    3    3    0    0 -0.33279297859E+03  0.13702159017E+03  0.19372946927E+03  0.40872630211E+03  0.00000000000E+00 0. -1.
        -12    1    3    3    0    0 -0.68916856052E+03  0.32427111929E+03  0.53917788072E+03  0.93317621630E+03  0.00000000000E+00 0.  1.
         13    1    5    5    0    0  0.23504476276E+03 -0.18944981476E+03  0.55419377874E+02  0.30693416274E+03  0.00000000000E+00 0. -1.
        -14    1    5    5    0    0  0.65747555047E+03 -0.38628536960E+03  0.19852247827E+03  0.78797313445E+03  0.00000000000E+00 0.  1.
          2    1    6    6  502    0  0.15923855064E+02  0.61947811540E+02 -0.22309622518E+02  0.67740827951E+02  0.00000000000E+00 0. -1.
         -1    1    6    6    0  502  0.11351737082E+03  0.52494663365E+02 -0.19547630762E+02  0.12658591165E+03  0.00000000000E+00 0.  1.
<mgrwt>
<rscale>  0 0.11875088E+04</rscale>
<asrwt>0</asrwt>
<pdfrwt beam="1">  1        1 0.27508681E+00 0.11875088E+04</pdfrwt>
<pdfrwt beam="2">  1       -2 0.12970343E+00 0.11875088E+04</pdfrwt>
<totfact> 0.15582357E+00</totfact>
</mgrwt>
</event>
<event>
12    3  0.2212098E-007  0.1042477E+04  0.7818608E-02  0.9263145E-01
          1   -1    0    0  501    0  0.00000000000E+00  0.00000000000E+00  0.60211250245E+03  0.60211250245E+03  0.00000000000E+00 0. -1.
         -4   -1    0    0    0  501 -0.00000000000E+00 -0.00000000000E+00 -0.21227888074E+04  0.21227888074E+04  0.00000000000E+00 0.  1.
        -24    2    1    2    0    0 -0.41536449668E+03 -0.94682694459E+03 -0.92345302825E+03  0.13886581761E+04  0.81222574193E+02 0.  0.
    5000000    2    1    2    0    0  0.41536449668E+03  0.94682694459E+03 -0.59722327666E+03  0.13362431337E+04  0.59988427393E+03 0.  0.
        -24    2    4    4    0    0  0.27371609387E+03  0.75520611815E+03 -0.69641531811E+03  0.10658012426E+04  0.75373819101E+02 0.  0.
         24    2    4    4    0    0  0.14164840281E+03  0.19162082644E+03  0.99192041443E+02  0.27044189107E+03  0.80727592636E+02 0.  0.
         11    1    3    3    0    0 -0.21374697495E+03 -0.46334156016E+03 -0.40287076180E+03  0.65013692511E+03  0.00000000000E+00 0. -1.
        -12    1    3    3    0    0 -0.20161752172E+03 -0.48348538443E+03 -0.52058226645E+03  0.73852125099E+03  0.00000000000E+00 0.  1.
         13    1    5    5    0    0  0.17021737424E+03  0.55258950409E+03 -0.52412656834E+03  0.78040872251E+03  0.00000000000E+00 0. -1.
        -14    1    5    5    0    0  0.10349871963E+03  0.20261661406E+03 -0.17228874977E+03  0.28539252014E+03  0.00000000000E+00 0.  1.
          2    1    6    6  502    0  0.16930421640E+02  0.54588462099E+00  0.25590831846E+02  0.30689213764E+02  0.00000000000E+00 0. -1.
         -1    1    6    6    0  502  0.12471798117E+03  0.19107494182E+03  0.73601209598E+02  0.23975267730E+03  0.00000000000E+00 0.  1.
<mgrwt>
<rscale>  0 0.10424772E+04</rscale>
<asrwt>0</asrwt>
<pdfrwt beam="1">  1        1 0.92632694E-01 0.10424772E+04</pdfrwt>
<pdfrwt beam="2">  1       -4 0.32658289E+00 0.10424772E+04</pdfrwt>
<totfact> 0.34055721E-01</totfact>
</mgrwt>
</event>
<event>
12    3  0.2212098E-007  0.8558305E+03  0.7818608E-02  0.9482545E-01
         -2   -1    0    0    0  501 -0.00000000000E+00  0.00000000000E+00  0.80568764271E+03  0.80568764271E+03  0.00000000000E+00 0.  1.
          1   -1    0    0  501    0  0.00000000000E+00 -0.00000000000E+00 -0.13481114864E+04  0.13481114864E+04  0.00000000000E+00 0. -1.
        -24    2    1    2    0    0 -0.58427799536E+03 -0.58809101192E+03 -0.73711831428E+03  0.11119951008E+04  0.77187309984E+02 0.  0.
    5000000    2    1    2    0    0  0.58427799536E+03  0.58809101192E+03  0.19469447058E+03  0.10418040283E+04  0.60018154118E+03 0.  0.
        -24    2    4    4    0    0  0.32552749205E+03  0.49686592791E+03  0.37150261398E+03  0.70587104479E+03  0.85999077213E+02 0.  0.
         24    2    4    4    0    0  0.25875050331E+03  0.91225084004E+02 -0.17680814339E+03  0.33593298352E+03  0.79473334737E+02 0.  0.
         11    1    3    3    0    0 -0.26025314798E+03 -0.31150166481E+03 -0.33776025272E+03  0.52805963350E+03  0.00000000000E+00 0. -1.
        -12    1    3    3    0    0 -0.32402484738E+03 -0.27658934710E+03 -0.39935806157E+03  0.58393546732E+03  0.00000000000E+00 0.  1.
         13    1    5    5    0    0  0.19710848141E+03  0.28672505948E+03  0.16790219885E+03  0.38633426143E+03  0.00000000000E+00 0. -1.
        -14    1    5    5    0    0  0.12841901064E+03  0.21014086843E+03  0.20360041513E+03  0.31953678336E+03  0.00000000000E+00 0.  1.
          4    1    6    6  502    0  0.55185319714E+02  0.56551822526E+02 -0.44496429444E+02  0.90683297118E+02  0.00000000000E+00 0. -1.
         -3    1    6    6    0  502  0.20356518359E+03  0.34673261478E+02 -0.13231171395E+03  0.24524968640E+03  0.00000000000E+00 0.  1.
<mgrwt>
<rscale>  0 0.85583050E+03</rscale>
<asrwt>0</asrwt>
<pdfrwt beam="1">  1        1 0.20740177E+00 0.85583050E+03</pdfrwt>
<pdfrwt beam="2">  1       -2 0.12395195E+00 0.85583050E+03</pdfrwt>
<totfact> 0.36469468E+00</totfact>
</mgrwt>
</event>
<event>
12    3  0.2212098E-007  0.6285196E+03  0.7818608E-02  0.9847942E-01
         -4   -1    0    0    0  501 -0.00000000000E+00  0.00000000000E+00  0.10058759994E+04  0.10058759994E+04  0.00000000000E+00 0.  1.
          1   -1    0    0  501    0  0.00000000000E+00 -0.00000000000E+00 -0.43623051314E+03  0.43623051314E+03  0.00000000000E+00 0. -1.
        -24    2    1    2    0    0  0.36644164587E+02 -0.48626513672E+03  0.20851272111E+02  0.49434705715E+03  0.78407011003E+02 0.  0.
    5000000    2    1    2    0    0 -0.36644164587E+02  0.48626513672E+03  0.54879421412E+03  0.94775945537E+03  0.59939662812E+03 0.  0.
        -24    2    4    4    0    0 -0.65607682135E+02  0.61211558733E+03  0.42447306682E+03  0.75206913281E+03  0.80254195256E+02 0.  0.
         24    2    4    4    0    0  0.28963517548E+02 -0.12585045061E+03  0.12432114730E+03  0.19569032256E+03  0.78496709549E+02 0.  0.
         13    1    3    3    0    0  0.47491536664E+02 -0.20753323639E+03  0.31420797709E+02  0.21520398879E+03  0.00000000000E+00 0. -1.
        -14    1    3    3    0    0 -0.10847372077E+02 -0.27873190032E+03 -0.10569525598E+02  0.27914306836E+03  0.00000000000E+00 0.  1.
         13    1    5    5    0    0 -0.41241781930E+02  0.45254803288E+03  0.35354660461E+03  0.57575672664E+03  0.00000000000E+00 0. -1.
        -14    1    5    5    0    0 -0.24365900205E+02  0.15956755445E+03  0.70926462209E+02  0.17631240617E+03  0.00000000000E+00 0.  1.
          4    1    6    6  502    0  0.54117335393E+02 -0.97055614602E+02  0.10486185104E+03  0.15278902487E+03  0.00000000000E+00 0. -1.
         -3    1    6    6    0  502 -0.25153817845E+02 -0.28794836013E+02  0.19459296263E+02  0.42901297699E+02  0.00000000000E+00 0.  1.
<mgrwt>
<rscale>  0 0.62851961E+03</rscale>
<asrwt>0</asrwt>
<pdfrwt beam="1">  1        1 0.67112387E-01 0.62851961E+03</pdfrwt>
<pdfrwt beam="2">  1       -4 0.15475015E+00 0.62851961E+03</pdfrwt>
<totfact> 0.70767154E+00</totfact>
</mgrwt>
</event>
<event>
12    3  0.2212098E-007  0.9420469E+03  0.7818608E-02  0.9374495E-01
          1   -1    0    0  501    0  0.00000000000E+00  0.00000000000E+00  0.20202665160E+04  0.20202665160E+04  0.00000000000E+00 0. -1.
         -2   -1    0    0    0  501 -0.00000000000E+00 -0.00000000000E+00 -0.12295765139E+04  0.12295765139E+04  0.00000000000E+00 0.  1.
        -24    2    1    2    0    0 -0.72987415035E+03 -0.44218603362E+03 -0.91286952770E+03  0.12522585660E+04  0.81092403718E+02 0.  0.
    5000000    2    1    2    0    0  0.72987415035E+03  0.44218603362E+03  0.17035595298E+04  0.19975844639E+04  0.59998654575E+03 0.  0.
        -24    2    4    4    0    0  0.39536005651E+03 -0.84196074423E+02  0.74271073957E+03  0.84934435800E+03  0.79800016021E+02 0.  0.
         24    2    4    4    0    0  0.33451409384E+03  0.52638210805E+03  0.96084879025E+03  0.11482401059E+04  0.79038853895E+02 0.  0.
         11    1    5    5    0    0  0.10152703424E+03 -0.24836260721E+02  0.12655121578E+03  0.16413344798E+03  0.00000000000E+00 0. -1.
        -12    1    5    5    0    0  0.29383302227E+03 -0.59359813702E+02  0.61615952378E+03  0.68521091002E+03  0.00000000000E+00 0.  1.
         13    1    3    3    0    0 -0.57403849485E+03 -0.34530179715E+03 -0.66558855147E+03  0.94433132137E+03  0.00000000000E+00 0. -1.
        -14    1    3    3    0    0 -0.15583565550E+03 -0.96884236477E+02 -0.24728097623E+03  0.30792724467E+03  0.00000000000E+00 0.  1.
          4    1    6    6  502    0  0.10705954818E+03  0.22170386392E+03  0.33093002536E+03  0.41246700694E+03  0.00000000000E+00 0. -1.
         -3    1    6    6    0  502  0.22745454567E+03  0.30467824413E+03  0.62991876490E+03  0.73577309896E+03  0.00000000000E+00 0.  1.
<mgrwt>
<rscale>  0 0.94204693E+03</rscale>
<asrwt>0</asrwt>
<pdfrwt beam="1">  1        1 0.31081023E+00 0.94204693E+03</pdfrwt>
<pdfrwt beam="2">  1       -2 0.18916562E+00 0.94204693E+03</pdfrwt>
<totfact> 0.40322476E-01</totfact>
</mgrwt>
</event>
<event>
12    3  0.2212098E-007  0.9670990E+03  0.7818608E-02  0.9345385E-01
          3   -1    0    0  501    0  0.00000000000E+00  0.00000000000E+00  0.14806221337E+04  0.14806221337E+04  0.00000000000E+00 0. -1.
         -4   -1    0    0    0  501 -0.00000000000E+00 -0.00000000000E+00 -0.10041510497E+04  0.10041510497E+04  0.00000000000E+00 0.  1.
        -24    2    1    2    0    0  0.76520138155E+03  0.48484636371E+03 -0.48799042669E+03  0.10319913849E+04  0.79135398474E+02 0.  0.
    5000000    2    1    2    0    0 -0.76520138155E+03 -0.48484636371E+03  0.96446151073E+03  0.14527817985E+04  0.59981646986E+03 0.  0.
        -24    2    4    4    0    0 -0.75939316819E+03 -0.54127153302E+03  0.68956185070E+03  0.11625917405E+04  0.80443475845E+02 0.  0.
         24    2    4    4    0    0 -0.58082133604E+01  0.56425169312E+02  0.27489966003E+03  0.29019005795E+03  0.73640420782E+02 0.  0.
         13    1    3    3    0    0  0.15270502780E+03  0.75510347515E+02 -0.12100612087E+03  0.20895721903E+03  0.00000000000E+00 0. -1.
        -14    1    3    3    0    0  0.61249635375E+03  0.40933601619E+03 -0.36698430582E+03  0.82303416589E+03  0.00000000000E+00 0.  1.
         13    1    5    5    0    0 -0.56248461754E+03 -0.37015443917E+03  0.52869208154E+03  0.85610663523E+03  0.00000000000E+00 0. -1.
        -14    1    5    5    0    0 -0.19690855065E+03 -0.17111709384E+03  0.16086976916E+03  0.30648510527E+03  0.00000000000E+00 0.  1.
          4    1    6    6  502    0  0.30196917328E+02  0.57034621049E+01  0.93854694887E+02  0.98757718931E+02  0.00000000000E+00 0. -1.
         -3    1    6    6    0  502 -0.36005130689E+02  0.50721707207E+02  0.18104496514E+03  0.19143233902E+03  0.00000000000E+00 0.  1.
<mgrwt>
<rscale>  0 0.96709900E+03</rscale>
<asrwt>0</asrwt>
<pdfrwt beam="1">  1        3 0.22778802E+00 0.96709900E+03</pdfrwt>
<pdfrwt beam="2">  1       -4 0.15448478E+00 0.96709900E+03</pdfrwt>
<totfact> 0.60627801E-02</totfact>
</mgrwt>
</event>
<event>
12    3  0.2212098E-007  0.5241511E+03  0.7818608E-02  0.1007661E+00
          1   -1    0    0  501    0  0.00000000000E+00  0.00000000000E+00  0.28058266114E+04  0.28058266114E+04  0.00000000000E+00 0. -1.
         -2   -1    0    0    0  501 -0.00000000000E+00 -0.00000000000E+00 -0.41918403810E+03  0.41918403810E+03  0.00000000000E+00 0.  1.
        -24    2    1    2    0    0  0.51387653579E+02  0.35308359286E+03 -0.28496939111E+03  0.46371845648E+03  0.80737466695E+02 0.  0.
    5000000    2    1    2    0    0 -0.51387653579E+02 -0.35308359286E+03  0.26716119644E+04  0.27612921930E+04  0.59992947281E+03 0.  0.
        -24    2    4    4    0    0  0.72667651160E+01  0.15767710571E+03  0.74044220416E+03  0.76125327318E+03  0.79605355904E+02 0.  0.
         24    2    4    4    0    0 -0.58654418695E+02 -0.51076069857E+03  0.19311697603E+04  0.20000389199E+04  0.80138666743E+02 0.  0.
         11    1    3    3    0    0  0.56269854713E+02  0.14067111795E+03 -0.95913513611E+02  0.17931553772E+03  0.00000000000E+00 0. -1.
        -12    1    3    3    0    0 -0.48822011335E+01  0.21241247491E+03 -0.18905587750E+03  0.28440291876E+03  0.00000000000E+00 0.  1.
         13    1    5    5    0    0 -0.98930267684E+01  0.13864097393E+03  0.69774905552E+03  0.71145831650E+03  0.00000000000E+00 0. -1.
        -14    1    5    5    0    0  0.17159791884E+02  0.19036131780E+02  0.42693148640E+02  0.49794956687E+02  0.00000000000E+00 0.  1.
          2    1    6    6  502    0 -0.74314491217E+02 -0.32992763295E+03  0.13026301901E+04  0.13458158487E+04  0.00000000000E+00 0. -1.
         -1    1    6    6    0  502  0.15660072521E+02 -0.18083306561E+03  0.62853957021E+03  0.65422307114E+03  0.00000000000E+00 0.  1.
<mgrwt>
<rscale>  0 0.52415111E+03</rscale>
<asrwt>0</asrwt>
<pdfrwt beam="1">  1        1 0.43166562E+00 0.52415111E+03</pdfrwt>
<pdfrwt beam="2">  1       -2 0.64489854E-01 0.52415111E+03</pdfrwt>
<totfact> 0.18087992E+00</totfact>
</mgrwt>
</event>
<event>
12    3  0.2212098E-007  0.1398321E+04  0.7818608E-02  0.8955035E-01
          1   -1    0    0  501    0  0.00000000000E+00  0.00000000000E+00  0.17865679362E+04  0.17865679362E+04  0.00000000000E+00 0. -1.
         -2   -1    0    0    0  501 -0.00000000000E+00 -0.00000000000E+00 -0.15473126287E+04  0.15473126287E+04  0.00000000000E+00 0.  1.
        -24    2    1    2    0    0  0.29894576014E+03  0.13425527162E+04 -0.71827087177E+03  0.15536565217E+04  0.78225181418E+02 0.  0.
    5000000    2    1    2    0    0 -0.29894576014E+03 -0.13425527162E+04  0.95752617923E+03  0.17802240432E+04  0.60043725484E+03 0.  0.
        -24    2    4    4    0    0 -0.74489111788E+02 -0.10326570154E+04  0.42904948480E+03  0.11232115274E+04  0.74776570530E+02 0.  0.
         24    2    4    4    0    0 -0.22445664835E+03 -0.30989570073E+03  0.52847669443E+03  0.65701251586E+03  0.77212027093E+02 0.  0.
         11    1    3    3    0    0  0.20525545966E+03  0.86476315488E+03 -0.50356141148E+03  0.10215278816E+04  0.00000000000E+00 0. -1.
        -12    1    3    3    0    0  0.93690300474E+02  0.47778956129E+03 -0.21470946029E+03  0.53212864010E+03  0.00000000000E+00 0.  1.
         13    1    5    5    0    0 -0.33016919563E+02 -0.38049320804E+03  0.11996441453E+03  0.40032069531E+03  0.00000000000E+00 0. -1.
        -14    1    5    5    0    0 -0.41472192225E+02 -0.65216380740E+03  0.30908507027E+03  0.72289083206E+03  0.00000000000E+00 0.  1.
          4    1    6    6  502    0 -0.16049221514E+03 -0.25483519565E+03  0.36647579711E+03  0.47434506209E+03  0.00000000000E+00 0. -1.
         -3    1    6    6    0  502 -0.63964433206E+02 -0.55060505075E+02  0.16200089732E+03  0.18266745377E+03  0.00000000000E+00 0.  1.
<mgrwt>
<rscale>  0 0.13983212E+04</rscale>
<asrwt>0</asrwt>
<pdfrwt beam="1">  1        1 0.27485661E+00 0.13983212E+04</pdfrwt>
<pdfrwt beam="2">  1       -2 0.23804810E+00 0.13983212E+04</pdfrwt>
<totfact> 0.26447089E-01</totfact>
</mgrwt>
</event>
<event>
12    3  0.2212098E-007  0.4927312E+03  0.7818608E-02  0.1015694E+00
          1   -1    0    0  501    0  0.00000000000E+00  0.00000000000E+00  0.31470161535E+03  0.31470161535E+03  0.00000000000E+00 0. -1.
         -2   -1    0    0    0  501 -0.00000000000E+00 -0.00000000000E+00 -0.11247684545E+04  0.11247684545E+04  0.00000000000E+00 0.  1.
        -24    2    1    2    0    0  0.38053807481E+03  0.21632312339E+03 -0.26092237461E+03  0.51581292585E+03  0.79859682023E+02 0.  0.
    5000000    2    1    2    0    0 -0.38053807481E+03 -0.21632312339E+03 -0.54914446455E+03  0.92365714402E+03  0.59998163027E+03 0.  0.
        -24    2    4    4    0    0 -0.39641409642E+03 -0.85780494235E+02 -0.68331644423E+02  0.41908498115E+03  0.80377725559E+02 0.  0.
         24    2    4    4    0    0  0.15876021615E+02 -0.13054262915E+03 -0.48081282013E+03  0.50457216287E+03  0.78221949937E+02 0.  0.
         13    1    3    3    0    0  0.26717942798E+03  0.11037829916E+03 -0.15576649198E+03  0.32837694147E+03  0.00000000000E+00 0. -1.
        -14    1    3    3    0    0  0.11335864682E+03  0.10594482423E+03 -0.10515588263E+03  0.18743598439E+03  0.00000000000E+00 0.  1.
         13    1    5    5    0    0 -0.69271795493E+02 -0.21221811397E+02 -0.43961568633E+02  0.84744123374E+02  0.00000000000E+00 0. -1.
        -14    1    5    5    0    0 -0.32714230093E+03 -0.64558682837E+02 -0.24370075790E+02  0.33434085778E+03  0.00000000000E+00 0.  1.
          4    1    6    6  502    0 -0.87396932027E+01 -0.16724067628E+02 -0.19551857127E+03  0.19642705615E+03  0.00000000000E+00 0. -1.
         -3    1    6    6    0  502  0.24615714817E+02 -0.11381856153E+03 -0.28529424886E+03  0.30814510672E+03  0.00000000000E+00 0.  1.
<mgrwt>
<rscale>  0 0.49273117E+03</rscale>
<asrwt>0</asrwt>
<pdfrwt beam="1">  1        1 0.48415633E-01 0.49273117E+03</pdfrwt>
<pdfrwt beam="2">  1       -2 0.17304130E+00 0.49273117E+03</pdfrwt>
<totfact> 0.15282613E+01</totfact>
</mgrwt>
</event>
<event>
12    3  0.2212098E-007  0.8266506E+03  0.7818608E-02  0.9522223E-01
          1   -1    0    0  501    0  0.00000000000E+00  0.00000000000E+00  0.27117829966E+04  0.27117829966E+04  0.00000000000E+00 0. -1.
         -2   -1    0    0    0  501 -0.00000000000E+00 -0.00000000000E+00 -0.28841717151E+03  0.28841717151E+03  0.00000000000E+00 0.  1.
        -24    2    1    2    0    0 -0.67874025557E+03  0.37523960822E+03  0.92693590849E+03  0.12111198189E+04  0.78153305226E+02 0.  0.
    5000000    2    1    2    0    0  0.67874025557E+03 -0.37523960822E+03  0.14964299166E+04  0.17890803493E+04  0.60001075210E+03 0.  0.
        -24    2    4    4    0    0  0.53594193310E+03 -0.45707378027E+03  0.14259486824E+04  0.15924454128E+04  0.80015946998E+02 0.  0.
         24    2    4    4    0    0  0.14279832247E+03  0.81834172051E+02  0.70481234212E+02  0.19663493641E+03  0.81298839013E+02 0.  0.
         11    1    5    5    0    0  0.39200117820E+03 -0.33135007926E+03  0.95503105519E+03  0.10842241997E+04  0.00000000000E+00 0. -1.
        -12    1    5    5    0    0  0.14394075490E+03 -0.12572370101E+03  0.47091762721E+03  0.50822121319E+03  0.00000000000E+00 0.  1.
         11    1    3    3    0    0 -0.25023499580E+03  0.10279715492E+03  0.29089197282E+03  0.39724419195E+03  0.00000000000E+00 0. -1.
        -12    1    3    3    0    0 -0.42850525977E+03  0.27244245330E+03  0.63604393567E+03  0.81387562693E+03  0.00000000000E+00 0.  1.
          2    1    6    6  502    0  0.12712372716E+03  0.52905211328E+02  0.24127770493E+02  0.13979110380E+03  0.00000000000E+00 0. -1.
         -1    1    6    6    0  502  0.15674595307E+02  0.28928960723E+02  0.46353463719E+02  0.56843832605E+02  0.00000000000E+00 0.  1.
<mgrwt>
<rscale>  0 0.82665064E+03</rscale>
<asrwt>0</asrwt>
<pdfrwt beam="1">  1        1 0.41719737E+00 0.82665064E+03</pdfrwt>
<pdfrwt beam="2">  1       -2 0.44371874E-01 0.82665064E+03</pdfrwt>
<totfact> 0.42596349E+00</totfact>
</mgrwt>
</event>
<event>
12    3  0.2212098E-007  0.8752750E+03  0.7818608E-02  0.9457028E-01
          1   -1    0    0  501    0  0.00000000000E+00  0.00000000000E+00  0.96914570159E+03  0.96914570159E+03  0.00000000000E+00 0. -1.
         -2   -1    0    0    0  501 -0.00000000000E+00 -0.00000000000E+00 -0.14221358144E+04  0.14221358144E+04  0.00000000000E+00 0.  1.
        -24    2    1    2    0    0 -0.34913655917E+03 -0.71027389039E+03  0.55978681469E+03  0.97279396044E+03  0.81126291989E+02 0.  0.
    5000000    2    1    2    0    0  0.34913655917E+03  0.71027389039E+03 -0.10127769275E+04  0.14184875555E+04  0.60000375334E+03 0.  0.
        -24    2    4    4    0    0 -0.84069764048E+02 -0.38032492109E+02 -0.20663814858E+03  0.23363521441E+03  0.58068005658E+02 0.  0.
         24    2    4    4    0    0  0.43320632322E+03  0.74830638250E+03 -0.80613877891E+03  0.11848523411E+04  0.79907314038E+02 0.  0.
         13    1    5    5    0    0 -0.48363282974E+02 -0.31372004288E+02 -0.62650702156E+02  0.85137067566E+02  0.00000000000E+00 0. -1.
        -14    1    5    5    0    0 -0.35706481074E+02 -0.66604878210E+01 -0.14398744642E+03  0.14849814685E+03  0.00000000000E+00 0.  1.
         13    1    3    3    0    0 -0.13550389132E+03 -0.24737733394E+03  0.15513823640E+03  0.32190794073E+03  0.00000000000E+00 0. -1.
        -14    1    3    3    0    0 -0.21363266785E+03 -0.46289655645E+03  0.40464857830E+03  0.65088601971E+03  0.00000000000E+00 0.  1.
          4    1    6    6  502    0  0.27867378608E+03  0.47240782173E+03 -0.45825298550E+03  0.71471954486E+03  0.00000000000E+00 0. -1.
         -3    1    6    6    0  502  0.15453253713E+03  0.27589856077E+03 -0.34788579341E+03  0.47013279627E+03  0.00000000000E+00 0.  1.
<mgrwt>
<rscale>  0 0.87527503E+03</rscale>
<asrwt>0</asrwt>
<pdfrwt beam="1">  1        1 0.14909934E+00 0.87527503E+03</pdfrwt>
<pdfrwt beam="2">  1       -2 0.21879013E+00 0.87527503E+03</pdfrwt>
<totfact> 0.14320782E+00</totfact>
</mgrwt>
</event>
<event>
12    3  0.2212098E-007  0.5646612E+03  0.7818608E-02  0.9981563E-01
          1   -1    0    0  501    0  0.00000000000E+00  0.00000000000E+00  0.23023213909E+04  0.23023213909E+04  0.00000000000E+00 0. -1.
         -2   -1    0    0    0  501 -0.00000000000E+00 -0.00000000000E+00 -0.42730154066E+03  0.42730154066E+03  0.00000000000E+00 0.  1.
        -24    2    1    2    0    0 -0.33645419910E+03 -0.38151851398E+03  0.18735434035E+04  0.19430278021E+04  0.80214401272E+02 0.  0.
    5000000    2    1    2    0    0  0.33645419910E+03  0.38151851398E+03  0.14764467213E+01  0.78659512949E+03  0.59997659392E+03 0.  0.
        -24    2    4    4    0    0  0.19168220765E+03 -0.15519958078E+01  0.23115025757E+03  0.31028595927E+03  0.78118227883E+02 0.  0.
         24    2    4    4    0    0  0.14477199145E+03  0.38307050979E+03 -0.22967381085E+03  0.47630917022E+03  0.80115050202E+02 0.  0.
         13    1    3    3    0    0 -0.31514192725E+03 -0.32809316644E+03  0.15950975652E+04  0.16587030484E+04  0.00000000000E+00 0. -1.
        -14    1    3    3    0    0 -0.21312271852E+02 -0.53425347534E+02  0.27844583834E+03  0.28432475373E+03  0.00000000000E+00 0.  1.
         13    1    5    5    0    0  0.44176632981E+02  0.29071670731E+02  0.37001767179E+02  0.64543533487E+02  0.00000000000E+00 0. -1.
        -14    1    5    5    0    0  0.14750557467E+03 -0.30623666539E+02  0.19414849039E+03  0.24574242579E+03  0.00000000000E+00 0.  1.
          4    1    6    6  502    0  0.88208050216E+02  0.15482051398E+03 -0.66972354890E+02  0.19035584570E+03  0.00000000000E+00 0. -1.
         -3    1    6    6    0  502  0.56563941234E+02  0.22824999580E+03 -0.16270145596E+03  0.28595332452E+03  0.00000000000E+00 0.  1.
<mgrwt>
<rscale>  0 0.56466116E+03</rscale>
<asrwt>0</asrwt>
<pdfrwt beam="1">  1        1 0.35420328E+00 0.56466116E+03</pdfrwt>
<pdfrwt beam="2">  1       -2 0.65738700E-01 0.56466116E+03</pdfrwt>
<totfact> 0.37836581E+00</totfact>
</mgrwt>
</event>
<event>
12    3  0.2212098E-007  0.9973567E+03  0.7818608E-02  0.9311449E-01
         -4   -1    0    0    0  501 -0.00000000000E+00  0.00000000000E+00  0.68162838931E+03  0.68162838931E+03  0.00000000000E+00 0.  1.
          3   -1    0    0  501    0  0.00000000000E+00 -0.00000000000E+00 -0.19826750935E+04  0.19826750935E+04  0.00000000000E+00 0. -1.
        -24    2    1    2    0    0 -0.98035573917E+03 -0.10910182800E+03 -0.94209110579E+02  0.99412272314E+03  0.80025295755E+02 0.  0.
    5000000    2    1    2    0    0  0.98035573917E+03  0.10910182800E+03 -0.12068375937E+04  0.16701807597E+04  0.60003850584E+03 0.  0.
        -24    2    4    4    0    0  0.75487705954E+03  0.23537953494E+02 -0.47556908456E+03  0.89600524074E+03  0.79158240085E+02 0.  0.
         24    2    4    4    0    0  0.22547867963E+03  0.85563874501E+02 -0.73126850910E+03  0.77417551898E+03  0.80201559882E+02 0.  0.
         13    1    3    3    0    0 -0.39639599122E+03 -0.69215377818E+02 -0.68946276820E+02  0.40825744263E+03  0.00000000000E+00 0. -1.
        -14    1    3    3    0    0 -0.58395974795E+03 -0.39886450177E+02 -0.25262833759E+02  0.58586528051E+03  0.00000000000E+00 0.  1.
         13    1    5    5    0    0  0.32406592842E+03  0.37943665896E+02 -0.23764237157E+03  0.40364878856E+03  0.00000000000E+00 0. -1.
        -14    1    5    5    0    0  0.43081113112E+03 -0.14405712402E+02 -0.23792671299E+03  0.49235645218E+03  0.00000000000E+00 0.  1.
          2    1    6    6  502    0  0.12481867767E+03  0.12822690510E+02 -0.29504294871E+03  0.32061575954E+03  0.00000000000E+00 0. -1.
         -1    1    6    6    0  502  0.10066000196E+03  0.72741183991E+02 -0.43622556039E+03  0.45355975944E+03  0.00000000000E+00 0.  1.
<mgrwt>
<rscale>  0 0.99735667E+03</rscale>
<asrwt>0</asrwt>
<pdfrwt beam="1">  1        3 0.30502693E+00 0.99735667E+03</pdfrwt>
<pdfrwt beam="2">  1       -4 0.10486591E+00 0.99735667E+03</pdfrwt>
<totfact> 0.59647837E-02</totfact>
</mgrwt>
</event>
<event>
12    3  0.2212098E-007  0.7005449E+03  0.7818608E-02  0.9716301E-01
          1   -1    0    0  501    0  0.00000000000E+00  0.00000000000E+00  0.19641668238E+04  0.19641668238E+04  0.00000000000E+00 0. -1.
         -2   -1    0    0    0  501 -0.00000000000E+00 -0.00000000000E+00 -0.31527274063E+03  0.31527274063E+03  0.00000000000E+00 0.  1.
        -24    2    1    2    0    0  0.47877968082E+03 -0.31510229227E+03  0.12086757237E+04  0.13400780327E+04  0.79954307666E+02 0.  0.
    5000000    2    1    2    0    0 -0.47877968082E+03  0.31510229227E+03  0.44021835950E+03  0.93936153176E+03  0.60007370043E+03 0.  0.
        -24    2    4    4    0    0 -0.15478448743E+03  0.44046992729E+03  0.26265994098E+03  0.54150401562E+03  0.79147709665E+02 0.  0.
         24    2    4    4    0    0 -0.32399519339E+03 -0.12536763502E+03  0.17755841852E+03  0.39785751614E+03  0.77933830346E+02 0.  0.
         11    1    5    5    0    0 -0.17500050291E+02  0.15379098143E+03  0.70546897191E+02  0.17010227051E+03  0.00000000000E+00 0. -1.
        -12    1    5    5    0    0 -0.13728443714E+03  0.28667894586E+03  0.19211304379E+03  0.37140174511E+03  0.00000000000E+00 0.  1.
         13    1    3    3    0    0  0.67169300679E+02 -0.62915708293E+02  0.14141463967E+03  0.16872522520E+03  0.00000000000E+00 0. -1.
        -14    1    3    3    0    0  0.41161038014E+03 -0.25218658398E+03  0.10672610840E+04  0.11713528075E+04  0.00000000000E+00 0.  1.
          2    1    6    6  502    0 -0.14068266205E+03 -0.89984057442E+02  0.61149141085E+02  0.17784251306E+03  0.00000000000E+00 0. -1.
         -1    1    6    6    0  502 -0.18331253134E+03 -0.35383577573E+02  0.11640927744E+03  0.22001500308E+03  0.00000000000E+00 0.  1.
<mgrwt>
<rscale>  0 0.70054489E+03</rscale>
<asrwt>0</asrwt>
<pdfrwt beam="1">  1        1 0.30217950E+00 0.70054489E+03</pdfrwt>
<pdfrwt beam="2">  1       -2 0.48503500E-01 0.70054489E+03</pdfrwt>
<totfact> 0.11673391E+01</totfact>
</mgrwt>
</event>
<event>
12    3  0.2212098E-007  0.9313976E+03  0.7818608E-02  0.9387162E-01
          1   -1    0    0  501    0  0.00000000000E+00  0.00000000000E+00  0.22657583487E+04  0.22657583487E+04  0.00000000000E+00 0. -1.
         -2   -1    0    0    0  501 -0.00000000000E+00 -0.00000000000E+00 -0.40198973756E+03  0.40198973756E+03  0.00000000000E+00 0.  1.
        -24    2    1    2    0    0 -0.54816707757E+02 -0.85106064826E+03  0.97335594059E+03  0.12965283144E+04  0.79087194733E+02 0.  0.
    5000000    2    1    2    0    0  0.54816707757E+02  0.85106064826E+03  0.89041267052E+03  0.13712197719E+04  0.60008319463E+03 0.  0.
        -24    2    4    4    0    0  0.26454786364E+03  0.67377781513E+03  0.77080277778E+03  0.10604058949E+04  0.79759786215E+02 0.  0.
         24    2    4    4    0    0 -0.20973115588E+03  0.17728283314E+03  0.11960989275E+03  0.31081387692E+03  0.82960104717E+02 0.  0.
         11    1    5    5    0    0  0.61780768757E+02  0.11246572188E+03  0.10108649616E+03  0.16335201772E+03  0.00000000000E+00 0. -1.
        -12    1    5    5    0    0  0.20276709488E+03  0.56131209324E+03  0.66971628161E+03  0.89705387723E+03  0.00000000000E+00 0.  1.
         11    1    3    3    0    0  0.16243178924E+02 -0.35133681884E+03  0.39530639107E+03  0.52912053821E+03  0.00000000000E+00 0. -1.
        -12    1    3    3    0    0 -0.71059886681E+02 -0.49972382942E+03  0.57804954951E+03  0.76740777614E+03  0.00000000000E+00 0.  1.
          2    1    6    6  502    0 -0.62101689939E+02  0.91111937377E+02  0.17341397531E+02  0.11161867717E+03  0.00000000000E+00 0. -1.
         -1    1    6    6    0  502 -0.14762946594E+03  0.86170895760E+02  0.10226849522E+03  0.19919519975E+03  0.00000000000E+00 0.  1.
<mgrwt>
<rscale>  0 0.93139756E+03</rscale>
<asrwt>0</asrwt>
<pdfrwt beam="1">  1        1 0.34857820E+00 0.93139756E+03</pdfrwt>
<pdfrwt beam="2">  1       -2 0.61844576E-01 0.93139756E+03</pdfrwt>
<totfact> 0.42785851E+00</totfact>
</mgrwt>
</event>
<event>
12    3  0.2212098E-007  0.1339205E+04  0.7818608E-02  0.8999040E-01
          1   -1    0    0  501    0  0.00000000000E+00  0.00000000000E+00  0.17645548551E+04  0.17645548551E+04  0.00000000000E+00 0. -1.
         -2   -1    0    0    0  501 -0.00000000000E+00 -0.00000000000E+00 -0.10499877942E+04  0.10499877942E+04  0.00000000000E+00 0.  1.
        -24    2    1    2    0    0  0.12286580864E+04 -0.35453176933E+03  0.54320415179E+03  0.13916451100E+04  0.79447422946E+02 0.  0.
    5000000    2    1    2    0    0 -0.12286580864E+04  0.35453176933E+03  0.17136290917E+03  0.14228975393E+04  0.59998224309E+03 0.  0.
        -24    2    4    4    0    0 -0.11350560694E+04  0.48095824996E+03  0.16759759912E+03  0.12466331779E+04  0.79575160444E+02 0.  0.
         24    2    4    4    0    0 -0.93602016990E+02 -0.12642648063E+03  0.37653100528E+01  0.17626436140E+03  0.79435224863E+02 0.  0.
         11    1    5    5    0    0 -0.51883417939E+03  0.25387712739E+03  0.10304645198E+03  0.58673765243E+03  0.00000000000E+00 0. -1.
        -12    1    5    5    0    0 -0.61622189000E+03  0.22708112257E+03  0.64551147136E+02  0.65989552547E+03  0.00000000000E+00 0.  1.
         13    1    3    3    0    0  0.95803631077E+03 -0.25946309397E+03  0.38964127358E+03  0.10662902944E+04  0.00000000000E+00 0. -1.
        -14    1    3    3    0    0  0.27062177560E+03 -0.95068675362E+02  0.15356287821E+03  0.32535481559E+03  0.00000000000E+00 0.  1.
          2    1    6    6  502    0 -0.99496825928E+02 -0.11732372031E+03 -0.15029632110E+02  0.15456507872E+03  0.00000000000E+00 0. -1.
         -3    1    6    6    0  502  0.58948089388E+01 -0.91027603209E+01  0.18794942163E+02  0.21699282679E+02  0.00000000000E+00 0.  1.
<mgrwt>
<rscale>  0 0.13392052E+04</rscale>
<asrwt>0</asrwt>
<pdfrwt beam="1">  1        1 0.27146998E+00 0.13392052E+04</pdfrwt>
<pdfrwt beam="2">  1       -2 0.16153658E+00 0.13392052E+04</pdfrwt>
<totfact> 0.89080245E-01</totfact>
</mgrwt>
</event>
<event>
12    3  0.2212098E-007  0.5806288E+03  0.7818608E-02  0.9946431E-01
         -2   -1    0    0    0  501 -0.00000000000E+00  0.00000000000E+00  0.95419560931E+03  0.95419560931E+03  0.00000000000E+00 0.  1.
          1   -1    0    0  501    0  0.00000000000E+00 -0.00000000000E+00 -0.45344096514E+03  0.45344096514E+03  0.00000000000E+00 0. -1.
        -24    2    1    2    0    0 -0.25095985168E+02  0.48559416123E+03  0.38353450796E+03  0.62653245685E+03  0.94935255824E+02 0.  0.
    5000000    2    1    2    0    0  0.25095985168E+02 -0.48559416123E+03  0.11722013621E+03  0.78110411760E+03  0.59995965223E+03 0.  0.
        -24    2    4    4    0    0  0.11213890899E+03 -0.54691951184E+03  0.22792440030E+03  0.60828254539E+03  0.79762368469E+02 0.  0.
         24    2    4    4    0    0 -0.87042923827E+02  0.61325350616E+02 -0.11070426409E+03  0.17282157221E+03  0.79212325551E+02 0.  0.
         11    1    5    5    0    0  0.28394146459E+02 -0.26972171079E+03  0.78025012518E+02  0.28221256422E+03  0.00000000000E+00 0. -1.
        -12    1    5    5    0    0  0.83744762535E+02 -0.27719780105E+03  0.14989938778E+03  0.32606998116E+03  0.00000000000E+00 0.  1.
         13    1    3    3    0    0 -0.34835305076E+02  0.71106566157E+02  0.43618701708E+02  0.90400405801E+02  0.00000000000E+00 0. -1.
        -14    1    3    3    0    0  0.97393199081E+01  0.41448759507E+03  0.33991580625E+03  0.53613205105E+03  0.00000000000E+00 0.  1.
          2    1    6    6  502    0 -0.61343738802E+02  0.39376200844E+02 -0.11757074327E+03  0.13833444675E+03  0.00000000000E+00 0. -1.
         -1    1    6    6    0  502 -0.25699185025E+02  0.21949149772E+02  0.68664791850E+01  0.34487125468E+02  0.00000000000E+00 0.  1.
<mgrwt>
<rscale>  0 0.58062883E+03</rscale>
<asrwt>0</asrwt>
<pdfrwt beam="1">  1        1 0.69760148E-01 0.58062883E+03</pdfrwt>
<pdfrwt beam="2">  1       -2 0.14679932E+00 0.58062883E+03</pdfrwt>
<totfact> 0.14579559E+01</totfact>
</mgrwt>
</event>
<event>
12    3  0.2212098E-007  0.7710430E+03  0.7818608E-02  0.9602904E-01
         -2   -1    0    0    0  501 -0.00000000000E+00  0.00000000000E+00  0.18060548573E+04  0.18060548573E+04  0.00000000000E+00 0.  1.
          1   -1    0    0  501    0  0.00000000000E+00 -0.00000000000E+00 -0.90949043207E+03  0.90949043207E+03  0.00000000000E+00 0. -1.
        -24    2    1    2    0    0 -0.36846587489E+02 -0.75478840467E+03 -0.57709792529E+03  0.95414137176E+03  0.79249827173E+02 0.  0.
    5000000    2    1    2    0    0  0.36846587489E+02  0.75478840467E+03  0.14736623505E+04  0.17614039176E+04  0.59983316910E+03 0.  0.
        -24    2    4    4    0    0 -0.52681462813E+02  0.62330657400E+03  0.14511081635E+04  0.15823373265E+04  0.82402008750E+02 0.  0.
         24    2    4    4    0    0  0.89528050302E+02  0.13148183066E+03  0.22554186988E+02  0.17906659104E+03  0.79078499538E+02 0.  0.
         13    1    5    5    0    0 -0.14177422414E+02  0.82883598943E+02  0.27220005143E+03  0.28489218711E+03  0.00000000000E+00 0. -1.
        -14    1    5    5    0    0 -0.38504040399E+02  0.54042297506E+03  0.11789081121E+04  0.12974451394E+04  0.00000000000E+00 0.  1.
         13    1    3    3    0    0 -0.28884133402E+02 -0.54356193901E+03 -0.45893155334E+03  0.71197755958E+03  0.00000000000E+00 0. -1.
        -14    1    3    3    0    0 -0.79624540870E+01 -0.21122646566E+03 -0.11816637196E+03  0.24216381218E+03  0.00000000000E+00 0.  1.
          2    1    6    6  502    0  0.50273508063E+02  0.54879482614E+02  0.48897030209E+02  0.89051124576E+02  0.00000000000E+00 0. -1.
         -1    1    6    6    0  502  0.39254542239E+02  0.76602348051E+02 -0.26342843221E+02  0.90015466461E+02  0.00000000000E+00 0.  1.
<mgrwt>
<rscale>  0 0.77104296E+03</rscale>
<asrwt>0</asrwt>
<pdfrwt beam="1">  1        1 0.13992161E+00 0.77104296E+03</pdfrwt>
<pdfrwt beam="2">  1       -2 0.27785459E+00 0.77104296E+03</pdfrwt>
<totfact> 0.70915659E-01</totfact>
</mgrwt>
</event>
<event>
12    3  0.2212098E-007  0.8800945E+03  0.7818608E-02  0.9450812E-01
          1   -1    0    0  501    0  0.00000000000E+00  0.00000000000E+00  0.37986801608E+04  0.37986801608E+04  0.00000000000E+00 0. -1.
         -2   -1    0    0    0  501 -0.00000000000E+00 -0.00000000000E+00 -0.25159948738E+03  0.25159948738E+03  0.00000000000E+00 0.  1.
        -24    2    1    2    0    0 -0.40610313120E+03 -0.74981363840E+03  0.11286753539E+04  0.14167863865E+04  0.78964326500E+02 0.  0.
    5000000    2    1    2    0    0  0.40610313120E+03  0.74981363840E+03  0.24184053195E+04  0.26334932617E+04  0.59955168630E+03 0.  0.
        -24    2    4    4    0    0  0.30284784117E+03  0.25229195026E+03  0.47124266412E+03  0.61955651755E+03  0.80078629351E+02 0.  0.
         24    2    4    4    0    0  0.10325529003E+03  0.49752168814E+03  0.19471626554E+04  0.20139367442E+04  0.79431214719E+02 0.  0.
         11    1    5    5    0    0  0.31772684322E+02  0.43451069111E+02  0.10706517409E+03  0.11983509661E+03  0.00000000000E+00 0. -1.
        -12    1    5    5    0    0  0.27107515685E+03  0.20884088114E+03  0.36417749003E+03  0.49972142093E+03  0.00000000000E+00 0.  1.
         13    1    3    3    0    0 -0.33036134218E+02 -0.81281048035E+02  0.82712908543E+02  0.12057951805E+03  0.00000000000E+00 0. -1.
        -14    1    3    3    0    0 -0.37306699698E+03 -0.66853259036E+03  0.10459624454E+04  0.12962068684E+04  0.00000000000E+00 0.  1.
          2    1    6    6  502    0  0.10729155502E+03  0.42921159686E+03  0.15969216088E+04  0.16570735341E+04  0.00000000000E+00 0. -1.
         -1    1    6    6    0  502 -0.40362649924E+01  0.68310091287E+02  0.35024104658E+03  0.35686321009E+03  0.00000000000E+00 0.  1.
<mgrwt>
<rscale>  0 0.88009448E+03</rscale>
<asrwt>0</asrwt>
<pdfrwt beam="1">  1        1 0.58441229E+00 0.88009448E+03</pdfrwt>
<pdfrwt beam="2">  1       -2 0.38707616E-01 0.88009448E+03</pdfrwt>
<totfact> 0.84509616E-01</totfact>
</mgrwt>
</event>
<event>
12    3  0.2212098E-007  0.6745922E+03  0.7818608E-02  0.9761697E-01
          1   -1    0    0  501    0  0.00000000000E+00  0.00000000000E+00  0.62091923209E+03  0.62091923209E+03  0.00000000000E+00 0. -1.
         -2   -1    0    0    0  501 -0.00000000000E+00 -0.00000000000E+00 -0.89890452454E+03  0.89890452454E+03  0.00000000000E+00 0.  1.
        -24    2    1    2    0    0  0.62136690871E+03  0.15972874061E+02 -0.16807036913E+03  0.64891593778E+03  0.80574669625E+02 0.  0.
    5000000    2    1    2    0    0 -0.62136690871E+03 -0.15972874061E+02 -0.10991492332E+03  0.87090781885E+03  0.60003930757E+03 0.  0.
        -24    2    4    4    0    0 -0.19017380146E+03  0.15209468840E+03 -0.27232430327E+03  0.37402158050E+03  0.80204410885E+02 0.  0.
         24    2    4    4    0    0 -0.43119310725E+03 -0.16806756246E+03  0.16240937996E+03  0.49688623835E+03  0.79655043009E+02 0.  0.
         11    1    5    5    0    0 -0.97280131387E+02  0.12733828691E+03 -0.17067823692E+03  0.23411433923E+03  0.00000000000E+00 0. -1.
        -12    1    5    5    0    0 -0.92893670073E+02  0.24756401490E+02 -0.10164606636E+03  0.13990724127E+03  0.00000000000E+00 0.  1.
         13    1    3    3    0    0  0.32037930280E+03  0.46987225567E+02 -0.75514727915E+02  0.33249537014E+03  0.00000000000E+00 0. -1.
        -14    1    3    3    0    0  0.30098760591E+03 -0.31014351505E+02 -0.92555641213E+02  0.31642056764E+03  0.00000000000E+00 0.  1.
          4    1    6    6  502    0 -0.16793817721E+02 -0.20557913195E+02  0.23912364978E+02  0.35727598679E+02  0.00000000000E+00 0. -1.
         -3    1    6    6    0  502 -0.41439928953E+03 -0.14750964926E+03  0.13849701498E+03  0.46115863967E+03  0.00000000000E+00 0.  1.
<mgrwt>
<rscale>  0 0.67459225E+03</rscale>
<asrwt>0</asrwt>
<pdfrwt beam="1">  1        1 0.95526037E-01 0.67459225E+03</pdfrwt>
<pdfrwt beam="2">  1       -2 0.13829300E+00 0.67459225E+03</pdfrwt>
<totfact> 0.10880824E+01</totfact>
</mgrwt>
</event>
<event>
12    3  0.2212098E-007  0.5914030E+03  0.7818608E-02  0.9923404E-01
          1   -1    0    0  501    0  0.00000000000E+00  0.00000000000E+00  0.49860058479E+03  0.49860058479E+03  0.00000000000E+00 0. -1.
         -2   -1    0    0    0  501 -0.00000000000E+00 -0.00000000000E+00 -0.31719682607E+04  0.31719682607E+04  0.00000000000E+00 0.  1.
        -24    2    1    2    0    0 -0.19321442069E+03  0.45866844584E+03  0.30680199576E+03  0.59015951765E+03  0.80325812163E+02 0.  0.
    5000000    2    1    2    0    0  0.19321442069E+03 -0.45866844584E+03 -0.29801696717E+04  0.30804093278E+04  0.59983481028E+03 0.  0.
        -24    2    4    4    0    0  0.63913766478E+02  0.87786042855E+02 -0.13044618050E+04  0.13113543662E+04  0.78982997979E+02 0.  0.
         24    2    4    4    0    0  0.12930065421E+03 -0.54645448869E+03 -0.16757078666E+04  0.17690549617E+04  0.78914104065E+02 0.  0.
         13    1    3    3    0    0 -0.64675519163E+02  0.13612574119E+03  0.51782270405E+02  0.15935665572E+03  0.00000000000E+00 0. -1.
        -14    1    3    3    0    0 -0.12853890153E+03  0.32254270465E+03  0.25501972535E+03  0.43080286193E+03  0.00000000000E+00 0.  1.
         13    1    5    5    0    0 -0.47961485682E+01  0.24083177948E+02 -0.90197434250E+02  0.93480370381E+02  0.00000000000E+00 0. -1.
        -14    1    5    5    0    0  0.68709915046E+02  0.63702864907E+02 -0.12142643708E+04  0.12178739958E+04  0.00000000000E+00 0.  1.
          4    1    6    6  502    0 -0.79860621446E+01 -0.79905931980E+02 -0.21437594418E+03  0.22892308883E+03  0.00000000000E+00 0. -1.
         -3    1    6    6    0  502  0.13728671636E+03 -0.46654855672E+03 -0.14613319224E+04  0.15401318729E+04  0.00000000000E+00 0.  1.
<mgrwt>
<rscale>  0 0.59140295E+03</rscale>
<asrwt>0</asrwt>
<pdfrwt beam="1">  1        1 0.76707780E-01 0.59140295E+03</pdfrwt>
<pdfrwt beam="2">  1       -2 0.48799513E+00 0.59140295E+03</pdfrwt>
<totfact> 0.84803216E-02</totfact>
</mgrwt>
</event>
<event>
12    3  0.2212098E-007  0.4824112E+03  0.7818608E-02  0.1018475E+00
         -2   -1    0    0    0  501 -0.00000000000E+00  0.00000000000E+00  0.44369848708E+03  0.44369848708E+03  0.00000000000E+00 0.  1.
          1   -1    0    0  501    0  0.00000000000E+00 -0.00000000000E+00 -0.12507754802E+04  0.12507754802E+04  0.00000000000E+00 0. -1.
        -24    2    1    2    0    0  0.13876479833E+03  0.32399598050E+03 -0.92103464860E+03  0.98932135934E+03  0.78885128348E+02 0.  0.
    5000000    2    1    2    0    0 -0.13876479833E+03 -0.32399598050E+03  0.11395765545E+03  0.70515260797E+03  0.60002065686E+03 0.  0.
        -24    2    4    4    0    0  0.97908512331E+02  0.70015964412E+02  0.18448152114E+03  0.23424765707E+03  0.79688274808E+02 0.  0.
         24    2    4    4    0    0 -0.23667331066E+03 -0.39401194491E+03 -0.70523865687E+02  0.47090495090E+03  0.74284510111E+02 0.  0.
         11    1    3    3    0    0  0.11145645276E+03  0.16468843590E+03 -0.47746507195E+03  0.51722114875E+03  0.00000000000E+00 0. -1.
        -12    1    3    3    0    0  0.27308345573E+02  0.15930754460E+03 -0.44356957666E+03  0.47210021059E+03  0.00000000000E+00 0.  1.
         13    1    5    5    0    0 -0.38159821443E+01  0.35888820218E+02  0.58825768053E+02  0.69014781920E+02  0.00000000000E+00 0. -1.
        -14    1    5    5    0    0  0.10172449448E+03  0.34127144194E+02  0.12565575309E+03  0.16523287515E+03  0.00000000000E+00 0.  1.
          4    1    6    6  502    0 -0.98592069619E+02 -0.13177159741E+03 -0.57213361648E+02  0.17423409204E+03  0.00000000000E+00 0. -1.
         -3    1    6    6    0  502 -0.13808124104E+03 -0.26224034749E+03 -0.13310504039E+02  0.29667085886E+03  0.00000000000E+00 0.  1.
<mgrwt>
<rscale>  0 0.48241116E+03</rscale>
<asrwt>0</asrwt>
<pdfrwt beam="1">  1        1 0.19242699E+00 0.48241116E+03</pdfrwt>
<pdfrwt beam="2">  1       -2 0.68261308E-01 0.48241116E+03</pdfrwt>
<totfact> 0.18051055E+01</totfact>
</mgrwt>
</event>
<event>
12    3  0.2212098E-007  0.3929176E+03  0.7818608E-02  0.1046260E+00
          3   -1    0    0  501    0  0.00000000000E+00  0.00000000000E+00  0.62063135656E+03  0.62063135656E+03  0.00000000000E+00 0. -1.
         -4   -1    0    0    0  501 -0.00000000000E+00 -0.00000000000E+00 -0.46277814954E+03  0.46277814954E+03  0.00000000000E+00 0.  1.
        -24    2    1    2    0    0 -0.22690201391E+03  0.23901369993E+03 -0.96760730196E+02  0.35306832547E+03  0.81746748358E+02 0.  0.
    5000000    2    1    2    0    0  0.22690201391E+03 -0.23901369993E+03  0.25461393721E+03  0.73034118064E+03  0.59996492434E+03 0.  0.
        -24    2    4    4    0    0  0.28906838721E+03 -0.18663121492E+03  0.40752575558E+03  0.53909772560E+03  0.78468932806E+02 0.  0.
         24    2    4    4    0    0 -0.62166373299E+02 -0.52382485011E+02 -0.15291181837E+03  0.19124345504E+03  0.81138475430E+02 0.  0.
         11    1    3    3    0    0 -0.12865438599E+03  0.13018528955E+03 -0.11335227567E+02  0.18338115507E+03  0.00000000000E+00 0. -1.
        -12    1    3    3    0    0 -0.98247627917E+02  0.10882841038E+03 -0.85425502629E+02  0.16968717039E+03  0.00000000000E+00 0.  1.
         13    1    5    5    0    0  0.16871944300E+03 -0.93558677564E+02  0.28295195880E+03  0.34246355658E+03  0.00000000000E+00 0. -1.
        -14    1    5    5    0    0  0.12034894421E+03 -0.93072537358E+02  0.12457379678E+03  0.19663416902E+03  0.00000000000E+00 0.  1.
          2    1    6    6  502    0  0.53051555814E+01 -0.42623557992E+02 -0.36629810269E+02  0.56450468306E+02  0.00000000000E+00 0. -1.
         -3    1    6    6    0  502 -0.67471528880E+02 -0.97589270198E+01 -0.11628200810E+03  0.13479298674E+03  0.00000000000E+00 0.  1.
<mgrwt>
<rscale>  0 0.39291763E+03</rscale>
<asrwt>0</asrwt>
<pdfrwt beam="1">  1        3 0.95481747E-01 0.39291763E+03</pdfrwt>
<pdfrwt beam="2">  1       -4 0.71196639E-01 0.39291763E+03</pdfrwt>
<totfact> 0.39434866E+00</totfact>
</mgrwt>
</event>
<event>
12    3  0.2212098E-007  0.1300366E+04  0.7818608E-02  0.9029275E-01
          1   -1    0    0  501    0  0.00000000000E+00  0.00000000000E+00  0.13714291129E+04  0.13714291129E+04  0.00000000000E+00 0. -1.
         -2   -1    0    0    0  501 -0.00000000000E+00 -0.00000000000E+00 -0.19220268976E+04  0.19220268976E+04  0.00000000000E+00 0.  1.
        -24    2    1    2    0    0 -0.11768233714E+04 -0.53582739017E+03  0.63199719622E+03  0.14412870937E+04  0.76575394288E+02 0.  0.
    5000000    2    1    2    0    0  0.11768233714E+04  0.53582739017E+03 -0.11825949810E+04  0.18521689168E+04  0.59997880619E+03 0.  0.
        -24    2    4    4    0    0  0.97489621754E+03  0.43664174485E+03 -0.12054874309E+04  0.16125090123E+04  0.76855190140E+02 0.  0.
         24    2    4    4    0    0  0.20192715381E+03  0.99185645321E+02  0.22892449915E+02  0.23965990454E+03  0.79375297759E+02 0.  0.
         11    1    5    5    0    0  0.17518187495E+03  0.47677055919E+02 -0.21391708515E+03  0.28057496376E+03  0.00000000000E+00 0. -1.
        -12    1    5    5    0    0  0.79971434259E+03  0.38896468893E+03 -0.99157034574E+03  0.13319340485E+04  0.00000000000E+00 0.  1.
         13    1    3    3    0    0 -0.34312880972E+03 -0.19492453347E+03  0.19123068279E+03  0.43852266515E+03  0.00000000000E+00 0. -1.
        -14    1    3    3    0    0 -0.83369456163E+03 -0.34090285670E+03  0.44076651343E+03  0.10027644286E+04  0.00000000000E+00 0.  1.
          2    1    6    6  502    0 -0.48961166984E+01  0.59091399577E+01  0.97332001618E+01  0.12394558449E+02  0.00000000000E+00 0. -1.
         -1    1    6    6    0  502  0.20682327051E+03  0.93276505364E+02  0.13159249754E+02  0.22726534609E+03  0.00000000000E+00 0.  1.
<mgrwt>
<rscale>  0 0.13003662E+04</rscale>
<asrwt>0</asrwt>
<pdfrwt beam="1">  1        1 0.21098909E+00 0.13003662E+04</pdfrwt>
<pdfrwt beam="2">  1       -2 0.29569645E+00 0.13003662E+04</pdfrwt>
<totfact> 0.23026872E-01</totfact>
</mgrwt>
</event>
<event>
12    3  0.2212098E-007  0.7116388E+03  0.7818608E-02  0.9697533E-01
          1   -1    0    0  501    0  0.00000000000E+00  0.00000000000E+00  0.64352013092E+03  0.64352013092E+03  0.00000000000E+00 0. -1.
         -2   -1    0    0    0  501 -0.00000000000E+00 -0.00000000000E+00 -0.11487476713E+04  0.11487476713E+04  0.00000000000E+00 0.  1.
        -24    2    1    2    0    0  0.57200311214E+03  0.23044041825E+03 -0.67251898817E+03  0.91573196938E+03  0.77413846616E+02 0.  0.
    5000000    2    1    2    0    0 -0.57200311214E+03 -0.23044041825E+03  0.16729144777E+03  0.87653583285E+03  0.60003190841E+03 0.  0.
        -24    2    4    4    0    0 -0.27493732803E+03 -0.37790704672E+03 -0.42401505492E+02  0.47596801191E+03  0.79645404087E+02 0.  0.
         24    2    4    4    0    0 -0.29706578411E+03  0.14746662847E+03  0.20969295327E+03  0.40056782094E+03  0.80554068310E+02 0.  0.
         11    1    3    3    0    0  0.38030221694E+03  0.14272477949E+03 -0.38900003309E+03  0.56242436347E+03  0.00000000000E+00 0. -1.
        -12    1    3    3    0    0  0.19170089520E+03  0.87715638760E+02 -0.28351895508E+03  0.35330760591E+03  0.00000000000E+00 0.  1.
         13    1    5    5    0    0 -0.21503714846E+03 -0.30338172535E+03 -0.12243372531E+01  0.37186414925E+03  0.00000000000E+00 0. -1.
        -14    1    5    5    0    0 -0.59900179566E+02 -0.74525321372E+02 -0.41177168239E+02  0.10410386267E+03  0.00000000000E+00 0.  1.
          2    1    6    6  502    0 -0.18442244689E+03  0.53315705635E+02  0.14266623529E+03  0.23918164243E+03  0.00000000000E+00 0. -1.
         -1    1    6    6    0  502 -0.11264333722E+03  0.94150922835E+02  0.67026717974E+02  0.16138617851E+03  0.00000000000E+00 0.  1.
<mgrwt>
<rscale>  0 0.71163882E+03</rscale>
<asrwt>0</asrwt>
<pdfrwt beam="1">  1        1 0.99003099E-01 0.71163882E+03</pdfrwt>
<pdfrwt beam="2">  1       -2 0.17673041E+00 0.71163882E+03</pdfrwt>
<totfact> 0.53203382E+00</totfact>
</mgrwt>
</event>
<event>
12    3  0.2212098E-007  0.1800743E+04  0.7818608E-02  0.8705905E-01
          1   -1    0    0  501    0  0.00000000000E+00  0.00000000000E+00  0.26427291985E+04  0.26427291985E+04  0.00000000000E+00 0. -1.
         -2   -1    0    0    0  501 -0.00000000000E+00 -0.00000000000E+00 -0.13747925030E+04  0.13747925030E+04  0.00000000000E+00 0.  1.
        -24    2    1    2    0    0 -0.12500943895E+04  0.12484776917E+04  0.12475286666E+02  0.17686062767E+04  0.79874901904E+02 0.  0.
    5000000    2    1    2    0    0  0.12500943895E+04 -0.12484776917E+04  0.12554614088E+04  0.22489154247E+04  0.60000392419E+03 0.  0.
        -24    2    4    4    0    0  0.68213136563E+03 -0.99898290896E+03  0.10066351240E+04  0.15757228707E+04  0.79487357834E+02 0.  0.
         24    2    4    4    0    0  0.56796302389E+03 -0.24949478275E+03  0.24882628478E+03  0.67319255397E+03  0.80274850317E+02 0.  0.
         11    1    5    5    0    0  0.39300326969E+03 -0.62841977853E+03  0.58366284217E+03  0.94341152281E+03  0.00000000000E+00 0. -1.
        -12    1    5    5    0    0  0.28912809594E+03 -0.37056313043E+03  0.42297228187E+03  0.63231134793E+03  0.00000000000E+00 0.  1.
         13    1    3    3    0    0 -0.10386105763E+04  0.10416915721E+04  0.40058881084E+02  0.14715427192E+04  0.00000000000E+00 0. -1.
        -14    1    3    3    0    0 -0.21148381326E+03  0.20678611961E+03 -0.27583594419E+02  0.29706355753E+03  0.00000000000E+00 0.  1.
          4    1    6    6  502    0  0.16330278099E+03 -0.10336759070E+03  0.52453789433E+02  0.20025997381E+03  0.00000000000E+00 0. -1.
         -3    1    6    6    0  502  0.40466024290E+03 -0.14612719205E+03  0.19637249535E+03  0.47293258016E+03  0.00000000000E+00 0.  1.
<mgrwt>
<rscale>  0 0.18007425E+04</rscale>
<asrwt>0</asrwt>
<pdfrwt beam="1">  1        1 0.40657372E+00 0.18007425E+04</pdfrwt>
<pdfrwt beam="2">  1       -2 0.21150654E+00 0.18007425E+04</pdfrwt>
<totfact> 0.96306091E-02</totfact>
</mgrwt>
</event>
<event>
12    3  0.2212098E-007  0.1377158E+04  0.7818608E-02  0.8970521E-01
         -2   -1    0    0    0  501 -0.00000000000E+00  0.00000000000E+00  0.14384512101E+04  0.14384512101E+04  0.00000000000E+00 0.  1.
          1   -1    0    0  501    0  0.00000000000E+00 -0.00000000000E+00 -0.14059064984E+04  0.14059064984E+04  0.00000000000E+00 0. -1.
        -24    2    1    2    0    0 -0.32329059896E+03  0.13171505641E+04 -0.44028825238E+02  0.13593508587E+04  0.80584116087E+02 0.  0.
    5000000    2    1    2    0    0  0.32329059896E+03 -0.13171505641E+04  0.76573536851E+02  0.14850068498E+04  0.59998284752E+03 0.  0.
        -24    2    4    4    0    0  0.16586153534E+03 -0.19412495997E+03 -0.17986311912E+03  0.31970925929E+03  0.68328031358E+02 0.  0.
         24    2    4    4    0    0  0.15742906362E+03 -0.11230256042E+04  0.25643665597E+03  0.11652975905E+04  0.78665736829E+02 0.  0.
         11    1    3    3    0    0 -0.25745491649E+03  0.10067283136E+04 -0.66326302489E+02  0.10412416194E+04  0.00000000000E+00 0. -1.
        -12    1    3    3    0    0 -0.65835682472E+02  0.31042225049E+03  0.22297477251E+02  0.31810923938E+03  0.00000000000E+00 0.  1.
         11    1    5    5    0    0  0.41649461671E+02 -0.98994168876E+02 -0.82548822034E+02  0.13545785746E+03  0.00000000000E+00 0. -1.
        -12    1    5    5    0    0  0.12421207367E+03 -0.95130791093E+02 -0.97314297086E+02  0.18425140183E+03  0.00000000000E+00 0.  1.
          2    1    6    6  502    0  0.11387651342E+03 -0.80943620910E+03  0.22076669975E+03  0.84669520645E+03  0.00000000000E+00 0. -1.
         -1    1    6    6    0  502  0.43552550202E+02 -0.31358939505E+03  0.35669956221E+02  0.31860238400E+03  0.00000000000E+00 0.  1.
<mgrwt>
<rscale>  0 0.13771578E+04</rscale>
<asrwt>0</asrwt>
<pdfrwt beam="1">  1        1 0.21629331E+00 0.13771578E+04</pdfrwt>
<pdfrwt beam="2">  1       -2 0.22130019E+00 0.13771578E+04</pdfrwt>
<totfact> 0.61826384E-01</totfact>
</mgrwt>
</event>
<event>
12    3  0.2212098E-007  0.1389437E+04  0.7818608E-02  0.8961500E-01
          1   -1    0    0  501    0  0.00000000000E+00  0.00000000000E+00  0.34487460443E+04  0.34487460443E+04  0.00000000000E+00 0. -1.
         -2   -1    0    0    0  501 -0.00000000000E+00 -0.00000000000E+00 -0.66156303388E+03  0.66156303388E+03  0.00000000000E+00 0.  1.
        -24    2    1    2    0    0  0.12396479151E+04  0.47902497753E+03  0.55147057419E+03  0.14411927740E+04  0.82005702719E+02 0.  0.
    5000000    2    1    2    0    0 -0.12396479151E+04 -0.47902497753E+03  0.22357124362E+04  0.26691163042E+04  0.59964978551E+03 0.  0.
        -24    2    4    4    0    0 -0.38611096276E+03 -0.44197174614E+03  0.77938083251E+03  0.97883791612E+03  0.79173758233E+02 0.  0.
         24    2    4    4    0    0 -0.85353695230E+03 -0.37053231393E+02  0.14563316037E+04  0.16902783880E+04  0.79000115450E+02 0.  0.
         11    1    3    3    0    0  0.83102545427E+03  0.28575467295E+03  0.34189414570E+03  0.94294784883E+03  0.00000000000E+00 0. -1.
        -12    1    3    3    0    0  0.40862246079E+03  0.19327030457E+03  0.20957642849E+03  0.49824492518E+03  0.00000000000E+00 0.  1.
         13    1    5    5    0    0 -0.17570229473E+03 -0.24794159645E+03  0.36022334823E+03  0.47128249728E+03  0.00000000000E+00 0. -1.
        -14    1    5    5    0    0 -0.21040866802E+03 -0.19403014968E+03  0.41915748428E+03  0.50755541884E+03  0.00000000000E+00 0.  1.
          2    1    6    6  502    0 -0.72244638564E+03 -0.27091183642E+01  0.12221423557E+04  0.14197070321E+04  0.00000000000E+00 0. -1.
         -1    1    6    6    0  502 -0.13109056665E+03 -0.34344113028E+02  0.23418924804E+03  0.27057135595E+03  0.00000000000E+00 0.  1.
<mgrwt>
<rscale>  0 0.13894371E+04</rscale>
<asrwt>0</asrwt>
<pdfrwt beam="1">  1        1 0.53057631E+00 0.13894371E+04</pdfrwt>
<pdfrwt beam="2">  1       -2 0.10177893E+00 0.13894371E+04</pdfrwt>
<totfact> 0.18555638E-01</totfact>
</mgrwt>
</event>
<event>
12    3  0.2212098E-007  0.5661323E+03  0.7818608E-02  0.9978274E-01
          1   -1    0    0  501    0  0.00000000000E+00  0.00000000000E+00  0.59746511902E+03  0.59746511902E+03  0.00000000000E+00 0. -1.
         -2   -1    0    0    0  501 -0.00000000000E+00 -0.00000000000E+00 -0.90768228925E+03  0.90768228925E+03  0.00000000000E+00 0.  1.
        -24    2    1    2    0    0  0.14475544830E+02 -0.41017175353E+03 -0.59273667322E+03  0.72525514336E+03  0.78789913071E+02 0.  0.
    5000000    2    1    2    0    0 -0.14475544830E+02  0.41017175353E+03  0.28251950299E+03  0.77989226490E+03  0.59997022134E+03 0.  0.
        -24    2    4    4    0    0  0.25640342099E+03  0.57552833992E+02  0.92431502742E+02  0.28985564213E+03  0.80110346252E+02 0.  0.
         24    2    4    4    0    0 -0.27087896582E+03  0.35261891954E+03  0.19008800025E+03  0.49003662277E+03  0.79290146164E+02 0.  0.
         13    1    5    5    0    0  0.15591634435E+03  0.35908988043E+01  0.26745965599E+02  0.15823447054E+03  0.00000000000E+00 0. -1.
        -14    1    5    5    0    0  0.10048707664E+03  0.53961935188E+02  0.65685537142E+02  0.13162117159E+03  0.00000000000E+00 0.  1.
         13    1    3    3    0    0  0.15614252358E+02 -0.29874162503E+03 -0.48758709915E+03  0.57204155676E+03  0.00000000000E+00 0. -1.
        -14    1    3    3    0    0 -0.11387075281E+01 -0.11143012850E+03 -0.10514957407E+03  0.15321358661E+03  0.00000000000E+00 0.  1.
          4    1    6    6  502    0 -0.18206185100E+03  0.17235037873E+03  0.10655856739E+03  0.27240759703E+03  0.00000000000E+00 0. -1.
         -3    1    6    6    0  502 -0.88817114828E+02  0.18026854081E+03  0.83529432857E+02  0.21762902574E+03  0.00000000000E+00 0.  1.
<mgrwt>
<rscale>  0 0.56613227E+03</rscale>
<asrwt>0</asrwt>
<pdfrwt beam="1">  1        1 0.91917712E-01 0.56613227E+03</pdfrwt>
<pdfrwt beam="2">  1       -2 0.13964343E+00 0.56613227E+03</pdfrwt>
<totfact> 0.11369144E+01</totfact>
</mgrwt>
</event>
<event>
12    3  0.2212098E-007  0.1249747E+04  0.7818608E-02  0.9070394E-01
         -2   -1    0    0    0  501 -0.00000000000E+00  0.00000000000E+00  0.72945544902E+03  0.72945544902E+03  0.00000000000E+00 0.  1.
          1   -1    0    0  501    0  0.00000000000E+00 -0.00000000000E+00 -0.24971345650E+04  0.24971345650E+04  0.00000000000E+00 0. -1.
        -24    2    1    2    0    0  0.10364108282E+04  0.59634112790E+03 -0.28995601238E+03  0.12332347575E+04  0.83805323188E+02 0.  0.
    5000000    2    1    2    0    0 -0.10364108282E+04 -0.59634112790E+03 -0.14777231036E+04  0.19933552566E+04  0.60002455142E+03 0.  0.
        -24    2    4    4    0    0 -0.28437215222E+03  0.62556399475E+02 -0.54826721723E+03  0.62596663542E+03  0.80352119411E+02 0.  0.
         24    2    4    4    0    0 -0.75203867600E+03 -0.65889752737E+03 -0.92945588641E+03  0.13673886212E+04  0.78455559244E+02 0.  0.
         11    1    3    3    0    0  0.83955922226E+03  0.44599499378E+03 -0.24107872846E+03  0.98075999892E+03  0.00000000000E+00 0. -1.
        -12    1    3    3    0    0  0.19685160596E+03  0.15034613412E+03 -0.48877283927E+02  0.25247475854E+03  0.00000000000E+00 0.  1.
         13    1    5    5    0    0 -0.92793008503E+02 -0.15840652972E+02 -0.19466285815E+03  0.21622926966E+03  0.00000000000E+00 0. -1.
        -14    1    5    5    0    0 -0.19157914372E+03  0.78397052447E+02 -0.35360435908E+03  0.40973736576E+03  0.00000000000E+00 0.  1.
          4    1    6    6  502    0 -0.52698086372E+03 -0.47178770631E+03 -0.70388403128E+03  0.99787033228E+03  0.00000000000E+00 0. -1.
         -3    1    6    6    0  502 -0.22505781228E+03 -0.18710982106E+03 -0.22557185513E+03  0.36951828890E+03  0.00000000000E+00 0.  1.
<mgrwt>
<rscale>  0 0.12497473E+04</rscale>
<asrwt>0</asrwt>
<pdfrwt beam="1">  1        1 0.38417455E+00 0.12497473E+04</pdfrwt>
<pdfrwt beam="2">  1       -2 0.11222391E+00 0.12497473E+04</pdfrwt>
<totfact> 0.73177447E-01</totfact>
</mgrwt>
</event>
<event>
12    3  0.2234854E-007  0.7807905E+03  0.7818608E-02  0.9588246E-01
         -4   -1    0    0    0  501 -0.00000000000E+00  0.00000000000E+00  0.55276343714E+03  0.55276343714E+03  0.00000000000E+00 0.  1.
          3   -1    0    0  501    0  0.00000000000E+00 -0.00000000000E+00 -0.14527207301E+04  0.14527207301E+04  0.00000000000E+00 0. -1.
        -24    2    1    2    0    0  0.47373236729E+03 -0.57778487503E+03 -0.69995902551E+03  0.10269050546E+04  0.79584144801E+02 0.  0.
    5000000    2    1    2    0    0 -0.47373236729E+03  0.57778487503E+03 -0.19999826741E+03  0.97857911262E+03  0.59946647535E+03 0.  0.
        -24    2    4    4    0    0 -0.15679961501E+03  0.41705161386E+03 -0.36234105262E+03  0.57982836711E+03  0.79948289551E+02 0.  0.
         24    2    4    4    0    0 -0.31693275228E+03  0.16073326117E+03  0.16234278521E+03  0.39875074551E+03  0.79783622520E+02 0.  0.
         13    1    5    5    0    0 -0.42394159387E+02  0.17054112641E+03 -0.18588651950E+03  0.25580332030E+03  0.00000000000E+00 0. -1.
        -14    1    5    5    0    0 -0.11440545562E+03  0.24651048745E+03 -0.17645453312E+03  0.32402504681E+03  0.00000000000E+00 0.  1.
         13    1    3    3    0    0  0.18986572075E+03 -0.17520803755E+03 -0.22414785801E+03  0.34203670942E+03  0.00000000000E+00 0. -1.
        -14    1    3    3    0    0  0.28386664654E+03 -0.40257683747E+03 -0.47581116750E+03  0.68486834516E+03  0.00000000000E+00 0.  1.
          2    1    6    6  502    0 -0.23741626595E+03  0.81845723510E+02  0.12619953008E+03  0.28105431359E+03  0.00000000000E+00 0. -1.
         -1    1    6    6    0  502 -0.79516486332E+02  0.78887537657E+02  0.36143255132E+02  0.11769643192E+03  0.00000000000E+00 0.  1.
<mgrwt>
<rscale>  0 0.78079053E+03</rscale>
<asrwt>0</asrwt>
<pdfrwt beam="1">  1        3 0.22349549E+00 0.78079053E+03</pdfrwt>
<pdfrwt beam="2">  1       -4 0.85040530E-01 0.78079053E+03</pdfrwt>
<totfact> 0.28825169E-01</totfact>
</mgrwt>
</event>
<event>
12    3  0.2212098E-007  0.4094450E+03  0.7818608E-02  0.1040557E+00
         -2   -1    0    0    0  501 -0.00000000000E+00  0.00000000000E+00  0.11852477570E+03  0.11852477570E+03  0.00000000000E+00 0.  1.
          1   -1    0    0  501    0  0.00000000000E+00 -0.00000000000E+00 -0.18820369645E+04  0.18820369645E+04  0.00000000000E+00 0. -1.
        -24    2    1    2    0    0  0.20621426745E+03 -0.16677739395E+03 -0.39109662316E+03  0.47919507596E+03  0.79575931967E+02 0.  0.
    5000000    2    1    2    0    0 -0.20621426745E+03  0.16677739395E+03 -0.13724155656E+04  0.15213666642E+04  0.60057723817E+03 0.  0.
        -24    2    4    4    0    0  0.11860869592E+02 -0.15362094655E+03 -0.12515228715E+03  0.21285876444E+03  0.76848442881E+02 0.  0.
         24    2    4    4    0    0 -0.21807513704E+03  0.32039834050E+03 -0.12472632785E+04  0.13085078998E+04  0.79469339796E+02 0.  0.
         11    1    5    5    0    0  0.12247760174E+02 -0.40148482015E+02  0.25165307429E+01  0.42050459741E+02  0.00000000000E+00 0. -1.
        -12    1    5    5    0    0 -0.38689058215E+00 -0.11347246454E+03 -0.12766881789E+03  0.17080830470E+03  0.00000000000E+00 0.  1.
         11    1    3    3    0    0  0.15140306920E+03 -0.15072486622E+03 -0.26222668105E+03  0.33823617032E+03  0.00000000000E+00 0. -1.
        -12    1    3    3    0    0  0.54811198252E+02 -0.16052527730E+02 -0.12886994211E+03  0.14095890564E+03  0.00000000000E+00 0.  1.
          2    1    6    6  502    0 -0.64211296871E+02  0.14965646379E+03 -0.59733932514E+03  0.61914006263E+03  0.00000000000E+00 0. -1.
         -1    1    6    6    0  502 -0.15386384017E+03  0.17074187671E+03 -0.64992395335E+03  0.68936783716E+03  0.00000000000E+00 0.  1.
<mgrwt>
<rscale>  0 0.40944500E+03</rscale>
<asrwt>0</asrwt>
<pdfrwt beam="1">  1        1 0.28954414E+00 0.40944500E+03</pdfrwt>
<pdfrwt beam="2">  1       -2 0.18234582E-01 0.40944500E+03</pdfrwt>
<totfact> 0.84993243E+01</totfact>
</mgrwt>
</event>
<event>
12    3  0.2212098E-007  0.4430544E+03  0.7818608E-02  0.1029814E+00
          1   -1    0    0  501    0  0.00000000000E+00  0.00000000000E+00  0.21173511178E+04  0.21173511178E+04  0.00000000000E+00 0. -1.
         -2   -1    0    0    0  501 -0.00000000000E+00 -0.00000000000E+00 -0.34339562925E+03  0.34339562925E+03  0.00000000000E+00 0.  1.
        -24    2    1    2    0    0  0.24453918345E+03 -0.35195570903E+03 -0.99589730079E+02  0.44732944315E+03  0.80704913165E+02 0.  0.
    5000000    2    1    2    0    0 -0.24453918345E+03  0.35195570903E+03  0.18735452186E+04  0.20134173039E+04  0.60000443333E+03 0.  0.
        -24    2    4    4    0    0 -0.14792469788E+03  0.91775946526E+02  0.98744527368E+02  0.21539916484E+03  0.79635280666E+02 0.  0.
         24    2    4    4    0    0 -0.96614485570E+02  0.26017976251E+03  0.17748006913E+04  0.17980181391E+04  0.76966661746E+02 0.  0.
         11    1    5    5    0    0 -0.17519367794E+02  0.10419917299E+02 -0.14044352006E+02  0.24753721896E+02  0.00000000000E+00 0. -1.
        -12    1    5    5    0    0 -0.13040533009E+03  0.81356029227E+02  0.11278887937E+03  0.19064544295E+03  0.00000000000E+00 0.  1.
         11    1    3    3    0    0  0.45858548167E+02 -0.10135503137E+03  0.35543462131E+01  0.11130355879E+03  0.00000000000E+00 0. -1.
        -12    1    3    3    0    0  0.19868063528E+03 -0.25060067767E+03 -0.10314407629E+03  0.33602588436E+03  0.00000000000E+00 0.  1.
          4    1    6    6  502    0 -0.76796243809E+02  0.14482164673E+03  0.12232417086E+04  0.12341763448E+04  0.00000000000E+00 0. -1.
         -3    1    6    6    0  502 -0.19818241761E+02  0.11535811578E+03  0.55155898264E+03  0.56384179422E+03  0.00000000000E+00 0.  1.
<mgrwt>
<rscale>  0 0.44305438E+03</rscale>
<asrwt>0</asrwt>
<pdfrwt beam="1">  1        1 0.32574632E+00 0.44305438E+03</pdfrwt>
<pdfrwt beam="2">  1       -2 0.52830098E-01 0.44305438E+03</pdfrwt>
<totfact> 0.81804065E+00</totfact>
</mgrwt>
</event>
<event>
12    3  0.2212098E-007  0.2301248E+03  0.7818608E-02  0.1126552E+00
          1   -1    0    0  501    0  0.00000000000E+00  0.00000000000E+00  0.41358021586E+03  0.41358021586E+03  0.00000000000E+00 0. -1.
         -2   -1    0    0    0  501 -0.00000000000E+00 -0.00000000000E+00 -0.37872680317E+03  0.37872680317E+03  0.00000000000E+00 0.  1.
        -24    2    1    2    0    0  0.20367051569E+02  0.14853885875E+03  0.36992615760E+02  0.17386290736E+03  0.79882711432E+02 0.  0.
    5000000    2    1    2    0    0 -0.20367051569E+02 -0.14853885875E+03 -0.21392030677E+01  0.61844411166E+03  0.59999161137E+03 0.  0.
        -24    2    4    4    0    0  0.79550045694E+02 -0.14926437117E+03 -0.26617959757E+03  0.32505705803E+03  0.78755638157E+02 0.  0.
         24    2    4    4    0    0 -0.99917097263E+02  0.72551241335E+00  0.26404039450E+03  0.29338705364E+03  0.79841597054E+02 0.  0.
         11    1    3    3    0    0  0.10833283809E+02  0.86967659997E+02  0.61335953502E+02  0.10697117890E+03  0.00000000000E+00 0. -1.
        -12    1    3    3    0    0  0.95337677601E+01  0.61571198756E+02 -0.24343337741E+02  0.66891728459E+02  0.00000000000E+00 0.  1.
         13    1    5    5    0    0  0.42792904312E+02 -0.11956162685E+02 -0.63840098936E+02  0.77780079183E+02  0.00000000000E+00 0. -1.
        -14    1    5    5    0    0  0.36757141381E+02 -0.13730820848E+03 -0.20233949863E+03  0.24727697884E+03  0.00000000000E+00 0.  1.
          4    1    6    6  502    0 -0.76241884178E+02  0.33518021604E+02  0.13978699399E+03  0.16271658294E+03  0.00000000000E+00 0. -1.
         -3    1    6    6    0  502 -0.23675213085E+02 -0.32792509191E+02  0.12425340051E+03  0.13067047069E+03  0.00000000000E+00 0.  1.
<mgrwt>
<rscale>  0 0.23012484E+03</rscale>
<asrwt>0</asrwt>
<pdfrwt beam="1">  1        1 0.63627725E-01 0.23012484E+03</pdfrwt>
<pdfrwt beam="2">  1       -2 0.58265662E-01 0.23012484E+03</pdfrwt>
<totfact> 0.14531136E+02</totfact>
</mgrwt>
</event>
<event>
12    3  0.2212098E-007  0.1458534E+04  0.7818608E-02  0.8912506E-01
          1   -1    0    0  501    0  0.00000000000E+00  0.00000000000E+00  0.12303539959E+04  0.12303539959E+04  0.00000000000E+00 0. -1.
         -2   -1    0    0    0  501 -0.00000000000E+00 -0.00000000000E+00 -0.20064663534E+04  0.20064663534E+04  0.00000000000E+00 0.  1.
        -24    2    1    2    0    0 -0.67570678203E+03 -0.12264767042E+04 -0.96396453774E+03  0.17019305072E+04  0.80715922608E+02 0.  0.
    5000000    2    1    2    0    0  0.67570678203E+03  0.12264767042E+04  0.18785218019E+03  0.15348898421E+04  0.59981132396E+03 0.  0.
        -24    2    4    4    0    0  0.63932171152E+03  0.58235386811E+03  0.16679621303E+03  0.88450892726E+03  0.81650396198E+02 0.  0.
         24    2    4    4    0    0  0.36385070513E+02  0.64412283612E+03  0.21055967153E+02  0.65038091480E+03  0.79585672142E+02 0.  0.
         13    1    3    3    0    0 -0.36185046183E+03 -0.64649041259E+03 -0.55842410096E+03  0.92775162993E+03  0.00000000000E+00 0. -1.
        -14    1    3    3    0    0 -0.31385632020E+03 -0.57998629164E+03 -0.40554043678E+03  0.77417887732E+03  0.00000000000E+00 0.  1.
         13    1    5    5    0    0  0.42304281848E+03  0.43578801512E+03  0.11353072017E+03  0.61787186763E+03  0.00000000000E+00 0. -1.
        -14    1    5    5    0    0  0.21627889304E+03  0.14656585299E+03  0.53265492868E+02  0.26663705963E+03  0.00000000000E+00 0.  1.
          2    1    6    6  502    0 -0.17404534976E+02  0.12167303343E+03  0.23633753787E+02  0.12516309048E+03  0.00000000000E+00 0. -1.
         -1    1    6    6    0  502  0.53789605488E+02  0.52244980270E+03 -0.25777866341E+01  0.52521782432E+03  0.00000000000E+00 0.  1.
<mgrwt>
<rscale>  0 0.14585337E+04</rscale>
<asrwt>0</asrwt>
<pdfrwt beam="1">  1        1 0.18928523E+00 0.14585337E+04</pdfrwt>
<pdfrwt beam="2">  1       -2 0.30868713E+00 0.14585337E+04</pdfrwt>
<totfact> 0.23779954E-01</totfact>
</mgrwt>
</event>
<event>
12    3  0.2212098E-007  0.8454583E+03  0.7818608E-02  0.9496453E-01
         -2   -1    0    0    0  501 -0.00000000000E+00  0.00000000000E+00  0.18011623195E+04  0.18011623195E+04  0.00000000000E+00 0.  1.
          1   -1    0    0  501    0  0.00000000000E+00 -0.00000000000E+00 -0.52254479259E+03  0.52254479259E+03  0.00000000000E+00 0. -1.
        -24    2    1    2    0    0  0.42300908429E+03 -0.68510007844E+03  0.16760385095E+03  0.82623126959E+03  0.79172325502E+02 0.  0.
    5000000    2    1    2    0    0 -0.42300908429E+03  0.68510007844E+03  0.11110136759E+04  0.14974758424E+04  0.59981972940E+03 0.  0.
        -24    2    4    4    0    0  0.28829743681E+02  0.19982679968E+02  0.43516631650E+03  0.44433605175E+03  0.82670080739E+02 0.  0.
         24    2    4    4    0    0 -0.45183882797E+03  0.66511739847E+03  0.67584735942E+03  0.10531397907E+04  0.76120203039E+02 0.  0.
         11    1    5    5    0    0  0.63794729475E+01  0.42518087433E+02  0.11818041636E+03  0.12575808620E+03  0.00000000000E+00 0. -1.
        -12    1    5    5    0    0  0.22450270733E+02 -0.22535407465E+02  0.31698590014E+03  0.31857796555E+03  0.00000000000E+00 0.  1.
         13    1    3    3    0    0  0.77704795987E+02 -0.74906800268E+02  0.21876922441E+02  0.11012567267E+03  0.00000000000E+00 0. -1.
        -14    1    3    3    0    0  0.34530428831E+03 -0.61019327817E+03  0.14572692851E+03  0.71610559692E+03  0.00000000000E+00 0.  1.
          2    1    6    6  502    0 -0.30010661970E+03  0.49714550866E+03  0.50446994079E+03  0.76922529933E+03  0.00000000000E+00 0. -1.
         -1    1    6    6    0  502 -0.15173220828E+03  0.16797188981E+03  0.17137741863E+03  0.28391449137E+03  0.00000000000E+00 0.  1.
<mgrwt>
<rscale>  0 0.84545829E+03</rscale>
<asrwt>0</asrwt>
<pdfrwt beam="1">  1        1 0.80391507E-01 0.84545829E+03</pdfrwt>
<pdfrwt beam="2">  1       -2 0.27710189E+00 0.84545829E+03</pdfrwt>
<totfact> 0.16436524E+00</totfact>
</mgrwt>
</event>
<event>
12    3  0.2212098E-007  0.1904653E+04  0.7818608E-02  0.8652544E-01
          1   -1    0    0  501    0  0.00000000000E+00  0.00000000000E+00  0.14514695696E+04  0.14514695696E+04  0.00000000000E+00 0. -1.
         -2   -1    0    0    0  501 -0.00000000000E+00 -0.00000000000E+00 -0.26878819550E+04  0.26878819550E+04  0.00000000000E+00 0.  1.
        -24    2    1    2    0    0  0.86779982445E+02 -0.18864484772E+04 -0.19301624997E+03  0.18999677753E+04  0.80022821564E+02 0.  0.
    5000000    2    1    2    0    0 -0.86779982445E+02  0.18864484772E+04 -0.10433961354E+04  0.22393837493E+04  0.59995454711E+03 0.  0.
        -24    2    4    4    0    0 -0.16048181912E+03  0.41461760459E+03 -0.37895438401E+02  0.45320946327E+03  0.79376199477E+02 0.  0.
         24    2    4    4    0    0  0.73701836678E+02  0.14718308726E+04 -0.10055006970E+04  0.17861742860E+04  0.87571970199E+02 0.  0.
         11    1    3    3    0    0  0.16136429171E+02 -0.32649237976E+03 -0.30917099861E+01  0.32690551702E+03  0.00000000000E+00 0. -1.
        -12    1    3    3    0    0  0.70643553274E+02 -0.15599560975E+04 -0.18992453998E+03  0.15730622583E+04  0.00000000000E+00 0.  1.
         13    1    5    5    0    0 -0.10917065017E+03  0.29819006497E+03 -0.62450348792E+02  0.32362878699E+03  0.00000000000E+00 0. -1.
        -14    1    5    5    0    0 -0.51311168949E+02  0.11642753962E+03  0.24554910391E+02  0.12958067628E+03  0.00000000000E+00 0.  1.
          4    1    6    6  502    0  0.34853521121E+02  0.12736967907E+04 -0.87782893602E+03  0.15472885715E+04  0.00000000000E+00 0. -1.
         -3    1    6    6    0  502  0.38848315557E+02  0.19813408197E+03 -0.12767176096E+03  0.23888571453E+03  0.00000000000E+00 0.  1.
<mgrwt>
<rscale>  0 0.19046525E+04</rscale>
<asrwt>0</asrwt>
<pdfrwt beam="1">  1        1 0.22330301E+00 0.19046525E+04</pdfrwt>
<pdfrwt beam="2">  1       -2 0.41352030E+00 0.19046525E+04</pdfrwt>
<totfact> 0.33827910E-02</totfact>
</mgrwt>
</event>
<event>
12    3  0.2212098E-007  0.7451853E+03  0.7818608E-02  0.9642934E-01
          1   -1    0    0  501    0  0.00000000000E+00  0.00000000000E+00  0.12020259129E+04  0.12020259129E+04  0.00000000000E+00 0. -1.
         -2   -1    0    0    0  501 -0.00000000000E+00 -0.00000000000E+00 -0.56701315569E+03  0.56701315569E+03  0.00000000000E+00 0.  1.
        -24    2    1    2    0    0  0.57769092167E+03  0.23564103672E+03 -0.95935148335E+02  0.63615496617E+03  0.78968912425E+02 0.  0.
    5000000    2    1    2    0    0 -0.57769092167E+03 -0.23564103672E+03  0.73094790552E+03  0.11328841024E+04  0.59990670084E+03 0.  0.
        -24    2    4    4    0    0 -0.48835911261E+03 -0.41680458111E+03  0.51087398274E+03  0.82421740256E+03  0.78239496047E+02 0.  0.
         24    2    4    4    0    0 -0.89331809060E+02  0.18116354439E+03  0.22007392278E+03  0.30866669984E+03  0.77731577730E+02 0.  0.
         13    1    5    5    0    0 -0.33735610352E+03 -0.32997314158E+03  0.35582697506E+03  0.59101967051E+03  0.00000000000E+00 0. -1.
        -14    1    5    5    0    0 -0.15100300909E+03 -0.86831439531E+02  0.15504700768E+03  0.23319773205E+03  0.00000000000E+00 0.  1.
         13    1    3    3    0    0  0.46589252002E+03  0.15815492079E+03 -0.88704162155E+02  0.49993724362E+03  0.00000000000E+00 0. -1.
        -14    1    3    3    0    0  0.11179840165E+03  0.77486115937E+02 -0.72309861799E+01  0.13621772255E+03  0.00000000000E+00 0.  1.
          2    1    6    6  502    0  0.33478579126E+00  0.84127927005E+02  0.79491547335E+02  0.11574336388E+03  0.00000000000E+00 0. -1.
         -1    1    6    6    0  502 -0.89666594851E+02  0.97035617380E+02  0.14058237544E+03  0.19292333596E+03  0.00000000000E+00 0.  1.
<mgrwt>
<rscale>  0 0.74518534E+03</rscale>
<asrwt>0</asrwt>
<pdfrwt beam="1">  1        1 0.18492706E+00 0.74518534E+03</pdfrwt>
<pdfrwt beam="2">  1       -2 0.87232794E-01 0.74518534E+03</pdfrwt>
<totfact> 0.10899741E+01</totfact>
</mgrwt>
</event>
<event>
12    3  0.2212098E-007  0.1067584E+04  0.7818608E-02  0.9237376E-01
          1   -1    0    0  501    0  0.00000000000E+00  0.00000000000E+00  0.74974298842E+03  0.74974298842E+03  0.00000000000E+00 0. -1.
         -2   -1    0    0    0  501 -0.00000000000E+00 -0.00000000000E+00 -0.16514596224E+04  0.16514596224E+04  0.00000000000E+00 0.  1.
        -24    2    1    2    0    0  0.59041510903E+03 -0.84005002530E+03 -0.50919582955E+03  0.11488793643E+04  0.79808238655E+02 0.  0.
    5000000    2    1    2    0    0 -0.59041510903E+03  0.84005002530E+03 -0.39252080441E+03  0.12523232465E+04  0.59997240420E+03 0.  0.
        -24    2    4    4    0    0 -0.61668088254E+03  0.80677965270E+03 -0.47928832733E+03  0.11281012529E+04  0.10819619757E+03 0.  0.
         24    2    4    4    0    0  0.26265773512E+02  0.33270372594E+02  0.86767522924E+02  0.12422199358E+03  0.78138928220E+02 0.  0.
         13    1    3    3    0    0  0.49799290858E+03 -0.66466231785E+03 -0.43169510257E+03  0.93602008277E+03  0.00000000000E+00 0. -1.
        -14    1    3    3    0    0  0.92422200448E+02 -0.17538770745E+03 -0.77500726982E+02  0.21285928155E+03  0.00000000000E+00 0.  1.
         13    1    5    5    0    0 -0.65083059557E+02  0.12346881605E+03 -0.34759863617E+02  0.14383532701E+03  0.00000000000E+00 0. -1.
        -14    1    5    5    0    0 -0.55159782298E+03  0.68331083665E+03 -0.44452846371E+03  0.98426592589E+03  0.00000000000E+00 0.  1.
          4    1    6    6  502    0  0.52097105536E+02  0.83491973893E+01  0.47107358570E+02  0.70731327810E+02  0.00000000000E+00 0. -1.
         -3    1    6    6    0  502 -0.25831332024E+02  0.24921175205E+02  0.39660164353E+02  0.53490665768E+02  0.00000000000E+00 0.  1.
<mgrwt>
<rscale>  0 0.10675835E+04</rscale>
<asrwt>0</asrwt>
<pdfrwt beam="1">  1        1 0.11534508E+00 0.10675835E+04</pdfrwt>
<pdfrwt beam="2">  1       -2 0.25407071E+00 0.10675835E+04</pdfrwt>
<totfact> 0.12950566E+00</totfact>
</mgrwt>
</event>
<event>
12    3  0.2212098E-007  0.5656879E+03  0.7818608E-02  0.9979266E-01
          1   -1    0    0  501    0  0.00000000000E+00  0.00000000000E+00  0.69013693378E+03  0.69013693378E+03  0.00000000000E+00 0. -1.
         -2   -1    0    0    0  501 -0.00000000000E+00 -0.00000000000E+00 -0.50450823622E+03  0.50450823622E+03  0.00000000000E+00 0.  1.
        -24    2    1    2    0    0 -0.39901578349E+03 -0.15520385857E+03  0.13386853391E+03  0.45565141534E+03  0.79972462359E+02 0.  0.
    5000000    2    1    2    0    0  0.39901578349E+03  0.15520385857E+03  0.51760163645E+02  0.73899375467E+03  0.60010900819E+03 0.  0.
        -24    2    4    4    0    0  0.25719109881E+03  0.35793945353E+03  0.13298016127E+03  0.46730979044E+03  0.80167345287E+02 0.  0.
         24    2    4    4    0    0  0.14182468468E+03 -0.20273559496E+03 -0.81219997629E+02  0.27168396423E+03  0.77456605639E+02 0.  0.
         13    1    3    3    0    0 -0.35500770768E+02  0.16997336977E+01 -0.53807611998E+01  0.35946438083E+02  0.00000000000E+00 0. -1.
        -14    1    3    3    0    0 -0.36351501272E+03 -0.15690359227E+03  0.13924929511E+03  0.41970497725E+03  0.00000000000E+00 0.  1.
         13    1    5    5    0    0  0.10557323703E+03  0.16322789276E+03  0.99155644347E+02  0.21822212343E+03  0.00000000000E+00 0. -1.
        -14    1    5    5    0    0  0.15161786178E+03  0.19471156077E+03  0.33824516926E+02  0.24908766701E+03  0.00000000000E+00 0.  1.
          2    1    6    6  502    0  0.12320766921E+03 -0.11332416820E+03 -0.60810150566E+02  0.17810213716E+03  0.00000000000E+00 0. -1.
         -1    1    6    6    0  502  0.18617015470E+02 -0.89411426758E+02 -0.20409847062E+02  0.93581827066E+02  0.00000000000E+00 0.  1.
<mgrwt>
<rscale>  0 0.56568793E+03</rscale>
<asrwt>0</asrwt>
<pdfrwt beam="1">  1        1 0.10617491E+00 0.56568793E+03</pdfrwt>
<pdfrwt beam="2">  1       -2 0.77616652E-01 0.56568793E+03</pdfrwt>
<totfact> 0.37400845E+01</totfact>
</mgrwt>
</event>
<event>
12    3  0.2212098E-007  0.9581156E+03  0.7818608E-02  0.9355715E-01
          1   -1    0    0  501    0  0.00000000000E+00  0.00000000000E+00  0.23556678542E+04  0.23556678542E+04  0.00000000000E+00 0. -1.
         -2   -1    0    0    0  501 -0.00000000000E+00 -0.00000000000E+00 -0.55078169453E+03  0.55078169453E+03  0.00000000000E+00 0.  1.
        -24    2    1    2    0    0  0.39664030645E+03 -0.84533801033E+03  0.20501259257E+03  0.95927439280E+03  0.79103180460E+02 0.  0.
    5000000    2    1    2    0    0 -0.39664030645E+03  0.84533801033E+03  0.15998735671E+04  0.19471751559E+04  0.59997981030E+03 0.  0.
        -24    2    4    4    0    0 -0.14406219600E+03  0.62921432884E+03  0.58041066338E+03  0.87200885106E+03  0.82814915518E+02 0.  0.
         24    2    4    4    0    0 -0.25257811045E+03  0.21612368150E+03  0.10194629037E+04  0.10751663049E+04  0.78567318224E+02 0.  0.
         13    1    3    3    0    0  0.14586404041E+03 -0.32399544077E+03  0.39270816324E+02  0.35747945527E+03  0.00000000000E+00 0. -1.
        -14    1    3    3    0    0  0.25077626604E+03 -0.52134256956E+03  0.16574177625E+03  0.60179493753E+03  0.00000000000E+00 0.  1.
         13    1    5    5    0    0 -0.73253337289E+02  0.43029913165E+03  0.34998606050E+03  0.55947621636E+03  0.00000000000E+00 0. -1.
        -14    1    5    5    0    0 -0.70808858708E+02  0.19891519719E+03  0.23042460287E+03  0.31253263470E+03  0.00000000000E+00 0.  1.
          2    1    6    6  502    0 -0.17096064682E+03  0.16960506987E+03  0.82103240605E+03  0.85562119788E+03  0.00000000000E+00 0. -1.
         -1    1    6    6    0  502 -0.81617463633E+02  0.46518611625E+02  0.19843049768E+03  0.21954510700E+03  0.00000000000E+00 0.  1.
<mgrwt>
<rscale>  0 0.95811561E+03</rscale>
<asrwt>0</asrwt>
<pdfrwt beam="1">  1        1 0.36241043E+00 0.95811561E+03</pdfrwt>
<pdfrwt beam="2">  1       -2 0.84735647E-01 0.95811561E+03</pdfrwt>
<totfact> 0.18485979E+00</totfact>
</mgrwt>
</event>
<event>
12    3  0.2212098E-007  0.4768600E+03  0.7818608E-02  0.1020002E+00
         -2   -1    0    0    0  501 -0.00000000000E+00  0.00000000000E+00  0.14337637648E+04  0.14337637648E+04  0.00000000000E+00 0.  1.
          1   -1    0    0  501    0  0.00000000000E+00 -0.00000000000E+00 -0.27028152671E+03  0.27028152671E+03  0.00000000000E+00 0. -1.
        -24    2    1    2    0    0  0.30991906121E+03  0.16495130079E+03  0.12410037939E+02  0.35942131497E+03  0.75966548415E+02 0.  0.
    5000000    2    1    2    0    0 -0.30991906121E+03 -0.16495130079E+03  0.11510722001E+04  0.13446239765E+04  0.59982303405E+03 0.  0.
        -24    2    4    4    0    0 -0.30636513393E+03  0.10288446397E+03  0.93017465016E+03  0.98837100192E+03  0.84897287416E+02 0.  0.
         24    2    4    4    0    0 -0.35539272822E+01 -0.26783576476E+03  0.22089754995E+03  0.35625297459E+03  0.79823724819E+02 0.  0.
         13    1    3    3    0    0  0.25615420576E+03  0.12737830730E+03  0.38844324059E+02  0.28870242779E+03  0.00000000000E+00 0. -1.
        -14    1    3    3    0    0  0.53764855451E+02  0.37572993484E+02 -0.26434286120E+02  0.70718887178E+02  0.00000000000E+00 0.  1.
         13    1    5    5    0    0 -0.26607023736E+03  0.55299368972E+02  0.76202129413E+03  0.80902895135E+03  0.00000000000E+00 0. -1.
        -14    1    5    5    0    0 -0.40294896566E+02  0.47585095002E+02  0.16815335603E+03  0.17934205056E+03  0.00000000000E+00 0.  1.
          2    1    6    6  502    0  0.18087443616E+01 -0.39622374972E+02  0.76413308454E+02  0.86094122119E+02  0.00000000000E+00 0. -1.
         -1    1    6    6    0  502 -0.53626716439E+01 -0.22821338979E+03  0.14448424150E+03  0.27015885247E+03  0.00000000000E+00 0.  1.
<mgrwt>
<rscale>  0 0.47686001E+03</rscale>
<asrwt>0</asrwt>
<pdfrwt beam="1">  1        1 0.41581774E-01 0.47686001E+03</pdfrwt>
<pdfrwt beam="2">  1       -2 0.22057904E+00 0.47686001E+03</pdfrwt>
<totfact> 0.91270555E+00</totfact>
</mgrwt>
</event>
<event>
12    3  0.2212098E-007  0.9020071E+03  0.7818608E-02  0.9423076E-01
          1   -1    0    0  501    0  0.00000000000E+00  0.00000000000E+00  0.17720272767E+04  0.17720272767E+04  0.00000000000E+00 0. -1.
         -2   -1    0    0    0  501 -0.00000000000E+00 -0.00000000000E+00 -0.49525368107E+03  0.49525368107E+03  0.00000000000E+00 0.  1.
        -24    2    1    2    0    0  0.18121117997E+03  0.78403514407E+03  0.85979816783E+03  0.11803584986E+04  0.80278869181E+02 0.  0.
    5000000    2    1    2    0    0 -0.18121117997E+03 -0.78403514407E+03  0.41697542781E+03  0.10869224592E+04  0.59998610491E+03 0.  0.
        -24    2    4    4    0    0 -0.38932100696E+03 -0.47172514013E+03  0.29537381981E+03  0.68394287266E+03  0.80229080443E+02 0.  0.
         24    2    4    4    0    0  0.20810982698E+03 -0.31231000394E+03  0.12160160801E+03  0.40297958657E+03  0.82209229836E+02 0.  0.
         11    1    5    5    0    0 -0.67748693336E+02 -0.46191776486E+02  0.23629412407E+02  0.85334136161E+02  0.00000000000E+00 0. -1.
        -12    1    5    5    0    0 -0.32157231362E+03 -0.42553336364E+03  0.27174440740E+03  0.59860873650E+03  0.00000000000E+00 0.  1.
         11    1    3    3    0    0  0.39902912913E+02  0.85388598926E+02  0.12605150333E+03  0.15739261983E+03  0.00000000000E+00 0. -1.
        -12    1    3    3    0    0  0.14130826706E+03  0.69864654514E+03  0.73374666450E+03  0.10229658787E+04  0.00000000000E+00 0.  1.
          4    1    6    6  502    0  0.84849589163E+02 -0.18935607718E+03  0.89352039343E+02  0.22591804638E+03  0.00000000000E+00 0. -1.
         -3    1    6    6    0  502  0.12326023782E+03 -0.12295392676E+03  0.32249568664E+02  0.17706154019E+03  0.00000000000E+00 0.  1.
<mgrwt>
<rscale>  0 0.90200705E+03</rscale>
<asrwt>0</asrwt>
<pdfrwt beam="1">  1        1 0.27261958E+00 0.90200705E+03</pdfrwt>
<pdfrwt beam="2">  1       -2 0.76192875E-01 0.90200705E+03</pdfrwt>
<totfact> 0.58571223E+00</totfact>
</mgrwt>
</event>
<event>
12    3  0.2212098E-007  0.1550212E+04  0.7818608E-02  0.8851733E-01
         -2   -1    0    0    0  501 -0.00000000000E+00  0.00000000000E+00  0.15581479660E+04  0.15581479660E+04  0.00000000000E+00 0.  1.
          1   -1    0    0  501    0  0.00000000000E+00 -0.00000000000E+00 -0.15715851856E+04  0.15715851856E+04  0.00000000000E+00 0. -1.
        -24    2    1    2    0    0 -0.78742866581E+03 -0.12812113165E+04 -0.95338631202E+02  0.15085765166E+04  0.71884007901E+02 0.  0.
    5000000    2    1    2    0    0  0.78742866581E+03  0.12812113165E+04  0.81901411666E+02  0.16211566350E+04  0.59991220417E+03 0.  0.
        -24    2    4    4    0    0  0.16406465278E+03  0.76545402127E+03 -0.83628398885E+02  0.79133590930E+03  0.79885813975E+02 0.  0.
         24    2    4    4    0    0  0.62336401303E+03  0.51575729522E+03  0.16552981055E+03  0.82982072570E+03  0.81326737942E+02 0.  0.
         11    1    3    3    0    0 -0.50776299281E+03 -0.84844535513E+03 -0.94773275974E+02  0.99330999761E+03  0.00000000000E+00 0. -1.
        -12    1    3    3    0    0 -0.27966567300E+03 -0.43276596136E+03 -0.56535522846E+00  0.51526651899E+03  0.00000000000E+00 0.  1.
         13    1    5    5    0    0  0.11127829845E+03  0.57477112621E+03 -0.95243700878E+02  0.59314085156E+03  0.00000000000E+00 0. -1.
        -14    1    5    5    0    0  0.52786354333E+02  0.19068289506E+03  0.11615301993E+02  0.19819505774E+03  0.00000000000E+00 0.  1.
          4    1    6    6  502    0  0.86987035251E+02  0.38544625407E+02  0.16055238427E+02  0.96489393875E+02  0.00000000000E+00 0. -1.
         -3    1    6    6    0  502  0.53637697778E+03  0.47721266981E+03  0.14947457212E+03  0.73333133182E+03  0.00000000000E+00 0.  1.
<mgrwt>
<rscale>  0 0.15502117E+04</rscale>
<asrwt>0</asrwt>
<pdfrwt beam="1">  1        1 0.24178234E+00 0.15502117E+04</pdfrwt>
<pdfrwt beam="2">  1       -2 0.23971507E+00 0.15502117E+04</pdfrwt>
<totfact> 0.35678786E-01</totfact>
</mgrwt>
</event>
<event>
12    3  0.2212098E-007  0.6907835E+03  0.7818608E-02  0.9733125E-01
          1   -1    0    0  501    0  0.00000000000E+00  0.00000000000E+00  0.13082457935E+04  0.13082457935E+04  0.00000000000E+00 0. -1.
         -2   -1    0    0    0  501 -0.00000000000E+00 -0.00000000000E+00 -0.48689273352E+03  0.48689273352E+03  0.00000000000E+00 0.  1.
        -24    2    1    2    0    0 -0.58093309327E+03 -0.47455314433E+02 -0.46045243333E+02  0.59003688971E+03  0.79297547634E+02 0.  0.
    5000000    2    1    2    0    0  0.58093309327E+03  0.47455314433E+02  0.86739830330E+03  0.12051016373E+04  0.60012904772E+03 0.  0.
        -24    2    4    4    0    0  0.37152704662E+02 -0.18162379386E+03  0.75653317515E+02  0.21542088454E+03  0.79468277224E+02 0.  0.
         24    2    4    4    0    0  0.54378038861E+03  0.22907910830E+03  0.79174498578E+03  0.98968075275E+03  0.66584690096E+02 0.  0.
         11    1    5    5    0    0  0.52552820707E+02 -0.17652871647E+03  0.62382101663E+02  0.19446262703E+03  0.00000000000E+00 0. -1.
        -12    1    5    5    0    0 -0.15400116045E+02 -0.50950773936E+01  0.13271215851E+02  0.20958257514E+02  0.00000000000E+00 0.  1.
         13    1    3    3    0    0 -0.17475664898E+03 -0.48240315875E+02 -0.30969016381E+00  0.18129288554E+03  0.00000000000E+00 0. -1.
        -14    1    3    3    0    0 -0.40617644429E+03  0.78500144211E+00 -0.45735553169E+02  0.40874400417E+03  0.00000000000E+00 0.  1.
          4    1    6    6  502    0  0.50561542721E+03  0.19308186053E+03  0.72723275865E+03  0.90652912273E+03  0.00000000000E+00 0. -1.
         -3    1    6    6    0  502  0.38164961392E+02  0.35997247770E+02  0.64512227130E+02  0.83151630016E+02  0.00000000000E+00 0.  1.
<mgrwt>
<rscale>  0 0.69078346E+03</rscale>
<asrwt>0</asrwt>
<pdfrwt beam="1">  1        1 0.20126858E+00 0.69078346E+03</pdfrwt>
<pdfrwt beam="2">  1       -2 0.74906575E-01 0.69078346E+03</pdfrwt>
<totfact> 0.12992066E+01</totfact>
</mgrwt>
</event>
<event>
12    3  0.2212098E-007  0.8420575E+03  0.7818608E-02  0.9501060E-01
         -2   -1    0    0    0  501 -0.00000000000E+00  0.00000000000E+00  0.11216599547E+04  0.11216599547E+04  0.00000000000E+00 0.  1.
          1   -1    0    0  501    0  0.00000000000E+00 -0.00000000000E+00 -0.72845505206E+03  0.72845505206E+03  0.00000000000E+00 0. -1.
        -24    2    1    2    0    0 -0.33708621011E+03  0.71527490182E+03  0.37365939653E+02  0.79557597440E+03  0.79370141615E+02 0.  0.
    5000000    2    1    2    0    0  0.33708621011E+03 -0.71527490182E+03  0.35583896297E+03  0.10545390323E+04  0.60015490080E+03 0.  0.
        -24    2    4    4    0    0  0.21855206575E+03 -0.82011492045E+02 -0.94684679421E+02  0.26428848852E+03  0.79952025464E+02 0.  0.
         24    2    4    4    0    0  0.11853414436E+03 -0.63326340978E+03  0.45052364239E+03  0.79025054383E+03  0.80321106336E+02 0.  0.
         11    1    5    5    0    0  0.17027498970E+03 -0.90725306472E+02 -0.53451166833E+02  0.20020409733E+03  0.00000000000E+00 0. -1.
        -12    1    5    5    0    0  0.48277076049E+02  0.87138144269E+01 -0.41233512588E+02  0.64084391189E+02  0.00000000000E+00 0.  1.
         11    1    3    3    0    0 -0.30424854646E+03  0.59430530220E+03  0.12432189054E+02  0.66777281284E+03  0.00000000000E+00 0. -1.
        -12    1    3    3    0    0 -0.32837663655E+02  0.12096959962E+03  0.24933750599E+02  0.12780316156E+03  0.00000000000E+00 0.  1.
          2    1    6    6  502    0  0.22387721821E+02 -0.33483044610E+03  0.22492775330E+03  0.40398654919E+03  0.00000000000E+00 0. -1.
         -1    1    6    6    0  502  0.96146422536E+02 -0.29843296368E+03  0.22559588909E+03  0.38626399463E+03  0.00000000000E+00 0.  1.
<mgrwt>
<rscale>  0 0.84205752E+03</rscale>
<asrwt>0</asrwt>
<pdfrwt beam="1">  1        1 0.11207001E+00 0.84205752E+03</pdfrwt>
<pdfrwt beam="2">  1       -2 0.17256307E+00 0.84205752E+03</pdfrwt>
<totfact> 0.46481097E+00</totfact>
</mgrwt>
</event>
<event>
12    3  0.2212098E-007  0.8548291E+03  0.7818608E-02  0.9483878E-01
         -2   -1    0    0    0  501 -0.00000000000E+00  0.00000000000E+00  0.35212273491E+03  0.35212273491E+03  0.00000000000E+00 0.  1.
          1   -1    0    0  501    0  0.00000000000E+00 -0.00000000000E+00 -0.25389656613E+04  0.25389656613E+04  0.00000000000E+00 0. -1.
        -24    2    1    2    0    0 -0.55506074459E+03  0.51324114066E+03 -0.39676593688E+03  0.85738135687E+03  0.78553700029E+02 0.  0.
    5000000    2    1    2    0    0  0.55506074459E+03 -0.51324114066E+03 -0.17900769895E+04  0.20337070393E+04  0.60006649197E+03 0.  0.
        -24    2    4    4    0    0  0.14876781949E+02 -0.39748899961E+03 -0.67766426391E+03  0.78903014535E+03  0.71560409789E+02 0.  0.
         24    2    4    4    0    0  0.54018396264E+03 -0.11575214105E+03 -0.11124127256E+04  0.12446768940E+04  0.81001399080E+02 0.  0.
         11    1    3    3    0    0 -0.27467776999E+03  0.23533940954E+03 -0.14830987362E+03  0.39093264589E+03  0.00000000000E+00 0. -1.
        -12    1    3    3    0    0 -0.28038297461E+03  0.27790173113E+03 -0.24845606325E+03  0.46644871099E+03  0.00000000000E+00 0.  1.
         13    1    5    5    0    0  0.17732648006E+02 -0.18757989962E+03 -0.25450560774E+03  0.31666033840E+03  0.00000000000E+00 0. -1.
        -14    1    5    5    0    0 -0.28558660565E+01 -0.20990909999E+03 -0.42315865617E+03  0.47236980695E+03  0.00000000000E+00 0.  1.
          4    1    6    6  502    0  0.45755331158E+03 -0.11669084960E+03 -0.89185335425E+03  0.10091452783E+04  0.00000000000E+00 0. -1.
         -3    1    6    6    0  502  0.82630651061E+02  0.93870855084E+00 -0.22055937135E+03  0.23553161563E+03  0.00000000000E+00 0.  1.
<mgrwt>
<rscale>  0 0.85482909E+03</rscale>
<asrwt>0</asrwt>
<pdfrwt beam="1">  1        1 0.39061009E+00 0.85482909E+03</pdfrwt>
<pdfrwt beam="2">  1       -2 0.54172730E-01 0.85482909E+03</pdfrwt>
<totfact> 0.37226180E+00</totfact>
</mgrwt>
</event>
<event>
12    3  0.2212098E-007  0.1199286E+04  0.7818608E-02  0.9113482E-01
          1   -1    0    0  501    0  0.00000000000E+00  0.00000000000E+00  0.13378954573E+04  0.13378954573E+04  0.00000000000E+00 0. -1.
         -2   -1    0    0    0  501 -0.00000000000E+00 -0.00000000000E+00 -0.12881893589E+04  0.12881893589E+04  0.00000000000E+00 0.  1.
        -24    2    1    2    0    0  0.58437504743E+03  0.99832848115E+03  0.47976056185E+03  0.12538553829E+04  0.61880305418E+02 0.  0.
    5000000    2    1    2    0    0 -0.58437504743E+03 -0.99832848115E+03 -0.43005446349E+03  0.13722294333E+04  0.59992734877E+03 0.  0.
        -24    2    4    4    0    0  0.19255477717E+00 -0.38925446614E+03  0.46516377527E+02  0.39982429968E+03  0.78591480107E+02 0.  0.
         24    2    4    4    0    0 -0.58456760220E+03 -0.60907401501E+03 -0.47657084102E+03  0.97240513365E+03  0.75904809776E+02 0.  0.
         11    1    3    3    0    0  0.73243792618E+02  0.13359857765E+03  0.85874510064E+02  0.17489329485E+03  0.00000000000E+00 0. -1.
        -12    1    3    3    0    0  0.51113125481E+03  0.86472990350E+03  0.39388605178E+03  0.10789620880E+04  0.00000000000E+00 0.  1.
         13    1    5    5    0    0 -0.30855598905E+02 -0.17054429476E+03  0.44404992416E+02  0.17891122886E+03  0.00000000000E+00 0. -1.
        -14    1    5    5    0    0  0.31048153682E+02 -0.21871017138E+03  0.21113851105E+01  0.22091307082E+03  0.00000000000E+00 0.  1.
          4    1    6    6  502    0 -0.32021715708E+03 -0.38658282038E+03 -0.27439613413E+03  0.57208263662E+03  0.00000000000E+00 0. -1.
         -3    1    6    6    0  502 -0.26435044512E+03 -0.22249119462E+03 -0.20217470689E+03  0.40032249703E+03  0.00000000000E+00 0.  1.
<mgrwt>
<rscale>  0 0.11992859E+04</rscale>
<asrwt>0</asrwt>
<pdfrwt beam="1">  1        1 0.20583007E+00 0.11992859E+04</pdfrwt>
<pdfrwt beam="2">  1       -2 0.19818298E+00 0.11992859E+04</pdfrwt>
<totfact> 0.99271015E-01</totfact>
</mgrwt>
</event>
<event>
12    3  0.2212098E-007  0.1949862E+04  0.7818608E-02  0.8630427E-01
         -2   -1    0    0    0  501 -0.00000000000E+00  0.00000000000E+00  0.18323786395E+04  0.18323786395E+04  0.00000000000E+00 0.  1.
          1   -1    0    0  501    0  0.00000000000E+00 -0.00000000000E+00 -0.26277545032E+04  0.26277545032E+04  0.00000000000E+00 0. -1.
        -24    2    1    2    0    0 -0.90397565650E+03 -0.16900376439E+04  0.60548496919E+03  0.20115495594E+04  0.79500671585E+02 0.  0.
    5000000    2    1    2    0    0  0.90397565650E+03  0.16900376439E+04 -0.14008608329E+04  0.24485835832E+04  0.59979268539E+03 0.  0.
        -24    2    4    4    0    0  0.42783016978E+03  0.33112005955E+03 -0.54380917993E+03  0.77091715217E+03  0.76848443901E+02 0.  0.
         24    2    4    4    0    0  0.47614548672E+03  0.13589175844E+04 -0.85705165299E+03  0.16776664311E+04  0.81581813935E+02 0.  0.
         11    1    5    5    0    0  0.31152817363E+03  0.25873550273E+03 -0.44708210969E+03  0.60322158129E+03  0.00000000000E+00 0. -1.
        -12    1    5    5    0    0  0.11630199615E+03  0.72384556820E+02 -0.96727070244E+02  0.16769557088E+03  0.00000000000E+00 0.  1.
         13    1    3    3    0    0 -0.55764618963E+03 -0.97140772993E+03  0.37482373363E+03  0.11811414318E+04  0.00000000000E+00 0. -1.
        -14    1    3    3    0    0 -0.34632946687E+03 -0.71862991398E+03  0.23066123556E+03  0.83040812766E+03  0.00000000000E+00 0.  1.
          4    1    6    6  502    0  0.29326174220E+03  0.85134061666E+03 -0.58120067955E+03  0.10717170918E+04  0.00000000000E+00 0. -1.
         -3    1    6    6    0  502  0.18288374452E+03  0.50757696771E+03 -0.27585097344E+03  0.60594933923E+03  0.00000000000E+00 0.  1.
<mgrwt>
<rscale>  0 0.19498619E+04</rscale>
<asrwt>0</asrwt>
<pdfrwt beam="1">  1        1 0.40426992E+00 0.19498619E+04</pdfrwt>
<pdfrwt beam="2">  1       -2 0.28190441E+00 0.19498619E+04</pdfrwt>
<totfact> 0.35369390E-02</totfact>
</mgrwt>
</event>
<event>
12    3  0.2212098E-007  0.1148572E+04  0.7818608E-02  0.9159102E-01
         -2   -1    0    0    0  501 -0.00000000000E+00  0.00000000000E+00  0.44925662658E+03  0.44925662658E+03  0.00000000000E+00 0.  1.
          1   -1    0    0  501    0  0.00000000000E+00 -0.00000000000E+00 -0.31249446069E+04  0.31249446069E+04  0.00000000000E+00 0. -1.
        -24    2    1    2    0    0  0.10621822330E+04  0.29679464640E+03 -0.11022420795E+04  0.15612535528E+04  0.79100544349E+02 0.  0.
    5000000    2    1    2    0    0 -0.10621822330E+04 -0.29679464640E+03 -0.15734459009E+04  0.20129476807E+04  0.59992349835E+03 0.  0.
        -24    2    4    4    0    0 -0.10958294236E+04 -0.29489646126E+03 -0.13040821936E+04  0.17305080102E+04  0.78876847924E+02 0.  0.
         24    2    4    4    0    0  0.33647190574E+02 -0.18981851465E+01 -0.26936370730E+03  0.28243967052E+03  0.77971944509E+02 0.  0.
         13    1    3    3    0    0  0.45285419421E+03  0.88784160608E+02 -0.44030521308E+03  0.63783087810E+03  0.00000000000E+00 0. -1.
        -14    1    3    3    0    0  0.60932803884E+03  0.20801048579E+03 -0.66193686639E+03  0.92342267473E+03  0.00000000000E+00 0.  1.
         13    1    5    5    0    0 -0.32398800809E+03 -0.58550212610E+02 -0.34379817107E+03  0.47601842319E+03  0.00000000000E+00 0. -1.
        -14    1    5    5    0    0 -0.77184141553E+03 -0.23634624865E+03 -0.96028402249E+03  0.12544895870E+04  0.00000000000E+00 0.  1.
          4    1    6    6  502    0  0.44477746990E+02 -0.93511241947E+00 -0.71053799678E+02  0.83831896443E+02  0.00000000000E+00 0. -1.
         -3    1    6    6    0  502 -0.10830556416E+02 -0.96307272700E+00 -0.19830990762E+03  0.19860777407E+03  0.00000000000E+00 0.  1.
<mgrwt>
<rscale>  0 0.11485719E+04</rscale>
<asrwt>0</asrwt>
<pdfrwt beam="1">  1        1 0.48076071E+00 0.11485719E+04</pdfrwt>
<pdfrwt beam="2">  1       -2 0.69116404E-01 0.11485719E+04</pdfrwt>
<totfact> 0.81598992E-01</totfact>
</mgrwt>
</event>
<event>
12    3  0.2212098E-007  0.1051425E+04  0.7818608E-02  0.9253874E-01
          1   -1    0    0  501    0  0.00000000000E+00  0.00000000000E+00  0.19539555601E+04  0.19539555601E+04  0.00000000000E+00 0. -1.
         -2   -1    0    0    0  501 -0.00000000000E+00 -0.00000000000E+00 -0.85149517078E+03  0.85149517078E+03  0.00000000000E+00 0.  1.
        -24    2    1    2    0    0 -0.67858062455E+03 -0.73640740369E+03  0.12773727579E+04  0.16250282114E+04  0.79170683553E+02 0.  0.
    5000000    2    1    2    0    0  0.67858062455E+03  0.73640740369E+03 -0.17491236857E+03  0.11804225194E+04  0.60002954887E+03 0.  0.
        -24    2    4    4    0    0 -0.43894051143E+02  0.39896556261E+02  0.96424582804E+02  0.13801348940E+03  0.78940484918E+02 0.  0.
         24    2    4    4    0    0  0.72247467569E+03  0.69651084743E+03 -0.27133695138E+03  0.10424090301E+04  0.76784289703E+02 0.  0.
         11    1    5    5    0    0  0.94253562066E+01  0.40801958302E+02  0.61006506572E+02  0.73996155205E+02  0.00000000000E+00 0. -1.
        -12    1    5    5    0    0 -0.53319407350E+02 -0.90540204145E+00  0.35418076232E+02  0.64017334192E+02  0.00000000000E+00 0.  1.
         11    1    3    3    0    0 -0.51721526366E+03 -0.51776571763E+03  0.96194485119E+03  0.12086897303E+04  0.00000000000E+00 0. -1.
        -12    1    3    3    0    0 -0.16136536089E+03 -0.21864168606E+03  0.31542790672E+03  0.41633848118E+03  0.00000000000E+00 0.  1.
          2    1    6    6  502    0  0.46549465554E+03  0.42705530380E+03 -0.13570419181E+03  0.64612470508E+03  0.00000000000E+00 0. -1.
         -1    1    6    6    0  502  0.25698002016E+03  0.26945554363E+03 -0.13563275956E+03  0.39628432498E+03  0.00000000000E+00 0.  1.
<mgrwt>
<rscale>  0 0.10514251E+04</rscale>
<asrwt>0</asrwt>
<pdfrwt beam="1">  1        1 0.30060855E+00 0.10514251E+04</pdfrwt>
<pdfrwt beam="2">  1       -2 0.13099926E+00 0.10514251E+04</pdfrwt>
<totfact> 0.11927867E+00</totfact>
</mgrwt>
</event>
<event>
12    3  0.2212098E-007  0.9872791E+03  0.7818608E-02  0.9322608E-01
         -2   -1    0    0    0  501 -0.00000000000E+00  0.00000000000E+00  0.13988429109E+04  0.13988429109E+04  0.00000000000E+00 0.  1.
          1   -1    0    0  501    0  0.00000000000E+00 -0.00000000000E+00 -0.15135595900E+04  0.15135595900E+04  0.00000000000E+00 0. -1.
        -24    2    1    2    0    0 -0.16661739191E+03 -0.88742541361E+03 -0.11154684686E+04  0.14370459643E+04  0.74471331482E+02 0.  0.
    5000000    2    1    2    0    0  0.16661739191E+03  0.88742541361E+03  0.10007517895E+04  0.14753565365E+04  0.59990628084E+03 0.  0.
        -24    2    4    4    0    0 -0.10562968916E+03  0.74808897918E+03  0.62722028521E+03  0.98610015496E+03  0.90517829436E+02 0.  0.
         24    2    4    4    0    0  0.27224708107E+03  0.13933643444E+03  0.37353150425E+03  0.48925638157E+03  0.79453805005E+02 0.  0.
         11    1    5    5    0    0 -0.79956925143E+02  0.47094874853E+03  0.44914985922E+03  0.65568394037E+03  0.00000000000E+00 0. -1.
        -12    1    5    5    0    0 -0.25672764016E+02  0.27714023065E+03  0.17807042598E+03  0.33041621459E+03  0.00000000000E+00 0.  1.
         13    1    3    3    0    0 -0.91760883926E+02 -0.35049929329E+03 -0.48862971662E+03  0.60829993784E+03  0.00000000000E+00 0. -1.
        -14    1    3    3    0    0 -0.74856507986E+02 -0.53692612033E+03 -0.62683875195E+03  0.82874602649E+03  0.00000000000E+00 0.  1.
          2    1    6    6  502    0  0.12729476196E+02 -0.86270889881E+01  0.85104297164E+01  0.17575370340E+02  0.00000000000E+00 0. -1.
         -1    1    6    6    0  502  0.25951760487E+03  0.14796352342E+03  0.36502107454E+03  0.47168101123E+03  0.00000000000E+00 0.  1.
<mgrwt>
<rscale>  0 0.98727907E+03</rscale>
<asrwt>0</asrwt>
<pdfrwt beam="1">  1        1 0.23285532E+00 0.98727907E+03</pdfrwt>
<pdfrwt beam="2">  1       -2 0.21520660E+00 0.98727907E+03</pdfrwt>
<totfact> 0.59673560E-01</totfact>
</mgrwt>
</event>
<event>
12    3  0.2212098E-007  0.6103190E+03  0.7818608E-02  0.9884226E-01
          1   -1    0    0  501    0  0.00000000000E+00  0.00000000000E+00  0.30220932585E+04  0.30220932585E+04  0.00000000000E+00 0. -1.
         -2   -1    0    0    0  501 -0.00000000000E+00 -0.00000000000E+00 -0.14295415483E+03  0.14295415483E+03  0.00000000000E+00 0.  1.
        -24    2    1    2    0    0  0.28975366200E+03 -0.42723395474E+03  0.12174383111E+04  0.13246436093E+04  0.77708516917E+02 0.  0.
    5000000    2    1    2    0    0 -0.28975366200E+03  0.42723395474E+03  0.16617007926E+04  0.18404038041E+04  0.59945858999E+03 0.  0.
        -24    2    4    4    0    0  0.11345592183E+03  0.50876750906E+02  0.80440975960E+03  0.81785824645E+03  0.79726783211E+02 0.  0.
         24    2    4    4    0    0 -0.40320958383E+03  0.37635720383E+03  0.85729103304E+03  0.10225455576E+04  0.80179727788E+02 0.  0.
         13    1    5    5    0    0  0.99118696763E+02  0.53315940091E+01  0.50466812902E+03  0.51433730410E+03  0.00000000000E+00 0. -1.
        -14    1    5    5    0    0  0.14337225069E+02  0.45545156897E+02  0.29974163058E+03  0.30352094235E+03  0.00000000000E+00 0.  1.
         13    1    3    3    0    0  0.13934996946E+03 -0.19942184354E+03  0.47641945868E+03  0.53494204011E+03  0.00000000000E+00 0. -1.
        -14    1    3    3    0    0  0.15040369254E+03 -0.22781211120E+03  0.74101885238E+03  0.78970156915E+03  0.00000000000E+00 0.  1.
          4    1    6    6  502    0 -0.11590431970E+03  0.61829937411E+02  0.20298158530E+03  0.24178146425E+03  0.00000000000E+00 0. -1.
         -3    1    6    6    0  502 -0.28730526413E+03  0.31452726642E+03  0.65430944774E+03  0.78076409339E+03  0.00000000000E+00 0.  1.
<mgrwt>
<rscale>  0 0.61031901E+03</rscale>
<asrwt>0</asrwt>
<pdfrwt beam="1">  1        1 0.46493737E+00 0.61031901E+03</pdfrwt>
<pdfrwt beam="2">  1       -2 0.21992949E-01 0.61031901E+03</pdfrwt>
<totfact> 0.99436518E+00</totfact>
</mgrwt>
</event>
<event>
12    3  0.2212098E-007  0.4239772E+03  0.7818608E-02  0.1035780E+00
          3   -1    0    0  501    0  0.00000000000E+00  0.00000000000E+00  0.98791713427E+03  0.98791713427E+03  0.00000000000E+00 0. -1.
         -4   -1    0    0    0  501 -0.00000000000E+00 -0.00000000000E+00 -0.33285729276E+03  0.33285729276E+03  0.00000000000E+00 0.  1.
        -24    2    1    2    0    0  0.36216113049E+03 -0.10821580861E+03  0.52711053948E+02  0.39029215349E+03  0.81720035472E+02 0.  0.
    5000000    2    1    2    0    0 -0.36216113049E+03  0.10821580861E+03  0.60234878757E+03  0.93048227354E+03  0.60008487218E+03 0.  0.
        -24    2    4    4    0    0 -0.24425473773E+03  0.18376923889E+03  0.68126905903E+03  0.75096354257E+03  0.79919968801E+02 0.  0.
         24    2    4    4    0    0 -0.11790639276E+03 -0.75553430278E+02 -0.78920271463E+02  0.17951873097E+03  0.79927011957E+02 0.  0.
         11    1    5    5    0    0 -0.20188856014E+03  0.11196743777E+03  0.53332449296E+03  0.58114603383E+03  0.00000000000E+00 0. -1.
        -12    1    5    5    0    0 -0.42366177584E+02  0.71801801120E+02  0.14794456607E+03  0.16981750874E+03  0.00000000000E+00 0.  1.
         13    1    3    3    0    0  0.17862232424E+03 -0.75400281153E+02  0.62155878419E+02  0.20360375816E+03  0.00000000000E+00 0. -1.
        -14    1    3    3    0    0  0.18353880625E+03 -0.32815527455E+02 -0.94448244710E+01  0.18668839533E+03  0.00000000000E+00 0.  1.
          2    1    6    6  502    0 -0.22652969970E+02 -0.49814666271E+02 -0.26144105997E+01  0.54785884742E+02  0.00000000000E+00 0. -1.
         -1    1    6    6    0  502 -0.95253422790E+02 -0.25738764007E+02 -0.76305860863E+02  0.12473284623E+03  0.00000000000E+00 0.  1.
<mgrwt>
<rscale>  0 0.42397720E+03</rscale>
<asrwt>0</asrwt>
<pdfrwt beam="1">  1        3 0.15198725E+00 0.42397720E+03</pdfrwt>
<pdfrwt beam="2">  1       -4 0.51208815E-01 0.42397720E+03</pdfrwt>
<totfact> 0.26007473E+00</totfact>
</mgrwt>
</event>
<event>
12    3  0.2212098E-007  0.2437685E+04  0.7818608E-02  0.8425528E-01
          1   -1    0    0  501    0  0.00000000000E+00  0.00000000000E+00  0.41773104024E+04  0.41773104024E+04  0.00000000000E+00 0. -1.
         -2   -1    0    0    0  501 -0.00000000000E+00 -0.00000000000E+00 -0.20360092634E+04  0.20360092634E+04  0.00000000000E+00 0.  1.
        -24    2    1    2    0    0 -0.15011603296E+04  0.18776074985E+04  0.27585743260E+04  0.36599080133E+04  0.79385766909E+02 0.  0.
    5000000    2    1    2    0    0  0.15011603296E+04 -0.18776074985E+04 -0.61727318708E+03  0.25534116525E+04  0.59999385474E+03 0.  0.
        -24    2    4    4    0    0  0.82253695343E+03 -0.58369342135E+03 -0.30974075770E+03  0.10580889006E+04  0.79672672402E+02 0.  0.
         24    2    4    4    0    0  0.67862337621E+03 -0.12939140772E+04 -0.30753242937E+03  0.14953227519E+04  0.81673810316E+02 0.  0.
         11    1    5    5    0    0  0.27133711537E+03 -0.21002999033E+03 -0.14214975333E+03  0.37140675733E+03  0.00000000000E+00 0. -1.
        -12    1    5    5    0    0  0.55119983806E+03 -0.37366343102E+03 -0.16759100437E+03  0.68668214328E+03  0.00000000000E+00 0.  1.
         13    1    3    3    0    0 -0.97107850876E+03  0.12743679888E+04  0.18419296258E+04  0.24412521351E+04  0.00000000000E+00 0. -1.
        -14    1    3    3    0    0 -0.53008182088E+03  0.60323950976E+03  0.91664470026E+03  0.12186558782E+04  0.00000000000E+00 0.  1.
          2    1    6    6  502    0  0.16486164982E+03 -0.32028670338E+03 -0.11194082974E+03  0.37721835229E+03  0.00000000000E+00 0. -1.
         -1    1    6    6    0  502  0.51376172640E+03 -0.97362737379E+03 -0.19559159964E+03  0.11181043996E+04  0.00000000000E+00 0.  1.
<mgrwt>
<rscale>  0 0.24376850E+04</rscale>
<asrwt>0</asrwt>
<pdfrwt beam="1">  1        1 0.64266314E+00 0.24376850E+04</pdfrwt>
<pdfrwt beam="2">  1       -2 0.31323219E+00 0.24376850E+04</pdfrwt>
<totfact> 0.12904432E-03</totfact>
</mgrwt>
</event>
<event>
12    3  0.2212098E-007  0.4430170E+03  0.7818608E-02  0.1029825E+00
          1   -1    0    0  501    0  0.00000000000E+00  0.00000000000E+00  0.55182240146E+03  0.55182240146E+03  0.00000000000E+00 0. -1.
         -4   -1    0    0    0  501 -0.00000000000E+00 -0.00000000000E+00 -0.72023561378E+03  0.72023561378E+03  0.00000000000E+00 0.  1.
        -24    2    1    2    0    0  0.74880409703E+02  0.42405491372E+03  0.15678482543E+03  0.46513822606E+03  0.79639451619E+02 0.  0.
    5000000    2    1    2    0    0 -0.74880409703E+02 -0.42405491372E+03 -0.32519803774E+03  0.80691978918E+03  0.59994677831E+03 0.  0.
        -24    2    4    4    0    0 -0.64330304482E+02 -0.18976249076E+03 -0.47207181945E+03  0.51898789557E+03  0.79677111305E+02 0.  0.
         24    2    4    4    0    0 -0.10550105221E+02 -0.23429242296E+03  0.14687378170E+03  0.28793189360E+03  0.79552645602E+02 0.  0.
         11    1    5    5    0    0  0.95805829192E+01 -0.62749217747E+02 -0.19909811206E+03  0.20897203191E+03  0.00000000000E+00 0. -1.
        -12    1    5    5    0    0 -0.73910887401E+02 -0.12701327301E+03 -0.27297370739E+03  0.31001586366E+03  0.00000000000E+00 0.  1.
         13    1    3    3    0    0  0.80055981019E+02  0.33126557851E+03  0.14877545622E+03  0.37186016186E+03  0.00000000000E+00 0. -1.
        -14    1    3    3    0    0 -0.51755713167E+01  0.92789335209E+02  0.80093692073E+01  0.93278064206E+02  0.00000000000E+00 0.  1.
          4    1    6    6  502    0  0.22894109762E+02 -0.13912997082E+03  0.54532028977E+02  0.15117880548E+03  0.00000000000E+00 0. -1.
         -3    1    6    6    0  502 -0.33444214983E+02 -0.95162452144E+02  0.92341752728E+02  0.13675308812E+03  0.00000000000E+00 0.  1.
<mgrwt>
<rscale>  0 0.44301702E+03</rscale>
<asrwt>0</asrwt>
<pdfrwt beam="1">  1        1 0.84895754E-01 0.44301702E+03</pdfrwt>
<pdfrwt beam="2">  1       -4 0.11080548E+00 0.44301702E+03</pdfrwt>
<totfact> 0.12164676E+01</totfact>
</mgrwt>
</event>
<event>
12    3  0.2212098E-007  0.6768114E+03  0.7818608E-02  0.9757731E-01
          1   -1    0    0  501    0  0.00000000000E+00  0.00000000000E+00  0.16592433933E+04  0.16592433933E+04  0.00000000000E+00 0. -1.
         -2   -1    0    0    0  501 -0.00000000000E+00 -0.00000000000E+00 -0.33931578379E+03  0.33931578379E+03  0.00000000000E+00 0.  1.
        -24    2    1    2    0    0 -0.61573004799E+03  0.92809181803E+02  0.45419517391E+03  0.77492649734E+03  0.80503317044E+02 0.  0.
    5000000    2    1    2    0    0  0.61573004799E+03 -0.92809181803E+02  0.86573243562E+03  0.12236326798E+04  0.60003937263E+03 0.  0.
        -24    2    4    4    0    0  0.15129199653E+03 -0.19708247546E+03  0.32114419705E+02  0.26027612621E+03  0.70580135813E+02 0.  0.
         24    2    4    4    0    0  0.46443805146E+03  0.10427329366E+03  0.83361801592E+03  0.96335655357E+03  0.81001416270E+02 0.  0.
         11    1    5    5    0    0  0.57716501901E+02 -0.96412755660E+02  0.47457310889E+02  0.12197872930E+03  0.00000000000E+00 0. -1.
        -12    1    5    5    0    0  0.93575494631E+02 -0.10066971980E+03 -0.15342891183E+02  0.13829739690E+03  0.00000000000E+00 0.  1.
         13    1    3    3    0    0 -0.10008621044E+03 -0.14071927605E+02  0.66172404385E+02  0.12080585983E+03  0.00000000000E+00 0. -1.
        -14    1    3    3    0    0 -0.51564383755E+03  0.10688110941E+03  0.38802276952E+03  0.65412063751E+03  0.00000000000E+00 0.  1.
          4    1    6    6  502    0  0.23203316784E+03  0.46256874106E+02  0.33430672240E+03  0.40956083067E+03  0.00000000000E+00 0. -1.
         -3    1    6    6    0  502  0.23240488361E+03  0.58016419552E+02  0.49931129352E+03  0.55379572290E+03  0.00000000000E+00 0.  1.
<mgrwt>
<rscale>  0 0.67681139E+03</rscale>
<asrwt>0</asrwt>
<pdfrwt beam="1">  1        1 0.25526821E+00 0.67681139E+03</pdfrwt>
<pdfrwt beam="2">  1       -2 0.52202429E-01 0.67681139E+03</pdfrwt>
<totfact> 0.16133552E+01</totfact>
</mgrwt>
</event>
<event>
12    3  0.2212098E-007  0.6530842E+03  0.7818608E-02  0.9801009E-01
          1   -1    0    0  501    0  0.00000000000E+00  0.00000000000E+00  0.13090111892E+04  0.13090111892E+04  0.00000000000E+00 0. -1.
         -2   -1    0    0    0  501 -0.00000000000E+00 -0.00000000000E+00 -0.38253746904E+03  0.38253746904E+03  0.00000000000E+00 0.  1.
        -24    2    1    2    0    0  0.40802077513E+03  0.40781928335E+03  0.40406840480E+03  0.70891660139E+03  0.80585055445E+02 0.  0.
    5000000    2    1    2    0    0 -0.40802077513E+03 -0.40781928335E+03  0.52240531539E+03  0.98263205688E+03  0.59988409285E+03 0.  0.
        -24    2    4    4    0    0  0.44948957660E+02 -0.23642968182E+03 -0.16318487016E+02  0.25371542700E+03  0.78649994556E+02 0.  0.
         24    2    4    4    0    0 -0.45296973279E+03 -0.17138960154E+03  0.53872380241E+03  0.72891662988E+03  0.80871154899E+02 0.  0.
         13    1    3    3    0    0  0.29671274876E+03  0.25379891219E+03  0.24372030249E+03  0.46027375436E+03  0.00000000000E+00 0. -1.
        -14    1    3    3    0    0  0.11130802637E+03  0.15402037116E+03  0.16034810230E+03  0.24864284703E+03  0.00000000000E+00 0.  1.
         13    1    5    5    0    0  0.11699379468E+02 -0.94041916767E+02 -0.44680642993E+02  0.10477173974E+03  0.00000000000E+00 0. -1.
        -14    1    5    5    0    0  0.33249578192E+02 -0.14238776505E+03  0.28362155977E+02  0.14894368727E+03  0.00000000000E+00 0.  1.
          2    1    6    6  502    0 -0.81491568455E+02 -0.38933462856E+02  0.58952774177E+02  0.10785230569E+03  0.00000000000E+00 0. -1.
         -1    1    6    6    0  502 -0.37147816433E+03 -0.13245613868E+03  0.47977102823E+03  0.62106432419E+03  0.00000000000E+00 0.  1.
<mgrwt>
<rscale>  0 0.65308422E+03</rscale>
<asrwt>0</asrwt>
<pdfrwt beam="1">  1        1 0.20138634E+00 0.65308422E+03</pdfrwt>
<pdfrwt beam="2">  1       -2 0.58851919E-01 0.65308422E+03</pdfrwt>
<totfact> 0.21932670E+01</totfact>
</mgrwt>
</event>
<event>
12    3  0.2212098E-007  0.7615413E+03  0.7818608E-02  0.9617416E-01
         -2   -1    0    0    0  501 -0.00000000000E+00  0.00000000000E+00  0.11883897400E+04  0.11883897400E+04  0.00000000000E+00 0.  1.
          1   -1    0    0  501    0  0.00000000000E+00 -0.00000000000E+00 -0.59533549951E+03  0.59533549951E+03  0.00000000000E+00 0. -1.
        -24    2    1    2    0    0  0.62563571617E+03 -0.15948685382E+03  0.62213957671E+03  0.90186360530E+03  0.97181293251E+02 0.  0.
    5000000    2    1    2    0    0 -0.62563571617E+03  0.15948685382E+03 -0.29085336200E+02  0.88186163424E+03  0.59998156578E+03 0.  0.
        -24    2    4    4    0    0 -0.29823303416E+03 -0.21534496464E+03  0.11220028292E+02  0.37664167719E+03  0.80104104137E+02 0.  0.
         24    2    4    4    0    0 -0.32740268201E+03  0.37483181846E+03 -0.40305364492E+02  0.50521995706E+03  0.77014766631E+02 0.  0.
         13    1    3    3    0    0  0.58083447549E+02 -0.24533076096E+02  0.10394128045E+03  0.12157034377E+03  0.00000000000E+00 0. -1.
        -14    1    3    3    0    0  0.56755226862E+03 -0.13495377773E+03  0.51819829626E+03  0.78029326153E+03  0.00000000000E+00 0.  1.
         13    1    5    5    0    0 -0.24301433478E+03 -0.13220908454E+03  0.10015296980E+02  0.27683120329E+03  0.00000000000E+00 0. -1.
        -14    1    5    5    0    0 -0.55218699380E+02 -0.83135880102E+02  0.12047313115E+01  0.99810473895E+02  0.00000000000E+00 0.  1.
          4    1    6    6  502    0 -0.30995677643E+03  0.33328378233E+03 -0.19419415072E+02  0.45555284711E+03  0.00000000000E+00 0. -1.
         -3    1    6    6    0  502 -0.17445905578E+02  0.41548036130E+02 -0.20885949419E+02  0.49667109951E+02  0.00000000000E+00 0.  1.
<mgrwt>
<rscale>  0 0.76154130E+03</rscale>
<asrwt>0</asrwt>
<pdfrwt beam="1">  1        1 0.91590077E-01 0.76154130E+03</pdfrwt>
<pdfrwt beam="2">  1       -2 0.18282919E+00 0.76154130E+03</pdfrwt>
<totfact> 0.53755147E+00</totfact>
</mgrwt>
</event>
<event>
12    3  0.2212098E-007  0.1166483E+04  0.7818608E-02  0.9142711E-01
          1   -1    0    0  501    0  0.00000000000E+00  0.00000000000E+00  0.25246787357E+04  0.25246787357E+04  0.00000000000E+00 0. -1.
         -2   -1    0    0    0  501 -0.00000000000E+00 -0.00000000000E+00 -0.63386298974E+03  0.63386298974E+03  0.00000000000E+00 0.  1.
        -24    2    1    2    0    0 -0.45069145743E+03  0.10543583562E+04  0.13016877163E+04  0.17366106888E+04  0.81433657941E+02 0.  0.
    5000000    2    1    2    0    0  0.45069145743E+03 -0.10543583562E+04  0.58912802969E+03  0.14219310366E+04  0.60001808681E+03 0.  0.
        -24    2    4    4    0    0  0.47633813078E+03 -0.10424366912E+04  0.40223673810E+03  0.12172731708E+04  0.79920640860E+02 0.  0.
         24    2    4    4    0    0 -0.25646673344E+02 -0.11921664999E+02  0.18689129159E+03  0.20465786585E+03  0.78464063336E+02 0.  0.
         13    1    5    5    0    0  0.45825978872E+03 -0.96261431299E+03  0.36070018720E+03  0.11254923254E+04  0.00000000000E+00 0. -1.
        -14    1    5    5    0    0  0.18078342053E+02 -0.79822378221E+02  0.41536550901E+02  0.91780845371E+02  0.00000000000E+00 0.  1.
         13    1    3    3    0    0 -0.29613724046E+03  0.61692805965E+03  0.81567366177E+03  0.10647164028E+04  0.00000000000E+00 0. -1.
        -14    1    3    3    0    0 -0.15455421697E+03  0.43743029657E+03  0.48601405454E+03  0.67189428599E+03  0.00000000000E+00 0.  1.
          2    1    6    6  502    0  0.30993283193E+01 -0.68918838418E+01 -0.59518254409E+01  0.96191540688E+01  0.00000000000E+00 0. -1.
         -1    1    6    6    0  502 -0.28746001664E+02 -0.50297811573E+01  0.19284311703E+03  0.19503871178E+03  0.00000000000E+00 0.  1.
<mgrwt>
<rscale>  0 0.11664826E+04</rscale>
<asrwt>0</asrwt>
<pdfrwt beam="1">  1        1 0.38841211E+00 0.11664826E+04</pdfrwt>
<pdfrwt beam="2">  1       -2 0.97517384E-01 0.11664826E+04</pdfrwt>
<totfact> 0.99315761E-01</totfact>
</mgrwt>
</event>
<event>
12    3  0.2212098E-007  0.2316372E+04  0.7818608E-02  0.8471494E-01
          1   -1    0    0  501    0  0.00000000000E+00  0.00000000000E+00  0.37332448409E+04  0.37332448409E+04  0.00000000000E+00 0. -1.
         -2   -1    0    0    0  501 -0.00000000000E+00 -0.00000000000E+00 -0.14501217643E+04  0.14501217643E+04  0.00000000000E+00 0.  1.
        -24    2    1    2    0    0 -0.33289220416E+03  0.22579447802E+04  0.12912388226E+04  0.26234945410E+04  0.79335108834E+02 0.  0.
    5000000    2    1    2    0    0  0.33289220416E+03 -0.22579447802E+04  0.99188425407E+03  0.25598720642E+04  0.59998230107E+03 0.  0.
        -24    2    4    4    0    0  0.39334273446E+03 -0.22087577675E+04  0.92513690802E+03  0.24280354657E+04  0.78412638542E+02 0.  0.
         24    2    4    4    0    0 -0.60450530300E+02 -0.49187012747E+02  0.66747346053E+02  0.13183659855E+03  0.82777120477E+02 0.  0.
         13    1    3    3    0    0 -0.49302448087E+02  0.46599330463E+03  0.29482533544E+03  0.55362665196E+03  0.00000000000E+00 0. -1.
        -14    1    3    3    0    0 -0.28358975608E+03  0.17919514756E+04  0.99641348714E+03  0.20698678890E+04  0.00000000000E+00 0.  1.
         13    1    5    5    0    0  0.16130228674E+03 -0.69744511164E+03  0.29618084842E+03  0.77470717463E+03  0.00000000000E+00 0. -1.
        -14    1    5    5    0    0  0.23204044772E+03 -0.15113126558E+04  0.62895605960E+03  0.16533282911E+04  0.00000000000E+00 0.  1.
          4    1    6    6  502    0  0.39995896903E+01  0.14121239552E+02  0.31702733174E+02  0.34935217401E+02  0.00000000000E+00 0. -1.
         -3    1    6    6    0  502 -0.64450119990E+02 -0.63308252299E+02  0.35044612879E+02  0.96901381145E+02  0.00000000000E+00 0.  1.
<mgrwt>
<rscale>  0 0.23163715E+04</rscale>
<asrwt>0</asrwt>
<pdfrwt beam="1">  1        1 0.57434536E+00 0.23163715E+04</pdfrwt>
<pdfrwt beam="2">  1       -2 0.22309566E+00 0.23163715E+04</pdfrwt>
<totfact> 0.11576111E-02</totfact>
</mgrwt>
</event>
<event>
12    3  0.2212098E-007  0.7665099E+03  0.7818608E-02  0.9609799E-01
         -2   -1    0    0    0  501 -0.00000000000E+00  0.00000000000E+00  0.20252138683E+03  0.20252138683E+03  0.00000000000E+00 0.  1.
          1   -1    0    0  501    0  0.00000000000E+00 -0.00000000000E+00 -0.43308696826E+04  0.43308696826E+04  0.00000000000E+00 0. -1.
        -24    2    1    2    0    0  0.54359986047E+03  0.38280131577E+03 -0.62003895660E+03  0.91265395374E+03  0.80319835174E+02 0.  0.
    5000000    2    1    2    0    0 -0.54359986047E+03 -0.38280131577E+03 -0.35083093392E+04  0.36207371157E+04  0.59955415598E+03 0.  0.
        -24    2    4    4    0    0  0.10427888833E+03 -0.86893056965E+01 -0.81942794797E+03  0.82856531511E+03  0.64099367483E+02 0.  0.
         24    2    4    4    0    0 -0.64787874880E+03 -0.37411201007E+03 -0.26888813912E+04  0.27921718006E+04  0.80209467928E+02 0.  0.
         11    1    5    5    0    0  0.68822224348E+02  0.18027201658E+02 -0.35759423306E+03  0.36460267975E+03  0.00000000000E+00 0. -1.
        -12    1    5    5    0    0  0.35456663982E+02 -0.26716507354E+02 -0.46183371491E+03  0.46396263536E+03  0.00000000000E+00 0.  1.
         13    1    3    3    0    0  0.42778059296E+03  0.26786392927E+03 -0.43897154492E+03  0.66891205518E+03  0.00000000000E+00 0. -1.
        -14    1    3    3    0    0  0.11581926751E+03  0.11493738650E+03 -0.18106741168E+03  0.24374189856E+03  0.00000000000E+00 0.  1.
          4    1    6    6  502    0 -0.48456001514E+03 -0.25596483373E+03 -0.18535828307E+04  0.19328956813E+04  0.00000000000E+00 0. -1.
         -3    1    6    6    0  502 -0.16331873366E+03 -0.11814717634E+03 -0.83529856055E+03  0.85927611936E+03  0.00000000000E+00 0.  1.
<mgrwt>
<rscale>  0 0.76650987E+03</rscale>
<asrwt>0</asrwt>
<pdfrwt beam="1">  1        1 0.66628758E+00 0.76650987E+03</pdfrwt>
<pdfrwt beam="2">  1       -2 0.31157139E-01 0.76650987E+03</pdfrwt>
<totfact> 0.44479237E-01</totfact>
</mgrwt>
</event>
<event>
12    3  0.2212098E-007  0.5783255E+03  0.7818608E-02  0.9951423E-01
          1   -1    0    0  501    0  0.00000000000E+00  0.00000000000E+00  0.79003624595E+03  0.79003624595E+03  0.00000000000E+00 0. -1.
         -2   -1    0    0    0  501 -0.00000000000E+00 -0.00000000000E+00 -0.46848403770E+03  0.46848403770E+03  0.00000000000E+00 0.  1.
        -24    2    1    2    0    0 -0.10733115838E+03 -0.44187886590E+03  0.84054674116E+02  0.46904750522E+03  0.78507733526E+02 0.  0.
    5000000    2    1    2    0    0  0.10733115838E+03  0.44187886590E+03  0.23749753413E+03  0.78947277843E+03  0.60007106202E+03 0.  0.
        -24    2    4    4    0    0  0.61235417855E+02  0.55978579093E+03  0.27923720159E+03  0.63374677043E+03  0.80942239627E+02 0.  0.
         24    2    4    4    0    0  0.46095740527E+02 -0.11790692503E+03 -0.41739667462E+02  0.15572600800E+03  0.80507946574E+02 0.  0.
         11    1    5    5    0    0  0.62996067172E+02  0.24652740846E+03  0.14567805387E+03  0.29320020972E+03  0.00000000000E+00 0. -1.
        -12    1    5    5    0    0 -0.17606493168E+01  0.31325838247E+03  0.13355914773E+03  0.34054656071E+03  0.00000000000E+00 0.  1.
         13    1    3    3    0    0 -0.11168807569E+03 -0.31133427819E+03  0.56424650649E+02  0.33553986385E+03  0.00000000000E+00 0. -1.
        -14    1    3    3    0    0  0.43569173102E+01 -0.13054458771E+03  0.27630023466E+02  0.13350764137E+03  0.00000000000E+00 0.  1.
          2    1    6    6  502    0  0.25860400623E+02 -0.45048713060E+02  0.22403293914E+02  0.56569023740E+02  0.00000000000E+00 0. -1.
         -1    1    6    6    0  502  0.20235339905E+02 -0.72858211970E+02 -0.64142961376E+02  0.99156984255E+02  0.00000000000E+00 0.  1.
<mgrwt>
<rscale>  0 0.57832547E+03</rscale>
<asrwt>0</asrwt>
<pdfrwt beam="1">  1        1 0.12154404E+00 0.57832547E+03</pdfrwt>
<pdfrwt beam="2">  1       -2 0.72074467E-01 0.57832547E+03</pdfrwt>
<totfact> 0.35756673E+01</totfact>
</mgrwt>
</event>
<event>
12    3  0.2212098E-007  0.1469608E+04  0.7818608E-02  0.8904918E-01
          3   -1    0    0  501    0  0.00000000000E+00  0.00000000000E+00  0.29965461606E+04  0.29965461606E+04  0.00000000000E+00 0. -1.
         -4   -1    0    0    0  501 -0.00000000000E+00 -0.00000000000E+00 -0.75069258107E+03  0.75069258107E+03  0.00000000000E+00 0.  1.
        -24    2    1    2    0    0 -0.58841149886E+03  0.13127636744E+04  0.10861778705E+04  0.18044862463E+04  0.82532961489E+02 0.  0.
    5000000    2    1    2    0    0  0.58841149886E+03 -0.13127636744E+04  0.11596757090E+04  0.19427524954E+04  0.59988578197E+03 0.  0.
        -24    2    4    4    0    0  0.47769455800E+03 -0.56280782431E+03  0.31984130917E+03  0.80867875626E+03  0.81964199083E+02 0.  0.
         24    2    4    4    0    0  0.11071694086E+03 -0.74995585012E+03  0.83983439985E+03  0.11340737391E+04  0.78162705418E+02 0.  0.
         11    1    3    3    0    0 -0.56923019672E+03  0.12750133061E+04  0.10700581877E+04  0.17591777831E+04  0.00000000000E+00 0. -1.
        -12    1    3    3    0    0 -0.19181302133E+02  0.37750368285E+02  0.16119682861E+02  0.45308463147E+02  0.00000000000E+00 0.  1.
         11    1    5    5    0    0  0.19399983881E+03 -0.18947398771E+03  0.84478545738E+02  0.28402984732E+03  0.00000000000E+00 0. -1.
        -12    1    5    5    0    0  0.28369471919E+03 -0.37333383660E+03  0.23536276344E+03  0.52464890894E+03  0.00000000000E+00 0.  1.
          4    1    6    6  502    0  0.75298560593E+02 -0.30605928765E+03  0.31207391309E+03  0.44354513639E+03  0.00000000000E+00 0. -1.
         -3    1    6    6    0  502  0.35418380265E+02 -0.44389656246E+03  0.52776048676E+03  0.69052860275E+03  0.00000000000E+00 0.  1.
<mgrwt>
<rscale>  0 0.14696082E+04</rscale>
<asrwt>0</asrwt>
<pdfrwt beam="1">  1        3 0.46100709E+00 0.14696082E+04</pdfrwt>
<pdfrwt beam="2">  1       -4 0.11549117E+00 0.14696082E+04</pdfrwt>
<totfact> 0.66711391E-03</totfact>
</mgrwt>
</event>
<event>
12    3  0.2212098E-007  0.6276711E+03  0.7818608E-02  0.9849604E-01
         -4   -1    0    0    0  501 -0.00000000000E+00  0.00000000000E+00  0.96332430237E+03  0.96332430237E+03  0.00000000000E+00 0.  1.
          3   -1    0    0  501    0  0.00000000000E+00 -0.00000000000E+00 -0.55978979043E+03  0.55978979043E+03  0.00000000000E+00 0. -1.
        -24    2    1    2    0    0  0.55744327454E+03  0.17560116872E+03 -0.79744899732E+01  0.58987668259E+03  0.79448935752E+02 0.  0.
    5000000    2    1    2    0    0 -0.55744327454E+03 -0.17560116872E+03  0.41150900192E+03  0.93323741020E+03  0.60001135852E+03 0.  0.
        -24    2    4    4    0    0 -0.25046470403E+03  0.78745204195E+02  0.44687192639E+03  0.52506230248E+03  0.84038846633E+02 0.  0.
         24    2    4    4    0    0 -0.30697857051E+03 -0.25434637292E+03 -0.35362924469E+02  0.40817510772E+03  0.80177689977E+02 0.  0.
         11    1    3    3    0    0  0.32964338107E+02 -0.73474611741E+01 -0.65554114389E+01  0.34403578181E+02  0.00000000000E+00 0. -1.
        -12    1    3    3    0    0  0.52447893643E+03  0.18294862990E+03 -0.14190785343E+01  0.55547310441E+03  0.00000000000E+00 0.  1.
         13    1    5    5    0    0 -0.57265324984E+02 -0.30901654885E+01  0.49752594390E+02  0.75922244546E+02  0.00000000000E+00 0. -1.
        -14    1    5    5    0    0 -0.19319937905E+03  0.81835369684E+02  0.39711933200E+03  0.44914005793E+03  0.00000000000E+00 0.  1.
          2    1    6    6  502    0 -0.67235623047E+02 -0.47921529438E+02  0.24649592004E+02  0.86166724297E+02  0.00000000000E+00 0. -1.
         -1    1    6    6    0  502 -0.23974294746E+03 -0.20642484348E+03 -0.60012516473E+02  0.32200838343E+03  0.00000000000E+00 0.  1.
<mgrwt>
<rscale>  0 0.62767115E+03</rscale>
<asrwt>0</asrwt>
<pdfrwt beam="1">  1        3 0.86121506E-01 0.62767115E+03</pdfrwt>
<pdfrwt beam="2">  1       -4 0.14820374E+00 0.62767115E+03</pdfrwt>
<totfact> 0.85853899E-01</totfact>
</mgrwt>
</event>
<event>
12    3  0.2247791E-007  0.1071246E+04  0.7818608E-02  0.9233680E-01
          1   -1    0    0  501    0  0.00000000000E+00  0.00000000000E+00  0.24196123005E+04  0.24196123005E+04  0.00000000000E+00 0. -1.
         -2   -1    0    0    0  501 -0.00000000000E+00 -0.00000000000E+00 -0.50406148110E+03  0.50406148110E+03  0.00000000000E+00 0.  1.
        -24    2    1    2    0    0  0.48870399997E+03 -0.88574167435E+03  0.70320588136E+03  0.12345757518E+04  0.79428345357E+02 0.  0.
    5000000    2    1    2    0    0 -0.48870399997E+03  0.88574167435E+03  0.12123449381E+04  0.16890980299E+04  0.59991832140E+03 0.  0.
        -24    2    4    4    0    0  0.94227024682E+02  0.13570794121E+03  0.54930884449E+02  0.19023678705E+03  0.76663261034E+02 0.  0.
         24    2    4    4    0    0 -0.58293102465E+03  0.75003373314E+03  0.11574140536E+04  0.14988612428E+04  0.67959939199E+02 0.  0.
         13    1    3    3    0    0  0.23126883973E+03 -0.48378404629E+03  0.34225306276E+03  0.63613633652E+03  0.00000000000E+00 0. -1.
        -14    1    3    3    0    0  0.25743516024E+03 -0.40195762806E+03  0.36095281861E+03  0.59843941526E+03  0.00000000000E+00 0.  1.
         13    1    5    5    0    0  0.13553918682E+02  0.73439474778E+02  0.45523826424E+00  0.74681138242E+02  0.00000000000E+00 0. -1.
        -14    1    5    5    0    0  0.80673106001E+02  0.62268466427E+02  0.54475646185E+02  0.11555564880E+03  0.00000000000E+00 0.  1.
          2    1    6    6  502    0 -0.37940355576E+03  0.53925165554E+03  0.80159344152E+03  0.10379265155E+04  0.00000000000E+00 0. -1.
         -1    1    6    6    0  502 -0.20352746889E+03  0.21078207760E+03  0.35582061211E+03  0.46093472731E+03  0.00000000000E+00 0.  1.
<mgrwt>
<rscale>  0 0.10712460E+04</rscale>
<asrwt>0</asrwt>
<pdfrwt beam="1">  1        1 0.37224804E+00 0.10712460E+04</pdfrwt>
<pdfrwt beam="2">  1       -2 0.77547921E-01 0.10712460E+04</pdfrwt>
<totfact> 0.20123875E+00</totfact>
</mgrwt>
</event>
<event>
12    3  0.2212098E-007  0.6971690E+03  0.7818608E-02  0.9722086E-01
         -2   -1    0    0    0  501 -0.00000000000E+00  0.00000000000E+00  0.39974200674E+03  0.39974200674E+03  0.00000000000E+00 0.  1.
          1   -1    0    0  501    0  0.00000000000E+00 -0.00000000000E+00 -0.16110957918E+04  0.16110957918E+04  0.00000000000E+00 0. -1.
        -24    2    1    2    0    0 -0.12014564276E+03 -0.57996052939E+03 -0.84654417803E+02  0.60361175455E+03  0.79947411801E+02 0.  0.
    5000000    2    1    2    0    0  0.12014564276E+03  0.57996052939E+03 -0.11266993672E+04  0.14072260440E+04  0.60003706849E+03 0.  0.
        -24    2    4    4    0    0  0.17973777264E+03  0.66556934584E+03 -0.82060676123E+03  0.10745652971E+04  0.77504194612E+02 0.  0.
         24    2    4    4    0    0 -0.59592129877E+02 -0.85608816450E+02 -0.30609260599E+03  0.33266074683E+03  0.78040999737E+02 0.  0.
         13    1    5    5    0    0  0.14497975250E+03  0.45370394497E+03 -0.60868852695E+03  0.77289593165E+03  0.00000000000E+00 0. -1.
        -14    1    5    5    0    0  0.34758020135E+02  0.21186540086E+03 -0.21191823428E+03  0.30166936547E+03  0.00000000000E+00 0.  1.
         13    1    3    3    0    0 -0.73317860285E+02 -0.24918506618E+03 -0.70922933194E+02  0.26925595313E+03  0.00000000000E+00 0. -1.
        -14    1    3    3    0    0 -0.46827782477E+02 -0.33077546321E+03 -0.13731484610E+02  0.33435580142E+03  0.00000000000E+00 0.  1.
          2    1    6    6  502    0  0.24130930287E+01  0.13100250306E+01 -0.10453323479E+03  0.10456928975E+03  0.00000000000E+00 0. -1.
         -1    1    6    6    0  502 -0.62005222906E+02 -0.86918841480E+02 -0.20155937120E+03  0.22809145708E+03  0.00000000000E+00 0.  1.
<mgrwt>
<rscale>  0 0.69716901E+03</rscale>
<asrwt>0</asrwt>
<pdfrwt beam="1">  1        1 0.24786089E+00 0.69716901E+03</pdfrwt>
<pdfrwt beam="2">  1       -2 0.61498770E-01 0.69716901E+03</pdfrwt>
<totfact> 0.12317256E+01</totfact>
</mgrwt>
</event>
<event>
12    3  0.2212098E-007  0.8286414E+03  0.7818608E-02  0.9519461E-01
         -2   -1    0    0    0  501 -0.00000000000E+00  0.00000000000E+00  0.46023099361E+03  0.46023099361E+03  0.00000000000E+00 0.  1.
          1   -1    0    0  501    0  0.00000000000E+00 -0.00000000000E+00 -0.16238711000E+04  0.16238711000E+04  0.00000000000E+00 0. -1.
        -24    2    1    2    0    0  0.74067593309E+03 -0.12254804768E+03 -0.64017812457E+03  0.98972934732E+03  0.78213092951E+02 0.  0.
    5000000    2    1    2    0    0 -0.74067593309E+03  0.12254804768E+03 -0.52346198188E+03  0.10943727463E+04  0.60001699943E+03 0.  0.
        -24    2    4    4    0    0  0.66297341860E+02 -0.10984432434E+02  0.25578709876E+02  0.10605806658E+03  0.77961835502E+02 0.  0.
         24    2    4    4    0    0 -0.80697327495E+03  0.13353248012E+03 -0.54904069175E+03  0.98831467976E+03  0.79268122758E+02 0.  0.
         11    1    5    5    0    0  0.15074013734E+02  0.20250445804E+02  0.37190503991E+02  0.44949305138E+02  0.00000000000E+00 0. -1.
        -12    1    5    5    0    0  0.51223328126E+02 -0.31234878238E+02 -0.11611794115E+02  0.61108761445E+02  0.00000000000E+00 0.  1.
         11    1    3    3    0    0  0.46209809390E+03 -0.78006722885E+02 -0.34911379459E+03  0.58438013208E+03  0.00000000000E+00 0. -1.
        -12    1    3    3    0    0  0.27857783920E+03 -0.44541324797E+02 -0.29106432997E+03  0.40534921523E+03  0.00000000000E+00 0.  1.
          2    1    6    6  502    0 -0.43128304808E+03  0.33900404142E+02 -0.27217716848E+03  0.51111125600E+03  0.00000000000E+00 0. -1.
         -1    1    6    6    0  502 -0.37569022687E+03  0.99632075974E+02 -0.27686352327E+03  0.47720342376E+03  0.00000000000E+00 0.  1.
<mgrwt>
<rscale>  0 0.82864135E+03</rscale>
<asrwt>0</asrwt>
<pdfrwt beam="1">  1        1 0.24982633E+00 0.82864135E+03</pdfrwt>
<pdfrwt beam="2">  1       -2 0.70804767E-01 0.82864135E+03</pdfrwt>
<totfact> 0.87547619E+00</totfact>
</mgrwt>
</event>
<event>
12    3  0.2212098E-007  0.1166091E+04  0.7818608E-02  0.9143066E-01
          1   -1    0    0  501    0  0.00000000000E+00  0.00000000000E+00  0.11379880618E+04  0.11379880618E+04  0.00000000000E+00 0. -1.
         -2   -1    0    0    0  501 -0.00000000000E+00 -0.00000000000E+00 -0.13479999389E+04  0.13479999389E+04  0.00000000000E+00 0.  1.
        -24    2    1    2    0    0  0.10810333124E+04 -0.39825991456E+03  0.71303342717E+02  0.11569740358E+04  0.79125032438E+02 0.  0.
    5000000    2    1    2    0    0 -0.10810333124E+04  0.39825991456E+03 -0.28131521981E+03  0.13290139650E+04  0.59991323057E+03 0.  0.
        -24    2    4    4    0    0 -0.92674083365E+03  0.25032177439E+03  0.45633461394E+01  0.96325946509E+03  0.79614128492E+02 0.  0.
         24    2    4    4    0    0 -0.15429247872E+03  0.14793814017E+03 -0.28587856594E+03  0.36575449989E+03  0.79736675499E+02 0.  0.
         11    1    5    5    0    0 -0.56154779642E+03  0.13258030814E+03  0.37100374819E+02  0.57817808985E+03  0.00000000000E+00 0. -1.
        -12    1    5    5    0    0 -0.36519303723E+03  0.11774146625E+03 -0.32537028679E+02  0.38508137523E+03  0.00000000000E+00 0.  1.
         13    1    3    3    0    0  0.10107465865E+04 -0.39187336868E+03  0.62553361103E+02  0.10858574134E+04  0.00000000000E+00 0. -1.
        -14    1    3    3    0    0  0.70286725879E+02 -0.63865458802E+01  0.87499816135E+01  0.71116622398E+02  0.00000000000E+00 0.  1.
          4    1    6    6  502    0 -0.29441903976E+02  0.50627659003E+02 -0.32459043842E+02  0.66959503380E+02  0.00000000000E+00 0. -1.
         -3    1    6    6    0  502 -0.12485057475E+03  0.97310481167E+02 -0.25341952210E+03  0.29879499651E+03  0.00000000000E+00 0.  1.
<mgrwt>
<rscale>  0 0.11660907E+04</rscale>
<asrwt>0</asrwt>
<pdfrwt beam="1">  1        1 0.17507509E+00 0.11660907E+04</pdfrwt>
<pdfrwt beam="2">  1       -2 0.20738461E+00 0.11660907E+04</pdfrwt>
<totfact> 0.12125187E+00</totfact>
</mgrwt>
</event>
<event>
12    3  0.2212098E-007  0.4392831E+03  0.7818608E-02  0.1030967E+00
          1   -1    0    0  501    0  0.00000000000E+00  0.00000000000E+00  0.56511507607E+03  0.56511507607E+03  0.00000000000E+00 0. -1.
         -2   -1    0    0    0  501 -0.00000000000E+00 -0.00000000000E+00 -0.78132118044E+03  0.78132118044E+03  0.00000000000E+00 0.  1.
        -24    2    1    2    0    0  0.34013315569E+03 -0.26413185849E+03 -0.39137905161E+03  0.58738059335E+03  0.79888654645E+02 0.  0.
    5000000    2    1    2    0    0 -0.34013315569E+03  0.26413185849E+03  0.17517294724E+03  0.75905566317E+03  0.60001977973E+03 0.  0.
        -24    2    4    4    0    0 -0.22723931089E+03  0.15065693411E+03 -0.20083313661E+03  0.34645068116E+03  0.73204572978E+02 0.  0.
         24    2    4    4    0    0 -0.11289384479E+03  0.11347492438E+03  0.37600608384E+03  0.41260498201E+03  0.56927299561E+02 0.  0.
         11    1    5    5    0    0 -0.13832535515E+03  0.12424751575E+03 -0.15922007036E+03  0.24479048154E+03  0.00000000000E+00 0. -1.
        -12    1    5    5    0    0 -0.88913955744E+02  0.26409418363E+02 -0.41613066248E+02  0.10166019962E+03  0.00000000000E+00 0.  1.
         11    1    3    3    0    0  0.25489568440E+03 -0.15087060223E+03 -0.26083249903E+03  0.39467371472E+03  0.00000000000E+00 0. -1.
        -12    1    3    3    0    0  0.85237471288E+02 -0.11326125626E+03 -0.13054655257E+03  0.19270687863E+03  0.00000000000E+00 0.  1.
          2    1    6    6  502    0 -0.39387766816E+02  0.23967547663E+02  0.17138294721E+03  0.17747662975E+03  0.00000000000E+00 0. -1.
         -1    1    6    6    0  502 -0.73506077979E+02  0.89507376719E+02  0.20462313664E+03  0.23512835225E+03  0.00000000000E+00 0.  1.
<mgrwt>
<rscale>  0 0.43928306E+03</rscale>
<asrwt>0</asrwt>
<pdfrwt beam="1">  1        1 0.86940781E-01 0.43928306E+03</pdfrwt>
<pdfrwt beam="2">  1       -2 0.12020326E+00 0.43928306E+03</pdfrwt>
<totfact> 0.18255966E+01</totfact>
</mgrwt>
</event>
<event>
12    3  0.2212098E-007  0.1544071E+04  0.7818608E-02  0.8855664E-01
          1   -1    0    0  501    0  0.00000000000E+00  0.00000000000E+00  0.25397169708E+04  0.25397169708E+04  0.00000000000E+00 0. -1.
         -2   -1    0    0    0  501 -0.00000000000E+00 -0.00000000000E+00 -0.14353430509E+04  0.14353430509E+04  0.00000000000E+00 0.  1.
        -24    2    1    2    0    0  0.11171516059E+04  0.10589949648E+04 -0.55039770853E+03  0.16367400434E+04  0.80512647006E+02 0.  0.
    5000000    2    1    2    0    0 -0.11171516059E+04 -0.10589949648E+04  0.16547716285E+04  0.23383199782E+04  0.59997760973E+03 0.  0.
        -24    2    4    4    0    0 -0.25297801344E+03 -0.27460184334E+03  0.10408207937E+03  0.39593177022E+03  0.80776480337E+02 0.  0.
         24    2    4    4    0    0 -0.86417359246E+03 -0.78439312142E+03  0.15506895491E+04  0.19423882080E+04  0.78519462591E+02 0.  0.
         11    1    3    3    0    0  0.82977246967E+03  0.74580779312E+03 -0.42018741872E+03  0.11921866811E+04  0.00000000000E+00 0. -1.
        -12    1    3    3    0    0  0.28737913623E+03  0.31318717164E+03 -0.13021028982E+03  0.44455336237E+03  0.00000000000E+00 0.  1.
         11    1    5    5    0    0 -0.45579703601E+02 -0.96917769475E+02  0.46830070909E+02  0.11689148370E+03  0.00000000000E+00 0. -1.
        -12    1    5    5    0    0 -0.20739830983E+03 -0.17768407386E+03  0.57252008456E+02  0.27904028652E+03  0.00000000000E+00 0.  1.
          4    1    6    6  502    0 -0.21575490573E+03 -0.20569204896E+03  0.45325580306E+03  0.54249444362E+03  0.00000000000E+00 0. -1.
         -3    1    6    6    0  502 -0.64841868674E+03 -0.57870107246E+03  0.10974337461E+04  0.13998937644E+04  0.00000000000E+00 0.  1.
<mgrwt>
<rscale>  0 0.15440711E+04</rscale>
<asrwt>0</asrwt>
<pdfrwt beam="1">  1        1 0.39072569E+00 0.15440711E+04</pdfrwt>
<pdfrwt beam="2">  1       -2 0.22082201E+00 0.15440711E+04</pdfrwt>
<totfact> 0.10188489E-01</totfact>
</mgrwt>
</event>
<event>
12    3  0.2212098E-007  0.7499486E+03  0.7818608E-02  0.9635431E-01
          1   -1    0    0  501    0  0.00000000000E+00  0.00000000000E+00  0.12512132920E+04  0.12512132920E+04  0.00000000000E+00 0. -1.
         -2   -1    0    0    0  501 -0.00000000000E+00 -0.00000000000E+00 -0.54327268965E+03  0.54327268965E+03  0.00000000000E+00 0.  1.
        -24    2    1    2    0    0  0.30412450175E+03 -0.58047007327E+03  0.61310699532E+03  0.90096162238E+03  0.79965234724E+02 0.  0.
    5000000    2    1    2    0    0 -0.30412450175E+03  0.58047007327E+03  0.94833607013E+02  0.89352435926E+03  0.59996262303E+03 0.  0.
        -24    2    4    4    0    0 -0.24265985834E+03  0.66354363706E+03 -0.31881482617E+02  0.71163952760E+03  0.78996349116E+02 0.  0.
         24    2    4    4    0    0 -0.61464643411E+02 -0.83073563786E+02  0.12671508963E+03  0.18188483166E+03  0.79663408532E+02 0.  0.
         11    1    5    5    0    0 -0.21280014958E+03  0.63461601811E+03 -0.30751321789E+02  0.67005002641E+03  0.00000000000E+00 0. -1.
        -12    1    5    5    0    0 -0.29859708761E+02  0.28927618949E+02 -0.11301608274E+01  0.41589501186E+02  0.00000000000E+00 0.  1.
         13    1    3    3    0    0  0.17787780262E+03 -0.26124938784E+03  0.31663390950E+03  0.44737991456E+03  0.00000000000E+00 0. -1.
        -14    1    3    3    0    0  0.12624669913E+03 -0.31922068543E+03  0.29647308582E+03  0.45358170782E+03  0.00000000000E+00 0.  1.
          2    1    6    6  502    0 -0.64590973708E+02 -0.21623446731E+02  0.76807783151E+02  0.10265964585E+03  0.00000000000E+00 0. -1.
         -1    1    6    6    0  502  0.31263302972E+01 -0.61450117055E+02  0.49907306479E+02  0.79225185814E+02  0.00000000000E+00 0.  1.
<mgrwt>
<rscale>  0 0.74994855E+03</rscale>
<asrwt>0</asrwt>
<pdfrwt beam="1">  1        1 0.19249435E+00 0.74994855E+03</pdfrwt>
<pdfrwt beam="2">  1       -2 0.83580414E-01 0.74994855E+03</pdfrwt>
<totfact> 0.11069566E+01</totfact>
</mgrwt>
</event>
<event>
12    3  0.2212098E-007  0.2213542E+03  0.7818608E-02  0.1132877E+00
         -2   -1    0    0    0  501 -0.00000000000E+00  0.00000000000E+00  0.15407657324E+04  0.15407657324E+04  0.00000000000E+00 0.  1.
          1   -1    0    0  501    0  0.00000000000E+00 -0.00000000000E+00 -0.98254465560E+02  0.98254465560E+02  0.00000000000E+00 0. -1.
        -24    2    1    2    0    0 -0.79974380550E+02  0.10999590438E+03  0.39891071162E+03  0.42751984585E+03  0.71752785471E+02 0.  0.
    5000000    2    1    2    0    0  0.79974380550E+02 -0.10999590438E+03  0.10436005552E+04  0.12115003521E+04  0.60011330913E+03 0.  0.
        -24    2    4    4    0    0  0.11599640615E+03 -0.15491359846E+03  0.10822679512E+04  0.11026225212E+04  0.83780169043E+02 0.  0.
         24    2    4    4    0    0 -0.36022025600E+02  0.44917694083E+02 -0.38667395987E+02  0.10887783096E+03  0.83928713746E+02 0.  0.
         11    1    5    5    0    0  0.11247369283E+03 -0.87177922906E+02  0.77514127591E+03  0.78809537459E+03  0.00000000000E+00 0. -1.
        -12    1    5    5    0    0  0.35227133159E+01 -0.67735675558E+02  0.30712667531E+03  0.31452714658E+03  0.00000000000E+00 0.  1.
         13    1    3    3    0    0 -0.61488045649E+01  0.38607067621E+02  0.48083142212E+02  0.61970170508E+02  0.00000000000E+00 0. -1.
        -14    1    3    3    0    0 -0.73825575985E+02  0.71388836760E+02  0.35082756941E+03  0.36554967534E+03  0.00000000000E+00 0.  1.
          2    1    6    6  502    0  0.20341059356E+02  0.21945287087E+02 -0.37535072807E+02  0.48002458392E+02  0.00000000000E+00 0. -1.
         -1    1    6    6    0  502 -0.56363084956E+02  0.22972406995E+02 -0.11323231808E+01  0.60875372563E+02  0.00000000000E+00 0.  1.
<mgrwt>
<rscale>  0 0.22135418E+03</rscale>
<asrwt>0</asrwt>
<pdfrwt beam="1">  1        1 0.15116073E-01 0.22135418E+03</pdfrwt>
<pdfrwt beam="2">  1       -2 0.23704086E+00 0.22135418E+03</pdfrwt>
<totfact> 0.28047957E+01</totfact>
</mgrwt>
</event>
<event>
12    3  0.2212098E-007  0.1032611E+04  0.7818608E-02  0.9273484E-01
         -2   -1    0    0    0  501 -0.00000000000E+00  0.00000000000E+00  0.65608979775E+03  0.65608979775E+03  0.00000000000E+00 0.  1.
          1   -1    0    0  501    0  0.00000000000E+00 -0.00000000000E+00 -0.18332668691E+04  0.18332668691E+04  0.00000000000E+00 0. -1.
        -24    2    1    2    0    0  0.10089090552E+04 -0.69155570242E+02 -0.61114137336E+03  0.11843422940E+04  0.80578635872E+02 0.  0.
    5000000    2    1    2    0    0 -0.10089090552E+04  0.69155570242E+02 -0.56603569802E+03  0.13050143729E+04  0.59998843949E+03 0.  0.
        -24    2    4    4    0    0 -0.39529750688E+03  0.14533185412E+03  0.46346069840E+02  0.43115007653E+03  0.79755648944E+02 0.  0.
         24    2    4    4    0    0 -0.61361154830E+03 -0.76176283875E+02 -0.61238176786E+03  0.87386429637E+03  0.79406677464E+02 0.  0.
         11    1    3    3    0    0  0.51652082322E+03  0.49713541485E+01 -0.31088042455E+03  0.60288067936E+03  0.00000000000E+00 0. -1.
        -12    1    3    3    0    0  0.49238823196E+03 -0.74126924390E+02 -0.30026094881E+03  0.58146161462E+03  0.00000000000E+00 0.  1.
         11    1    5    5    0    0 -0.23789913622E+03  0.12676566803E+03  0.18185927857E+02  0.27017820337E+03  0.00000000000E+00 0. -1.
        -12    1    5    5    0    0 -0.15739837066E+03  0.18566186085E+02  0.28160141983E+02  0.16097187316E+03  0.00000000000E+00 0.  1.
          4    1    6    6  502    0 -0.53153461385E+03 -0.40148365369E+02 -0.53843431337E+03  0.75766248869E+03  0.00000000000E+00 0. -1.
         -3    1    6    6    0  502 -0.82076934450E+02 -0.36027918506E+02 -0.73947454490E+02  0.11620180767E+03  0.00000000000E+00 0.  1.
<mgrwt>
<rscale>  0 0.10326107E+04</rscale>
<asrwt>0</asrwt>
<pdfrwt beam="1">  1        1 0.28204105E+00 0.10326107E+04</pdfrwt>
<pdfrwt beam="2">  1       -2 0.10093689E+00 0.10326107E+04</pdfrwt>
<totfact> 0.27417567E+00</totfact>
</mgrwt>
</event>
<event>
12    3  0.2212098E-007  0.1303831E+04  0.7818608E-02  0.9026532E-01
         -2   -1    0    0    0  501 -0.00000000000E+00  0.00000000000E+00  0.85237091180E+03  0.85237091180E+03  0.00000000000E+00 0.  1.
          1   -1    0    0  501    0  0.00000000000E+00 -0.00000000000E+00 -0.40970486675E+04  0.40970486675E+04  0.00000000000E+00 0. -1.
        -24    2    1    2    0    0 -0.11364046309E+03  0.12347970215E+04  0.18238263600E+03  0.12558627226E+04  0.79308972336E+02 0.  0.
    5000000    2    1    2    0    0  0.11364046309E+03 -0.12347970215E+04 -0.34270603917E+04  0.36935568567E+04  0.59998457156E+03 0.  0.
        -24    2    4    4    0    0  0.49207345706E+02 -0.12628594601E+04 -0.30641748677E+04  0.33156003015E+04  0.82476422845E+02 0.  0.
         24    2    4    4    0    0  0.64433117379E+02  0.28062438678E+02 -0.36288552404E+03  0.37795655525E+03  0.78905811051E+02 0.  0.
         11    1    3    3    0    0 -0.36136773935E+02  0.71848774525E+03  0.80068303061E+02  0.72383799269E+03  0.00000000000E+00 0. -1.
        -12    1    3    3    0    0 -0.77503689150E+02  0.51630927620E+03  0.10231433294E+03  0.53202472992E+03  0.00000000000E+00 0.  1.
         13    1    5    5    0    0  0.14344352890E+02 -0.25914020549E+03 -0.71960880368E+03  0.76498120035E+03  0.00000000000E+00 0. -1.
        -14    1    5    5    0    0  0.34862992817E+02 -0.10037192546E+04 -0.23445660640E+04  0.25506191011E+04  0.00000000000E+00 0.  1.
          2    1    6    6  502    0  0.41680923575E+02 -0.22138404258E+02 -0.21537754452E+03  0.22048785684E+03  0.00000000000E+00 0. -1.
         -1    1    6    6    0  502  0.22752193804E+02  0.50200842936E+02 -0.14750797952E+03  0.15746869840E+03  0.00000000000E+00 0.  1.
<mgrwt>
<rscale>  0 0.13038314E+04</rscale>
<asrwt>0</asrwt>
<pdfrwt beam="1">  1        1 0.63031518E+00 0.13038314E+04</pdfrwt>
<pdfrwt beam="2">  1       -2 0.13113399E+00 0.13038314E+04</pdfrwt>
<totfact> 0.29078068E-02</totfact>
</mgrwt>
</event>
<event>
12    3  0.2212098E-007  0.5854542E+03  0.7818608E-02  0.9936052E-01
          1   -1    0    0  501    0  0.00000000000E+00  0.00000000000E+00  0.17840841532E+04  0.17840841532E+04  0.00000000000E+00 0. -1.
         -2   -1    0    0    0  501 -0.00000000000E+00 -0.00000000000E+00 -0.20930547948E+03  0.20930547948E+03  0.00000000000E+00 0.  1.
        -24    2    1    2    0    0  0.41852238394E+03  0.12123175384E+03  0.83978212825E+03  0.94939129372E+03  0.79067576507E+02 0.  0.
    5000000    2    1    2    0    0 -0.41852238394E+03 -0.12123175384E+03  0.73499654542E+03  0.10439983389E+04  0.59987872599E+03 0.  0.
        -24    2    4    4    0    0  0.12289269114E+03  0.67782842322E+02  0.18635986561E+03  0.24635433881E+03  0.79141224983E+02 0.  0.
         24    2    4    4    0    0 -0.54141507508E+03 -0.18901459616E+03  0.54863667981E+03  0.79764400012E+03  0.79855766226E+02 0.  0.
         13    1    5    5    0    0  0.11487450076E+03  0.33774421870E+02  0.11093011616E+03  0.16322485463E+03  0.00000000000E+00 0. -1.
        -14    1    5    5    0    0  0.80181903809E+01  0.34008420452E+02  0.75429749441E+02  0.83129484176E+02  0.00000000000E+00 0.  1.
         13    1    3    3    0    0  0.84416896741E+02 -0.68896796439E+01  0.17522068675E+03  0.19461749460E+03  0.00000000000E+00 0. -1.
        -14    1    3    3    0    0  0.33410548720E+03  0.12812143348E+03  0.66456144151E+03  0.75477379912E+03  0.00000000000E+00 0.  1.
          2    1    6    6  502    0 -0.25404586202E+03 -0.97537712358E+02  0.20677616712E+03  0.34177373894E+03  0.00000000000E+00 0. -1.
         -1    1    6    6    0  502 -0.28736921306E+03 -0.91476883804E+02  0.34186051269E+03  0.45587026118E+03  0.00000000000E+00 0.  1.
<mgrwt>
<rscale>  0 0.58545418E+03</rscale>
<asrwt>0</asrwt>
<pdfrwt beam="1">  1        1 0.27447448E+00 0.58545418E+03</pdfrwt>
<pdfrwt beam="2">  1       -2 0.32200844E-01 0.58545418E+03</pdfrwt>
<totfact> 0.34709145E+01</totfact>
</mgrwt>
</event>
<event>
12    3  0.2212098E-007  0.5095272E+03  0.7818608E-02  0.1011322E+00
         -2   -1    0    0    0  501 -0.00000000000E+00  0.00000000000E+00  0.71360810638E+03  0.71360810638E+03  0.00000000000E+00 0.  1.
          1   -1    0    0  501    0  0.00000000000E+00 -0.00000000000E+00 -0.43859977454E+03  0.43859977454E+03  0.00000000000E+00 0. -1.
        -24    2    1    2    0    0  0.33299999663E+03 -0.16461174993E+03 -0.32842942327E+02  0.38184563486E+03  0.82106053543E+02 0.  0.
    5000000    2    1    2    0    0 -0.33299999663E+03  0.16461174993E+03  0.30785127417E+03  0.77036224606E+03  0.60058268138E+03 0.  0.
        -24    2    4    4    0    0  0.11577844484E+03  0.13757838061E+03 -0.35676489020E+02  0.19928180749E+03  0.78153488903E+02 0.  0.
         24    2    4    4    0    0 -0.44877844147E+03  0.27033369316E+02  0.34352776319E+03  0.57108043857E+03  0.77386372519E+02 0.  0.
         13    1    3    3    0    0  0.23377343993E+03 -0.12521046732E+03  0.13323946668E+02  0.26552817157E+03  0.00000000000E+00 0. -1.
        -14    1    3    3    0    0  0.99226556704E+02 -0.39401282611E+02 -0.46166888996E+02  0.11631746329E+03  0.00000000000E+00 0.  1.
         13    1    5    5    0    0  0.38176453614E+02  0.64561122021E+01  0.10420436050E+02  0.40096240257E+02  0.00000000000E+00 0. -1.
        -14    1    5    5    0    0  0.77601991222E+02  0.13112226841E+03 -0.46096925071E+02  0.15918556724E+03  0.00000000000E+00 0.  1.
          2    1    6    6  502    0 -0.80330082378E+02 -0.24490720017E+02  0.56974463466E+02  0.10148303794E+03  0.00000000000E+00 0. -1.
         -1    1    6    6    0  502 -0.36844835909E+03  0.51524089333E+02  0.28655329972E+03  0.46959740063E+03  0.00000000000E+00 0.  1.
<mgrwt>
<rscale>  0 0.50952719E+03</rscale>
<asrwt>0</asrwt>
<pdfrwt beam="1">  1        1 0.67476889E-01 0.50952719E+03</pdfrwt>
<pdfrwt beam="2">  1       -2 0.10978586E+00 0.50952719E+03</pdfrwt>
<totfact> 0.31801929E+01</totfact>
</mgrwt>
</event>
<event>
12    3  0.2212098E-007  0.4183539E+03  0.7818608E-02  0.1037603E+00
         -2   -1    0    0    0  501 -0.00000000000E+00  0.00000000000E+00  0.85805354202E+03  0.85805354202E+03  0.00000000000E+00 0.  1.
          1   -1    0    0  501    0  0.00000000000E+00 -0.00000000000E+00 -0.35999516131E+03  0.35999516131E+03  0.00000000000E+00 0. -1.
        -24    2    1    2    0    0  0.38364264563E+03 -0.56856879879E+02  0.20631377640E+03  0.44632900110E+03  0.78929199659E+02 0.  0.
    5000000    2    1    2    0    0 -0.38364264563E+03  0.56856879879E+02  0.29174460431E+03  0.77171970223E+03  0.60001833333E+03 0.  0.
        -24    2    4    4    0    0 -0.81598209319E+02 -0.44973431384E+02  0.40576966180E+03  0.42404519481E+03  0.80525967930E+02 0.  0.
         24    2    4    4    0    0 -0.30204443631E+03  0.10183031126E+03 -0.11402505749E+03  0.34767450742E+03  0.79218656765E+02 0.  0.
         13    1    5    5    0    0 -0.77794824674E+02 -0.68732568219E-01  0.24272990777E+03  0.25489183509E+03  0.00000000000E+00 0. -1.
        -14    1    5    5    0    0 -0.38033846458E+01 -0.44904698816E+02  0.16303975403E+03  0.16915335972E+03  0.00000000000E+00 0.  1.
         13    1    3    3    0    0  0.28885511944E+03 -0.22524631290E+02  0.18354169980E+03  0.34297550147E+03  0.00000000000E+00 0. -1.
        -14    1    3    3    0    0  0.94787526193E+02 -0.34332248589E+02  0.22772076600E+02  0.10335349964E+03  0.00000000000E+00 0.  1.
          4    1    6    6  502    0 -0.19703617744E+03  0.93121411282E+02 -0.10503198312E+03  0.24192265280E+03  0.00000000000E+00 0. -1.
         -3    1    6    6    0  502 -0.10500825887E+03  0.87088999810E+01 -0.89930743637E+01  0.10575185462E+03  0.00000000000E+00 0.  1.
<mgrwt>
<rscale>  0 0.41835392E+03</rscale>
<asrwt>0</asrwt>
<pdfrwt beam="1">  1        1 0.55383871E-01 0.41835392E+03</pdfrwt>
<pdfrwt beam="2">  1       -2 0.13200824E+00 0.41835392E+03</pdfrwt>
<totfact> 0.26459919E+01</totfact>
</mgrwt>
</event>
<event>
12    3  0.2212098E-007  0.7574223E+03  0.7818608E-02  0.9623777E-01
          1   -1    0    0  501    0  0.00000000000E+00  0.00000000000E+00  0.72741772659E+03  0.72741772659E+03  0.00000000000E+00 0. -1.
         -2   -1    0    0    0  501 -0.00000000000E+00 -0.00000000000E+00 -0.90673881821E+03  0.90673881821E+03  0.00000000000E+00 0.  1.
        -24    2    1    2    0    0 -0.24880287074E+03 -0.61806187873E+03 -0.28939328994E+03  0.73107441222E+03  0.82570972577E+02 0.  0.
    5000000    2    1    2    0    0  0.24880287074E+03  0.61806187873E+03  0.11007219832E+03  0.90308213259E+03  0.59961495556E+03 0.  0.
        -24    2    4    4    0    0  0.25098571850E+03  0.32755054987E+02 -0.93049077163E+02  0.27848113766E+03  0.69475814167E+02 0.  0.
         24    2    4    4    0    0 -0.21828477603E+01  0.58530682374E+03  0.20312127548E+03  0.62460099492E+03  0.79242082033E+02 0.  0.
         11    1    5    5    0    0  0.51309941993E+02  0.34723637428E+02 -0.31637938786E+02  0.69565798451E+02  0.00000000000E+00 0. -1.
        -12    1    5    5    0    0  0.19967577651E+03 -0.19685824407E+01 -0.61411138377E+02  0.20891533921E+03  0.00000000000E+00 0.  1.
         11    1    3    3    0    0 -0.19733475837E+03 -0.43375200229E+03 -0.17226053389E+03  0.50671046752E+03  0.00000000000E+00 0. -1.
        -12    1    3    3    0    0 -0.51468112369E+02 -0.18430987644E+03 -0.11713275605E+03  0.22436394470E+03  0.00000000000E+00 0.  1.
          2    1    6    6  502    0 -0.42713133244E-01  0.11478739535E+03  0.75012288049E+01  0.11503224065E+03  0.00000000000E+00 0. -1.
         -1    1    6    6    0  502 -0.21401346270E+01  0.47051942839E+03  0.19562004668E+03  0.50956875428E+03  0.00000000000E+00 0.  1.
<mgrwt>
<rscale>  0 0.75742226E+03</rscale>
<asrwt>0</asrwt>
<pdfrwt beam="1">  1        1 0.11191042E+00 0.75742226E+03</pdfrwt>
<pdfrwt beam="2">  1       -2 0.13949828E+00 0.75742226E+03</pdfrwt>
<totfact> 0.83251585E+00</totfact>
</mgrwt>
</event>
<event>
12    3  0.2212098E-007  0.6417306E+03  0.7818608E-02  0.9822421E-01
          3   -1    0    0  501    0  0.00000000000E+00  0.00000000000E+00  0.81789633968E+03  0.81789633968E+03  0.00000000000E+00 0. -1.
         -2   -1    0    0    0  501 -0.00000000000E+00 -0.00000000000E+00 -0.68321903269E+03  0.68321903269E+03  0.00000000000E+00 0.  1.
        -24    2    1    2    0    0 -0.22450993409E+02 -0.61816954573E+03  0.14182027599E+03  0.63942920281E+03  0.78224550855E+02 0.  0.
    5000000    2    1    2    0    0  0.22450993409E+02  0.61816954573E+03 -0.71429689986E+01  0.86168616956E+03  0.59984531208E+03 0.  0.
        -24    2    4    4    0    0  0.10615727333E+03  0.26822002477E+03  0.26754067208E+03  0.40197876319E+03  0.82447355739E+02 0.  0.
         24    2    4    4    0    0 -0.83706279919E+02  0.34994952096E+03 -0.27468364108E+03  0.45970740637E+03  0.80052409566E+02 0.  0.
         11    1    3    3    0    0  0.18973181127E+02 -0.24893306145E+03  0.30216838567E+02  0.25147705267E+03  0.00000000000E+00 0. -1.
        -12    1    3    3    0    0 -0.41424174536E+02 -0.36923648428E+03  0.11160343742E+03  0.38795215014E+03  0.00000000000E+00 0.  1.
         13    1    5    5    0    0  0.80786887480E+02  0.95705418649E+02  0.12214028925E+03  0.17494084316E+03  0.00000000000E+00 0. -1.
        -14    1    5    5    0    0  0.25370385847E+02  0.17251460612E+03  0.14540038283E+03  0.22703792003E+03  0.00000000000E+00 0.  1.
          4    1    6    6  502    0 -0.24317680551E+02  0.19813783257E+03 -0.19178980451E+03  0.27682716521E+03  0.00000000000E+00 0. -1.
         -3    1    6    6    0  502 -0.59388599367E+02  0.15181168839E+03 -0.82893836570E+02  0.18288024116E+03  0.00000000000E+00 0.  1.
<mgrwt>
<rscale>  0 0.64173063E+03</rscale>
<asrwt>0</asrwt>
<pdfrwt beam="1">  1        3 0.12583021E+00 0.64173063E+03</pdfrwt>
<pdfrwt beam="2">  1       -2 0.10511062E+00 0.64173063E+03</pdfrwt>
<totfact> 0.15512901E+00</totfact>
</mgrwt>
</event>
<event>
12    3  0.2212098E-007  0.7575079E+03  0.7818608E-02  0.9623645E-01
          1   -1    0    0  501    0  0.00000000000E+00  0.00000000000E+00  0.15255547129E+04  0.15255547129E+04  0.00000000000E+00 0. -1.
         -2   -1    0    0    0  501 -0.00000000000E+00 -0.00000000000E+00 -0.47326699543E+03  0.47326699543E+03  0.00000000000E+00 0.  1.
        -24    2    1    2    0    0 -0.19728441839E+03  0.61554675014E+03  0.35151228771E+02  0.65252632293E+03  0.82073441954E+02 0.  0.
    5000000    2    1    2    0    0  0.19728441839E+03 -0.61554675014E+03  0.10171364887E+04  0.13462953854E+04  0.60010472820E+03 0.  0.
        -24    2    4    4    0    0 -0.19217444198E+03 -0.13841911765E+03  0.20467932028E+03  0.32347021499E+03  0.81538258220E+02 0.  0.
         24    2    4    4    0    0  0.38945886038E+03 -0.47712763249E+03  0.81245716846E+03  0.10228251705E+04  0.82193047989E+02 0.  0.
         11    1    5    5    0    0 -0.12267979588E+03 -0.12073648365E+03  0.10838369364E+03  0.20340761010E+03  0.00000000000E+00 0. -1.
        -12    1    5    5    0    0 -0.69494646104E+02 -0.17682634002E+02  0.96295626640E+02  0.12006260489E+03  0.00000000000E+00 0.  1.
         13    1    3    3    0    0 -0.18701036655E+03  0.49980727936E+03  0.47081474570E+02  0.53572087783E+03  0.00000000000E+00 0. -1.
        -14    1    3    3    0    0 -0.10274051843E+02  0.11573947079E+03 -0.11930245799E+02  0.11680544510E+03  0.00000000000E+00 0.  1.
          2    1    6    6  502    0  0.37517641415E+03 -0.42323336699E+03  0.74186263146E+03  0.93286868777E+03  0.00000000000E+00 0. -1.
         -1    1    6    6    0  502  0.14282446229E+02 -0.53894265497E+02  0.70594536997E+02  0.89956482688E+02  0.00000000000E+00 0.  1.
<mgrwt>
<rscale>  0 0.75750788E+03</rscale>
<asrwt>0</asrwt>
<pdfrwt beam="1">  1        1 0.23470072E+00 0.75750788E+03</pdfrwt>
<pdfrwt beam="2">  1       -2 0.72810308E-01 0.75750788E+03</pdfrwt>
<totfact> 0.96944638E+00</totfact>
</mgrwt>
</event>
<event>
12    3  0.2212098E-007  0.5597473E+03  0.7818608E-02  0.9992626E-01
          1   -1    0    0  501    0  0.00000000000E+00  0.00000000000E+00  0.32125176827E+03  0.32125176827E+03  0.00000000000E+00 0. -1.
         -2   -1    0    0    0  501 -0.00000000000E+00 -0.00000000000E+00 -0.15319199672E+04  0.15319199672E+04  0.00000000000E+00 0.  1.
        -24    2    1    2    0    0  0.51293538313E+03  0.12931468411E+03 -0.22267238922E+03  0.58186404578E+03  0.95696290735E+02 0.  0.
    5000000    2    1    2    0    0 -0.51293538313E+03 -0.12931468411E+03 -0.98799580973E+03  0.12713076897E+04  0.60021873268E+03 0.  0.
        -24    2    4    4    0    0 -0.71685364008E+02 -0.12251984887E+03  0.23555123584E+02  0.16483509610E+03  0.80410573173E+02 0.  0.
         24    2    4    4    0    0 -0.44125001912E+03 -0.67948352357E+01 -0.10115509333E+04  0.11064725936E+04  0.79363471133E+02 0.  0.
         11    1    3    3    0    0  0.47154301487E+03  0.10937704717E+03 -0.22898119692E+03  0.53548906793E+03  0.00000000000E+00 0. -1.
        -12    1    3    3    0    0  0.41392368254E+02  0.19937636936E+02  0.63088077042E+01  0.46374977854E+02  0.00000000000E+00 0.  1.
         11    1    5    5    0    0 -0.74237971235E+02 -0.97664861945E+02 -0.99039016235E+01  0.12307635394E+03  0.00000000000E+00 0. -1.
        -12    1    5    5    0    0  0.25526072274E+01 -0.24854986930E+02  0.33459025207E+02  0.41758742160E+02  0.00000000000E+00 0.  1.
          4    1    6    6  502    0 -0.22945826248E+03  0.72095142208E+01 -0.43083307001E+03  0.48818050507E+03  0.00000000000E+00 0. -1.
         -3    1    6    6    0  502 -0.21179175664E+03 -0.14004349457E+02 -0.58071786330E+03  0.61829208853E+03  0.00000000000E+00 0.  1.
<mgrwt>
<rscale>  0 0.55974734E+03</rscale>
<asrwt>0</asrwt>
<pdfrwt beam="1">  1        1 0.49423350E-01 0.55974734E+03</pdfrwt>
<pdfrwt beam="2">  1       -2 0.23567999E+00 0.55974734E+03</pdfrwt>
<totfact> 0.58284511E+00</totfact>
</mgrwt>
</event>
<event>
12    3  0.4189519E-007  0.1165520E+04  0.7818608E-02  0.9143584E-01
          1   -1    0    0  501    0  0.00000000000E+00  0.00000000000E+00  0.16960107401E+04  0.16960107401E+04  0.00000000000E+00 0. -1.
         -2   -1    0    0    0  501 -0.00000000000E+00 -0.00000000000E+00 -0.99982263904E+03  0.99982263904E+03  0.00000000000E+00 0.  1.
        -24    2    1    2    0    0 -0.78363931736E+03  0.85598027678E+03 -0.97245059626E+02  0.11673422973E+04  0.80241033993E+02 0.  0.
    5000000    2    1    2    0    0  0.78363931736E+03 -0.85598027678E+03  0.79343316066E+03  0.15284910818E+04  0.59996332616E+03 0.  0.
        -24    2    4    4    0    0  0.36262073972E+03 -0.43775390182E+03  0.72618565657E+03  0.92578986694E+03  0.81357178489E+02 0.  0.
         24    2    4    4    0    0  0.42101857764E+03 -0.41822637496E+03  0.67247504090E+02  0.60270121485E+03  0.80972737062E+02 0.  0.
         11    1    5    5    0    0  0.22913348364E+03 -0.32480074761E+03  0.53788427549E+03  0.66881774258E+03  0.00000000000E+00 0. -1.
        -12    1    5    5    0    0  0.13348725608E+03 -0.11295315421E+03  0.18830138108E+03  0.25697212436E+03  0.00000000000E+00 0.  1.
         11    1    3    3    0    0 -0.38670901661E+03  0.36521509418E+03 -0.34121415499E+02  0.53300112527E+03  0.00000000000E+00 0. -1.
        -12    1    3    3    0    0 -0.39693030075E+03  0.49076518260E+03 -0.63123644127E+02  0.63434117204E+03  0.00000000000E+00 0.  1.
          4    1    6    6  502    0  0.10123680763E+03 -0.13252204528E+03 -0.96283070277E+01  0.16704397026E+03  0.00000000000E+00 0. -1.
         -3    1    6    6    0  502  0.31978177001E+03 -0.28570432967E+03  0.76875811117E+02  0.43565724459E+03  0.00000000000E+00 0.  1.
<mgrwt>
<rscale>  0 0.11655202E+04</rscale>
<asrwt>0</asrwt>
<pdfrwt beam="1">  1        1 0.26092473E+00 0.11655202E+04</pdfrwt>
<pdfrwt beam="2">  1       -2 0.15381887E+00 0.11655202E+04</pdfrwt>
<totfact> 0.11548795E+00</totfact>
</mgrwt>
</event>
<event>
12    3  0.2212098E-007  0.6933703E+03  0.7818608E-02  0.9728638E-01
         -2   -1    0    0    0  501 -0.00000000000E+00  0.00000000000E+00  0.10729939365E+04  0.10729939365E+04  0.00000000000E+00 0.  1.
          1   -1    0    0  501    0  0.00000000000E+00 -0.00000000000E+00 -0.60394701956E+03  0.60394701956E+03  0.00000000000E+00 0. -1.
        -24    2    1    2    0    0  0.59435211834E+03  0.16761409589E+03 -0.11972155807E+03  0.63389118699E+03  0.78331728931E+02 0.  0.
    5000000    2    1    2    0    0 -0.59435211834E+03 -0.16761409589E+03  0.58876847502E+03  0.10430497691E+04  0.59996298043E+03 0.  0.
        -24    2    4    4    0    0 -0.52326310682E+03  0.42222417653E+02  0.60668047538E+03  0.80637924599E+03  0.81235938095E+02 0.  0.
         24    2    4    4    0    0 -0.71089011521E+02 -0.20983651354E+03 -0.17912000356E+02  0.23667052310E+03  0.81283988423E+02 0.  0.
         13    1    3    3    0    0  0.28174055587E+03  0.11947864166E+03 -0.66044887189E+02  0.31307317636E+03  0.00000000000E+00 0. -1.
        -14    1    3    3    0    0  0.31261156247E+03  0.48135454233E+02 -0.53676670882E+02  0.32081801063E+03  0.00000000000E+00 0.  1.
         13    1    5    5    0    0 -0.31106250504E+03  0.57192532991E+02  0.32620954759E+03  0.45436058017E+03  0.00000000000E+00 0. -1.
        -14    1    5    5    0    0 -0.21220060178E+03 -0.14970115338E+02  0.28047092779E+03  0.35201866581E+03  0.00000000000E+00 0.  1.
          4    1    6    6  502    0 -0.11285484311E+02  0.50468714889E+01  0.27524727021E+01  0.12665274333E+02  0.00000000000E+00 0. -1.
         -3    1    6    6    0  502 -0.59803527211E+02 -0.21488338503E+03 -0.20664473058E+02  0.22400524877E+03  0.00000000000E+00 0.  1.
<mgrwt>
<rscale>  0 0.69337028E+03</rscale>
<asrwt>0</asrwt>
<pdfrwt beam="1">  1        1 0.92914926E-01 0.69337028E+03</pdfrwt>
<pdfrwt beam="2">  1       -2 0.16507599E+00 0.69337028E+03</pdfrwt>
<totfact> 0.70661192E+00</totfact>
</mgrwt>
</event>
<event>
12    3  0.2212098E-007  0.7234872E+03  0.7818608E-02  0.9677888E-01
         -2   -1    0    0    0  501 -0.00000000000E+00  0.00000000000E+00  0.43613236155E+03  0.43613236155E+03  0.00000000000E+00 0.  1.
          1   -1    0    0  501    0  0.00000000000E+00 -0.00000000000E+00 -0.15253256033E+04  0.15253256033E+04  0.00000000000E+00 0. -1.
        -24    2    1    2    0    0  0.60177705557E+03  0.14894357268E+03 -0.74520671844E+02  0.62960654978E+03  0.80816239323E+02 0.  0.
    5000000    2    1    2    0    0 -0.60177705557E+03 -0.14894357268E+03 -0.10146725699E+04  0.13318514151E+04  0.59995662781E+03 0.  0.
        -24    2    4    4    0    0 -0.50292791499E+03 -0.33486193174E+03 -0.87836863831E+03  0.10691109765E+04  0.79986337642E+02 0.  0.
         24    2    4    4    0    0 -0.98849140577E+02  0.18591835906E+03 -0.13630393159E+03  0.26274043861E+03  0.78211172375E+02 0.  0.
         11    1    5    5    0    0 -0.26232141668E+03 -0.19544227750E+03 -0.53727415559E+03  0.62902601517E+03  0.00000000000E+00 0. -1.
        -12    1    5    5    0    0 -0.24060649831E+03 -0.13941965424E+03 -0.34109448272E+03  0.44008496130E+03  0.00000000000E+00 0.  1.
         13    1    3    3    0    0  0.39024488748E+03  0.65362028229E+02 -0.71810637710E+02  0.40214429578E+03  0.00000000000E+00 0. -1.
        -14    1    3    3    0    0  0.21153216809E+03  0.83581544453E+02 -0.27100341345E+01  0.22746225400E+03  0.00000000000E+00 0.  1.
          2    1    6    6  502    0 -0.65515109055E+01  0.70749245141E+02 -0.17244382067E+02  0.73114613423E+02  0.00000000000E+00 0. -1.
         -1    1    6    6    0  502 -0.92297629672E+02  0.11516911392E+03 -0.11905954953E+03  0.18962582519E+03  0.00000000000E+00 0.  1.
<mgrwt>
<rscale>  0 0.72348718E+03</rscale>
<asrwt>0</asrwt>
<pdfrwt beam="1">  1        1 0.23466548E+00 0.72348718E+03</pdfrwt>
<pdfrwt beam="2">  1       -2 0.67097287E-01 0.72348718E+03</pdfrwt>
<totfact> 0.11644111E+01</totfact>
</mgrwt>
</event>
<event>
12    3  0.2212098E-007  0.1249719E+04  0.7818608E-02  0.9070417E-01
         -2   -1    0    0    0  501 -0.00000000000E+00  0.00000000000E+00  0.14177462703E+04  0.14177462703E+04  0.00000000000E+00 0.  1.
          1   -1    0    0  501    0  0.00000000000E+00 -0.00000000000E+00 -0.24996727516E+04  0.24996727516E+04  0.00000000000E+00 0. -1.
        -24    2    1    2    0    0 -0.53120021722E+03 -0.10771155373E+04  0.91436539589E+03  0.15117341254E+04  0.83213203390E+02 0.  0.
    5000000    2    1    2    0    0  0.53120021722E+03  0.10771155373E+04 -0.19962918772E+04  0.24056848965E+04  0.59982248310E+03 0.  0.
        -24    2    4    4    0    0  0.60884033226E+03  0.82355133142E+03 -0.17747496950E+04  0.20506863405E+04  0.81575987412E+02 0.  0.
         24    2    4    4    0    0 -0.77640115038E+02  0.25356420585E+03 -0.22154218217E+03  0.35499855601E+03  0.81364871623E+02 0.  0.
         11    1    3    3    0    0 -0.23923211594E+03 -0.44488594194E+03  0.43118827400E+03  0.66413766214E+03  0.00000000000E+00 0. -1.
        -12    1    3    3    0    0 -0.29196810128E+03 -0.63222959533E+03  0.48317712189E+03  0.84759646324E+03  0.00000000000E+00 0.  1.
         13    1    5    5    0    0  0.39955050787E+03  0.60236009275E+03 -0.12599058933E+04  0.14525292251E+04  0.00000000000E+00 0. -1.
        -14    1    5    5    0    0  0.20928982438E+03  0.22119123867E+03 -0.51484380166E+03  0.59815711545E+03  0.00000000000E+00 0.  1.
          2    1    6    6  502    0 -0.72101836883E+02  0.14560829698E+03 -0.17027589723E+03  0.23536000554E+03  0.00000000000E+00 0. -1.
         -1    1    6    6    0  502 -0.55382781548E+01  0.10795590888E+03 -0.51266284936E+02  0.11963855046E+03  0.00000000000E+00 0.  1.
<mgrwt>
<rscale>  0 0.12497193E+04</rscale>
<asrwt>0</asrwt>
<pdfrwt beam="1">  1        1 0.38456504E+00 0.12497193E+04</pdfrwt>
<pdfrwt beam="2">  1       -2 0.21811481E+00 0.12497193E+04</pdfrwt>
<totfact> 0.11746281E-01</totfact>
</mgrwt>
</event>
<event>
12    3  0.2212098E-007  0.1325175E+04  0.7818608E-02  0.9009836E-01
          1   -1    0    0  501    0  0.00000000000E+00  0.00000000000E+00  0.12686218020E+04  0.12686218020E+04  0.00000000000E+00 0. -1.
         -2   -1    0    0    0  501 -0.00000000000E+00 -0.00000000000E+00 -0.14132213333E+04  0.14132213333E+04  0.00000000000E+00 0.  1.
        -24    2    1    2    0    0  0.69648790022E+03 -0.10610356509E+04 -0.12465380508E+03  0.12778718004E+04  0.80781925347E+02 0.  0.
    5000000    2    1    2    0    0 -0.69648790022E+03  0.10610356509E+04 -0.19945726294E+02  0.14039713349E+04  0.59987134431E+03 0.  0.
        -24    2    4    4    0    0 -0.50865671754E+03  0.10758611391E+04  0.29201157592E+02  0.11930900930E+04  0.80015095258E+02 0.  0.
         24    2    4    4    0    0 -0.18783118269E+03 -0.14825488204E+02 -0.49146883887E+02  0.21088124196E+03  0.80963780324E+02 0.  0.
         13    1    5    5    0    0 -0.33097701701E+02  0.60930469619E+02  0.20238678334E+02  0.72232846314E+02  0.00000000000E+00 0. -1.
        -14    1    5    5    0    0 -0.47555901583E+03  0.10149306695E+04  0.89624792581E+01  0.11208572467E+04  0.00000000000E+00 0.  1.
         13    1    3    3    0    0  0.18949989921E+03 -0.22681104710E+03 -0.32046888329E+02  0.29728852305E+03  0.00000000000E+00 0. -1.
        -14    1    3    3    0    0  0.50698800101E+03 -0.83422460378E+03 -0.92606916756E+02  0.98058327732E+03  0.00000000000E+00 0.  1.
          2    1    6    6  502    0 -0.13399967202E+01 -0.31789581780E+00  0.13534054016E+02  0.13603943071E+02  0.00000000000E+00 0. -1.
         -1    1    6    6    0  502 -0.18649118597E+03 -0.14507592386E+02 -0.62680937903E+02  0.19727729889E+03  0.00000000000E+00 0.  1.
<mgrwt>
<rscale>  0 0.13251748E+04</rscale>
<asrwt>0</asrwt>
<pdfrwt beam="1">  1        1 0.19517258E+00 0.13251748E+04</pdfrwt>
<pdfrwt beam="2">  1       -2 0.21741867E+00 0.13251748E+04</pdfrwt>
<totfact> 0.82435073E-01</totfact>
</mgrwt>
</event>
<event>
12    3  0.2212098E-007  0.8808193E+03  0.7818608E-02  0.9449881E-01
          1   -1    0    0  501    0  0.00000000000E+00  0.00000000000E+00  0.13728841992E+04  0.13728841992E+04  0.00000000000E+00 0. -1.
         -2   -1    0    0    0  501 -0.00000000000E+00 -0.00000000000E+00 -0.70485690971E+03  0.70485690971E+03  0.00000000000E+00 0.  1.
        -24    2    1    2    0    0  0.74322398323E+03  0.33185023297E+03  0.68437798816E+03  0.10664529091E+04  0.80262757136E+02 0.  0.
    5000000    2    1    2    0    0 -0.74322398323E+03 -0.33185023297E+03 -0.16350698671E+02  0.10112881998E+04  0.59994167337E+03 0.  0.
        -24    2    4    4    0    0 -0.70837738552E+03 -0.11755857582E+03 -0.15827201295E+03  0.74005899127E+03  0.83777929116E+02 0.  0.
         24    2    4    4    0    0 -0.34846597704E+02 -0.21429165715E+03  0.14192131428E+03  0.27122920858E+03  0.79299586663E+02 0.  0.
         11    1    3    3    0    0  0.18938390646E+03  0.83201826658E+02  0.12993876536E+03  0.24428035273E+03  0.00000000000E+00 0. -1.
        -12    1    3    3    0    0  0.55384007676E+03  0.24864840631E+03  0.55443922280E+03  0.82217255632E+03  0.00000000000E+00 0.  1.
         11    1    5    5    0    0 -0.24710955422E+03 -0.58015186490E+02 -0.18903366706E+02  0.25453139477E+03  0.00000000000E+00 0. -1.
        -12    1    5    5    0    0 -0.46126783130E+03 -0.59543389335E+02 -0.13936864625E+03  0.48552759650E+03  0.00000000000E+00 0.  1.
          4    1    6    6  502    0 -0.47899524591E+02 -0.75842361816E+02  0.37036336903E+02  0.97046991469E+02  0.00000000000E+00 0. -1.
         -3    1    6    6    0  502  0.13052926887E+02 -0.13844929533E+03  0.10488497738E+03  0.17418221711E+03  0.00000000000E+00 0.  1.
<mgrwt>
<rscale>  0 0.88081933E+03</rscale>
<asrwt>0</asrwt>
<pdfrwt beam="1">  1        1 0.21121295E+00 0.88081933E+03</pdfrwt>
<pdfrwt beam="2">  1       -2 0.10843953E+00 0.88081933E+03</pdfrwt>
<totfact> 0.48525680E+00</totfact>
</mgrwt>
</event>
<event>
12    3  0.2212098E-007  0.4664078E+03  0.7818608E-02  0.1022939E+00
          1   -1    0    0  501    0  0.00000000000E+00  0.00000000000E+00  0.16200781752E+04  0.16200781752E+04  0.00000000000E+00 0. -1.
         -2   -1    0    0    0  501 -0.00000000000E+00 -0.00000000000E+00 -0.35435753402E+03  0.35435753402E+03  0.00000000000E+00 0.  1.
        -24    2    1    2    0    0 -0.12942046140E+03  0.26490047050E+03 -0.19913941014E+03  0.36420862988E+03  0.77907036325E+02 0.  0.
    5000000    2    1    2    0    0  0.12942046140E+03 -0.26490047050E+03  0.14648600513E+04  0.16102270793E+04  0.60007862982E+03 0.  0.
        -24    2    4    4    0    0  0.34658980946E+03 -0.16030862874E+03  0.10933886483E+04  0.11609002061E+04  0.79794735108E+02 0.  0.
         24    2    4    4    0    0 -0.21716934806E+03 -0.10459184176E+03  0.37147140298E+03  0.44932687323E+03  0.76168606879E+02 0.  0.
         11    1    5    5    0    0  0.14823024053E+03 -0.25821978377E+02  0.42023524654E+03  0.44635931849E+03  0.00000000000E+00 0. -1.
        -12    1    5    5    0    0  0.19835956893E+03 -0.13448665036E+03  0.67315340181E+03  0.71454088762E+03  0.00000000000E+00 0.  1.
         11    1    3    3    0    0 -0.58825916948E+02  0.68425691327E+02 -0.94564039489E+02  0.13070930075E+03  0.00000000000E+00 0. -1.
        -12    1    3    3    0    0 -0.70594544452E+02  0.19647477917E+03 -0.10457537065E+03  0.23349932913E+03  0.00000000000E+00 0.  1.
          4    1    6    6  502    0 -0.19499918582E+03 -0.80528221473E+02  0.35434691591E+03  0.41239691287E+03  0.00000000000E+00 0. -1.
         -3    1    6    6    0  502 -0.22170162236E+02 -0.24063620290E+02  0.17124487068E+02  0.36929960363E+02  0.00000000000E+00 0.  1.
<mgrwt>
<rscale>  0 0.46640783E+03</rscale>
<asrwt>0</asrwt>
<pdfrwt beam="1">  1        1 0.24924279E+00 0.46640783E+03</pdfrwt>
<pdfrwt beam="2">  1       -2 0.54516545E-01 0.46640783E+03</pdfrwt>
<totfact> 0.16262509E+01</totfact>
</mgrwt>
</event>
<event>
12    3  0.2212098E-007  0.5866460E+03  0.7818608E-02  0.9933505E-01
         -2   -1    0    0    0  501 -0.00000000000E+00  0.00000000000E+00  0.81985797596E+03  0.81985797596E+03  0.00000000000E+00 0.  1.
          1   -1    0    0  501    0  0.00000000000E+00 -0.00000000000E+00 -0.47995434980E+03  0.47995434980E+03  0.00000000000E+00 0. -1.
        -24    2    1    2    0    0 -0.38632028864E+03  0.20630578186E+03 -0.71900005661E+02  0.45040218871E+03  0.76727307641E+02 0.  0.
    5000000    2    1    2    0    0  0.38632028864E+03 -0.20630578186E+03  0.41180363182E+03  0.84941013705E+03  0.60009158359E+03 0.  0.
        -24    2    4    4    0    0  0.51426829864E+03 -0.25928119338E+03  0.31491501462E+03  0.66135083415E+03  0.80714553627E+02 0.  0.
         24    2    4    4    0    0 -0.12794801000E+03  0.52975411526E+02  0.96888617199E+02  0.18805930290E+03  0.82473085165E+02 0.  0.
         11    1    5    5    0    0  0.34738242705E+03 -0.17285822516E+03  0.16807565221E+03  0.42285215087E+03  0.00000000000E+00 0. -1.
        -12    1    5    5    0    0  0.16688587159E+03 -0.86422968220E+02  0.14683936241E+03  0.23849868328E+03  0.00000000000E+00 0.  1.
         13    1    3    3    0    0 -0.14827772088E+03  0.11091860372E+03 -0.56047516695E+02  0.19346974774E+03  0.00000000000E+00 0. -1.
        -14    1    3    3    0    0 -0.23804256776E+03  0.95387178133E+02 -0.15852488965E+02  0.25693244097E+03  0.00000000000E+00 0.  1.
          2    1    6    6  502    0 -0.83322598432E+01  0.33518317733E+02  0.43731597821E+02  0.55725728579E+02  0.00000000000E+00 0. -1.
         -3    1    6    6    0  502 -0.11961575015E+03  0.19457093793E+02  0.53157019378E+02  0.13233357432E+03  0.00000000000E+00 0.  1.
<mgrwt>
<rscale>  0 0.58664600E+03</rscale>
<asrwt>0</asrwt>
<pdfrwt beam="1">  1        1 0.73839131E-01 0.58664600E+03</pdfrwt>
<pdfrwt beam="2">  1       -2 0.12613200E+00 0.58664600E+03</pdfrwt>
<totfact> 0.19886921E+01</totfact>
</mgrwt>
</event>
<event>
12    3  0.2212098E-007  0.7781071E+03  0.7818608E-02  0.9592258E-01
          1   -1    0    0  501    0  0.00000000000E+00  0.00000000000E+00  0.13331915935E+04  0.13331915935E+04  0.00000000000E+00 0. -1.
         -2   -1    0    0    0  501 -0.00000000000E+00 -0.00000000000E+00 -0.99720800090E+03  0.99720800090E+03  0.00000000000E+00 0.  1.
        -24    2    1    2    0    0  0.62631621937E+02 -0.74883138325E+03 -0.61778984033E+03  0.97601648137E+03  0.79200533370E+02 0.  0.
    5000000    2    1    2    0    0 -0.62631621937E+02  0.74883138325E+03  0.95377343296E+03  0.13543831131E+04  0.59999891242E+03 0.  0.
        -24    2    4    4    0    0  0.26948236998E+02  0.65563049817E+03  0.38469629693E+03  0.76496696348E+03  0.81275191398E+02 0.  0.
         24    2    4    4    0    0 -0.89579858935E+02  0.93200885075E+02  0.56907713603E+03  0.58941614957E+03  0.82774721507E+02 0.  0.
         13    1    3    3    0    0  0.16229126197E+02 -0.32902753937E+03 -0.22245772247E+03  0.39750464713E+03  0.00000000000E+00 0. -1.
        -14    1    3    3    0    0  0.46402495740E+02 -0.41980384387E+03 -0.39533211787E+03  0.57851183424E+03  0.00000000000E+00 0.  1.
         13    1    5    5    0    0  0.60019661764E+01  0.20791776177E+03  0.16670419333E+03  0.26656351463E+03  0.00000000000E+00 0. -1.
        -14    1    5    5    0    0  0.20946270821E+02  0.44771273640E+03  0.21799210360E+03  0.49840344885E+03  0.00000000000E+00 0.  1.
          4    1    6    6  502    0 -0.15224652259E+02  0.68039639257E+02  0.19231369142E+03  0.20456230947E+03  0.00000000000E+00 0. -1.
         -3    1    6    6    0  502 -0.74355206675E+02  0.25161245818E+02  0.37676344461E+03  0.38485384011E+03  0.00000000000E+00 0.  1.
<mgrwt>
<rscale>  0 0.77810709E+03</rscale>
<asrwt>0</asrwt>
<pdfrwt beam="1">  1        1 0.20510640E+00 0.77810709E+03</pdfrwt>
<pdfrwt beam="2">  1       -2 0.15341662E+00 0.77810709E+03</pdfrwt>
<totfact> 0.21785439E+00</totfact>
</mgrwt>
</event>
<event>
12    3  0.2212098E-007  0.4319925E+03  0.7818608E-02  0.1033232E+00
          1   -1    0    0  501    0  0.00000000000E+00  0.00000000000E+00  0.16616425000E+04  0.16616425000E+04  0.00000000000E+00 0. -1.
         -2   -1    0    0    0  501 -0.00000000000E+00 -0.00000000000E+00 -0.78414189397E+03  0.78414189397E+03  0.00000000000E+00 0.  1.
        -24    2    1    2    0    0 -0.65269833161E+02 -0.22385344264E+03  0.15174914967E+04  0.15379681289E+04  0.90526284520E+02 0.  0.
    5000000    2    1    2    0    0  0.65269833161E+02  0.22385344264E+03 -0.63999089064E+03  0.90781626507E+03  0.60014291307E+03 0.  0.
        -24    2    4    4    0    0 -0.11524905533E+03 -0.15358815173E+03 -0.28516668719E+03  0.35350195968E+03  0.82291742639E+02 0.  0.
         24    2    4    4    0    0  0.18051888849E+03  0.37744159437E+03 -0.35482420345E+03  0.55431430539E+03  0.79466392539E+02 0.  0.
         11    1    3    3    0    0 -0.34340552974E+02 -0.44619418859E+02  0.59905602883E+03  0.60169617897E+03  0.00000000000E+00 0. -1.
        -12    1    3    3    0    0 -0.30929280187E+02 -0.17923402378E+03  0.91843546785E+03  0.93627194995E+03  0.00000000000E+00 0.  1.
         11    1    5    5    0    0 -0.13773072636E+02 -0.61690700590E+02 -0.14189496921E+03  0.15533712485E+03  0.00000000000E+00 0. -1.
        -12    1    5    5    0    0 -0.10147598269E+03 -0.91897451136E+02 -0.14327171798E+03  0.19816483483E+03  0.00000000000E+00 0.  1.
          2    1    6    6  502    0  0.36915920292E+02  0.16622470259E+03 -0.13398207447E+03  0.21666710226E+03  0.00000000000E+00 0. -1.
         -1    1    6    6    0  502  0.14360296820E+03  0.21121689178E+03 -0.22084212898E+03  0.33764720313E+03  0.00000000000E+00 0.  1.
<mgrwt>
<rscale>  0 0.43199247E+03</rscale>
<asrwt>0</asrwt>
<pdfrwt beam="1">  1        1 0.25563731E+00 0.43199247E+03</pdfrwt>
<pdfrwt beam="2">  1       -2 0.12063722E+00 0.43199247E+03</pdfrwt>
<totfact> 0.25899679E+00</totfact>
</mgrwt>
</event>
<event>
12    3  0.2212098E-007  0.5236989E+03  0.7818608E-02  0.1007772E+00
         -2   -1    0    0    0  501 -0.00000000000E+00  0.00000000000E+00  0.57438511145E+03  0.57438511145E+03  0.00000000000E+00 0.  1.
          1   -1    0    0  501    0  0.00000000000E+00 -0.00000000000E+00 -0.67355656081E+03  0.67355656081E+03  0.00000000000E+00 0. -1.
        -24    2    1    2    0    0  0.26189563306E+03  0.32705473772E+03 -0.25847538308E+03  0.49884398955E+03  0.80508870108E+02 0.  0.
    5000000    2    1    2    0    0 -0.26189563306E+03 -0.32705473772E+03  0.15930393373E+03  0.74909768271E+03  0.60017953219E+03 0.  0.
        -24    2    4    4    0    0 -0.33349352772E+03 -0.37704522004E+03 -0.45961355905E+02  0.51167827750E+03  0.79505864165E+02 0.  0.
         24    2    4    4    0    0  0.71597894665E+02  0.49990482321E+02  0.20526528963E+03  0.23741940521E+03  0.81294698481E+02 0.  0.
         11    1    3    3    0    0  0.11280188053E+03  0.19522541087E+03 -0.16227430056E+03  0.27779520140E+03  0.00000000000E+00 0. -1.
        -12    1    3    3    0    0  0.14909375253E+03  0.13182932685E+03 -0.96201082526E+02  0.22104878815E+03  0.00000000000E+00 0.  1.
         13    1    5    5    0    0 -0.21629668874E+03 -0.22747206142E+03 -0.65515775334E+02  0.32065575483E+03  0.00000000000E+00 0. -1.
        -14    1    5    5    0    0 -0.11719683898E+03 -0.14957315863E+03  0.19554419429E+02  0.19102252267E+03  0.00000000000E+00 0.  1.
          4    1    6    6  502    0  0.22980981852E+02  0.64329742108E+02  0.12618623394E+03  0.14349009332E+03  0.00000000000E+00 0. -1.
         -3    1    6    6    0  502  0.48616912813E+02 -0.14339259787E+02  0.79079055693E+02  0.93929311890E+02  0.00000000000E+00 0.  1.
<mgrwt>
<rscale>  0 0.52369886E+03</rscale>
<asrwt>0</asrwt>
<pdfrwt beam="1">  1        1 0.10362409E+00 0.52369886E+03</pdfrwt>
<pdfrwt beam="2">  1       -2 0.88366941E-01 0.52369886E+03</pdfrwt>
<totfact> 0.29083718E+01</totfact>
</mgrwt>
</event>
<event>
12    3  0.2212098E-007  0.6630026E+03  0.7818608E-02  0.9782682E-01
          1   -1    0    0  501    0  0.00000000000E+00  0.00000000000E+00  0.18950885235E+04  0.18950885235E+04  0.00000000000E+00 0. -1.
         -2   -1    0    0    0  501 -0.00000000000E+00 -0.00000000000E+00 -0.30829477399E+03  0.30829477399E+03  0.00000000000E+00 0.  1.
        -24    2    1    2    0    0  0.62373058543E+03 -0.14179776533E+03  0.56992792052E+03  0.86054231548E+03  0.81048088764E+02 0.  0.
    5000000    2    1    2    0    0 -0.62373058543E+03  0.14179776533E+03  0.10168658290E+04  0.13428409820E+04  0.60004944743E+03 0.  0.
        -24    2    4    4    0    0 -0.37842946843E+03 -0.38140637972E+02  0.14411908459E+03  0.41457588866E+03  0.80245162334E+02 0.  0.
         24    2    4    4    0    0 -0.24530111700E+03  0.17993840330E+03  0.87274674445E+03  0.92826509338E+03  0.86248111117E+02 0.  0.
         11    1    5    5    0    0 -0.18026662006E+03 -0.24469560798E+02  0.26800549738E+02  0.18388334122E+03  0.00000000000E+00 0. -1.
        -12    1    5    5    0    0 -0.19816284837E+03 -0.13671077173E+02  0.11731853485E+03  0.23069254744E+03  0.00000000000E+00 0.  1.
         13    1    3    3    0    0  0.18000767877E+03 -0.26147518627E+02  0.11861584030E+03  0.21715472529E+03  0.00000000000E+00 0. -1.
        -14    1    3    3    0    0  0.44372290666E+03 -0.11565024671E+03  0.45131208022E+03  0.64338759018E+03  0.00000000000E+00 0.  1.
          4    1    6    6  502    0 -0.83206768998E+02  0.74109354027E+02  0.20877016035E+03  0.23664433780E+03  0.00000000000E+00 0. -1.
         -3    1    6    6    0  502 -0.16209434800E+03  0.10582904928E+03  0.66397658409E+03  0.69162075558E+03  0.00000000000E+00 0.  1.
<mgrwt>
<rscale>  0 0.66300261E+03</rscale>
<asrwt>0</asrwt>
<pdfrwt beam="1">  1        1 0.29155207E+00 0.66300261E+03</pdfrwt>
<pdfrwt beam="2">  1       -2 0.47429966E-01 0.66300261E+03</pdfrwt>
<totfact> 0.13658637E+01</totfact>
</mgrwt>
</event>
<event>
12    3  0.2212098E-007  0.5636838E+03  0.7818608E-02  0.9983754E-01
          1   -1    0    0  501    0  0.00000000000E+00  0.00000000000E+00  0.27255102719E+03  0.27255102719E+03  0.00000000000E+00 0. -1.
         -2   -1    0    0    0  501 -0.00000000000E+00 -0.00000000000E+00 -0.14635959123E+04  0.14635959123E+04  0.00000000000E+00 0.  1.
        -24    2    1    2    0    0  0.42116743895E+02  0.41984818153E+03 -0.13494872177E+03  0.45049813856E+03  0.81799142342E+02 0.  0.
    5000000    2    1    2    0    0 -0.42116743895E+02 -0.41984818153E+03 -0.10560961633E+04  0.12856488009E+04  0.59958937405E+03 0.  0.
        -24    2    4    4    0    0  0.23529695643E+03 -0.33257061726E+03 -0.74215844895E+03  0.85039912288E+03  0.80072665012E+02 0.  0.
         24    2    4    4    0    0 -0.27741370033E+03 -0.87277564273E+02 -0.31393771437E+03  0.43524967804E+03  0.79433364346E+02 0.  0.
         11    1    3    3    0    0  0.23970619022E+02  0.14026636149E+03 -0.69379549729E+01  0.14246886664E+03  0.00000000000E+00 0. -1.
        -12    1    3    3    0    0  0.18146124873E+02  0.27958182004E+03 -0.12801076679E+03  0.30802927192E+03  0.00000000000E+00 0.  1.
         13    1    5    5    0    0  0.95068126304E+02 -0.19832074916E+03 -0.36285952011E+03  0.42430661027E+03  0.00000000000E+00 0. -1.
        -14    1    5    5    0    0  0.14022883013E+03 -0.13424986810E+03 -0.37929892884E+03  0.42609251261E+03  0.00000000000E+00 0.  1.
          2    1    6    6  502    0 -0.21242323090E+02 -0.75661057506E+01 -0.34315320202E+00  0.22552161773E+02  0.00000000000E+00 0. -1.
         -1    1    6    6    0  502 -0.25617137724E+03 -0.79711458522E+02 -0.31359456117E+03  0.41269751627E+03  0.00000000000E+00 0.  1.
<mgrwt>
<rscale>  0 0.56368377E+03</rscale>
<asrwt>0</asrwt>
<pdfrwt beam="1">  1        1 0.41930928E-01 0.56368377E+03</pdfrwt>
<pdfrwt beam="2">  1       -2 0.22516860E+00 0.56368377E+03</pdfrwt>
<totfact> 0.83498167E+00</totfact>
</mgrwt>
</event>
<event>
12    3  0.2212098E-007  0.7701906E+03  0.7818608E-02  0.9604196E-01
         -2   -1    0    0    0  501 -0.00000000000E+00  0.00000000000E+00  0.31286011960E+03  0.31286011960E+03  0.00000000000E+00 0.  1.
          1   -1    0    0  501    0  0.00000000000E+00 -0.00000000000E+00 -0.28386169789E+04  0.28386169789E+04  0.00000000000E+00 0. -1.
        -24    2    1    2    0    0  0.62718889153E+03  0.42153948591E+03 -0.50377013280E+03  0.91107990112E+03  0.72255073734E+02 0.  0.
    5000000    2    1    2    0    0 -0.62718889153E+03 -0.42153948591E+03 -0.20219867265E+04  0.22403971974E+04  0.59990652281E+03 0.  0.
        -24    2    4    4    0    0 -0.72118237580E+02 -0.52046343331E+02 -0.10636520908E+04  0.10701339568E+04  0.76948380172E+02 0.  0.
         24    2    4    4    0    0 -0.55507065395E+03 -0.36949314258E+03 -0.95833463578E+03  0.11702632407E+04  0.80511893619E+02 0.  0.
         11    1    5    5    0    0 -0.28248951955E+02 -0.65027198117E+02 -0.57806955380E+03  0.58240102062E+03  0.00000000000E+00 0. -1.
        -12    1    5    5    0    0 -0.43869285625E+02  0.12980854787E+02 -0.48558253695E+03  0.48773293615E+03  0.00000000000E+00 0.  1.
         11    1    3    3    0    0  0.28943479858E+03  0.16931402988E+03 -0.25835828604E+03  0.42330691857E+03  0.00000000000E+00 0. -1.
        -12    1    3    3    0    0  0.33775409295E+03  0.25222545603E+03 -0.24541184675E+03  0.48777298254E+03  0.00000000000E+00 0.  1.
          2    1    6    6  502    0 -0.12943941933E+03 -0.91064043005E+02 -0.29041560258E+03  0.33073924083E+03  0.00000000000E+00 0. -1.
         -1    1    6    6    0  502 -0.42563123462E+03 -0.27842909958E+03 -0.66791903320E+03  0.83952399983E+03  0.00000000000E+00 0.  1.
<mgrwt>
<rscale>  0 0.77019056E+03</rscale>
<asrwt>0</asrwt>
<pdfrwt beam="1">  1        1 0.43671028E+00 0.77019056E+03</pdfrwt>
<pdfrwt beam="2">  1       -2 0.48132328E-01 0.77019056E+03</pdfrwt>
<totfact> 0.29775846E+00</totfact>
</mgrwt>
</event>
<event>
12    3  0.2212098E-007  0.4395688E+03  0.7818608E-02  0.1030879E+00
          1   -1    0    0  501    0  0.00000000000E+00  0.00000000000E+00  0.12961148911E+03  0.12961148911E+03  0.00000000000E+00 0. -1.
         -2   -1    0    0    0  501 -0.00000000000E+00 -0.00000000000E+00 -0.17472283039E+04  0.17472283039E+04  0.00000000000E+00 0.  1.
        -24    2    1    2    0    0  0.26863019187E+03 -0.21031776331E+02 -0.63657535647E+03  0.69573901587E+03  0.78867471972E+02 0.  0.
    5000000    2    1    2    0    0 -0.26863019187E+03  0.21031776331E+02 -0.98104145832E+03  0.11811007771E+04  0.59996015471E+03 0.  0.
        -24    2    4    4    0    0  0.12380187501E+03 -0.13112875172E+03 -0.49656720081E+03  0.53439257047E+03  0.80466021795E+02 0.  0.
         24    2    4    4    0    0 -0.39243206688E+03  0.15216052805E+03 -0.48447425751E+03  0.64670820668E+03  0.79752398039E+02 0.  0.
         11    1    5    5    0    0  0.10224070117E+03 -0.76864570376E+02 -0.24781616610E+03  0.27888021683E+03  0.00000000000E+00 0. -1.
        -12    1    5    5    0    0  0.21561173843E+02 -0.54264181340E+02 -0.24875103471E+03  0.25551235364E+03  0.00000000000E+00 0.  1.
         13    1    3    3    0    0  0.11228989429E+03 -0.26865254920E+02 -0.18756140806E+03  0.22024995818E+03  0.00000000000E+00 0. -1.
        -14    1    3    3    0    0  0.15634029757E+03  0.58334785894E+01 -0.44901394841E+03  0.47548905769E+03  0.00000000000E+00 0.  1.
          2    1    6    6  502    0 -0.10994853699E+03  0.40268518177E+02 -0.84403890255E+02  0.14434074627E+03  0.00000000000E+00 0. -1.
         -1    1    6    6    0  502 -0.28248352989E+03  0.11189200987E+03 -0.40007036726E+03  0.50236746042E+03  0.00000000000E+00 0.  1.
<mgrwt>
<rscale>  0 0.43956883E+03</rscale>
<asrwt>0</asrwt>
<pdfrwt beam="1">  1        1 0.19940229E-01 0.43956883E+03</pdfrwt>
<pdfrwt beam="2">  1       -2 0.26880436E+00 0.43956883E+03</pdfrwt>
<totfact> 0.12147566E+01</totfact>
</mgrwt>
</event>
<event>
12    3  0.2212098E-007  0.4371679E+03  0.7818608E-02  0.1031619E+00
         -2   -1    0    0    0  501 -0.00000000000E+00  0.00000000000E+00  0.16261200940E+03  0.16261200940E+03  0.00000000000E+00 0.  1.
          1   -1    0    0  501    0  0.00000000000E+00 -0.00000000000E+00 -0.13481580634E+04  0.13481580634E+04  0.00000000000E+00 0. -1.
        -24    2    1    2    0    0 -0.26520353291E+03  0.39343516859E+02 -0.34049130651E+03  0.44025506487E+03  0.77520101554E+02 0.  0.
    5000000    2    1    2    0    0  0.26520353291E+03 -0.39343516859E+02 -0.84505474753E+03  0.10705150080E+04  0.60000335813E+03 0.  0.
        -24    2    4    4    0    0 -0.93364445061E+02  0.15646996167E+03 -0.11615005271E+03  0.23109122061E+03  0.81930147035E+02 0.  0.
         24    2    4    4    0    0  0.35856797797E+03 -0.19581347853E+03 -0.72890469481E+03  0.83942378735E+03  0.80101981509E+02 0.  0.
         11    1    3    3    0    0 -0.73782873467E+02 -0.13275076959E+02 -0.13572971971E+03  0.15505707626E+03  0.00000000000E+00 0. -1.
        -12    1    3    3    0    0 -0.19142065944E+03  0.52618593817E+02 -0.20476158680E+03  0.28519798861E+03  0.00000000000E+00 0.  1.
         13    1    5    5    0    0 -0.14760313855E+02  0.61090163994E+02 -0.20509775253E+01  0.62881487822E+02  0.00000000000E+00 0. -1.
        -14    1    5    5    0    0 -0.78604131205E+02  0.95379797677E+02 -0.11409907519E+03  0.16820973279E+03  0.00000000000E+00 0.  1.
          4    1    6    6  502    0  0.15317401668E+03 -0.12313063025E+03 -0.38612539691E+03  0.43326233812E+03  0.00000000000E+00 0. -1.
         -3    1    6    6    0  502  0.20539396129E+03 -0.72682848277E+02 -0.34277929790E+03  0.40616144923E+03  0.00000000000E+00 0.  1.
<mgrwt>
<rscale>  0 0.43716788E+03</rscale>
<asrwt>0</asrwt>
<pdfrwt beam="1">  1        1 0.20740894E+00 0.43716788E+03</pdfrwt>
<pdfrwt beam="2">  1       -2 0.25017232E-01 0.43716788E+03</pdfrwt>
<totfact> 0.11072615E+02</totfact>
</mgrwt>
</event>
<event>
12    3  0.2212098E-007  0.9533559E+03  0.7818608E-02  0.9361237E-01
         -2   -1    0    0    0  501 -0.00000000000E+00  0.00000000000E+00  0.11971264054E+04  0.11971264054E+04  0.00000000000E+00 0.  1.
          1   -1    0    0  501    0  0.00000000000E+00 -0.00000000000E+00 -0.15403404599E+04  0.15403404599E+04  0.00000000000E+00 0. -1.
        -24    2    1    2    0    0  0.79146780108E+03  0.35024031802E+03 -0.11276655465E+04  0.14242762746E+04  0.88565011126E+02 0.  0.
    5000000    2    1    2    0    0 -0.79146780108E+03 -0.35024031802E+03  0.78445149199E+03  0.13131905906E+04  0.60001318610E+03 0.  0.
        -24    2    4    4    0    0 -0.77605416472E+03 -0.98413519977E+02  0.56726113816E+03  0.97108615735E+03  0.96321537799E+02 0.  0.
         24    2    4    4    0    0 -0.15413636363E+02 -0.25182679804E+03  0.21719035383E+03  0.34210443327E+03  0.78800235212E+02 0.  0.
         11    1    5    5    0    0 -0.31963389020E+03 -0.67946088838E+02  0.18887905288E+03  0.37743581092E+03  0.00000000000E+00 0. -1.
        -12    1    5    5    0    0 -0.45642027452E+03 -0.30467431139E+02  0.37838208528E+03  0.59365034643E+03  0.00000000000E+00 0.  1.
         11    1    3    3    0    0  0.18752484420E+03  0.59894137016E+02 -0.20820529293E+03  0.28653502203E+03  0.00000000000E+00 0. -1.
        -12    1    3    3    0    0  0.60394295687E+03  0.29034618100E+03 -0.91946025357E+03  0.11377412526E+04  0.00000000000E+00 0.  1.
          4    1    6    6  502    0  0.11088056850E+02 -0.14661866650E+03  0.16717147829E+03  0.22263486144E+03  0.00000000000E+00 0. -1.
         -3    1    6    6    0  502 -0.26501693213E+02 -0.10520813153E+03  0.50018875540E+02  0.11946957184E+03  0.00000000000E+00 0.  1.
<mgrwt>
<rscale>  0 0.95335594E+03</rscale>
<asrwt>0</asrwt>
<pdfrwt beam="1">  1        1 0.23697546E+00 0.95335594E+03</pdfrwt>
<pdfrwt beam="2">  1       -2 0.18417329E+00 0.95335594E+03</pdfrwt>
<totfact> 0.91835533E-01</totfact>
</mgrwt>
</event>
<event>
12    3  0.2212098E-007  0.5139614E+03  0.7818608E-02  0.1010198E+00
          1   -1    0    0  501    0  0.00000000000E+00  0.00000000000E+00  0.17459776769E+04  0.17459776769E+04  0.00000000000E+00 0. -1.
         -2   -1    0    0    0  501 -0.00000000000E+00 -0.00000000000E+00 -0.24057012723E+03  0.24057012723E+03  0.00000000000E+00 0.  1.
        -24    2    1    2    0    0 -0.50245969851E+03 -0.47439286389E+02  0.55189534411E+03  0.75200509891E+03  0.78784284108E+02 0.  0.
    5000000    2    1    2    0    0  0.50245969851E+03  0.47439286389E+02  0.95351220561E+03  0.12345427053E+04  0.60016158688E+03 0.  0.
        -24    2    4    4    0    0  0.13913168799E+03  0.24045709539E+02  0.82447610890E+03  0.84008494989E+03  0.77756325425E+02 0.  0.
         24    2    4    4    0    0  0.36332801052E+03  0.23393576850E+02  0.12903609671E+03  0.39445775537E+03  0.79950633858E+02 0.  0.
         11    1    5    5    0    0  0.26752768943E+02 -0.13135790438E+02  0.34217734296E+03  0.34347284270E+03  0.00000000000E+00 0. -1.
        -12    1    5    5    0    0  0.11237891905E+03  0.37181499977E+02  0.48229876594E+03  0.49661210720E+03  0.00000000000E+00 0.  1.
         13    1    3    3    0    0 -0.40172010183E+03 -0.69004710784E+02  0.44846114206E+03  0.60601822272E+03  0.00000000000E+00 0. -1.
        -14    1    3    3    0    0 -0.10073959668E+03  0.21565424396E+02  0.10343420205E+03  0.14598687620E+03  0.00000000000E+00 0.  1.
          2    1    6    6  502    0  0.20980768252E+03 -0.16647602149E+02  0.10059755659E+03  0.23327296177E+03  0.00000000000E+00 0. -1.
         -1    1    6    6    0  502  0.15352032800E+03  0.40041178998E+02  0.28438540123E+02  0.16118479360E+03  0.00000000000E+00 0.  1.
<mgrwt>
<rscale>  0 0.51396136E+03</rscale>
<asrwt>0</asrwt>
<pdfrwt beam="1">  1        1 0.26861194E+00 0.51396136E+03</pdfrwt>
<pdfrwt beam="2">  1       -2 0.37010790E-01 0.51396136E+03</pdfrwt>
<totfact> 0.28615199E+01</totfact>
</mgrwt>
</event>
<event>
12    3  0.2212098E-007  0.1696943E+04  0.7818608E-02  0.8763110E-01
          1   -1    0    0  501    0  0.00000000000E+00  0.00000000000E+00  0.14129798728E+04  0.14129798728E+04  0.00000000000E+00 0. -1.
         -2   -1    0    0    0  501 -0.00000000000E+00 -0.00000000000E+00 -0.22562576614E+04  0.22562576614E+04  0.00000000000E+00 0.  1.
        -24    2    1    2    0    0 -0.16243867371E+04 -0.42565652163E+03 -0.85481838437E+03  0.18860190536E+04  0.80855761190E+02 0.  0.
    5000000    2    1    2    0    0  0.16243867371E+04  0.42565652163E+03  0.11540595790E+02  0.17832184806E+04  0.59993267780E+03 0.  0.
        -24    2    4    4    0    0  0.15297302275E+04  0.34683556398E+03  0.15459917609E+03  0.15781824520E+04  0.79934155568E+02 0.  0.
         24    2    4    4    0    0  0.94656509628E+02  0.78820957657E+02 -0.14305858030E+03  0.20503602855E+03  0.80008858405E+02 0.  0.
         11    1    5    5    0    0  0.33919674586E+03  0.45548549715E+02  0.46134656136E+02  0.34533680556E+03  0.00000000000E+00 0. -1.
        -12    1    5    5    0    0  0.11905334817E+04  0.30128701426E+03  0.10846451995E+03  0.12328456465E+04  0.00000000000E+00 0.  1.
         13    1    3    3    0    0 -0.57895915793E+03 -0.16567915976E+03 -0.34753266056E+03  0.69528572593E+03  0.00000000000E+00 0. -1.
        -14    1    3    3    0    0 -0.10454275792E+04 -0.25997736187E+03 -0.50728572381E+03  0.11907333277E+04  0.00000000000E+00 0.  1.
          4    1    6    6  502    0  0.25880634379E+01  0.46445190165E+02 -0.28549050885E+02  0.54579319052E+02  0.00000000000E+00 0. -1.
         -3    1    6    6    0  502  0.92068446190E+02  0.32375767493E+02 -0.11450952942E+03  0.15045670949E+03  0.00000000000E+00 0.  1.
<mgrwt>
<rscale>  0 0.16969428E+04</rscale>
<asrwt>0</asrwt>
<pdfrwt beam="1">  1        1 0.21738152E+00 0.16969428E+04</pdfrwt>
<pdfrwt beam="2">  1       -2 0.34711656E+00 0.16969428E+04</pdfrwt>
<totfact> 0.98898370E-02</totfact>
</mgrwt>
</event>
<event>
12    3  0.2212098E-007  0.6840083E+03  0.7818608E-02  0.9744978E-01
          1   -1    0    0  501    0  0.00000000000E+00  0.00000000000E+00  0.10316426242E+04  0.10316426242E+04  0.00000000000E+00 0. -1.
         -2   -1    0    0    0  501 -0.00000000000E+00 -0.00000000000E+00 -0.48492386096E+03  0.48492386096E+03  0.00000000000E+00 0.  1.
        -24    2    1    2    0    0  0.56681735573E+03  0.39631270102E+01  0.11111531519E+03  0.58321638478E+03  0.80604696367E+02 0.  0.
    5000000    2    1    2    0    0 -0.56681735573E+03 -0.39631270102E+01  0.43560344809E+03  0.93335010041E+03  0.60007868219E+03 0.  0.
        -24    2    4    4    0    0 -0.49249629784E+03 -0.23665089050E+03  0.20635587119E+03  0.58891252816E+03  0.75358960220E+02 0.  0.
         24    2    4    4    0    0 -0.74321057891E+02  0.23268776349E+03  0.22924757689E+03  0.34443757225E+03  0.80097282970E+02 0.  0.
         11    1    3    3    0    0  0.21570752958E+03  0.37048294364E+02  0.25825739717E+02  0.22038439887E+03  0.00000000000E+00 0. -1.
        -12    1    3    3    0    0  0.35110982615E+03 -0.33085167354E+02  0.85289575469E+02  0.36283198591E+03  0.00000000000E+00 0.  1.
         13    1    5    5    0    0 -0.25622184117E+03 -0.14625993207E+03  0.77631799249E+02  0.30507096859E+03  0.00000000000E+00 0. -1.
        -14    1    5    5    0    0 -0.23627445666E+03 -0.90390958434E+02  0.12872407194E+03  0.28384155957E+03  0.00000000000E+00 0.  1.
          4    1    6    6  502    0  0.47131733282E+01  0.39101750010E+02  0.74622601984E+02  0.84378276728E+02  0.00000000000E+00 0. -1.
         -3    1    6    6    0  502 -0.79034231219E+02  0.19358601348E+03  0.15462497491E+03  0.26005929552E+03  0.00000000000E+00 0.  1.
<mgrwt>
<rscale>  0 0.68400831E+03</rscale>
<asrwt>0</asrwt>
<pdfrwt beam="1">  1        1 0.15871425E+00 0.68400831E+03</pdfrwt>
<pdfrwt beam="2">  1       -2 0.74603671E-01 0.68400831E+03</pdfrwt>
<totfact> 0.20887349E+01</totfact>
</mgrwt>
</event>
<event>
12    3  0.2212098E-007  0.5517988E+03  0.7818608E-02  0.1001078E+00
         -2   -1    0    0    0  501 -0.00000000000E+00  0.00000000000E+00  0.38443117248E+03  0.38443117248E+03  0.00000000000E+00 0.  1.
          1   -1    0    0  501    0  0.00000000000E+00 -0.00000000000E+00 -0.92419995019E+03  0.92419995019E+03  0.00000000000E+00 0. -1.
        -24    2    1    2    0    0  0.13806635505E+03 -0.37199529758E+03  0.91505257166E+01  0.40389228869E+03  0.74849374893E+02 0.  0.
    5000000    2    1    2    0    0 -0.13806635505E+03  0.37199529758E+03 -0.54891930342E+03  0.90473883398E+03  0.59983092303E+03 0.  0.
        -24    2    4    4    0    0 -0.35725859115E+03  0.27698185063E+03 -0.43242006249E+03  0.63055453870E+03  0.79115543980E+02 0.  0.
         24    2    4    4    0    0  0.21919223610E+03  0.95013446949E+02 -0.11649924093E+03  0.27418429528E+03  0.67321342603E+02 0.  0.
         13    1    5    5    0    0 -0.12824308758E+03  0.14596408645E+03 -0.16531263266E+03  0.25510795864E+03  0.00000000000E+00 0. -1.
        -14    1    5    5    0    0 -0.22901550357E+03  0.13101776418E+03 -0.26710742983E+03  0.37544658006E+03  0.00000000000E+00 0.  1.
         13    1    3    3    0    0  0.16778416809E+02 -0.71030110215E+02 -0.26069470095E+02  0.77501026437E+02  0.00000000000E+00 0. -1.
        -14    1    3    3    0    0  0.12128793824E+03 -0.30096518737E+03  0.35219995812E+02  0.32639126225E+03  0.00000000000E+00 0.  1.
          4    1    6    6  502    0  0.83487379644E+02  0.72198468351E+02 -0.46146636840E+02  0.11963391444E+03  0.00000000000E+00 0. -1.
         -3    1    6    6    0  502  0.13570485646E+03  0.22814978597E+02 -0.70352604091E+02  0.15455038084E+03  0.00000000000E+00 0.  1.
<mgrwt>
<rscale>  0 0.55179882E+03</rscale>
<asrwt>0</asrwt>
<pdfrwt beam="1">  1        1 0.14218461E+00 0.55179882E+03</pdfrwt>
<pdfrwt beam="2">  1       -2 0.59143258E-01 0.55179882E+03</pdfrwt>
<totfact> 0.42408024E+01</totfact>
</mgrwt>
</event>
<event>
12    3  0.2212098E-007  0.4490066E+03  0.7818608E-02  0.1028019E+00
          1   -1    0    0  501    0  0.00000000000E+00  0.00000000000E+00  0.19106964363E+04  0.19106964363E+04  0.00000000000E+00 0. -1.
         -2   -1    0    0    0  501 -0.00000000000E+00 -0.00000000000E+00 -0.17563422451E+03  0.17563422451E+03  0.00000000000E+00 0.  1.
        -24    2    1    2    0    0 -0.64881197830E+02 -0.29292087112E+03  0.11125905391E+03  0.32940869448E+03  0.78225982599E+02 0.  0.
    5000000    2    1    2    0    0  0.64881197830E+02  0.29292087112E+03  0.16238031579E+04  0.17569219663E+04  0.60002157767E+03 0.  0.
        -24    2    4    4    0    0  0.21936889184E+03 -0.33050928620E+02  0.29309679105E+03  0.37597212655E+03  0.78957180962E+02 0.  0.
         24    2    4    4    0    0 -0.15448769401E+03  0.32597179974E+03  0.13307063668E+04  0.13809498398E+04  0.78223803613E+02 0.  0.
         11    1    5    5    0    0  0.97532321792E+02 -0.80229195124E+01  0.19271059490E+03  0.21613489865E+03  0.00000000000E+00 0. -1.
        -12    1    5    5    0    0  0.12183657005E+03 -0.25028009107E+02  0.10038619615E+03  0.15983722789E+03  0.00000000000E+00 0.  1.
         13    1    3    3    0    0  0.33296486089E+01 -0.13554125373E+03  0.71728452647E+02  0.15338673000E+03  0.00000000000E+00 0. -1.
        -14    1    3    3    0    0 -0.68210846439E+02 -0.15737961739E+03  0.39530601258E+02  0.17602196448E+03  0.00000000000E+00 0.  1.
          2    1    6    6  502    0 -0.51292193599E+01  0.85019411243E+02  0.27962023513E+03  0.29230478114E+03  0.00000000000E+00 0. -1.
         -1    1    6    6    0  502 -0.14935847465E+03  0.24095238850E+03  0.10510861317E+04  0.10886450587E+04  0.00000000000E+00 0.  1.
<mgrwt>
<rscale>  0 0.44900662E+03</rscale>
<asrwt>0</asrwt>
<pdfrwt beam="1">  1        1 0.29395328E+00 0.44900662E+03</pdfrwt>
<pdfrwt beam="2">  1       -2 0.27020651E-01 0.44900662E+03</pdfrwt>
<totfact> 0.40453615E+01</totfact>
</mgrwt>
</event>
<event>
12    3  0.2212098E-007  0.9137951E+03  0.7818608E-02  0.9408499E-01
          1   -1    0    0  501    0  0.00000000000E+00  0.00000000000E+00  0.11047917083E+04  0.11047917083E+04  0.00000000000E+00 0. -1.
         -2   -1    0    0    0  501 -0.00000000000E+00 -0.00000000000E+00 -0.99944343363E+03  0.99944343363E+03  0.00000000000E+00 0.  1.
        -24    2    1    2    0    0  0.34753528804E+03 -0.83340674310E+03  0.38504754539E+03  0.98459890009E+03  0.76326967517E+02 0.  0.
    5000000    2    1    2    0    0 -0.34753528804E+03  0.83340674310E+03 -0.27969927072E+03  0.11196362418E+04  0.60000504673E+03 0.  0.
        -24    2    4    4    0    0 -0.57499345739E+02  0.30748000798E+03  0.17014792173E+03  0.36514670677E+03  0.80818760995E+02 0.  0.
         24    2    4    4    0    0 -0.29003594231E+03  0.52592673513E+03 -0.44984719245E+03  0.75448953507E+03  0.78563244779E+02 0.  0.
         11    1    3    3    0    0  0.32600178222E+03 -0.77079166270E+03  0.37701784668E+03  0.91789945311E+03  0.00000000000E+00 0. -1.
        -12    1    3    3    0    0  0.21533505829E+02 -0.62615080401E+02  0.80296987061E+01  0.66699446986E+02  0.00000000000E+00 0.  1.
         13    1    5    5    0    0 -0.76647997313E+02  0.21125883153E+03  0.12486603249E+03  0.25709285378E+03  0.00000000000E+00 0. -1.
        -14    1    5    5    0    0  0.19148651574E+02  0.96221176443E+02  0.45281889235E+02  0.10805385299E+03  0.00000000000E+00 0.  1.
          2    1    6    6  502    0 -0.24378451254E+03  0.41265016351E+03 -0.39188345893E+03  0.61909909658E+03  0.00000000000E+00 0. -1.
         -3    1    6    6    0  502 -0.46251429764E+02  0.11327657161E+03 -0.57963733513E+02  0.13539043849E+03  0.00000000000E+00 0.  1.
<mgrwt>
<rscale>  0 0.91379508E+03</rscale>
<asrwt>0</asrwt>
<pdfrwt beam="1">  1        1 0.16996796E+00 0.91379508E+03</pdfrwt>
<pdfrwt beam="2">  1       -2 0.15376053E+00 0.91379508E+03</pdfrwt>
<totfact> 0.31107810E+00</totfact>
</mgrwt>
</event>
<event>
12    3  0.2212098E-007  0.7347236E+03  0.7818608E-02  0.9659626E-01
          1   -1    0    0  501    0  0.00000000000E+00  0.00000000000E+00  0.64039740952E+03  0.64039740952E+03  0.00000000000E+00 0. -1.
         -2   -1    0    0    0  501 -0.00000000000E+00 -0.00000000000E+00 -0.10825641327E+04  0.10825641327E+04  0.00000000000E+00 0.  1.
        -24    2    1    2    0    0 -0.69804514583E+03 -0.16419386323E+03 -0.28157324633E+03  0.77424764321E+03  0.77131508677E+02 0.  0.
    5000000    2    1    2    0    0  0.69804514583E+03  0.16419386323E+03 -0.16059347682E+03  0.94871389898E+03  0.60003428816E+03 0.  0.
        -24    2    4    4    0    0  0.67087283733E+02  0.17149952000E+02  0.18294702076E+03  0.21112419815E+03  0.79429151740E+02 0.  0.
         24    2    4    4    0    0  0.63095786210E+03  0.14704391123E+03 -0.34354049758E+03  0.73758970083E+03  0.79301687947E+02 0.  0.
         11    1    3    3    0    0 -0.27151083268E+03 -0.61112716506E+02 -0.69373718330E+02  0.28681982005E+03  0.00000000000E+00 0. -1.
        -12    1    3    3    0    0 -0.42653431315E+03 -0.10308114673E+03 -0.21219952800E+03  0.48742782316E+03  0.00000000000E+00 0.  1.
         13    1    5    5    0    0  0.77987797642E+02  0.31624402120E+02  0.16691533176E+03  0.18693027408E+03  0.00000000000E+00 0. -1.
        -14    1    5    5    0    0 -0.10900513908E+02 -0.14474450119E+02  0.16031689005E+02  0.24193924074E+02  0.00000000000E+00 0.  1.
          4    1    6    6  502    0  0.14033804539E+03  0.55787347831E+02 -0.10862239412E+03  0.18602639508E+03  0.00000000000E+00 0. -1.
         -3    1    6    6    0  502  0.49061981671E+03  0.91256563401E+02 -0.23491810346E+03  0.55156330575E+03  0.00000000000E+00 0.  1.
<mgrwt>
<rscale>  0 0.73472362E+03</rscale>
<asrwt>0</asrwt>
<pdfrwt beam="1">  1        1 0.98522680E-01 0.73472362E+03</pdfrwt>
<pdfrwt beam="2">  1       -2 0.16654833E+00 0.73472362E+03</pdfrwt>
<totfact> 0.63016638E+00</totfact>
</mgrwt>
</event>
<event>
12    3  0.2212098E-007  0.7175848E+03  0.7818608E-02  0.9687624E-01
          1   -1    0    0  501    0  0.00000000000E+00  0.00000000000E+00  0.18715313331E+04  0.18715313331E+04  0.00000000000E+00 0. -1.
         -2   -1    0    0    0  501 -0.00000000000E+00 -0.00000000000E+00 -0.35912074424E+03  0.35912074424E+03  0.00000000000E+00 0.  1.
        -24    2    1    2    0    0  0.47583041884E+03 -0.39061604498E+03  0.18253959021E+03  0.64713437307E+03  0.80415873561E+02 0.  0.
    5000000    2    1    2    0    0 -0.47583041884E+03  0.39061604498E+03  0.13298709987E+04  0.15835177043E+04  0.59997997018E+03 0.  0.
        -24    2    4    4    0    0  0.19752784358E+02 -0.99212787311E+02  0.36288577626E+03  0.38794034024E+03  0.92618957679E+02 0.  0.
         24    2    4    4    0    0 -0.49558320320E+03  0.48982883229E+03  0.96698522243E+03  0.11955773641E+04  0.93860624504E+02 0.  0.
         13    1    5    5    0    0 -0.10977840115E+02 -0.73087861246E+02  0.32250742921E+03  0.33086763265E+03  0.00000000000E+00 0. -1.
        -14    1    5    5    0    0  0.30730624473E+02 -0.26124926064E+02  0.40378347044E+02  0.57072707596E+02  0.00000000000E+00 0.  1.
         13    1    3    3    0    0  0.21570217520E+03 -0.13174518890E+03  0.55463883851E+02  0.25876720347E+03  0.00000000000E+00 0. -1.
        -14    1    3    3    0    0  0.26012824365E+03 -0.25887085609E+03  0.12707570636E+03  0.38836716960E+03  0.00000000000E+00 0.  1.
          2    1    6    6  502    0 -0.11021545804E+03  0.66512026981E+02  0.21335780206E+03  0.24918436674E+03  0.00000000000E+00 0. -1.
         -1    1    6    6    0  502 -0.38536774516E+03  0.42331680531E+03  0.75362742036E+03  0.94639299733E+03  0.00000000000E+00 0.  1.
<mgrwt>
<rscale>  0 0.71758482E+03</rscale>
<asrwt>0</asrwt>
<pdfrwt beam="1">  1        1 0.28792789E+00 0.71758482E+03</pdfrwt>
<pdfrwt beam="2">  1       -2 0.55249346E-01 0.71758482E+03</pdfrwt>
<totfact> 0.10281605E+01</totfact>
</mgrwt>
</event>
<event>
12    3  0.2212098E-007  0.8508009E+03  0.7818608E-02  0.9489263E-01
         -2   -1    0    0    0  501 -0.00000000000E+00  0.00000000000E+00  0.35755506308E+03  0.35755506308E+03  0.00000000000E+00 0.  1.
          1   -1    0    0  501    0  0.00000000000E+00 -0.00000000000E+00 -0.26022778832E+04  0.26022778832E+04  0.00000000000E+00 0. -1.
        -24    2    1    2    0    0 -0.56896938399E+03 -0.60850829634E+03 -0.63449483984E+03  0.10501721940E+04  0.79179723264E+02 0.  0.
    5000000    2    1    2    0    0  0.56896938399E+03  0.60850829634E+03 -0.16102279803E+04  0.19096607524E+04  0.59996794404E+03 0.  0.
        -24    2    4    4    0    0  0.52737150787E+03  0.53076122929E+03 -0.82991652808E+03  0.11202301630E+04  0.79536059458E+02 0.  0.
         24    2    4    4    0    0  0.41597876114E+02  0.77747067050E+02 -0.78031145223E+03  0.78943058932E+03  0.80868431052E+02 0.  0.
         13    1    5    5    0    0  0.52738279395E+02  0.89938853506E+02 -0.10267328119E+03  0.14632882885E+03  0.00000000000E+00 0. -1.
        -14    1    5    5    0    0  0.47463322848E+03  0.44082237578E+03 -0.72724324689E+03  0.97390133418E+03  0.00000000000E+00 0.  1.
         13    1    3    3    0    0 -0.35186178831E+03 -0.34635208858E+03 -0.41673585299E+03  0.64609229874E+03  0.00000000000E+00 0. -1.
        -14    1    3    3    0    0 -0.21710759568E+03 -0.26215620776E+03 -0.21775898685E+03  0.40407989522E+03  0.00000000000E+00 0.  1.
          2    1    6    6  502    0 -0.20598204160E+02  0.82230009309E+01 -0.83200985130E+02  0.86106374245E+02  0.00000000000E+00 0. -1.
         -1    1    6    6    0  502  0.62196080274E+02  0.69524066119E+02 -0.69711046710E+03  0.70332421507E+03  0.00000000000E+00 0.  1.
<mgrwt>
<rscale>  0 0.85080090E+03</rscale>
<asrwt>0</asrwt>
<pdfrwt beam="1">  1        1 0.40035045E+00 0.85080090E+03</pdfrwt>
<pdfrwt beam="2">  1       -2 0.55008470E-01 0.85080090E+03</pdfrwt>
<totfact> 0.32639002E+00</totfact>
</mgrwt>
</event>
<event>
12    3  0.2212098E-007  0.1048284E+04  0.7818608E-02  0.9257117E-01
          1   -1    0    0  501    0  0.00000000000E+00  0.00000000000E+00  0.15200719821E+04  0.15200719821E+04  0.00000000000E+00 0. -1.
         -2   -1    0    0    0  501 -0.00000000000E+00 -0.00000000000E+00 -0.82651589008E+03  0.82651589008E+03  0.00000000000E+00 0.  1.
        -24    2    1    2    0    0  0.93266391929E+03 -0.29746025373E+03 -0.41480365203E+02  0.98316284691E+03  0.80894832626E+02 0.  0.
    5000000    2    1    2    0    0 -0.93266391929E+03  0.29746025373E+03  0.73503645725E+03  0.13634250253E+04  0.60025379401E+03 0.  0.
        -24    2    4    4    0    0 -0.48890693773E+01  0.16552587093E+03  0.23716417312E+03  0.29927166522E+03  0.76772180155E+02 0.  0.
         24    2    4    4    0    0 -0.92777484992E+03  0.13193438281E+03  0.49787228413E+03  0.10641533601E+04  0.79829248776E+02 0.  0.
         11    1    3    3    0    0  0.44273946737E+03 -0.16333829902E+03  0.14533874762E+02  0.47213225839E+03  0.00000000000E+00 0. -1.
        -12    1    3    3    0    0  0.48992445192E+03 -0.13412195472E+03 -0.56014239965E+02  0.51103058852E+03  0.00000000000E+00 0.  1.
         13    1    5    5    0    0 -0.32654922559E+02  0.72952755428E+02  0.14581990979E+03  0.16628858826E+03  0.00000000000E+00 0. -1.
        -14    1    5    5    0    0  0.27765853181E+02  0.92573115499E+02  0.91344263328E+02  0.13298307696E+03  0.00000000000E+00 0.  1.
          2    1    6    6  502    0 -0.63850988394E+03  0.55362206272E+02  0.35322458946E+03  0.73179741484E+03  0.00000000000E+00 0. -1.
         -1    1    6    6    0  502 -0.28926496598E+03  0.76572176533E+02  0.14464769467E+03  0.33235594524E+03  0.00000000000E+00 0.  1.
<mgrwt>
<rscale>  0 0.10482844E+04</rscale>
<asrwt>0</asrwt>
<pdfrwt beam="1">  1        1 0.23385723E+00 0.10482844E+04</pdfrwt>
<pdfrwt beam="2">  1       -2 0.12715629E+00 0.10482844E+04</pdfrwt>
<totfact> 0.25362825E+00</totfact>
</mgrwt>
</event>
<event>
12    3  0.2212098E-007  0.5970952E+03  0.7818608E-02  0.9911451E-01
          1   -1    0    0  501    0  0.00000000000E+00  0.00000000000E+00  0.24595759752E+04  0.24595759752E+04  0.00000000000E+00 0. -1.
         -2   -1    0    0    0  501 -0.00000000000E+00 -0.00000000000E+00 -0.15386078945E+03  0.15386078945E+03  0.00000000000E+00 0.  1.
        -24    2    1    2    0    0 -0.12544974659E+03  0.44525050488E+03  0.10107468627E+04  0.11133276503E+04  0.62478680408E+02 0.  0.
    5000000    2    1    2    0    0  0.12544974659E+03 -0.44525050488E+03  0.12949683230E+04  0.15001091143E+04  0.59949874575E+03 0.  0.
        -24    2    4    4    0    0  0.25820456928E+03 -0.50714704976E+03  0.11126517687E+04  0.12524031920E+04  0.81560206051E+02 0.  0.
         24    2    4    4    0    0 -0.13275482269E+03  0.61896544887E+02  0.18231655431E+03  0.24770592231E+03  0.81632547155E+02 0.  0.
         11    1    3    3    0    0 -0.30230603122E+02  0.18913821184E+03  0.36652960917E+03  0.41355907309E+03  0.00000000000E+00 0. -1.
        -12    1    3    3    0    0 -0.95219143472E+02  0.25611229304E+03  0.64421725354E+03  0.69976857724E+03  0.00000000000E+00 0.  1.
         13    1    5    5    0    0  0.31673315815E+02 -0.12777584987E+03  0.29373569621E+03  0.32188588968E+03  0.00000000000E+00 0. -1.
        -14    1    5    5    0    0  0.22653125347E+03 -0.37937119989E+03  0.81891607249E+03  0.93051730231E+03  0.00000000000E+00 0.  1.
          2    1    6    6  502    0 -0.94913437849E+01 -0.95274644297E+01  0.55076627577E+02  0.56694736004E+02  0.00000000000E+00 0. -1.
         -1    1    6    6    0  502 -0.12326347890E+03  0.71424009317E+02  0.12723992673E+03  0.19101118630E+03  0.00000000000E+00 0.  1.
<mgrwt>
<rscale>  0 0.59709517E+03</rscale>
<asrwt>0</asrwt>
<pdfrwt beam="1">  1        1 0.37839627E+00 0.59709517E+03</pdfrwt>
<pdfrwt beam="2">  1       -2 0.23670893E-01 0.59709517E+03</pdfrwt>
<totfact> 0.21507139E+01</totfact>
</mgrwt>
</event>
<event>
12    3  0.2212098E-007  0.6765387E+03  0.7818608E-02  0.9758217E-01
          1   -1    0    0  501    0  0.00000000000E+00  0.00000000000E+00  0.70989765118E+03  0.70989765118E+03  0.00000000000E+00 0. -1.
         -2   -1    0    0    0  501 -0.00000000000E+00 -0.00000000000E+00 -0.10145042959E+04  0.10145042959E+04  0.00000000000E+00 0.  1.
        -24    2    1    2    0    0 -0.10944166471E+03 -0.61713000431E+03 -0.53371349563E+03  0.82698342996E+03  0.78895993715E+02 0.  0.
    5000000    2    1    2    0    0  0.10944166471E+03  0.61713000431E+03  0.22910685088E+03  0.89741851714E+03  0.60003593692E+03 0.  0.
        -24    2    4    4    0    0  0.20586329991E+03  0.20399657635E+03 -0.13814057088E+03  0.33083605476E+03  0.79845954140E+02 0.  0.
         24    2    4    4    0    0 -0.96421635198E+02  0.41313342796E+03  0.36724742176E+03  0.56658246239E+03  0.78540797471E+02 0.  0.
         13    1    3    3    0    0 -0.52436202633E+02 -0.12254067061E+03 -0.98851210368E+02  0.16594376485E+03  0.00000000000E+00 0. -1.
        -14    1    3    3    0    0 -0.57005462076E+02 -0.49458933370E+03 -0.43486228526E+03  0.66103966511E+03  0.00000000000E+00 0.  1.
         13    1    5    5    0    0  0.83040420497E+02  0.53230590048E+02 -0.82443586018E+02  0.12855408212E+03  0.00000000000E+00 0. -1.
        -14    1    5    5    0    0  0.12282287941E+03  0.15076598631E+03 -0.55696984861E+02  0.20228197264E+03  0.00000000000E+00 0.  1.
          2    1    6    6  502    0 -0.92584696302E+02  0.26617732661E+03  0.27026104287E+03  0.39046552534E+03  0.00000000000E+00 0. -1.
         -1    1    6    6    0  502 -0.38369388956E+01  0.14695610135E+03  0.96986378891E+02  0.17611693704E+03  0.00000000000E+00 0.  1.
<mgrwt>
<rscale>  0 0.67653873E+03</rscale>
<asrwt>0</asrwt>
<pdfrwt beam="1">  1        1 0.10921502E+00 0.67653873E+03</pdfrwt>
<pdfrwt beam="2">  1       -2 0.15607758E+00 0.67653873E+03</pdfrwt>
<totfact> 0.64946115E+00</totfact>
</mgrwt>
</event>
<event>
12    3  0.2212098E-007  0.5524650E+03  0.7818608E-02  0.1000925E+00
         -2   -1    0    0    0  501 -0.00000000000E+00  0.00000000000E+00  0.52891095658E+03  0.52891095658E+03  0.00000000000E+00 0.  1.
          1   -1    0    0  501    0  0.00000000000E+00 -0.00000000000E+00 -0.89778448396E+03  0.89778448396E+03  0.00000000000E+00 0. -1.
        -24    2    1    2    0    0  0.46216980731E+03  0.25531478091E+03  0.26331419575E+02  0.53507090713E+03  0.82589126722E+02 0.  0.
    5000000    2    1    2    0    0 -0.46216980731E+03 -0.25531478091E+03 -0.39520494696E+03  0.89162453341E+03  0.60001732502E+03 0.  0.
        -24    2    4    4    0    0 -0.33833049483E+03 -0.88397666813E+02 -0.52771125995E+03  0.63801190511E+03  0.79362119148E+02 0.  0.
         24    2    4    4    0    0 -0.12383931248E+03 -0.16691711410E+03  0.13250631299E+03  0.25361262830E+03  0.59698776807E+02 0.  0.
         11    1    3    3    0    0  0.34811395175E+03  0.15180294993E+03  0.69909841697E+01  0.37983724524E+03  0.00000000000E+00 0. -1.
        -12    1    3    3    0    0  0.11405585556E+03  0.10351183098E+03  0.19340435406E+02  0.15523366189E+03  0.00000000000E+00 0.  1.
         11    1    5    5    0    0 -0.14991209840E+03 -0.52020358962E+01 -0.26092038396E+03  0.30096535547E+03  0.00000000000E+00 0. -1.
        -12    1    5    5    0    0 -0.18841839643E+03 -0.83195630917E+02 -0.26679087599E+03  0.33704654965E+03  0.00000000000E+00 0.  1.
          2    1    6    6  502    0 -0.43161220590E+02 -0.10480441982E+03  0.82416853516E+02  0.14014062623E+03  0.00000000000E+00 0. -1.
         -1    1    6    6    0  502 -0.80678091892E+02 -0.62112694280E+02  0.50089459477E+02  0.11347200207E+03  0.00000000000E+00 0.  1.
<mgrwt>
<rscale>  0 0.55246500E+03</rscale>
<asrwt>0</asrwt>
<pdfrwt beam="1">  1        1 0.13812069E+00 0.55246500E+03</pdfrwt>
<pdfrwt beam="2">  1       -2 0.81370917E-01 0.55246500E+03</pdfrwt>
<totfact> 0.22280970E+01</totfact>
</mgrwt>
</event>
<event>
12    3  0.2212098E-007  0.5842545E+03  0.7818608E-02  0.9938622E-01
         -2   -1    0    0    0  501 -0.00000000000E+00  0.00000000000E+00  0.47287432755E+03  0.47287432755E+03  0.00000000000E+00 0.  1.
          1   -1    0    0  501    0  0.00000000000E+00 -0.00000000000E+00 -0.85930571060E+03  0.85930571060E+03  0.00000000000E+00 0. -1.
        -24    2    1    2    0    0 -0.45399882388E+03  0.16675756500E+03 -0.60134709698E+02  0.49546803105E+03  0.89159233428E+02 0.  0.
    5000000    2    1    2    0    0  0.45399882388E+03 -0.16675756500E+03 -0.32629667335E+03  0.83671200710E+03  0.59974531779E+03 0.  0.
        -24    2    4    4    0    0 -0.40154284216E+02 -0.17616189970E+03 -0.26787264911E+03  0.33275064843E+03  0.79510102794E+02 0.  0.
         24    2    4    4    0    0  0.49415310810E+03  0.94043346967E+01 -0.58424024248E+02  0.50396135867E+03  0.79296586743E+02 0.  0.
         11    1    3    3    0    0 -0.25135592306E+03  0.45258152003E+02 -0.25511783313E+02  0.25666895306E+03  0.00000000000E+00 0. -1.
        -12    1    3    3    0    0 -0.20264290083E+03  0.12149941300E+03 -0.34622926385E+02  0.23879907799E+03  0.00000000000E+00 0.  1.
         13    1    5    5    0    0 -0.18300412439E+02 -0.65388463871E+02 -0.17097211737E+03  0.18396201026E+03  0.00000000000E+00 0. -1.
        -14    1    5    5    0    0 -0.21853871777E+02 -0.11077343583E+03 -0.96900531735E+02  0.14878863817E+03  0.00000000000E+00 0.  1.
          2    1    6    6  502    0  0.38147561741E+03 -0.10418278781E+02 -0.73289695701E+02  0.38859177385E+03  0.00000000000E+00 0. -1.
         -1    1    6    6    0  502  0.11267749069E+03  0.19822613478E+02  0.14865671453E+02  0.11536958482E+03  0.00000000000E+00 0.  1.
<mgrwt>
<rscale>  0 0.58425453E+03</rscale>
<asrwt>0</asrwt>
<pdfrwt beam="1">  1        1 0.13220088E+00 0.58425453E+03</pdfrwt>
<pdfrwt beam="2">  1       -2 0.72749898E-01 0.58425453E+03</pdfrwt>
<totfact> 0.30591487E+01</totfact>
</mgrwt>
</event>
<event>
12    3  0.2541731E-007  0.8457281E+03  0.7818608E-02  0.9496089E-01
         -2   -1    0    0    0  501 -0.00000000000E+00  0.00000000000E+00  0.12647472655E+04  0.12647472655E+04  0.00000000000E+00 0.  1.
          1   -1    0    0  501    0  0.00000000000E+00 -0.00000000000E+00 -0.15932476119E+04  0.15932476119E+04  0.00000000000E+00 0. -1.
        -24    2    1    2    0    0  0.68053794044E+03 -0.45686168018E+03  0.92899896599E+03  0.12414715517E+04  0.79737391427E+02 0.  0.
    5000000    2    1    2    0    0 -0.68053794044E+03  0.45686168018E+03 -0.12574993125E+04  0.16165233258E+04  0.59999054881E+03 0.  0.
        -24    2    4    4    0    0 -0.42334828108E+03  0.11729306115E+03 -0.10376103690E+04  0.11295338467E+04  0.78930372415E+02 0.  0.
         24    2    4    4    0    0 -0.25718965936E+03  0.33956861903E+03 -0.21988894343E+03  0.48698947903E+03  0.85756850020E+02 0.  0.
         11    1    5    5    0    0 -0.13124599843E+03  0.48588254717E+01 -0.35739363393E+03  0.38076151310E+03  0.00000000000E+00 0. -1.
        -12    1    5    5    0    0 -0.29210228266E+03  0.11243423568E+03 -0.68021673510E+03  0.74877233362E+03  0.00000000000E+00 0.  1.
         13    1    3    3    0    0  0.42402821086E+03 -0.26841455476E+03  0.51265389081E+03  0.71739829145E+03  0.00000000000E+00 0. -1.
        -14    1    3    3    0    0  0.25650972959E+03 -0.18844712543E+03  0.41634507518E+03  0.52407326022E+03  0.00000000000E+00 0.  1.
          2    1    6    6  502    0 -0.80352952420E+02  0.84359847831E+02 -0.21330131967E+02  0.11844051426E+03  0.00000000000E+00 0. -1.
         -1    1    6    6    0  502 -0.17683670694E+03  0.25520877120E+03 -0.19855881146E+03  0.36854896476E+03  0.00000000000E+00 0.  1.
<mgrwt>
<rscale>  0 0.84572813E+03</rscale>
<asrwt>0</asrwt>
<pdfrwt beam="1">  1        1 0.24511502E+00 0.84572813E+03</pdfrwt>
<pdfrwt beam="2">  1       -2 0.19457650E+00 0.84572813E+03</pdfrwt>
<totfact> 0.73203026E-01</totfact>
</mgrwt>
</event>
<event>
12    3  0.2212098E-007  0.1946494E+04  0.7818608E-02  0.8632054E-01
         -4   -1    0    0    0  501 -0.00000000000E+00  0.00000000000E+00  0.16185524631E+04  0.16185524631E+04  0.00000000000E+00 0.  1.
          1   -1    0    0  501    0  0.00000000000E+00 -0.00000000000E+00 -0.24490742769E+04  0.24490742769E+04  0.00000000000E+00 0. -1.
        -24    2    1    2    0    0 -0.16686936950E+04 -0.94120043709E+03 -0.63451278976E+02  0.19185050937E+04  0.78986198379E+02 0.  0.
    5000000    2    1    2    0    0  0.16686936950E+04  0.94120043709E+03 -0.76707053485E+03  0.21491216462E+04  0.59994144241E+03 0.  0.
        -24    2    4    4    0    0  0.10882747326E+02  0.40647551857E+02  0.33290011777E+02  0.98239676512E+02  0.82293082916E+02 0.  0.
         24    2    4    4    0    0  0.16578109476E+04  0.90055288523E+03 -0.80036054663E+03  0.20508819697E+04  0.78785860171E+02 0.  0.
         11    1    5    5    0    0 -0.24000168158E+02  0.48254570142E+02  0.79924302827E+01  0.54482938182E+02  0.00000000000E+00 0. -1.
        -12    1    5    5    0    0  0.34882915483E+02 -0.76070182845E+01  0.25297581494E+02  0.43756738330E+02  0.00000000000E+00 0.  1.
         13    1    3    3    0    0 -0.95767607552E+03 -0.57398103309E+03 -0.62456815918E+02  0.11182569230E+04  0.00000000000E+00 0. -1.
        -14    1    3    3    0    0 -0.71101761944E+03 -0.36721940400E+03 -0.99446305744E+00  0.80024817075E+03  0.00000000000E+00 0.  1.
          2    1    6    6  502    0  0.11290251061E+04  0.61693901324E+03 -0.58526067365E+03  0.14134502087E+04  0.00000000000E+00 0. -1.
         -1    1    6    6    0  502  0.52878584149E+03  0.28361387199E+03 -0.21509987298E+03  0.63743176098E+03  0.00000000000E+00 0.  1.
<mgrwt>
<rscale>  0 0.19464935E+04</rscale>
<asrwt>0</asrwt>
<pdfrwt beam="1">  1        1 0.37678066E+00 0.19464935E+04</pdfrwt>
<pdfrwt beam="2">  1       -4 0.24900807E+00 0.19464935E+04</pdfrwt>
<totfact> 0.40386299E-02</totfact>
</mgrwt>
</event>
<event>
12    3  0.2212098E-007  0.4703904E+03  0.7818608E-02  0.1021810E+00
          1   -1    0    0  501    0  0.00000000000E+00  0.00000000000E+00  0.18405671868E+04  0.18405671868E+04  0.00000000000E+00 0. -1.
         -2   -1    0    0    0  501 -0.00000000000E+00 -0.00000000000E+00 -0.27264370166E+03  0.27264370166E+03  0.00000000000E+00 0.  1.
        -24    2    1    2    0    0  0.27165348938E+03 -0.10087427343E+03 -0.99849760159E+02  0.31726763639E+03  0.81960607394E+02 0.  0.
    5000000    2    1    2    0    0 -0.27165348938E+03  0.10087427343E+03  0.16677732452E+04  0.17959432520E+04  0.59997777423E+03 0.  0.
        -24    2    4    4    0    0  0.12819770947E+03 -0.12926826628E+03  0.52113754981E+03  0.55732992563E+03  0.76729152251E+02 0.  0.
         24    2    4    4    0    0 -0.39985119885E+03  0.23014253970E+03  0.11466356954E+04  0.12386133264E+04  0.80888716417E+02 0.  0.
         11    1    3    3    0    0  0.40017924118E+02 -0.91142460883E+01  0.13965552143E+02  0.43353666271E+02  0.00000000000E+00 0. -1.
        -12    1    3    3    0    0  0.23163556527E+03 -0.91760027338E+02 -0.11381531230E+03  0.27391397012E+03  0.00000000000E+00 0.  1.
         13    1    5    5    0    0  0.10971792283E+03 -0.97732012604E+02  0.48146199818E+03  0.50338377464E+03  0.00000000000E+00 0. -1.
        -14    1    5    5    0    0  0.18479786634E+02 -0.31536253674E+02  0.39675551626E+02  0.53946150990E+02  0.00000000000E+00 0.  1.
          4    1    6    6  502    0 -0.21278946034E+03  0.80334345250E+02  0.51256552945E+03  0.56076410677E+03  0.00000000000E+00 0. -1.
         -3    1    6    6    0  502 -0.18706173851E+03  0.14980819445E+03  0.63407016599E+03  0.67784921962E+03  0.00000000000E+00 0.  1.
<mgrwt>
<rscale>  0 0.47039042E+03</rscale>
<asrwt>0</asrwt>
<pdfrwt beam="1">  1        1 0.28316417E+00 0.47039042E+03</pdfrwt>
<pdfrwt beam="2">  1       -2 0.41945186E-01 0.47039042E+03</pdfrwt>
<totfact> 0.19615912E+01</totfact>
</mgrwt>
</event>
<event>
12    3  0.2212098E-007  0.1515026E+04  0.7818608E-02  0.8874522E-01
         -4   -1    0    0    0  501 -0.00000000000E+00  0.00000000000E+00  0.13371860169E+04  0.13371860169E+04  0.00000000000E+00 0.  1.
          1   -1    0    0  501    0  0.00000000000E+00 -0.00000000000E+00 -0.18595864778E+04  0.18595864778E+04  0.00000000000E+00 0. -1.
        -24    2    1    2    0    0  0.81595355943E+03 -0.12642167269E+04 -0.46057173265E+03  0.15755716433E+04  0.79218297493E+02 0.  0.
    5000000    2    1    2    0    0 -0.81595355943E+03  0.12642167269E+04 -0.61828728172E+02  0.16212008514E+04  0.60037093969E+03 0.  0.
        -24    2    4    4    0    0 -0.16213531312E+03  0.42486790249E+03  0.22955129694E+03  0.51532314660E+03  0.77868820298E+02 0.  0.
         24    2    4    4    0    0 -0.65381824631E+03  0.83934882439E+03 -0.29138002511E+03  0.11058777048E+04  0.77964291026E+02 0.  0.
         13    1    3    3    0    0  0.48101410880E+03 -0.81532924104E+03 -0.28446459312E+03  0.98846165778E+03  0.00000000000E+00 0. -1.
        -14    1    3    3    0    0  0.33493945063E+03 -0.44888748583E+03 -0.17610713953E+03  0.58710998554E+03  0.00000000000E+00 0.  1.
         13    1    5    5    0    0 -0.92654241516E+02  0.31888996271E+03  0.18989860202E+03  0.38254031923E+03  0.00000000000E+00 0. -1.
        -14    1    5    5    0    0 -0.69481071605E+02  0.10597793977E+03  0.39652694919E+02  0.13278282737E+03  0.00000000000E+00 0.  1.
          2    1    6    6  502    0 -0.26937157577E+03  0.37420752613E+03 -0.90558003315E+02  0.46988623135E+03  0.00000000000E+00 0. -1.
         -1    1    6    6    0  502 -0.38444667054E+03  0.46514129826E+03 -0.20082202180E+03  0.63599147343E+03  0.00000000000E+00 0.  1.
<mgrwt>
<rscale>  0 0.15150261E+04</rscale>
<asrwt>0</asrwt>
<pdfrwt beam="1">  1        1 0.28609023E+00 0.15150261E+04</pdfrwt>
<pdfrwt beam="2">  1       -4 0.20572093E+00 0.15150261E+04</pdfrwt>
<totfact> 0.20167611E-01</totfact>
</mgrwt>
</event>
<event>
12    3  0.2212098E-007  0.1160449E+04  0.7818608E-02  0.9148197E-01
          1   -1    0    0  501    0  0.00000000000E+00  0.00000000000E+00  0.20359627008E+04  0.20359627008E+04  0.00000000000E+00 0. -1.
         -2   -1    0    0    0  501 -0.00000000000E+00 -0.00000000000E+00 -0.68229217125E+03  0.68229217125E+03  0.00000000000E+00 0.  1.
        -24    2    1    2    0    0  0.79485532558E+03 -0.75129658959E+03  0.77773292403E+03  0.13442872811E+04  0.77448297815E+02 0.  0.
    5000000    2    1    2    0    0 -0.79485532558E+03  0.75129658959E+03  0.57593760552E+03  0.13739675910E+04  0.59986770331E+03 0.  0.
        -24    2    4    4    0    0 -0.30924785067E+03 -0.20763713409E+02  0.71285796452E+02  0.32838755911E+03  0.81800728996E+02 0.  0.
         24    2    4    4    0    0 -0.48560747491E+03  0.77206030299E+03  0.50465180907E+03  0.10455800319E+04  0.81684903703E+02 0.  0.
         13    1    5    5    0    0 -0.16311707284E+03 -0.29441387929E+02  0.43107245683E+00  0.16575331248E+03  0.00000000000E+00 0. -1.
        -14    1    5    5    0    0 -0.14613077783E+03  0.86776745201E+01  0.70854723995E+02  0.16263424663E+03  0.00000000000E+00 0.  1.
         13    1    3    3    0    0  0.41131508992E+03 -0.33585867086E+03  0.37129648157E+03  0.64795233406E+03  0.00000000000E+00 0. -1.
        -14    1    3    3    0    0  0.38354023566E+03 -0.41543791872E+03  0.40643644247E+03  0.69633494703E+03  0.00000000000E+00 0.  1.
          4    1    6    6  502    0 -0.34515978453E+03  0.53045631230E+03  0.30778881365E+03  0.70374223259E+03  0.00000000000E+00 0. -1.
         -3    1    6    6    0  502 -0.14044769038E+03  0.24160399069E+03  0.19686299542E+03  0.34183779928E+03  0.00000000000E+00 0.  1.
<mgrwt>
<rscale>  0 0.11604495E+04</rscale>
<asrwt>0</asrwt>
<pdfrwt beam="1">  1        1 0.31322503E+00 0.11604495E+04</pdfrwt>
<pdfrwt beam="2">  1       -2 0.10496803E+00 0.11604495E+04</pdfrwt>
<totfact> 0.17942569E+00</totfact>
</mgrwt>
</event>
<event>
12    3  0.2212098E-007  0.8018478E+03  0.7818608E-02  0.9557346E-01
          1   -1    0    0  501    0  0.00000000000E+00  0.00000000000E+00  0.92529068007E+03  0.92529068007E+03  0.00000000000E+00 0. -1.
         -2   -1    0    0    0  501 -0.00000000000E+00 -0.00000000000E+00 -0.22252126384E+04  0.22252126384E+04  0.00000000000E+00 0.  1.
        -24    2    1    2    0    0  0.12164797179E+03  0.77880442027E+03 -0.18531270934E+04  0.20156739315E+04  0.86757244346E+02 0.  0.
    5000000    2    1    2    0    0 -0.12164797179E+03 -0.77880442027E+03  0.55320513511E+03  0.11348293870E+04  0.60038925877E+03 0.  0.
        -24    2    4    4    0    0 -0.15662072995E+03 -0.51160305033E+03  0.64342286631E+03  0.84050889689E+03  0.78705061485E+02 0.  0.
         24    2    4    4    0    0  0.34972758154E+02 -0.26720136994E+03 -0.90217731193E+02  0.29432049013E+03  0.76587505375E+02 0.  0.
         11    1    3    3    0    0  0.12438368652E+02  0.24262780893E+03 -0.65156539491E+03  0.69538509512E+03  0.00000000000E+00 0. -1.
        -12    1    3    3    0    0  0.10920960314E+03  0.53617661134E+03 -0.12015616985E+04  0.13202888363E+04  0.00000000000E+00 0.  1.
         11    1    5    5    0    0 -0.27352425482E+02 -0.17446872255E+03  0.17016606275E+03  0.24524269457E+03  0.00000000000E+00 0. -1.
        -12    1    5    5    0    0 -0.12926830447E+03 -0.33713432778E+03  0.47325680356E+03  0.59526620232E+03  0.00000000000E+00 0.  1.
          2    1    6    6  502    0 -0.16391109184E+02 -0.86366419228E+02 -0.53107149648E+02  0.10270441166E+03  0.00000000000E+00 0. -1.
         -1    1    6    6    0  502  0.51363867338E+02 -0.18083495071E+03 -0.37110581546E+02  0.19161607847E+03  0.00000000000E+00 0.  1.
<mgrwt>
<rscale>  0 0.80184783E+03</rscale>
<asrwt>0</asrwt>
<pdfrwt beam="1">  1        1 0.14235241E+00 0.80184783E+03</pdfrwt>
<pdfrwt beam="2">  1       -2 0.34234040E+00 0.80184783E+03</pdfrwt>
<totfact> 0.27821931E-01</totfact>
</mgrwt>
</event>
<event>
12    3  0.2212098E-007  0.5327745E+03  0.7818608E-02  0.1005561E+00
         -2   -1    0    0    0  501 -0.00000000000E+00  0.00000000000E+00  0.34179006787E+03  0.34179006787E+03  0.00000000000E+00 0.  1.
          1   -1    0    0  501    0  0.00000000000E+00 -0.00000000000E+00 -0.97832430560E+03  0.97832430560E+03  0.00000000000E+00 0. -1.
        -24    2    1    2    0    0 -0.30830700187E+03  0.26372065290E+03 -0.12046583270E+03  0.43076209595E+03  0.80263168957E+02 0.  0.
    5000000    2    1    2    0    0  0.30830700187E+03 -0.26372065290E+03 -0.51606840502E+03  0.88935227752E+03  0.60001590370E+03 0.  0.
        -24    2    4    4    0    0  0.43097565074E+03 -0.28186749337E+03 -0.52758609228E+03  0.74148373591E+03  0.79131223325E+02 0.  0.
         24    2    4    4    0    0 -0.12266864886E+03  0.18146840467E+02  0.11517687251E+02  0.14786854161E+03  0.79721661079E+02 0.  0.
         11    1    5    5    0    0  0.29585652724E+03 -0.17044360742E+03 -0.39301377077E+03  0.52061687644E+03  0.00000000000E+00 0. -1.
        -12    1    5    5    0    0  0.13511912350E+03 -0.11142388595E+03 -0.13457232151E+03  0.22086685947E+03  0.00000000000E+00 0.  1.
         11    1    3    3    0    0 -0.28455391424E+03  0.21938270441E+03 -0.12459267862E+03  0.38029335607E+03  0.00000000000E+00 0. -1.
        -12    1    3    3    0    0 -0.23753087634E+02  0.44337948492E+02  0.41268459164E+01  0.50468739888E+02  0.00000000000E+00 0.  1.
          2    1    6    6  502    0 -0.99984298029E+01  0.24558247164E+02  0.22104184534E+02  0.34520589163E+02  0.00000000000E+00 0. -1.
         -1    1    6    6    0  502 -0.11267021906E+03 -0.64114066971E+01 -0.10586497283E+02  0.11334795245E+03  0.00000000000E+00 0.  1.
<mgrwt>
<rscale>  0 0.53277452E+03</rscale>
<asrwt>0</asrwt>
<pdfrwt beam="1">  1        1 0.15051143E+00 0.53277452E+03</pdfrwt>
<pdfrwt beam="2">  1       -2 0.52583089E-01 0.53277452E+03</pdfrwt>
<totfact> 0.49168429E+01</totfact>
</mgrwt>
</event>
<event>
12    3  0.2212098E-007  0.7791368E+03  0.7818608E-02  0.9590717E-01
         -2   -1    0    0    0  501 -0.00000000000E+00  0.00000000000E+00  0.39816377463E+03  0.39816377463E+03  0.00000000000E+00 0.  1.
          1   -1    0    0  501    0  0.00000000000E+00 -0.00000000000E+00 -0.18699662638E+04  0.18699662638E+04  0.00000000000E+00 0. -1.
        -24    2    1    2    0    0 -0.32159440273E+03  0.68341675913E+03 -0.69832227543E+03  0.10318898173E+04  0.81615980180E+02 0.  0.
    5000000    2    1    2    0    0  0.32159440273E+03 -0.68341675913E+03 -0.77348021375E+03  0.12362402211E+04  0.59961388970E+03 0.  0.
        -24    2    4    4    0    0  0.56844008981E+02 -0.40476195057E+03 -0.58799127972E+02  0.42050798113E+03  0.79411250816E+02 0.  0.
         24    2    4    4    0    0  0.26475039375E+03 -0.27865480856E+03 -0.71468108578E+03  0.81573223999E+03  0.83118948937E+02 0.  0.
         11    1    3    3    0    0 -0.24881194207E+03  0.46895381323E+03 -0.52578642897E+03  0.74717898147E+03  0.00000000000E+00 0. -1.
        -12    1    3    3    0    0 -0.72782460660E+02  0.21446294589E+03 -0.17253584647E+03  0.28471083586E+03  0.00000000000E+00 0.  1.
         11    1    5    5    0    0  0.17525937351E+02 -0.22939933726E+02  0.99967199539E+01  0.30550506530E+02  0.00000000000E+00 0. -1.
        -12    1    5    5    0    0  0.39318071629E+02 -0.38182201684E+03 -0.68795847926E+02  0.38995747459E+03  0.00000000000E+00 0.  1.
          2    1    6    6  502    0  0.13862785584E+02 -0.84963701536E+00 -0.79864951436E+01  0.16021323662E+02  0.00000000000E+00 0. -1.
         -1    1    6    6    0  502  0.25088760817E+03 -0.27780517155E+03 -0.70669459063E+03  0.79971091633E+03  0.00000000000E+00 0.  1.
<mgrwt>
<rscale>  0 0.77913677E+03</rscale>
<asrwt>0</asrwt>
<pdfrwt beam="1">  1        1 0.28768712E+00 0.77913677E+03</pdfrwt>
<pdfrwt beam="2">  1       -2 0.61255964E-01 0.77913677E+03</pdfrwt>
<totfact> 0.82254576E+00</totfact>
</mgrwt>
</event>
<event>
12    3  0.2212098E-007  0.6625133E+03  0.7818608E-02  0.9783578E-01
         -2   -1    0    0    0  501 -0.00000000000E+00  0.00000000000E+00  0.66908099691E+03  0.66908099691E+03  0.00000000000E+00 0.  1.
          1   -1    0    0  501    0  0.00000000000E+00 -0.00000000000E+00 -0.87038752174E+03  0.87038752174E+03  0.00000000000E+00 0. -1.
        -24    2    1    2    0    0 -0.63375148599E+03  0.86760306404E+02 -0.28384426470E+02  0.64558069859E+03  0.82464937776E+02 0.  0.
    5000000    2    1    2    0    0  0.63375148599E+03 -0.86760306404E+02 -0.17292209835E+03  0.89388782006E+03  0.59997090429E+03 0.  0.
        -24    2    4    4    0    0  0.24829000362E+03 -0.12548737593E+03  0.19838939630E+03  0.35134976546E+03  0.81812576733E+02 0.  0.
         24    2    4    4    0    0  0.38546148237E+03  0.38727069521E+02 -0.37131149465E+03  0.54253805460E+03  0.79968583381E+02 0.  0.
         11    1    3    3    0    0 -0.37314866777E+03  0.11561433951E+02 -0.53102630825E+01  0.37336549641E+03  0.00000000000E+00 0. -1.
        -12    1    3    3    0    0 -0.26060281822E+03  0.75198872454E+02 -0.23074163388E+02  0.27221520218E+03  0.00000000000E+00 0.  1.
         13    1    5    5    0    0  0.64557873219E+02 -0.75368628820E+02  0.75569436925E+02  0.12473527569E+03  0.00000000000E+00 0. -1.
        -14    1    5    5    0    0  0.18373213040E+03 -0.50118747106E+02  0.12281995937E+03  0.22661448977E+03  0.00000000000E+00 0.  1.
          2    1    6    6  502    0  0.14821929607E+03  0.40048035840E+02 -0.18797402341E+03  0.24270772212E+03  0.00000000000E+00 0. -1.
         -1    1    6    6    0  502  0.23724218630E+03 -0.13209663182E+01 -0.18333747124E+03  0.29983033248E+03  0.00000000000E+00 0.  1.
<mgrwt>
<rscale>  0 0.66251327E+03</rscale>
<asrwt>0</asrwt>
<pdfrwt beam="1">  1        1 0.13390577E+00 0.66251327E+03</pdfrwt>
<pdfrwt beam="2">  1       -2 0.10293554E+00 0.66251327E+03</pdfrwt>
<totfact> 0.13432131E+01</totfact>
</mgrwt>
</event>
<event>
12    3  0.2212098E-007  0.6687199E+03  0.7818608E-02  0.9772273E-01
          1   -1    0    0  501    0  0.00000000000E+00  0.00000000000E+00  0.12986373512E+04  0.12986373512E+04  0.00000000000E+00 0. -1.
         -2   -1    0    0    0  501 -0.00000000000E+00 -0.00000000000E+00 -0.51777029781E+03  0.51777029781E+03  0.00000000000E+00 0.  1.
        -24    2    1    2    0    0 -0.39872535613E+03  0.49281826357E+03 -0.92894951383E+01  0.63905760765E+03  0.80352850861E+02 0.  0.
    5000000    2    1    2    0    0  0.39872535613E+03 -0.49281826357E+03  0.79015654854E+03  0.11773500414E+04  0.59996166395E+03 0.  0.
        -24    2    4    4    0    0 -0.21114849956E+02 -0.13485391188E+03 -0.53149455353E+02  0.16638327831E+03  0.78912079305E+02 0.  0.
         24    2    4    4    0    0  0.41984020609E+03 -0.35796435170E+03  0.84330600389E+03  0.10109667631E+04  0.80526418674E+02 0.  0.
         11    1    5    5    0    0 -0.29270819212E+02 -0.48100002142E+02 -0.55710902801E+02  0.79209189835E+02  0.00000000000E+00 0. -1.
        -12    1    5    5    0    0  0.81559692558E+01 -0.86753909733E+02  0.25614474478E+01  0.87174088475E+02  0.00000000000E+00 0.  1.
         13    1    3    3    0    0 -0.16854614610E+03  0.15281134473E+03 -0.19468577358E+02  0.22833776723E+03  0.00000000000E+00 0. -1.
        -14    1    3    3    0    0 -0.23017921003E+03  0.34000691885E+03  0.10179082219E+02  0.41071984041E+03  0.00000000000E+00 0.  1.
          2    1    6    6  502    0  0.32564921079E+03 -0.31239205544E+03  0.65230708415E+03  0.79318392370E+03  0.00000000000E+00 0. -1.
         -1    1    6    6    0  502  0.94190995296E+02 -0.45572296260E+02  0.19099891974E+03  0.21778283937E+03  0.00000000000E+00 0.  1.
<mgrwt>
<rscale>  0 0.66871987E+03</rscale>
<asrwt>0</asrwt>
<pdfrwt beam="1">  1        1 0.19979036E+00 0.66871987E+03</pdfrwt>
<pdfrwt beam="2">  1       -2 0.79656969E-01 0.66871987E+03</pdfrwt>
<totfact> 0.11542033E+01</totfact>
</mgrwt>
</event>
<event>
12    3  0.2212098E-007  0.4974675E+03  0.7818608E-02  0.1014442E+00
         -2   -1    0    0    0  501 -0.00000000000E+00  0.00000000000E+00  0.23423866656E+03  0.23423866656E+03  0.00000000000E+00 0.  1.
          1   -1    0    0  501    0  0.00000000000E+00 -0.00000000000E+00 -0.18664383460E+04  0.18664383460E+04  0.00000000000E+00 0. -1.
        -24    2    1    2    0    0  0.39266621595E+03  0.13514361285E+03 -0.11519222377E+04  0.12271434199E+04  0.80657163071E+02 0.  0.
    5000000    2    1    2    0    0 -0.39266621595E+03 -0.13514361285E+03 -0.48027744172E+03  0.87353359269E+03  0.59995330093E+03 0.  0.
        -24    2    4    4    0    0 -0.41830657722E+03  0.24992048465E+01 -0.55367732569E+03  0.69614575133E+03  0.55440847163E+02 0.  0.
         24    2    4    4    0    0  0.25640361272E+02 -0.13764281770E+03  0.73399883969E+02  0.17738784137E+03  0.80473162653E+02 0.  0.
         11    1    3    3    0    0  0.30701736597E+03  0.11757630282E+03 -0.98946909187E+03  0.10426566711E+04  0.00000000000E+00 0. -1.
        -12    1    3    3    0    0  0.85648849976E+02  0.17567310038E+02 -0.16245314587E+03  0.18448674882E+03  0.00000000000E+00 0.  1.
         13    1    5    5    0    0 -0.50324481176E+02 -0.13337218303E+02 -0.90102093486E+02  0.10406162620E+03  0.00000000000E+00 0. -1.
        -14    1    5    5    0    0 -0.36798209604E+03  0.15836423150E+02 -0.46357523221E+03  0.59208412512E+03  0.00000000000E+00 0.  1.
          2    1    6    6  502    0 -0.20149587120E+02 -0.90193504084E+02  0.25451526471E+02  0.95857468357E+02  0.00000000000E+00 0. -1.
         -1    1    6    6    0  502  0.45789948392E+02 -0.47449313616E+02  0.47948357497E+02  0.81530373009E+02  0.00000000000E+00 0.  1.
<mgrwt>
<rscale>  0 0.49746746E+03</rscale>
<asrwt>0</asrwt>
<pdfrwt beam="1">  1        1 0.28714436E+00 0.49746746E+03</pdfrwt>
<pdfrwt beam="2">  1       -2 0.36036718E-01 0.49746746E+03</pdfrwt>
<totfact> 0.25127452E+01</totfact>
</mgrwt>
</event>
<event>
12    3  0.2212098E-007  0.8305805E+03  0.7818608E-02  0.9516778E-01
         -2   -1    0    0    0  501 -0.00000000000E+00  0.00000000000E+00  0.27405046534E+03  0.27405046534E+03  0.00000000000E+00 0.  1.
          1   -1    0    0  501    0  0.00000000000E+00 -0.00000000000E+00 -0.28545788492E+04  0.28545788492E+04  0.00000000000E+00 0. -1.
        -24    2    1    2    0    0  0.69737457336E+03 -0.21122267040E+03 -0.16379346693E+04  0.17946517279E+04  0.83657226056E+02 0.  0.
    5000000    2    1    2    0    0 -0.69737457336E+03  0.21122267040E+03 -0.94259371458E+03  0.13339775867E+04  0.60005581314E+03 0.  0.
        -24    2    4    4    0    0 -0.50776758137E+03  0.40955958424E+03 -0.63651047706E+03  0.91503704756E+03  0.81118686331E+02 0.  0.
         24    2    4    4    0    0 -0.18960699199E+03 -0.19833691384E+03 -0.30608323752E+03  0.41894053909E+03  0.80844815563E+02 0.  0.
         11    1    3    3    0    0  0.50243054631E+03 -0.11224588768E+03 -0.11498344952E+04  0.12598233843E+04  0.00000000000E+00 0. -1.
        -12    1    3    3    0    0  0.19494402705E+03 -0.98976782719E+02 -0.48810017403E+03  0.53482834358E+03  0.00000000000E+00 0.  1.
         13    1    5    5    0    0 -0.44347779500E+03  0.36121616929E+03 -0.51712916770E+03  0.77108511314E+03  0.00000000000E+00 0. -1.
        -14    1    5    5    0    0 -0.64289786371E+02  0.48343414947E+02 -0.11938130936E+03  0.14395193442E+03  0.00000000000E+00 0.  1.
          2    1    6    6  502    0 -0.75873275780E+02 -0.63762629518E+02 -0.58581613240E+02  0.11512702685E+03  0.00000000000E+00 0. -1.
         -1    1    6    6    0  502 -0.11373371621E+03 -0.13457428433E+03 -0.24750162428E+03  0.30381351225E+03  0.00000000000E+00 0.  1.
<mgrwt>
<rscale>  0 0.83058046E+03</rscale>
<asrwt>0</asrwt>
<pdfrwt beam="1">  1        1 0.43916596E+00 0.83058046E+03</pdfrwt>
<pdfrwt beam="2">  1       -2 0.42161611E-01 0.83058046E+03</pdfrwt>
<totfact> 0.37403767E+00</totfact>
</mgrwt>
</event>
<event>
12    3  0.2212098E-007  0.1482175E+04  0.7818608E-02  0.8896394E-01
          1   -1    0    0  501    0  0.00000000000E+00  0.00000000000E+00  0.30197624464E+04  0.30197624464E+04  0.00000000000E+00 0. -1.
         -2   -1    0    0    0  501 -0.00000000000E+00 -0.00000000000E+00 -0.90854782761E+03  0.90854782761E+03  0.00000000000E+00 0.  1.
        -24    2    1    2    0    0  0.12452544361E+04  0.72015292520E+03  0.18545053427E+04  0.23485607990E+04  0.85257927561E+02 0.  0.
    5000000    2    1    2    0    0 -0.12452544361E+04 -0.72015292520E+03  0.25670927613E+03  0.15797494750E+04  0.60035814740E+03 0.  0.
        -24    2    4    4    0    0 -0.84955917087E+02 -0.25300897088E+03 -0.64916748665E+02  0.28582342769E+03  0.79055678885E+02 0.  0.
         24    2    4    4    0    0 -0.11602985190E+04 -0.46714395432E+03  0.32162602480E+03  0.12939260473E+04  0.79279183406E+02 0.  0.
         11    1    5    5    0    0  0.56201519069E+01 -0.17393738524E+02 -0.23897668478E+02  0.30086987320E+02  0.00000000000E+00 0. -1.
        -12    1    5    5    0    0 -0.90576068994E+02 -0.23561523236E+03 -0.41019080187E+02  0.25573644037E+03  0.00000000000E+00 0.  1.
         13    1    3    3    0    0  0.77590159155E+03  0.49276891479E+03  0.11586419224E+04  0.14789508402E+04  0.00000000000E+00 0. -1.
        -14    1    3    3    0    0  0.46935284454E+03  0.22738401041E+03  0.69586342024E+03  0.86960995883E+03  0.00000000000E+00 0.  1.
          4    1    6    6  502    0 -0.95996552691E+03 -0.35593391145E+03  0.25079995696E+03  0.10540983733E+04  0.00000000000E+00 0. -1.
         -3    1    6    6    0  502 -0.20033299209E+03 -0.11121004287E+03  0.70826067831E+02  0.23982767405E+03  0.00000000000E+00 0.  1.
<mgrwt>
<rscale>  0 0.14821746E+04</rscale>
<asrwt>0</asrwt>
<pdfrwt beam="1">  1        1 0.46457883E+00 0.14821746E+04</pdfrwt>
<pdfrwt beam="2">  1       -2 0.13977659E+00 0.14821746E+04</pdfrwt>
<totfact> 0.17423253E-01</totfact>
</mgrwt>
</event>
<event>
12    3  0.2212098E-007  0.4671684E+03  0.7818608E-02  0.1022722E+00
         -2   -1    0    0    0  501 -0.00000000000E+00  0.00000000000E+00  0.54163740654E+03  0.54163740654E+03  0.00000000000E+00 0.  1.
          1   -1    0    0  501    0  0.00000000000E+00 -0.00000000000E+00 -0.24570113858E+04  0.24570113858E+04  0.00000000000E+00 0. -1.
        -24    2    1    2    0    0  0.28185868413E+03  0.30838139229E+03 -0.21799623540E+04  0.22211101584E+04  0.80938680951E+02 0.  0.
    5000000    2    1    2    0    0 -0.28185868413E+03 -0.30838139229E+03  0.26458837471E+03  0.77753863394E+03  0.60001326511E+03 0.  0.
        -24    2    4    4    0    0 -0.15804034315E+03  0.92297162836E+00  0.37721259129E+03  0.41666686100E+03  0.79651315668E+02 0.  0.
         24    2    4    4    0    0 -0.12381834098E+03 -0.30930436392E+03 -0.11262421658E+03  0.36087177294E+03  0.80895310373E+02 0.  0.
         13    1    5    5    0    0 -0.12708754479E+03 -0.29428282974E+02  0.24553982308E+03  0.27804149438E+03  0.00000000000E+00 0. -1.
        -14    1    5    5    0    0 -0.30952798365E+02  0.30351254602E+02  0.13167276821E+03  0.13862536662E+03  0.00000000000E+00 0.  1.
         13    1    3    3    0    0  0.11002470988E+03  0.18010940764E+03 -0.10619943246E+04  0.10827634926E+04  0.00000000000E+00 0. -1.
        -14    1    3    3    0    0  0.17183397425E+03  0.12827198466E+03 -0.11179680293E+04  0.11383466657E+04  0.00000000000E+00 0.  1.
          2    1    6    6  502    0 -0.38834379699E+02 -0.14443795874E+03 -0.12491835538E+02  0.15008823714E+03  0.00000000000E+00 0. -1.
         -1    1    6    6    0  502 -0.84983961281E+02 -0.16486640518E+03 -0.10013238104E+03  0.21078353580E+03  0.00000000000E+00 0.  1.
<mgrwt>
<rscale>  0 0.46716837E+03</rscale>
<asrwt>0</asrwt>
<pdfrwt beam="1">  1        1 0.37800175E+00 0.46716837E+03</pdfrwt>
<pdfrwt beam="2">  1       -2 0.83328832E-01 0.46716837E+03</pdfrwt>
<totfact> 0.18166132E+00</totfact>
</mgrwt>
</event>
<event>
12    3  0.2212098E-007  0.1516873E+04  0.7818608E-02  0.8873310E-01
         -2   -1    0    0    0  501 -0.00000000000E+00  0.00000000000E+00  0.90407872010E+03  0.90407872010E+03  0.00000000000E+00 0.  1.
          1   -1    0    0  501    0  0.00000000000E+00 -0.00000000000E+00 -0.27773501267E+04  0.27773501267E+04  0.00000000000E+00 0. -1.
        -24    2    1    2    0    0 -0.96982927486E+03 -0.11067305343E+04 -0.13761820031E+04  0.20163505715E+04  0.79821196908E+02 0.  0.
    5000000    2    1    2    0    0  0.96982927486E+03  0.11067305343E+04 -0.49708940352E+03  0.16650782753E+04  0.59997207434E+03 0.  0.
        -24    2    4    4    0    0  0.98949981747E+03  0.85965417193E+03 -0.49959790381E+03  0.14050430762E+04  0.80204716122E+02 0.  0.
         24    2    4    4    0    0 -0.19670542611E+02  0.24707636238E+03  0.25085002870E+01  0.26003519911E+03  0.78602500666E+02 0.  0.
         11    1    5    5    0    0  0.94042379291E+03  0.83207274643E+03 -0.49016446019E+03  0.13479625973E+04  0.00000000000E+00 0. -1.
        -12    1    5    5    0    0  0.49076024563E+02  0.27581425502E+02 -0.94334436161E+01  0.57080478958E+02  0.00000000000E+00 0.  1.
         13    1    3    3    0    0 -0.64548186539E+03 -0.77887001185E+03 -0.91156069207E+03  0.13617004917E+04  0.00000000000E+00 0. -1.
        -14    1    3    3    0    0 -0.32434740947E+03 -0.32786052246E+03 -0.46462131105E+03  0.65465007974E+03  0.00000000000E+00 0.  1.
          2    1    6    6  502    0 -0.96234850618E+01  0.26428292681E+02 -0.24772770478E+02  0.37480078387E+02  0.00000000000E+00 0. -1.
         -1    1    6    6    0  502 -0.10047057549E+02  0.22064806970E+03  0.27281270764E+02  0.22255512073E+03  0.00000000000E+00 0.  1.
<mgrwt>
<rscale>  0 0.15168725E+04</rscale>
<asrwt>0</asrwt>
<pdfrwt beam="1">  1        1 0.42728464E+00 0.15168725E+04</pdfrwt>
<pdfrwt beam="2">  1       -2 0.13908903E+00 0.15168725E+04</pdfrwt>
<totfact> 0.26263370E-01</totfact>
</mgrwt>
</event>
<event>
12    3  0.2212098E-007  0.3942672E+03  0.7818608E-02  0.1045783E+00
          1   -1    0    0  501    0  0.00000000000E+00  0.00000000000E+00  0.34827042973E+03  0.34827042973E+03  0.00000000000E+00 0. -1.
         -2   -1    0    0    0  501 -0.00000000000E+00 -0.00000000000E+00 -0.56355232823E+03  0.56355232823E+03  0.00000000000E+00 0.  1.
        -24    2    1    2    0    0 -0.22586815418E+03 -0.12453933188E+02 -0.13580881726E+02  0.23965514286E+03  0.77965528467E+02 0.  0.
    5000000    2    1    2    0    0  0.22586815418E+03  0.12453933188E+02 -0.20170101677E+03  0.67216761509E+03  0.59996206471E+03 0.  0.
        -24    2    4    4    0    0 -0.20525523320E+02 -0.20277508847E+03  0.80084192366E+02  0.23322652659E+03  0.80262701353E+02 0.  0.
         24    2    4    4    0    0  0.24639367750E+03  0.21522902166E+03 -0.28178520913E+03  0.43894108850E+03  0.78949344615E+02 0.  0.
         11    1    3    3    0    0 -0.11902075717E+03  0.25365619961E+02  0.15403382495E+02  0.12266466282E+03  0.00000000000E+00 0. -1.
        -12    1    3    3    0    0 -0.10684739701E+03 -0.37819553148E+02 -0.28984264222E+02  0.11699048004E+03  0.00000000000E+00 0.  1.
         13    1    5    5    0    0  0.23347995223E+02 -0.14077674900E+03  0.45559952395E+02  0.14979629902E+03  0.00000000000E+00 0. -1.
        -14    1    5    5    0    0 -0.43873518543E+02 -0.61998339473E+02  0.34524239971E+02  0.83430227570E+02  0.00000000000E+00 0.  1.
          4    1    6    6  502    0  0.10746094148E+03  0.48725111665E+02 -0.12080327102E+03  0.16886509627E+03  0.00000000000E+00 0. -1.
         -1    1    6    6    0  502  0.13893273602E+03  0.16650390999E+03 -0.16098193812E+03  0.27007599223E+03  0.00000000000E+00 0.  1.
<mgrwt>
<rscale>  0 0.39426722E+03</rscale>
<asrwt>0</asrwt>
<pdfrwt beam="1">  1        1 0.53580067E-01 0.39426722E+03</pdfrwt>
<pdfrwt beam="2">  1       -2 0.86700357E-01 0.39426722E+03</pdfrwt>
<totfact> 0.75492755E+01</totfact>
</mgrwt>
</event>
<event>
12    3  0.2212098E-007  0.6031101E+03  0.7818608E-02  0.9898974E-01
         -2   -1    0    0    0  501 -0.00000000000E+00  0.00000000000E+00  0.16073919823E+03  0.16073919823E+03  0.00000000000E+00 0.  1.
          1   -1    0    0  501    0  0.00000000000E+00 -0.00000000000E+00 -0.26062946877E+04  0.26062946877E+04  0.00000000000E+00 0. -1.
        -24    2    1    2    0    0  0.38555337258E+03 -0.25483315564E+03 -0.53142634355E+03  0.70852588637E+03  0.77483112471E+02 0.  0.
    5000000    2    1    2    0    0 -0.38555337258E+03  0.25483315564E+03 -0.19141291459E+04  0.20585079995E+04  0.59997788012E+03 0.  0.
        -24    2    4    4    0    0 -0.53263979397E+03  0.15341274468E+03 -0.14735897640E+04  0.15765223537E+04  0.81947049839E+02 0.  0.
         24    2    4    4    0    0  0.14708642139E+03  0.10142041096E+03 -0.44053938192E+03  0.48198564580E+03  0.79465090529E+02 0.  0.
         13    1    5    5    0    0 -0.35544408845E+03  0.61781997687E+02 -0.93794225416E+03  0.10049344194E+04  0.00000000000E+00 0. -1.
        -14    1    5    5    0    0 -0.17719570552E+03  0.91630746992E+02 -0.53564750983E+03  0.57158793430E+03  0.00000000000E+00 0.  1.
         13    1    3    3    0    0  0.20411261938E+03 -0.16458837268E+03 -0.34363985467E+03  0.43224951535E+03  0.00000000000E+00 0. -1.
        -14    1    3    3    0    0  0.18144075320E+03 -0.90244782968E+02 -0.18778648888E+03  0.27627637102E+03  0.00000000000E+00 0.  1.
          2    1    6    6  502    0  0.42781397929E+02  0.13991430462E+02 -0.44840054134E+02  0.63534546428E+02  0.00000000000E+00 0. -1.
         -1    1    6    6    0  502  0.10430502346E+03  0.87428980501E+02 -0.39569932779E+03  0.41845109937E+03  0.00000000000E+00 0.  1.
<mgrwt>
<rscale>  0 0.60311012E+03</rscale>
<asrwt>0</asrwt>
<pdfrwt beam="1">  1        1 0.40096839E+00 0.60311012E+03</pdfrwt>
<pdfrwt beam="2">  1       -2 0.24729109E-01 0.60311012E+03</pdfrwt>
<totfact> 0.15784900E+01</totfact>
</mgrwt>
</event>
<event>
12    3  0.2212098E-007  0.1120702E+04  0.7818608E-02  0.9185246E-01
         -2   -1    0    0    0  501 -0.00000000000E+00  0.00000000000E+00  0.81791623002E+03  0.81791623002E+03  0.00000000000E+00 0.  1.
          1   -1    0    0  501    0  0.00000000000E+00 -0.00000000000E+00 -0.16324575041E+04  0.16324575041E+04  0.00000000000E+00 0. -1.
        -24    2    1    2    0    0 -0.74700903981E+03 -0.76357337637E+03 -0.51999283235E+03  0.11903299326E+04  0.73661360284E+02 0.  0.
    5000000    2    1    2    0    0  0.74700903981E+03  0.76357337637E+03 -0.29454844176E+03  0.12600438016E+04  0.59990398456E+03 0.  0.
        -24    2    4    4    0    0  0.17642566318E+03  0.51639954733E+03  0.34522335251E+02  0.55238021810E+03  0.78342878437E+02 0.  0.
         24    2    4    4    0    0  0.57058337664E+03  0.24717382904E+03 -0.32907077701E+03  0.70766358348E+03  0.76419105246E+02 0.  0.
         11    1    3    3    0    0 -0.62932004847E+03 -0.62183469225E+03 -0.45588103015E+03  0.99526359400E+03  0.00000000000E+00 0. -1.
        -12    1    3    3    0    0 -0.11768899135E+03 -0.14173868411E+03 -0.64111802197E+02  0.19506633856E+03  0.00000000000E+00 0.  1.
         13    1    5    5    0    0  0.78910090844E+02  0.20128765642E+03 -0.23444291489E+02  0.21746990106E+03  0.00000000000E+00 0. -1.
        -14    1    5    5    0    0  0.97515572333E+02  0.31511189092E+03  0.57966626740E+02  0.33491031704E+03  0.00000000000E+00 0.  1.
          4    1    6    6  502    0  0.21549952221E+03  0.53955094767E+02 -0.11075839547E+03  0.24823097811E+03  0.00000000000E+00 0. -1.
         -3    1    6    6    0  502  0.35508385442E+03  0.19321873427E+03 -0.21831238154E+03  0.45943260537E+03  0.00000000000E+00 0.  1.
<mgrwt>
<rscale>  0 0.11207025E+04</rscale>
<asrwt>0</asrwt>
<pdfrwt beam="1">  1        1 0.25114731E+00 0.11207025E+04</pdfrwt>
<pdfrwt beam="2">  1       -2 0.12583327E+00 0.11207025E+04</pdfrwt>
<totfact> 0.21631272E+00</totfact>
</mgrwt>
</event>
<event>
12    3  0.2212098E-007  0.8021269E+03  0.7818608E-02  0.9556944E-01
         -2   -1    0    0    0  501 -0.00000000000E+00  0.00000000000E+00  0.49830259100E+03  0.49830259100E+03  0.00000000000E+00 0.  1.
          1   -1    0    0  501    0  0.00000000000E+00 -0.00000000000E+00 -0.13603320108E+04  0.13603320108E+04  0.00000000000E+00 0. -1.
        -24    2    1    2    0    0  0.43183144924E+01 -0.70211945305E+03 -0.50222969657E+03  0.86716847938E+03  0.82195676983E+02 0.  0.
    5000000    2    1    2    0    0 -0.43183144924E+01  0.70211945305E+03 -0.35979972321E+03  0.99146612240E+03  0.60046553345E+03 0.  0.
        -24    2    4    4    0    0 -0.53761360523E+02 -0.82046355061E+02 -0.87623643610E+01  0.12729875636E+03  0.80661676636E+02 0.  0.
         24    2    4    4    0    0  0.49443046030E+02  0.78416580812E+03 -0.35103735885E+03  0.86416736604E+03  0.78723438763E+02 0.  0.
         11    1    3    3    0    0  0.40423816436E+02 -0.49303394353E+03 -0.34631734708E+03  0.60386443785E+03  0.00000000000E+00 0. -1.
        -12    1    3    3    0    0 -0.36105501943E+02 -0.20908550953E+03 -0.15591234949E+03  0.26330404153E+03  0.00000000000E+00 0.  1.
         13    1    5    5    0    0 -0.50193932336E+02 -0.35618240887E+02  0.28341071970E+02  0.67759178623E+02  0.00000000000E+00 0. -1.
        -14    1    5    5    0    0 -0.35674281868E+01 -0.46428114174E+02 -0.37103436331E+02  0.59539577738E+02  0.00000000000E+00 0.  1.
          2    1    6    6  502    0 -0.19820202098E+02  0.21390230438E+03 -0.83627507459E+02  0.23052244193E+03  0.00000000000E+00 0. -1.
         -1    1    6    6    0  502  0.69263248128E+02  0.57026350374E+03 -0.26740985139E+03  0.63364492411E+03  0.00000000000E+00 0.  1.
<mgrwt>
<rscale>  0 0.80212690E+03</rscale>
<asrwt>0</asrwt>
<pdfrwt beam="1">  1        1 0.20928185E+00 0.80212690E+03</pdfrwt>
<pdfrwt beam="2">  1       -2 0.76661938E-01 0.80212690E+03</pdfrwt>
<totfact> 0.11184746E+01</totfact>
</mgrwt>
</event>
<event>
12    3  0.2212098E-007  0.4923452E+03  0.7818608E-02  0.1015796E+00
         -2   -1    0    0    0  501 -0.00000000000E+00  0.00000000000E+00  0.22712101881E+04  0.22712101881E+04  0.00000000000E+00 0.  1.
          1   -1    0    0  501    0  0.00000000000E+00 -0.00000000000E+00 -0.16096146938E+03  0.16096146938E+03  0.00000000000E+00 0. -1.
        -24    2    1    2    0    0  0.31527652235E+03 -0.13004031545E+03  0.20541913229E+03  0.40619074071E+03  0.80524087937E+02 0.  0.
    5000000    2    1    2    0    0 -0.31527652235E+03  0.13004031545E+03  0.19048295864E+04  0.20259809168E+04  0.59992762281E+03 0.  0.
        -24    2    4    4    0    0 -0.40104308366E+03  0.26095154837E+03  0.16240033687E+04  0.16947630000E+04  0.76833710709E+02 0.  0.
         24    2    4    4    0    0  0.85766561310E+02 -0.13091123292E+03  0.28082621771E+03  0.33121791675E+03  0.79676156274E+02 0.  0.
         11    1    3    3    0    0  0.17460440220E+03 -0.58059354439E+02  0.66072038461E+02  0.19550728930E+03  0.00000000000E+00 0. -1.
        -12    1    3    3    0    0  0.14067212015E+03 -0.71980961015E+02  0.13934709383E+03  0.21068345140E+03  0.00000000000E+00 0.  1.
         13    1    5    5    0    0 -0.11056233985E+03  0.36954955152E+02  0.34254941580E+03  0.36184223353E+03  0.00000000000E+00 0. -1.
        -14    1    5    5    0    0 -0.29048074381E+03  0.22399659322E+03  0.12814539529E+04  0.13329207665E+04  0.00000000000E+00 0.  1.
          4    1    6    6  502    0  0.14570175144E+02 -0.47129245595E+02  0.30983420176E+02  0.58253138284E+02  0.00000000000E+00 0. -1.
         -3    1    6    6    0  502  0.71196386166E+02 -0.83781987323E+02  0.24984279753E+03  0.27296477846E+03  0.00000000000E+00 0.  1.
<mgrwt>
<rscale>  0 0.49234517E+03</rscale>
<asrwt>0</asrwt>
<pdfrwt beam="1">  1        1 0.24763305E-01 0.49234517E+03</pdfrwt>
<pdfrwt beam="2">  1       -2 0.34941693E+00 0.49234517E+03</pdfrwt>
<totfact> 0.29809922E+00</totfact>
</mgrwt>
</event>
<event>
12    3  0.2212098E-007  0.3614664E+03  0.7818608E-02  0.1058005E+00
          1   -1    0    0  501    0  0.00000000000E+00  0.00000000000E+00  0.70515615396E+03  0.70515615396E+03  0.00000000000E+00 0. -1.
         -2   -1    0    0    0  501 -0.00000000000E+00 -0.00000000000E+00 -0.56707124527E+03  0.56707124527E+03  0.00000000000E+00 0.  1.
        -24    2    1    2    0    0  0.21316481077E+03 -0.14820913066E+03 -0.35984839481E+03  0.45059812617E+03  0.78374875433E+02 0.  0.
    5000000    2    1    2    0    0 -0.21316481077E+03  0.14820913066E+03  0.49793330351E+03  0.82162927306E+03  0.59977654560E+03 0.  0.
        -24    2    4    4    0    0 -0.30162013483E+03  0.86202038900E+02  0.18650366507E+02  0.32380480291E+03  0.78078274643E+02 0.  0.
         24    2    4    4    0    0  0.88455324063E+02  0.62007091757E+02  0.47928293700E+03  0.49782447015E+03  0.80298478187E+02 0.  0.
         11    1    3    3    0    0  0.11363617383E+03 -0.33775405495E+02 -0.13897890582E+03  0.18267209497E+03  0.00000000000E+00 0. -1.
        -12    1    3    3    0    0  0.99528636940E+02 -0.11443372516E+03 -0.22086948899E+03  0.26792603119E+03  0.00000000000E+00 0.  1.
         13    1    5    5    0    0 -0.25004147101E+03  0.98592392798E+02  0.41364783313E+01  0.26880905415E+03  0.00000000000E+00 0. -1.
        -14    1    5    5    0    0 -0.51578663828E+02 -0.12390353898E+02  0.14513888175E+02  0.54995748762E+02  0.00000000000E+00 0.  1.
          4    1    6    6  502    0  0.41640867120E+02 -0.11993855905E+02  0.21780013453E+03  0.22206916264E+03  0.00000000000E+00 0. -1.
         -3    1    6    6    0  502  0.46814456944E+02  0.74000947662E+02  0.26148280247E+03  0.27575530751E+03  0.00000000000E+00 0.  1.
<mgrwt>
<rscale>  0 0.36146644E+03</rscale>
<asrwt>0</asrwt>
<pdfrwt beam="1">  1        1 0.10848556E+00 0.36146644E+03</pdfrwt>
<pdfrwt beam="2">  1       -2 0.87241730E-01 0.36146644E+03</pdfrwt>
<totfact> 0.28662536E+01</totfact>
</mgrwt>
</event>
<event>
12    3  0.2212098E-007  0.5619910E+03  0.7818608E-02  0.9987560E-01
         -2   -1    0    0    0  501 -0.00000000000E+00  0.00000000000E+00  0.50974410559E+03  0.50974410559E+03  0.00000000000E+00 0.  1.
          1   -1    0    0  501    0  0.00000000000E+00 -0.00000000000E+00 -0.87668653395E+03  0.87668653395E+03  0.00000000000E+00 0. -1.
        -24    2    1    2    0    0 -0.27204132903E+03 -0.31518404557E+03 -0.48792375943E+03  0.64614408759E+03  0.78007176775E+02 0.  0.
    5000000    2    1    2    0    0  0.27204132903E+03  0.31518404557E+03  0.12098133106E+03  0.74028655196E+03  0.60003352345E+03 0.  0.
        -24    2    4    4    0    0  0.34652669236E+03  0.43060615094E+03  0.34392671021E+02  0.55947592654E+03  0.79549046530E+02 0.  0.
         24    2    4    4    0    0 -0.74485363338E+02 -0.11542210537E+03  0.86588660042E+02  0.18081062542E+03  0.79527067454E+02 0.  0.
         13    1    5    5    0    0  0.13171627140E+03  0.11786108746E+03 -0.12431024459E+02  0.17718618021E+03  0.00000000000E+00 0. -1.
        -14    1    5    5    0    0  0.21481042097E+03  0.31274506348E+03  0.46823695479E+02  0.38228974633E+03  0.00000000000E+00 0.  1.
         13    1    3    3    0    0 -0.22084969874E+03 -0.21048601619E+03 -0.32422523645E+03  0.44519765991E+03  0.00000000000E+00 0. -1.
        -14    1    3    3    0    0 -0.51191630285E+02 -0.10469802939E+03 -0.16369852298E+03  0.20094642767E+03  0.00000000000E+00 0.  1.
          4    1    6    6  502    0 -0.19866310046E+02 -0.76715768435E+02  0.81497027105E+02  0.11367385288E+03  0.00000000000E+00 0. -1.
         -3    1    6    6    0  502 -0.54619053292E+02 -0.38706336933E+02  0.50916329368E+01  0.67136772541E+02  0.00000000000E+00 0.  1.
<mgrwt>
<rscale>  0 0.56199104E+03</rscale>
<asrwt>0</asrwt>
<pdfrwt beam="1">  1        1 0.13487485E+00 0.56199104E+03</pdfrwt>
<pdfrwt beam="2">  1       -2 0.78422171E-01 0.56199104E+03</pdfrwt>
<totfact> 0.25142319E+01</totfact>
</mgrwt>
</event>
<event>
12    3  0.2212098E-007  0.6559149E+03  0.7818608E-02  0.9795743E-01
          1   -1    0    0  501    0  0.00000000000E+00  0.00000000000E+00  0.18885846930E+04  0.18885846930E+04  0.00000000000E+00 0. -1.
         -2   -1    0    0    0  501 -0.00000000000E+00 -0.00000000000E+00 -0.32106716139E+03  0.32106716139E+03  0.00000000000E+00 0.  1.
        -24    2    1    2    0    0  0.57574781345E+03  0.55040281672E+02  0.21636379109E+03  0.62219779994E+03  0.76169776550E+02 0.  0.
    5000000    2    1    2    0    0 -0.57574781345E+03 -0.55040281672E+02  0.13511537405E+04  0.15874540545E+04  0.59989913082E+03 0.  0.
        -24    2    4    4    0    0  0.10610160317E+02 -0.12223489900E+03  0.47669402250E+02  0.15435717192E+03  0.80621452324E+02 0.  0.
         24    2    4    4    0    0 -0.58635797377E+03  0.67194617333E+02  0.13034843383E+04  0.14330968825E+04  0.79777594582E+02 0.  0.
         13    1    5    5    0    0 -0.11546132603E+02 -0.11040349458E+03  0.13316834322E+02  0.11180153340E+03  0.00000000000E+00 0. -1.
        -14    1    5    5    0    0  0.22156292920E+02 -0.11831404424E+02  0.34352567928E+02  0.42555638520E+02  0.00000000000E+00 0.  1.
         13    1    3    3    0    0  0.22980499229E+03  0.51083245249E+02  0.62559510544E+02  0.24358473841E+03  0.00000000000E+00 0. -1.
        -14    1    3    3    0    0  0.34594282116E+03  0.39570364230E+01  0.15380428054E+03  0.37861306153E+03  0.00000000000E+00 0.  1.
          2    1    6    6  502    0 -0.18791275671E+03 -0.11187834601E+02  0.45679000899E+03  0.49405817885E+03  0.00000000000E+00 0. -1.
         -1    1    6    6    0  502 -0.39844521706E+03  0.78382451933E+02  0.84669432931E+03  0.93903870370E+03  0.00000000000E+00 0.  1.
<mgrwt>
<rscale>  0 0.65591495E+03</rscale>
<asrwt>0</asrwt>
<pdfrwt beam="1">  1        1 0.29055149E+00 0.65591495E+03</pdfrwt>
<pdfrwt beam="2">  1       -2 0.49394949E-01 0.65591495E+03</pdfrwt>
<totfact> 0.12724673E+01</totfact>
</mgrwt>
</event>
<event>
12    3  0.2212098E-007  0.1790431E+04  0.7818608E-02  0.8711405E-01
         -2   -1    0    0    0  501 -0.00000000000E+00  0.00000000000E+00  0.12949927764E+04  0.12949927764E+04  0.00000000000E+00 0.  1.
          1   -1    0    0  501    0  0.00000000000E+00 -0.00000000000E+00 -0.27672388073E+04  0.27672388073E+04  0.00000000000E+00 0. -1.
        -24    2    1    2    0    0 -0.31322383061E+03  0.17126777726E+04 -0.13717009798E+04  0.22179511780E+04  0.79809329289E+02 0.  0.
    5000000    2    1    2    0    0  0.31322383061E+03 -0.17126777726E+04 -0.10054505113E+03  0.18442804057E+04  0.59990548152E+03 0.  0.
        -24    2    4    4    0    0  0.47785643858E+03 -0.10671355843E+04 -0.63490140476E+02  0.11736950895E+04  0.80025208332E+02 0.  0.
         24    2    4    4    0    0 -0.16463260797E+03 -0.64554218825E+03 -0.37054910650E+02  0.67058531618E+03  0.66955115257E+02 0.  0.
         11    1    3    3    0    0 -0.25098870432E+02  0.30608629912E+03 -0.24081869762E+03  0.39027223950E+03  0.00000000000E+00 0. -1.
        -12    1    3    3    0    0 -0.28812496018E+03  0.14065914735E+04 -0.11308822822E+04  0.18276789385E+04  0.00000000000E+00 0.  1.
         11    1    5    5    0    0  0.26397881921E+03 -0.49752354666E+03 -0.16887537834E+02  0.56347110432E+03  0.00000000000E+00 0. -1.
        -12    1    5    5    0    0  0.21387761937E+03 -0.56961203767E+03 -0.46602602641E+02  0.61022398519E+03  0.00000000000E+00 0.  1.
          4    1    6    6  502    0 -0.11731036168E+03 -0.47895219331E+03  0.17390970305E+01  0.49311251139E+03  0.00000000000E+00 0. -1.
         -3    1    6    6    0  502 -0.47322246284E+02 -0.16658999494E+03 -0.38794007681E+02  0.17747280479E+03  0.00000000000E+00 0.  1.
<mgrwt>
<rscale>  0 0.17904308E+04</rscale>
<asrwt>0</asrwt>
<pdfrwt beam="1">  1        1 0.42572905E+00 0.17904308E+04</pdfrwt>
<pdfrwt beam="2">  1       -2 0.19922966E+00 0.17904308E+04</pdfrwt>
<totfact> 0.94718380E-02</totfact>
</mgrwt>
</event>
<event>
12    3  0.2212098E-007  0.1934813E+04  0.7818608E-02  0.8637719E-01
          1   -1    0    0  501    0  0.00000000000E+00  0.00000000000E+00  0.17664351025E+04  0.17664351025E+04  0.00000000000E+00 0. -1.
         -2   -1    0    0    0  501 -0.00000000000E+00 -0.00000000000E+00 -0.22035996122E+04  0.22035996122E+04  0.00000000000E+00 0.  1.
        -24    2    1    2    0    0  0.16256136387E+04  0.10277424541E+04 -0.10158515742E+03  0.19276164737E+04  0.80693685674E+02 0.  0.
    5000000    2    1    2    0    0 -0.16256136387E+04 -0.10277424541E+04 -0.33557935227E+03  0.20424182411E+04  0.59998709609E+03 0.  0.
        -24    2    4    4    0    0 -0.13847759230E+04 -0.75922569372E+03 -0.47033626416E+03  0.16496096966E+04  0.77252435578E+02 0.  0.
         24    2    4    4    0    0 -0.24083771575E+03 -0.26851676039E+03  0.13475691189E+03  0.39280854451E+03  0.77685721991E+02 0.  0.
         11    1    3    3    0    0  0.18724794238E+03  0.12827275820E+03  0.12666393672E+02  0.22732384377E+03  0.00000000000E+00 0. -1.
        -12    1    3    3    0    0  0.14383656964E+04  0.89946969592E+03 -0.11425155109E+03  0.17002926299E+04  0.00000000000E+00 0.  1.
         13    1    5    5    0    0 -0.63505534635E+03 -0.38936081507E+03 -0.20750763698E+03  0.77327650724E+03  0.00000000000E+00 0. -1.
        -14    1    5    5    0    0 -0.74972057665E+03 -0.36986487865E+03 -0.26282862718E+03  0.87633318936E+03  0.00000000000E+00 0.  1.
          2    1    6    6  502    0 -0.35476246911E+02 -0.75723972308E+02  0.54885946853E+02  0.10002575288E+03  0.00000000000E+00 0. -1.
         -1    1    6    6    0  502 -0.20536146884E+03 -0.19279278808E+03  0.79870965034E+02  0.29278279163E+03  0.00000000000E+00 0.  1.
<mgrwt>
<rscale>  0 0.19348128E+04</rscale>
<asrwt>0</asrwt>
<pdfrwt beam="1">  1        1 0.27175925E+00 0.19348128E+04</pdfrwt>
<pdfrwt beam="2">  1       -2 0.33901532E+00 0.19348128E+04</pdfrwt>
<totfact> 0.61642824E-02</totfact>
</mgrwt>
</event>
<event>
12    3  0.2212098E-007  0.6715197E+03  0.7818608E-02  0.9767216E-01
         -4   -1    0    0    0  501 -0.00000000000E+00  0.00000000000E+00  0.53814398392E+03  0.53814398392E+03  0.00000000000E+00 0.  1.
          3   -1    0    0  501    0  0.00000000000E+00 -0.00000000000E+00 -0.13485870414E+04  0.13485870414E+04  0.00000000000E+00 0. -1.
        -24    2    1    2    0    0  0.38671157192E+03  0.39529126450E+03  0.19471803998E+03  0.59210675503E+03  0.82911221319E+02 0.  0.
    5000000    2    1    2    0    0 -0.38671157192E+03 -0.39529126450E+03 -0.10051610974E+04  0.12946242702E+04  0.59991844920E+03 0.  0.
        -24    2    4    4    0    0 -0.20853493858E+03 -0.52121555991E+03 -0.82271891516E+03  0.99911459414E+03  0.78810395050E+02 0.  0.
         24    2    4    4    0    0 -0.17817663334E+03  0.12592429541E+03 -0.18244218226E+03  0.29550967610E+03  0.80230779360E+02 0.  0.
         11    1    3    3    0    0  0.20218864614E+03  0.19928856920E+03  0.14343045887E+03  0.31806992780E+03  0.00000000000E+00 0. -1.
        -12    1    3    3    0    0  0.18452292578E+03  0.19600269530E+03  0.51287581104E+02  0.27403682723E+03  0.00000000000E+00 0.  1.
         11    1    5    5    0    0 -0.18183353340E+03 -0.46987641204E+03 -0.69037623010E+03  0.85467339700E+03  0.00000000000E+00 0. -1.
        -12    1    5    5    0    0 -0.26701405184E+02 -0.51339147877E+02 -0.13234268506E+03  0.14444119714E+03  0.00000000000E+00 0.  1.
          2    1    6    6  502    0 -0.11557636361E+03  0.40759616709E+02 -0.69773794580E+02  0.14102348949E+03  0.00000000000E+00 0. -1.
         -1    1    6    6    0  502 -0.62600269731E+02  0.85164678705E+02 -0.11266838768E+03  0.15448618660E+03  0.00000000000E+00 0.  1.
<mgrwt>
<rscale>  0 0.67151974E+03</rscale>
<asrwt>0</asrwt>
<pdfrwt beam="1">  1        3 0.20747493E+00 0.67151974E+03</pdfrwt>
<pdfrwt beam="2">  1       -4 0.82791384E-01 0.67151974E+03</pdfrwt>
<totfact> 0.38560197E-01</totfact>
</mgrwt>
</event>
<event>
12    3  0.2212098E-007  0.1435500E+04  0.7818608E-02  0.8928515E-01
          1   -1    0    0  501    0  0.00000000000E+00  0.00000000000E+00  0.14346340101E+04  0.14346340101E+04  0.00000000000E+00 0. -1.
         -2   -1    0    0    0  501 -0.00000000000E+00 -0.00000000000E+00 -0.14840495334E+04  0.14840495334E+04  0.00000000000E+00 0.  1.
        -24    2    1    2    0    0 -0.87581255523E+02  0.13790952520E+04  0.17683379136E+03  0.13953673609E+04  0.78776212484E+02 0.  0.
    5000000    2    1    2    0    0  0.87581255523E+02 -0.13790952520E+04 -0.22624931468E+03  0.15233161825E+04  0.59977433177E+03 0.  0.
        -24    2    4    4    0    0 -0.19192519237E+03 -0.98710636442E+03 -0.23287199176E+03  0.10343329866E+04  0.66340850265E+02 0.  0.
         24    2    4    4    0    0  0.27950644790E+03 -0.39198888762E+03  0.66226770788E+01  0.48898319596E+03  0.85332078652E+02 0.  0.
         11    1    5    5    0    0 -0.95360586790E+02 -0.47682462323E+03 -0.78702042824E+02  0.49259453344E+03  0.00000000000E+00 0. -1.
        -12    1    5    5    0    0 -0.96564605584E+02 -0.51028174119E+03 -0.15416994893E+03  0.54173845312E+03  0.00000000000E+00 0.  1.
         13    1    3    3    0    0 -0.82299227381E+02  0.74035877940E+03  0.77663240427E+02  0.74895651675E+03  0.00000000000E+00 0. -1.
        -14    1    3    3    0    0 -0.52820281416E+01  0.63873647263E+03  0.99170550933E+02  0.64641084417E+03  0.00000000000E+00 0.  1.
          4    1    6    6  502    0  0.20106411623E+03 -0.29446839410E+03  0.41730926574E+02  0.35899844595E+03  0.00000000000E+00 0. -1.
         -3    1    6    6    0  502  0.78442331668E+02 -0.97520493518E+02 -0.35108249495E+02  0.12998475001E+03  0.00000000000E+00 0.  1.
<mgrwt>
<rscale>  0 0.14355003E+04</rscale>
<asrwt>0</asrwt>
<pdfrwt beam="1">  1        1 0.22071292E+00 0.14355003E+04</pdfrwt>
<pdfrwt beam="2">  1       -2 0.22831531E+00 0.14355003E+04</pdfrwt>
<totfact> 0.52983584E-01</totfact>
</mgrwt>
</event>
<event>
12    3  0.2212098E-007  0.1162183E+04  0.7818608E-02  0.9146617E-01
          1   -1    0    0  501    0  0.00000000000E+00  0.00000000000E+00  0.11922975635E+04  0.11922975635E+04  0.00000000000E+00 0. -1.
         -2   -1    0    0    0  501 -0.00000000000E+00 -0.00000000000E+00 -0.12705345302E+04  0.12705345302E+04  0.00000000000E+00 0.  1.
        -24    2    1    2    0    0 -0.39259823828E+03  0.10862012448E+04 -0.91528559558E+02  0.11613043942E+04  0.79271040482E+02 0.  0.
    5000000    2    1    2    0    0  0.39259823828E+03 -0.10862012448E+04  0.13291592953E+02  0.13015276995E+04  0.59985928791E+03 0.  0.
        -24    2    4    4    0    0  0.34022064460E+03 -0.78715568300E+03 -0.24356097442E+03  0.89502895608E+03  0.79942026917E+02 0.  0.
         24    2    4    4    0    0  0.52377593674E+02 -0.29904556178E+03  0.25685256737E+03  0.40649874343E+03  0.84239697928E+02 0.  0.
         11    1    3    3    0    0 -0.20580295052E+03  0.63963713713E+03 -0.22108712176E+02  0.67229407017E+03  0.00000000000E+00 0. -1.
        -12    1    3    3    0    0 -0.18679528776E+03  0.44656410766E+03 -0.69419847382E+02  0.48901032401E+03  0.00000000000E+00 0.  1.
         11    1    5    5    0    0  0.13712840089E+03 -0.27404231403E+03 -0.51598058196E+02  0.31075029818E+03  0.00000000000E+00 0. -1.
        -12    1    5    5    0    0  0.20309224372E+03 -0.51311336897E+03 -0.19196291622E+03  0.58427865790E+03  0.00000000000E+00 0.  1.
          4    1    6    6  502    0 -0.14776486786E+02 -0.47865907616E+02  0.17394845983E+02  0.53028957565E+02  0.00000000000E+00 0. -1.
         -1    1    6    6    0  502  0.67154080460E+02 -0.25117965416E+03  0.23945772139E+03  0.35346978587E+03  0.00000000000E+00 0.  1.
<mgrwt>
<rscale>  0 0.11621827E+04</rscale>
<asrwt>0</asrwt>
<pdfrwt beam="1">  1        1 0.18343039E+00 0.11621827E+04</pdfrwt>
<pdfrwt beam="2">  1       -2 0.19546685E+00 0.11621827E+04</pdfrwt>
<totfact> 0.13234321E+00</totfact>
</mgrwt>
</event>
<event>
12    3  0.2212098E-007  0.6937993E+03  0.7818608E-02  0.9727895E-01
          1   -1    0    0  501    0  0.00000000000E+00  0.00000000000E+00  0.10360291875E+04  0.10360291875E+04  0.00000000000E+00 0. -1.
         -2   -1    0    0    0  501 -0.00000000000E+00 -0.00000000000E+00 -0.63520061378E+03  0.63520061378E+03  0.00000000000E+00 0.  1.
        -24    2    1    2    0    0  0.36968616370E+03 -0.53016934768E+03 -0.96590537012E+02  0.65843567381E+03  0.80376662395E+02 0.  0.
    5000000    2    1    2    0    0 -0.36968616370E+03  0.53016934768E+03  0.49741911077E+03  0.10127941275E+04  0.60048211972E+03 0.  0.
        -24    2    4    4    0    0 -0.11205296187E+03 -0.89187083598E+01 -0.96128104280E+02  0.16711183818E+03  0.77783959808E+02 0.  0.
         24    2    4    4    0    0 -0.25763320182E+03  0.53908805603E+03  0.59354721505E+03  0.84568228932E+03  0.76742681375E+02 0.  0.
         13    1    5    5    0    0 -0.90721136996E+02  0.25240157599E+02 -0.80595849086E+02  0.12394789689E+03  0.00000000000E+00 0. -1.
        -14    1    5    5    0    0 -0.21331824877E+02 -0.34158865958E+02 -0.15532255194E+02  0.43163941288E+02  0.00000000000E+00 0.  1.
         13    1    3    3    0    0  0.19674932401E+03 -0.35008124038E+03 -0.63679856801E+02  0.40659844506E+03  0.00000000000E+00 0. -1.
        -14    1    3    3    0    0  0.17293683969E+03 -0.18008810729E+03 -0.32910680212E+02  0.25183722874E+03  0.00000000000E+00 0.  1.
          4    1    6    6  502    0 -0.25891423492E+03  0.50241720327E+03  0.56515580661E+03  0.79928762841E+03  0.00000000000E+00 0. -1.
         -1    1    6    6    0  502  0.12810330923E+01  0.36670852764E+02  0.28391408434E+02  0.46394660912E+02  0.00000000000E+00 0.  1.
<mgrwt>
<rscale>  0 0.69379927E+03</rscale>
<asrwt>0</asrwt>
<pdfrwt beam="1">  1        1 0.15938911E+00 0.69379927E+03</pdfrwt>
<pdfrwt beam="2">  1       -2 0.97723172E-01 0.69379927E+03</pdfrwt>
<totfact> 0.11191253E+01</totfact>
</mgrwt>
</event>
<event>
12    3  0.2212098E-007  0.7628826E+03  0.7818608E-02  0.9615354E-01
         -2   -1    0    0    0  501 -0.00000000000E+00  0.00000000000E+00  0.94336735526E+03  0.94336735526E+03  0.00000000000E+00 0.  1.
          1   -1    0    0  501    0  0.00000000000E+00 -0.00000000000E+00 -0.87206568615E+03  0.87206568615E+03  0.00000000000E+00 0. -1.
        -24    2    1    2    0    0  0.69850125417E+03  0.14410836093E+02  0.43320065240E+03  0.82595261217E+03  0.80145106044E+02 0.  0.
    5000000    2    1    2    0    0 -0.69850125417E+03 -0.14410836093E+02 -0.36189898329E+03  0.98948042925E+03  0.59999080949E+03 0.  0.
        -24    2    4    4    0    0 -0.33808105876E+03  0.20700654219E+03 -0.38037991477E+03  0.55880541113E+03  0.10209846784E+03 0.  0.
         24    2    4    4    0    0 -0.36042019541E+03 -0.22141737828E+03  0.18480931489E+02  0.43067501812E+03  0.78810238790E+02 0.  0.
         13    1    5    5    0    0 -0.15986766350E+03  0.77232499097E+02 -0.23579998443E+03  0.29516802233E+03  0.00000000000E+00 0. -1.
        -14    1    5    5    0    0 -0.17821339527E+03  0.12977404309E+03 -0.14457993035E+03  0.26363738880E+03  0.00000000000E+00 0.  1.
         13    1    3    3    0    0  0.43952343526E+03  0.40219420055E+01  0.22669186809E+03  0.49455659860E+03  0.00000000000E+00 0. -1.
        -14    1    3    3    0    0  0.25897781891E+03  0.10388894088E+02  0.20650878431E+03  0.33139601357E+03  0.00000000000E+00 0.  1.
          4    1    6    6  502    0 -0.11090281954E+03 -0.10851958286E+03 -0.90291031103E+01  0.15542670282E+03  0.00000000000E+00 0. -1.
         -3    1    6    6    0  502 -0.24951737587E+03 -0.11289779542E+03  0.27510034600E+02  0.27524831530E+03  0.00000000000E+00 0.  1.
<mgrwt>
<rscale>  0 0.76288259E+03</rscale>
<asrwt>0</asrwt>
<pdfrwt beam="1">  1        1 0.13416395E+00 0.76288259E+03</pdfrwt>
<pdfrwt beam="2">  1       -2 0.14513344E+00 0.76288259E+03</pdfrwt>
<totfact> 0.56197122E+00</totfact>
</mgrwt>
</event>
<event>
12    3  0.2212098E-007  0.8226572E+03  0.7818608E-02  0.9527789E-01
          1   -1    0    0  501    0  0.00000000000E+00  0.00000000000E+00  0.93110163657E+03  0.93110163657E+03  0.00000000000E+00 0. -1.
         -2   -1    0    0    0  501 -0.00000000000E+00 -0.00000000000E+00 -0.88959656116E+03  0.88959656116E+03  0.00000000000E+00 0.  1.
        -24    2    1    2    0    0  0.51443965036E+03  0.62418560723E+03  0.26673150859E+02  0.81339491689E+03  0.81510782730E+02 0.  0.
    5000000    2    1    2    0    0 -0.51443965036E+03 -0.62418560723E+03  0.14831924553E+02  0.10073032808E+04  0.60015338663E+03 0.  0.
        -24    2    4    4    0    0 -0.11186402140E+03 -0.22685651870E+03 -0.26173201022E+03  0.37258942557E+03  0.79635391091E+02 0.  0.
         24    2    4    4    0    0 -0.40257562896E+03 -0.39732908853E+03  0.27656393477E+03  0.63471385528E+03  0.80227965425E+02 0.  0.
         11    1    5    5    0    0 -0.11391939993E+03 -0.15155862415E+03 -0.19455002565E+03  0.27165669275E+03  0.00000000000E+00 0. -1.
        -12    1    5    5    0    0  0.20553785292E+01 -0.75297894551E+02 -0.67181984569E+02  0.10093273282E+03  0.00000000000E+00 0.  1.
         11    1    3    3    0    0  0.14362957314E+03  0.23370924322E+03  0.16409345526E+02  0.27480671620E+03  0.00000000000E+00 0. -1.
        -12    1    3    3    0    0  0.37081007722E+03  0.39047636401E+03  0.10263805333E+02  0.53858820068E+03  0.00000000000E+00 0.  1.
          2    1    6    6  502    0 -0.16537509902E+03 -0.19611445805E+03  0.89235521837E+02  0.27161145482E+03  0.00000000000E+00 0. -1.
         -1    1    6    6    0  502 -0.23720052994E+03 -0.20121463048E+03  0.18732841294E+03  0.36310240045E+03  0.00000000000E+00 0.  1.
<mgrwt>
<rscale>  0 0.82265723E+03</rscale>
<asrwt>0</asrwt>
<pdfrwt beam="1">  1        1 0.14324641E+00 0.82265723E+03</pdfrwt>
<pdfrwt beam="2">  1       -2 0.13686101E+00 0.82265723E+03</pdfrwt>
<totfact> 0.58177074E+00</totfact>
</mgrwt>
</event>
<event>
12    3  0.2212098E-007  0.1316524E+04  0.7818608E-02  0.9016563E-01
          1   -1    0    0  501    0  0.00000000000E+00  0.00000000000E+00  0.42497341796E+04  0.42497341796E+04  0.00000000000E+00 0. -1.
         -2   -1    0    0    0  501 -0.00000000000E+00 -0.00000000000E+00 -0.46143603000E+03  0.46143603000E+03  0.00000000000E+00 0.  1.
        -24    2    1    2    0    0  0.77039749582E+03 -0.10376399511E+04  0.12472818749E+04  0.17979055083E+04  0.80889874858E+02 0.  0.
    5000000    2    1    2    0    0 -0.77039749582E+03  0.10376399511E+04  0.25410162747E+04  0.29132647012E+04  0.60011544038E+03 0.  0.
        -24    2    4    4    0    0 -0.32379454181E+03  0.19462188186E+03  0.34245372927E+03  0.51528112709E+03  0.74293344508E+02 0.  0.
         24    2    4    4    0    0 -0.44660295401E+03  0.84301806920E+03  0.21985625454E+04  0.23979835741E+04  0.80711166294E+02 0.  0.
         11    1    5    5    0    0 -0.18079836697E+03  0.65711385741E+02  0.17772759949E+03  0.26190291204E+03  0.00000000000E+00 0. -1.
        -12    1    5    5    0    0 -0.14299617484E+03  0.12891049612E+03  0.16472612978E+03  0.25337821504E+03  0.00000000000E+00 0.  1.
         11    1    3    3    0    0  0.34256019275E+03 -0.51821555225E+03  0.56813924125E+03  0.84182957996E+03  0.00000000000E+00 0. -1.
        -12    1    3    3    0    0  0.42783730307E+03 -0.51942439881E+03  0.67914263365E+03  0.95607592837E+03  0.00000000000E+00 0.  1.
          4    1    6    6  502    0 -0.28930885618E+03  0.54757231764E+03  0.15213736289E+04  0.16425933082E+04  0.00000000000E+00 0. -1.
         -3    1    6    6    0  502 -0.15729409783E+03  0.29544575156E+03  0.67718891646E+03  0.75539026596E+03  0.00000000000E+00 0.  1.
<mgrwt>
<rscale>  0 0.13165239E+04</rscale>
<asrwt>0</asrwt>
<pdfrwt beam="1">  1        1 0.65380523E+00 0.13165239E+04</pdfrwt>
<pdfrwt beam="2">  1       -2 0.70990161E-01 0.13165239E+04</pdfrwt>
<totfact> 0.90210735E-02</totfact>
</mgrwt>
</event>
<event>
12    3  0.2212098E-007  0.3773771E+03  0.7818608E-02  0.1051907E+00
         -2   -1    0    0    0  501 -0.00000000000E+00  0.00000000000E+00  0.14589793597E+04  0.14589793597E+04  0.00000000000E+00 0.  1.
          1   -1    0    0  501    0  0.00000000000E+00 -0.00000000000E+00 -0.20156562510E+03  0.20156562510E+03  0.00000000000E+00 0. -1.
        -24    2    1    2    0    0 -0.33258873444E+03 -0.16263766732E+03  0.39950344720E+03  0.55010294842E+03  0.77097162237E+02 0.  0.
    5000000    2    1    2    0    0  0.33258873444E+03  0.16263766732E+03  0.85791028738E+03  0.11104420364E+04  0.60000431483E+03 0.  0.
        -24    2    4    4    0    0  0.14381802367E+03  0.83890496564E+02 -0.37183772777E+02  0.18874488058E+03  0.80751208298E+02 0.  0.
         24    2    4    4    0    0  0.18877071076E+03  0.78747170761E+02  0.89509406016E+03  0.92169715578E+03  0.80602557595E+02 0.  0.
         11    1    5    5    0    0  0.10249486396E+03  0.38018715960E+02  0.11772002442E+02  0.10995089787E+03  0.00000000000E+00 0. -1.
        -12    1    5    5    0    0  0.41323159717E+02  0.45871780605E+02 -0.48955775219E+02  0.78793982715E+02  0.00000000000E+00 0.  1.
         13    1    3    3    0    0 -0.86051213194E+02 -0.77105448177E+02  0.99438291541E+02  0.15244026783E+03  0.00000000000E+00 0. -1.
        -14    1    3    3    0    0 -0.24653752124E+03 -0.85532219148E+02  0.30006515566E+03  0.39766268059E+03  0.00000000000E+00 0.  1.
          2    1    6    6  502    0  0.19005865076E+03  0.77082390521E+02  0.77785415892E+03  0.80443836196E+03  0.00000000000E+00 0. -1.
         -1    1    6    6    0  502 -0.12879400005E+01  0.16647802396E+01  0.11723990125E+03  0.11725879382E+03  0.00000000000E+00 0.  1.
<mgrwt>
<rscale>  0 0.37737715E+03</rscale>
<asrwt>0</asrwt>
<pdfrwt beam="1">  1        1 0.31010097E-01 0.37737715E+03</pdfrwt>
<pdfrwt beam="2">  1       -2 0.22445836E+00 0.37737715E+03</pdfrwt>
<totfact> 0.12785259E+01</totfact>
</mgrwt>
</event>
<event>
12    3  0.2212098E-007  0.6147503E+03  0.7818608E-02  0.9875268E-01
         -2   -1    0    0    0  501 -0.00000000000E+00  0.00000000000E+00  0.93659605740E+03  0.93659605740E+03  0.00000000000E+00 0.  1.
          1   -1    0    0  501    0  0.00000000000E+00 -0.00000000000E+00 -0.80660281991E+03  0.80660281991E+03  0.00000000000E+00 0. -1.
        -24    2    1    2    0    0  0.21011536921E+03  0.48855900003E+03  0.60509700676E+03  0.81107719636E+03  0.94156603503E+02 0.  0.
    5000000    2    1    2    0    0 -0.21011536921E+03 -0.48855900003E+03 -0.47510376927E+03  0.93212168095E+03  0.60024067809E+03 0.  0.
        -24    2    4    4    0    0 -0.28867280266E+03 -0.11360547717E+03 -0.41716125905E+01  0.32046579489E+03  0.80266630047E+02 0.  0.
         24    2    4    4    0    0  0.78557433455E+02 -0.37495352286E+03 -0.47093215668E+03  0.61165588606E+03  0.74728924165E+02 0.  0.
         11    1    5    5    0    0 -0.17287910558E+03 -0.75994315658E+02  0.36030473586E+02  0.19225117993E+03  0.00000000000E+00 0. -1.
        -12    1    5    5    0    0 -0.11579369709E+03 -0.37611161510E+02 -0.40202086177E+02  0.12821461495E+03  0.00000000000E+00 0.  1.
         11    1    3    3    0    0  0.65875910657E+02  0.22907474568E+03  0.21610838618E+03  0.32174168100E+03  0.00000000000E+00 0. -1.
        -12    1    3    3    0    0  0.14423945855E+03  0.25948425435E+03  0.38898862058E+03  0.48933551537E+03  0.00000000000E+00 0.  1.
          4    1    6    6  502    0  0.55310344580E+02 -0.21337695316E+03 -0.32496736397E+03  0.39267384176E+03  0.00000000000E+00 0. -1.
         -3    1    6    6    0  502  0.23247088875E+02 -0.16157656970E+03 -0.14596479271E+03  0.21898204430E+03  0.00000000000E+00 0.  1.
<mgrwt>
<rscale>  0 0.61475029E+03</rscale>
<asrwt>0</asrwt>
<pdfrwt beam="1">  1        1 0.12409274E+00 0.61475029E+03</pdfrwt>
<pdfrwt beam="2">  1       -2 0.14409170E+00 0.61475029E+03</pdfrwt>
<totfact> 0.66339831E+00</totfact>
</mgrwt>
</event>
<event>
12    3  0.2212098E-007  0.1637251E+04  0.7818608E-02  0.8797985E-01
          1   -1    0    0  501    0  0.00000000000E+00  0.00000000000E+00  0.11938072727E+04  0.11938072727E+04  0.00000000000E+00 0. -1.
         -2   -1    0    0    0  501 -0.00000000000E+00 -0.00000000000E+00 -0.23600767053E+04  0.23600767053E+04  0.00000000000E+00 0.  1.
        -24    2    1    2    0    0  0.37062212798E+03 -0.15632643305E+04 -0.31507943102E+03  0.16392124509E+04  0.81155914809E+02 0.  0.
    5000000    2    1    2    0    0 -0.37062212798E+03  0.15632643305E+04 -0.85119000162E+03  0.19146715271E+04  0.60023870990E+03 0.  0.
        -24    2    4    4    0    0 -0.35265430634E+02 -0.23448602821E+02 -0.34862281152E+02  0.97294821756E+02  0.80358049512E+02 0.  0.
         24    2    4    4    0    0 -0.33535669735E+03  0.15867129334E+04 -0.81632772046E+03  0.18173767053E+04  0.79656101461E+02 0.  0.
         13    1    3    3    0    0  0.17398834408E+03 -0.57407706824E+03 -0.13123842643E+03  0.61405207330E+03  0.00000000000E+00 0. -1.
        -14    1    3    3    0    0  0.19663378390E+03 -0.98918726230E+03 -0.18384100459E+03  0.10251603776E+04  0.00000000000E+00 0.  1.
         13    1    5    5    0    0 -0.23387680904E+02 -0.14646359261E+02  0.24020014797E+02  0.36584977361E+02  0.00000000000E+00 0. -1.
        -14    1    5    5    0    0 -0.11877749730E+02 -0.88022435608E+01 -0.58882295949E+02  0.60709844396E+02  0.00000000000E+00 0.  1.
          2    1    6    6  502    0 -0.15241460183E+03  0.91172409067E+03 -0.46294670139E+03  0.10338233295E+04  0.00000000000E+00 0. -1.
         -1    1    6    6    0  502 -0.18294209551E+03  0.67498884268E+03 -0.35338101908E+03  0.78355337578E+03  0.00000000000E+00 0.  1.
<mgrwt>
<rscale>  0 0.16372507E+04</rscale>
<asrwt>0</asrwt>
<pdfrwt beam="1">  1        1 0.18366266E+00 0.16372507E+04</pdfrwt>
<pdfrwt beam="2">  1       -2 0.36308872E+00 0.16372507E+04</pdfrwt>
<totfact> 0.11355511E-01</totfact>
</mgrwt>
</event>
<event>
12    3  0.2212098E-007  0.2795586E+03  0.7818608E-02  0.1095930E+00
         -2   -1    0    0    0  501 -0.00000000000E+00  0.00000000000E+00  0.26939453448E+04  0.26939453448E+04  0.00000000000E+00 0.  1.
          1   -1    0    0  501    0  0.00000000000E+00 -0.00000000000E+00 -0.95698776341E+02  0.95698776341E+02  0.00000000000E+00 0. -1.
        -24    2    1    2    0    0 -0.20295996511E+03  0.14816331779E+03  0.28476771939E+03  0.38643298610E+03  0.71363033595E+02 0.  0.
    5000000    2    1    2    0    0  0.20295996511E+03 -0.14816331779E+03  0.23134788490E+04  0.24032111350E+04  0.60007854345E+03 0.  0.
        -24    2    4    4    0    0  0.19071791204E+03 -0.73979601831E+02  0.22776306901E+04  0.22882645445E+04  0.81894820000E+02 0.  0.
         24    2    4    4    0    0  0.12242053071E+02 -0.74183715957E+02  0.35848158930E+02  0.11494659053E+03  0.79211972575E+02 0.  0.
         13    1    5    5    0    0  0.11171645860E+03 -0.85611340648E+01  0.92745981678E+03  0.93420317484E+03  0.00000000000E+00 0. -1.
        -14    1    5    5    0    0  0.79001453445E+02 -0.65418467766E+02  0.13501708733E+04  0.13540613696E+04  0.00000000000E+00 0.  1.
         13    1    3    3    0    0 -0.12110899959E+03  0.53974403413E+02  0.11355240676E+03  0.17457025831E+03  0.00000000000E+00 0. -1.
        -14    1    3    3    0    0 -0.81850965523E+02  0.94188914375E+02  0.17121531263E+03  0.21186272779E+03  0.00000000000E+00 0.  1.
          2    1    6    6  502    0 -0.16700526430E+02 -0.29096086862E+02 -0.18765711834E+02  0.38440106586E+02  0.00000000000E+00 0. -1.
         -1    1    6    6    0  502  0.28942579501E+02 -0.45087629095E+02  0.54613870764E+02  0.76506483944E+02  0.00000000000E+00 0.  1.
<mgrwt>
<rscale>  0 0.27955864E+03</rscale>
<asrwt>0</asrwt>
<pdfrwt beam="1">  1        1 0.14722891E-01 0.27955864E+03</pdfrwt>
<pdfrwt beam="2">  1       -2 0.41445307E+00 0.27955864E+03</pdfrwt>
<totfact> 0.24381771E+00</totfact>
</mgrwt>
</event>
<event>
12    3  0.2212098E-007  0.6631918E+03  0.7818608E-02  0.9782336E-01
          3   -1    0    0  501    0  0.00000000000E+00  0.00000000000E+00  0.18122769424E+04  0.18122769424E+04  0.00000000000E+00 0. -1.
         -4   -1    0    0    0  501 -0.00000000000E+00 -0.00000000000E+00 -0.35832708449E+03  0.35832708449E+03  0.00000000000E+00 0.  1.
        -24    2    1    2    0    0  0.22851174579E+03  0.60827652010E+03  0.30879578750E+03  0.72367465509E+03  0.78308525521E+02 0.  0.
    5000000    2    1    2    0    0 -0.22851174579E+03 -0.60827652010E+03  0.11451540704E+04  0.14469293718E+04  0.60000734925E+03 0.  0.
        -24    2    4    4    0    0 -0.76649768622E+02 -0.14015903166E+03 -0.18219362778E+02  0.18124731066E+03  0.83659436149E+02 0.  0.
         24    2    4    4    0    0 -0.15186197716E+03 -0.46811748844E+03  0.11633734332E+04  0.12656820612E+04  0.79481392544E+02 0.  0.
         11    1    5    5    0    0 -0.29807409670E+02 -0.12432044791E+03  0.19134675712E+01  0.12785819019E+03  0.00000000000E+00 0. -1.
        -12    1    5    5    0    0 -0.46842358953E+02 -0.15838583752E+02 -0.20132830349E+02  0.53389120478E+02  0.00000000000E+00 0.  1.
         11    1    3    3    0    0  0.12105170093E+03  0.24224682802E+03  0.99170576840E+02  0.28839529000E+03  0.00000000000E+00 0. -1.
        -12    1    3    3    0    0  0.10746004485E+03  0.36602969208E+03  0.20962521066E+03  0.43527936509E+03  0.00000000000E+00 0.  1.
          4    1    6    6  502    0 -0.40275022716E+02 -0.23418123620E+03  0.60885282584E+03  0.65357837508E+03  0.00000000000E+00 0. -1.
         -3    1    6    6    0  502 -0.11158695445E+03 -0.23393625224E+03  0.55452060736E+03  0.61210368607E+03  0.00000000000E+00 0.  1.
<mgrwt>
<rscale>  0 0.66319183E+03</rscale>
<asrwt>0</asrwt>
<pdfrwt beam="1">  1        3 0.27881183E+00 0.66319183E+03</pdfrwt>
<pdfrwt beam="2">  1       -4 0.55127245E-01 0.66319183E+03</pdfrwt>
<totfact> 0.36821661E-01</totfact>
</mgrwt>
</event>
<event>
12    3  0.2212098E-007  0.5425906E+03  0.7818608E-02  0.1003224E+00
         -2   -1    0    0    0  501 -0.00000000000E+00  0.00000000000E+00  0.30247053887E+03  0.30247053887E+03  0.00000000000E+00 0.  1.
          1   -1    0    0  501    0  0.00000000000E+00 -0.00000000000E+00 -0.11464468899E+04  0.11464468899E+04  0.00000000000E+00 0. -1.
        -24    2    1    2    0    0 -0.40129246541E+03  0.12721974068E+03 -0.42810117257E+03  0.60627363987E+03  0.84122572632E+02 0.  0.
    5000000    2    1    2    0    0  0.40129246541E+03 -0.12721974068E+03 -0.41587517846E+03  0.84264378890E+03  0.59989656250E+03 0.  0.
        -24    2    4    4    0    0  0.50484549029E+03 -0.14476256354E+03 -0.15908857200E+03  0.55468950536E+03  0.80908001694E+02 0.  0.
         24    2    4    4    0    0 -0.10355302489E+03  0.17542822863E+02 -0.25678660645E+03  0.28795428354E+03  0.77118924780E+02 0.  0.
         11    1    5    5    0    0  0.47508944759E+03 -0.11398293944E+03 -0.14573060520E+03  0.50984262570E+03  0.00000000000E+00 0. -1.
        -12    1    5    5    0    0  0.29756042705E+02 -0.30779624105E+02 -0.13357966805E+02  0.44846879654E+02  0.00000000000E+00 0.  1.
         13    1    3    3    0    0 -0.23050006351E+03  0.47381538492E+02 -0.28493349572E+03  0.36954348384E+03  0.00000000000E+00 0. -1.
        -14    1    3    3    0    0 -0.17079240190E+03  0.79838202189E+02 -0.14316767685E+03  0.23673015602E+03  0.00000000000E+00 0.  1.
          4    1    6    6  502    0 -0.28693223193E+02  0.42287947700E+02 -0.11149197816E+03  0.12264596516E+03  0.00000000000E+00 0. -1.
         -3    1    6    6    0  502 -0.74859801693E+02 -0.24745124837E+02 -0.14529462830E+03  0.16530831838E+03  0.00000000000E+00 0.  1.
<mgrwt>
<rscale>  0 0.54259055E+03</rscale>
<asrwt>0</asrwt>
<pdfrwt beam="1">  1        1 0.17637644E+00 0.54259055E+03</pdfrwt>
<pdfrwt beam="2">  1       -2 0.46533930E-01 0.54259055E+03</pdfrwt>
<totfact> 0.47030577E+01</totfact>
</mgrwt>
</event>
<event>
12    3  0.2212098E-007  0.1763912E+04  0.7818608E-02  0.8725730E-01
          1   -1    0    0  501    0  0.00000000000E+00  0.00000000000E+00  0.14903206673E+04  0.14903206673E+04  0.00000000000E+00 0. -1.
         -2   -1    0    0    0  501 -0.00000000000E+00 -0.00000000000E+00 -0.22006367689E+04  0.22006367689E+04  0.00000000000E+00 0.  1.
        -24    2    1    2    0    0 -0.11648146193E+03 -0.17568587534E+04 -0.31635161808E+03  0.17896626488E+04  0.51898362321E+02 0.  0.
    5000000    2    1    2    0    0  0.11648146193E+03  0.17568587534E+04 -0.39396448354E+03  0.19012947873E+04  0.59966094052E+03 0.  0.
        -24    2    4    4    0    0 -0.20170896952E+02  0.56121375230E+03 -0.40188368121E+03  0.69517499440E+03  0.79937717972E+02 0.  0.
         24    2    4    4    0    0  0.13665235888E+03  0.11956450011E+04  0.79191976751E+01  0.12061197929E+04  0.80133671601E+02 0.  0.
         11    1    3    3    0    0 -0.23674518503E+02 -0.17206485854E+03 -0.40852345334E+02  0.17842564975E+03  0.00000000000E+00 0. -1.
        -12    1    3    3    0    0 -0.92806943425E+02 -0.15847938949E+04 -0.27549927274E+03  0.16112369991E+04  0.00000000000E+00 0.  1.
         13    1    5    5    0    0 -0.32307889516E+02  0.30861669300E+03 -0.17991071125E+03  0.35868639080E+03  0.00000000000E+00 0. -1.
        -14    1    5    5    0    0  0.12136992564E+02  0.25259705930E+03 -0.22197296996E+03  0.33648860360E+03  0.00000000000E+00 0.  1.
          2    1    6    6  502    0  0.84258585428E+02  0.75553953634E+03 -0.33604836948E+02  0.76096569256E+03  0.00000000000E+00 0. -1.
         -1    1    6    6    0  502  0.52393773452E+02  0.44010546476E+03  0.41524034623E+02  0.44515410035E+03  0.00000000000E+00 0.  1.
<mgrwt>
<rscale>  0 0.17639115E+04</rscale>
<asrwt>0</asrwt>
<pdfrwt beam="1">  1        1 0.22928010E+00 0.17639115E+04</pdfrwt>
<pdfrwt beam="2">  1       -2 0.33855950E+00 0.17639115E+04</pdfrwt>
<totfact> 0.98042695E-02</totfact>
</mgrwt>
</event>
<event>
12    3  0.2212098E-007  0.1093232E+04  0.7818608E-02  0.9211813E-01
         -2   -1    0    0    0  501 -0.00000000000E+00  0.00000000000E+00  0.10153366111E+04  0.10153366111E+04  0.00000000000E+00 0.  1.
          1   -1    0    0  501    0  0.00000000000E+00 -0.00000000000E+00 -0.16112840008E+04  0.16112840008E+04  0.00000000000E+00 0. -1.
        -24    2    1    2    0    0 -0.36995646961E+03 -0.97569004459E+03  0.34158705209E+03  0.11008816060E+04  0.80123303491E+02 0.  0.
    5000000    2    1    2    0    0  0.36995646961E+03  0.97569004459E+03 -0.93753444172E+03  0.15257390059E+04  0.60005819071E+03 0.  0.
        -24    2    4    4    0    0  0.97532344467E+02  0.79865983339E+03 -0.42626845833E+03  0.91414657900E+03  0.81173158330E+02 0.  0.
         24    2    4    4    0    0  0.27242412515E+03  0.17703021120E+03 -0.51126598339E+03  0.61159242692E+03  0.84248390202E+02 0.  0.
         11    1    5    5    0    0  0.34809620751E+02  0.27122645449E+03 -0.10211099129E+03  0.29189407986E+03  0.00000000000E+00 0. -1.
        -12    1    5    5    0    0  0.62722723715E+02  0.52743337890E+03 -0.32415746704E+03  0.62225249914E+03  0.00000000000E+00 0.  1.
         13    1    3    3    0    0 -0.33968042831E+03 -0.81507673825E+03  0.28330075359E+03  0.92735764385E+03  0.00000000000E+00 0. -1.
        -14    1    3    3    0    0 -0.30276041299E+02 -0.16061330634E+03  0.58286298491E+02  0.17352396215E+03  0.00000000000E+00 0.  1.
          4    1    6    6  502    0  0.81375990761E+01 -0.90523684592E+01 -0.23242035382E+02  0.26236579467E+02  0.00000000000E+00 0. -1.
         -3    1    6    6    0  502  0.26428652607E+03  0.18608257965E+03 -0.48802394801E+03  0.58535584745E+03  0.00000000000E+00 0.  1.
<mgrwt>
<rscale>  0 0.10932323E+04</rscale>
<asrwt>0</asrwt>
<pdfrwt beam="1">  1        1 0.24788985E+00 0.10932323E+04</pdfrwt>
<pdfrwt beam="2">  1       -2 0.15620563E+00 0.10932323E+04</pdfrwt>
<totfact> 0.12764868E+00</totfact>
</mgrwt>
</event>
<event>
12    3  0.2212098E-007  0.6633958E+03  0.7818608E-02  0.9781963E-01
          1   -1    0    0  501    0  0.00000000000E+00  0.00000000000E+00  0.17285055577E+04  0.17285055577E+04  0.00000000000E+00 0. -1.
         -2   -1    0    0    0  501 -0.00000000000E+00 -0.00000000000E+00 -0.37235845481E+03  0.37235845481E+03  0.00000000000E+00 0.  1.
        -24    2    1    2    0    0  0.56656482900E+03 -0.20230452478E+03  0.10202631525E+04  0.11871080096E+04  0.79785335959E+02 0.  0.
    5000000    2    1    2    0    0 -0.56656482900E+03  0.20230452478E+03  0.33588395038E+03  0.91375600294E+03  0.60017429017E+03 0.  0.
        -24    2    4    4    0    0 -0.47031995196E+03  0.30059992945E+03  0.44713402557E+03  0.71960042563E+03  0.79591211512E+02 0.  0.
         24    2    4    4    0    0 -0.96244877045E+02 -0.98295404671E+02 -0.11125007519E+03  0.19415557731E+03  0.79967155983E+02 0.  0.
         11    1    5    5    0    0 -0.18250345954E+03  0.83016791326E+02  0.19285829443E+03  0.27819709222E+03  0.00000000000E+00 0. -1.
        -12    1    5    5    0    0 -0.28781649242E+03  0.21758313812E+03  0.25427573114E+03  0.44140333341E+03  0.00000000000E+00 0.  1.
         11    1    3    3    0    0  0.35373892856E+03 -0.85272098346E+02  0.62311989237E+03  0.72158226183E+03  0.00000000000E+00 0. -1.
        -12    1    3    3    0    0  0.21282590045E+03 -0.11703242643E+03  0.39714326017E+03  0.46552574777E+03  0.00000000000E+00 0.  1.
          4    1    6    6  502    0  0.82471401069E+01 -0.36323674306E+02 -0.31988642937E+02  0.49098858561E+02  0.00000000000E+00 0. -1.
         -3    1    6    6    0  502 -0.10449201715E+03 -0.61971730365E+02 -0.79261432251E+02  0.14505671875E+03  0.00000000000E+00 0.  1.
<mgrwt>
<rscale>  0 0.66339581E+03</rscale>
<asrwt>0</asrwt>
<pdfrwt beam="1">  1        1 0.26592393E+00 0.66339581E+03</pdfrwt>
<pdfrwt beam="2">  1       -2 0.57285917E-01 0.66339581E+03</pdfrwt>
<totfact> 0.11983923E+01</totfact>
</mgrwt>
</event>
<event>
12    3  0.2212098E-007  0.6728660E+03  0.7818608E-02  0.9764794E-01
          1   -1    0    0  501    0  0.00000000000E+00  0.00000000000E+00  0.12191104800E+04  0.12191104800E+04  0.00000000000E+00 0. -1.
         -2   -1    0    0    0  501 -0.00000000000E+00 -0.00000000000E+00 -0.54582496383E+03  0.54582496383E+03  0.00000000000E+00 0.  1.
        -24    2    1    2    0    0 -0.23105482723E+02  0.66001894088E+03  0.31514420684E+02  0.66585956463E+03  0.78847545568E+02 0.  0.
    5000000    2    1    2    0    0  0.23105482723E+02 -0.66001894088E+03  0.64177109551E+03  0.10990758792E+04  0.59994898417E+03 0.  0.
        -24    2    4    4    0    0 -0.16644161604E+02 -0.19013557473E+03 -0.87476996196E+02  0.22692859656E+03  0.86115028771E+02 0.  0.
         24    2    4    4    0    0  0.39749644327E+02 -0.46988336615E+03  0.72924809171E+03  0.87214728267E+03  0.80421958398E+02 0.  0.
         13    1    5    5    0    0 -0.36470568486E+02 -0.28469098178E+02 -0.14839673663E+02  0.48588144965E+02  0.00000000000E+00 0. -1.
        -14    1    5    5    0    0  0.19826406882E+02 -0.16166647655E+03 -0.72637322533E+02  0.17834045159E+03  0.00000000000E+00 0.  1.
         13    1    3    3    0    0 -0.35477837038E+02  0.25809566907E+03 -0.15633467203E+02  0.26099129605E+03  0.00000000000E+00 0. -1.
        -14    1    3    3    0    0  0.12372354315E+02  0.40192327181E+03  0.47147887887E+02  0.40486826858E+03  0.00000000000E+00 0.  1.
          4    1    6    6  502    0 -0.10880844333E+01 -0.26683392424E+03  0.35105296332E+03  0.44095318358E+03  0.00000000000E+00 0. -1.
         -3    1    6    6    0  502  0.40837728760E+02 -0.20304944192E+03  0.37819512839E+03  0.43119409909E+03  0.00000000000E+00 0.  1.
<mgrwt>
<rscale>  0 0.67286603E+03</rscale>
<asrwt>0</asrwt>
<pdfrwt beam="1">  1        1 0.18755546E+00 0.67286603E+03</pdfrwt>
<pdfrwt beam="2">  1       -2 0.83973071E-01 0.67286603E+03</pdfrwt>
<totfact> 0.11665712E+01</totfact>
</mgrwt>
</event>
<event>
12    3  0.2212098E-007  0.8811080E+03  0.7818608E-02  0.9449510E-01
          1   -1    0    0  501    0  0.00000000000E+00  0.00000000000E+00  0.14053260472E+04  0.14053260472E+04  0.00000000000E+00 0. -1.
         -2   -1    0    0    0  501 -0.00000000000E+00 -0.00000000000E+00 -0.95548996597E+03  0.95548996597E+03  0.00000000000E+00 0.  1.
        -24    2    1    2    0    0 -0.87086174951E+03 -0.18897585940E+01  0.86047845761E+03  0.12262950342E+04  0.70516501723E+02 0.  0.
    5000000    2    1    2    0    0  0.87086174951E+03  0.18897585940E+01 -0.41064237637E+03  0.11345209789E+04  0.60008910374E+03 0.  0.
        -24    2    4    4    0    0  0.22639523080E+03  0.65115195474E+02 -0.41104457242E+03  0.48202893227E+03  0.88878916583E+02 0.  0.
         24    2    4    4    0    0  0.64446651871E+03 -0.63225436880E+02  0.40219604866E+00  0.65249204667E+03  0.80069717152E+02 0.  0.
         11    1    5    5    0    0  0.10798983600E+03  0.59829437552E+02 -0.27597600266E+03  0.30233114349E+03  0.00000000000E+00 0. -1.
        -12    1    5    5    0    0  0.11840539480E+03  0.52857579223E+01 -0.13506856976E+03  0.17969778878E+03  0.00000000000E+00 0.  1.
         13    1    3    3    0    0 -0.25296338644E+03  0.24843796654E+02  0.22365906283E+03  0.33857209793E+03  0.00000000000E+00 0. -1.
        -14    1    3    3    0    0 -0.61789836307E+03 -0.26733555248E+02  0.63681939478E+03  0.88772293630E+03  0.00000000000E+00 0.  1.
          4    1    6    6  502    0  0.25817701738E+03 -0.27800262390E+02  0.39338682790E+02  0.26263236445E+03  0.00000000000E+00 0. -1.
         -3    1    6    6    0  502  0.38628950133E+03 -0.35425174490E+02 -0.38936486742E+02  0.38985968222E+03  0.00000000000E+00 0.  1.
<mgrwt>
<rscale>  0 0.88110800E+03</rscale>
<asrwt>0</asrwt>
<pdfrwt beam="1">  1        1 0.21620401E+00 0.88110800E+03</pdfrwt>
<pdfrwt beam="2">  1       -2 0.14699846E+00 0.88110800E+03</pdfrwt>
<totfact> 0.21392934E+00</totfact>
</mgrwt>
</event>
<event>
12    3  0.2212098E-007  0.1846442E+04  0.7818608E-02  0.8681985E-01
         -2   -1    0    0    0  501 -0.00000000000E+00  0.00000000000E+00  0.10743446248E+04  0.10743446248E+04  0.00000000000E+00 0.  1.
          1   -1    0    0  501    0  0.00000000000E+00 -0.00000000000E+00 -0.33323387354E+04  0.33323387354E+04  0.00000000000E+00 0. -1.
        -24    2    1    2    0    0  0.13130079880E+04  0.12941409447E+04 -0.11212659351E+04  0.21592361414E+04  0.79200100071E+02 0.  0.
    5000000    2    1    2    0    0 -0.13130079880E+04 -0.12941409447E+04 -0.11367281755E+04  0.22474472189E+04  0.60006440953E+03 0.  0.
        -24    2    4    4    0    0 -0.79384343158E+03 -0.70848047498E+03 -0.97277787963E+03  0.14438667918E+04  0.79514350800E+02 0.  0.
         24    2    4    4    0    0 -0.51916455638E+03 -0.58566046971E+03 -0.16395029591E+03  0.80358042715E+03  0.79572488865E+02 0.  0.
         11    1    3    3    0    0  0.28816152017E+03  0.32103884563E+03 -0.23821001978E+03  0.49279510512E+03  0.00000000000E+00 0. -1.
        -12    1    3    3    0    0  0.10248464678E+04  0.97310209907E+03 -0.88305591529E+03  0.16664410362E+04  0.00000000000E+00 0.  1.
         13    1    5    5    0    0 -0.32381049115E+03 -0.32214535400E+03 -0.37594951834E+03  0.59158169649E+03  0.00000000000E+00 0. -1.
        -14    1    5    5    0    0 -0.47003294042E+03 -0.38633512098E+03 -0.59682836129E+03  0.85228509528E+03  0.00000000000E+00 0.  1.
          2    1    6    6  502    0 -0.11626377249E+03 -0.14760516882E+03 -0.72659582510E+02  0.20145462414E+03  0.00000000000E+00 0. -1.
         -1    1    6    6    0  502 -0.40290078390E+03 -0.43805530089E+03 -0.91290713401E+02  0.60212580301E+03  0.00000000000E+00 0.  1.
<mgrwt>
<rscale>  0 0.18464418E+04</rscale>
<asrwt>0</asrwt>
<pdfrwt beam="1">  1        1 0.51266750E+00 0.18464418E+04</pdfrwt>
<pdfrwt beam="2">  1       -2 0.16528379E+00 0.18464418E+04</pdfrwt>
<totfact> 0.62215906E-02</totfact>
</mgrwt>
</event>
<event>
12    3  0.2212098E-007  0.6561129E+03  0.7818608E-02  0.9795376E-01
          1   -1    0    0  501    0  0.00000000000E+00  0.00000000000E+00  0.15496855873E+04  0.15496855873E+04  0.00000000000E+00 0. -1.
         -2   -1    0    0    0  501 -0.00000000000E+00 -0.00000000000E+00 -0.39216276950E+03  0.39216276950E+03  0.00000000000E+00 0.  1.
        -24    2    1    2    0    0 -0.66186443457E+02  0.58741636572E+03  0.86387254609E+03  0.10498316607E+04  0.80200423349E+02 0.  0.
    5000000    2    1    2    0    0  0.66186443457E+02 -0.58741636572E+03  0.29365027175E+03  0.89201669615E+03  0.60002055972E+03 0.  0.
        -24    2    4    4    0    0 -0.16237569868E+03 -0.20812047731E+03 -0.98485433454E+02  0.29516384519E+03  0.87990421669E+02 0.  0.
         24    2    4    4    0    0  0.22856214214E+03 -0.37929588842E+03  0.39213570521E+03  0.59685285096E+03  0.79730111095E+02 0.  0.
         11    1    3    3    0    0 -0.49955314281E+02  0.13837566952E+03  0.20493579244E+03  0.25227373697E+03  0.00000000000E+00 0. -1.
        -12    1    3    3    0    0 -0.16231129176E+02  0.44904069620E+03  0.65893675364E+03  0.79755792373E+03  0.00000000000E+00 0.  1.
         11    1    5    5    0    0 -0.53559155395E+02 -0.11942528517E+03 -0.14777573286E+02  0.13171696374E+03  0.00000000000E+00 0. -1.
        -12    1    5    5    0    0 -0.10881654329E+03 -0.88695192141E+02 -0.83707860169E+02  0.16344688145E+03  0.00000000000E+00 0.  1.
          4    1    6    6  502    0  0.15569014000E+03 -0.22203481564E+03  0.28340553300E+03  0.39224682941E+03  0.00000000000E+00 0. -1.
         -3    1    6    6    0  502  0.72872002140E+02 -0.15726107278E+03  0.10873017221E+03  0.20460602155E+03  0.00000000000E+00 0.  1.
<mgrwt>
<rscale>  0 0.65611295E+03</rscale>
<asrwt>0</asrwt>
<pdfrwt beam="1">  1        1 0.23841316E+00 0.65611295E+03</pdfrwt>
<pdfrwt beam="2">  1       -2 0.60332735E-01 0.65611295E+03</pdfrwt>
<totfact> 0.14200474E+01</totfact>
</mgrwt>
</event>
<event>
12    3  0.2212098E-007  0.6004097E+03  0.7818608E-02  0.9904556E-01
          1   -1    0    0  501    0  0.00000000000E+00  0.00000000000E+00  0.55407715061E+03  0.55407715061E+03  0.00000000000E+00 0. -1.
         -2   -1    0    0    0  501 -0.00000000000E+00 -0.00000000000E+00 -0.10287362919E+04  0.10287362919E+04  0.00000000000E+00 0.  1.
        -24    2    1    2    0    0 -0.51581421641E+03  0.19945420066E+03  0.12172701051E+03  0.57214788679E+03  0.81789090137E+02 0.  0.
    5000000    2    1    2    0    0  0.51581421641E+03 -0.19945420066E+03 -0.59638615179E+03  0.10106655557E+04  0.59993511267E+03 0.  0.
        -24    2    4    4    0    0  0.63684853269E+02  0.86304645552E+02 -0.42147755405E+03  0.44226163926E+03  0.80298048649E+02 0.  0.
         24    2    4    4    0    0  0.45212936314E+03 -0.28575884621E+03 -0.17490859774E+03  0.56840391643E+03  0.80068192513E+02 0.  0.
         11    1    3    3    0    0 -0.17679677272E+03  0.46577544117E+02  0.73870406102E+02  0.19718875058E+03  0.00000000000E+00 0. -1.
        -12    1    3    3    0    0 -0.33901744369E+03  0.15287665654E+03  0.47856604413E+02  0.37495913621E+03  0.00000000000E+00 0.  1.
         11    1    5    5    0    0  0.57410008991E+02  0.57486011985E+02 -0.16318569005E+03  0.18229130573E+03  0.00000000000E+00 0. -1.
        -12    1    5    5    0    0  0.62748442783E+01  0.28818633567E+02 -0.25829186400E+03  0.25997033353E+03  0.00000000000E+00 0.  1.
          4    1    6    6  502    0  0.27911403163E+03 -0.18956823764E+03 -0.14870842063E+03  0.36872069882E+03  0.00000000000E+00 0. -1.
         -3    1    6    6    0  502  0.17301533151E+03 -0.96190608571E+02 -0.26200177113E+02  0.19968321761E+03  0.00000000000E+00 0.  1.
<mgrwt>
<rscale>  0 0.60040971E+03</rscale>
<asrwt>0</asrwt>
<pdfrwt beam="1">  1        1 0.85242640E-01 0.60040971E+03</pdfrwt>
<pdfrwt beam="2">  1       -2 0.15826712E+00 0.60040971E+03</pdfrwt>
<totfact> 0.90592618E+00</totfact>
</mgrwt>
</event>
<event>
12    3  0.2212098E-007  0.6076341E+03  0.7818608E-02  0.9889693E-01
          1   -1    0    0  501    0  0.00000000000E+00  0.00000000000E+00  0.11051612439E+04  0.11051612439E+04  0.00000000000E+00 0. -1.
         -2   -1    0    0    0  501 -0.00000000000E+00 -0.00000000000E+00 -0.82202509197E+03  0.82202509197E+03  0.00000000000E+00 0.  1.
        -24    2    1    2    0    0 -0.41019729065E+03  0.39047674650E+03 -0.52197653360E+03  0.77434418619E+03  0.80096880449E+02 0.  0.
    5000000    2    1    2    0    0  0.41019729065E+03 -0.39047674650E+03  0.80511268552E+03  0.11528421497E+04  0.60008722605E+03 0.  0.
        -24    2    4    4    0    0  0.22061965963E+03 -0.32027222188E+02 -0.88025964162E+01  0.24001805634E+03  0.88500872818E+02 0.  0.
         24    2    4    4    0    0  0.18957763103E+03 -0.35844952431E+03  0.81391528193E+03  0.91282409334E+03  0.79774679884E+02 0.  0.
         11    1    3    3    0    0 -0.72982786147E+02  0.78041257545E+02 -0.59679076353E+02  0.12238675217E+03  0.00000000000E+00 0. -1.
        -12    1    3    3    0    0 -0.33721450450E+03  0.31243548895E+03 -0.46229745724E+03  0.65195743402E+03  0.00000000000E+00 0.  1.
         13    1    5    5    0    0  0.83350863007E+02  0.24724406540E+02  0.18767929050E+02  0.88943227980E+02  0.00000000000E+00 0. -1.
        -14    1    5    5    0    0  0.13726879662E+03 -0.56751628728E+02 -0.27570525466E+02  0.15107482836E+03  0.00000000000E+00 0.  1.
          4    1    6    6  502    0  0.16343962620E+03 -0.23002971292E+03  0.56115221855E+03  0.62810667296E+03  0.00000000000E+00 0. -1.
         -3    1    6    6    0  502  0.26138004826E+02 -0.12841981139E+03  0.25276306339E+03  0.28471742038E+03  0.00000000000E+00 0.  1.
<mgrwt>
<rscale>  0 0.60763412E+03</rscale>
<asrwt>0</asrwt>
<pdfrwt beam="1">  1        1 0.17002481E+00 0.60763412E+03</pdfrwt>
<pdfrwt beam="2">  1       -2 0.12646540E+00 0.60763412E+03</pdfrwt>
<totfact> 0.53806521E+00</totfact>
</mgrwt>
</event>
<event>
12    3  0.2212098E-007  0.1293334E+04  0.7818608E-02  0.9034868E-01
          1   -1    0    0  501    0  0.00000000000E+00  0.00000000000E+00  0.13579368256E+04  0.13579368256E+04  0.00000000000E+00 0. -1.
         -2   -1    0    0    0  501 -0.00000000000E+00 -0.00000000000E+00 -0.12659112589E+04  0.12659112589E+04  0.00000000000E+00 0.  1.
        -24    2    1    2    0    0 -0.69736302398E+03  0.10252299619E+04 -0.12320154538E+02  0.12424663143E+04  0.78479895935E+02 0.  0.
    5000000    2    1    2    0    0  0.69736302398E+03 -0.10252299619E+04  0.10434572123E+03  0.13813817701E+04  0.59992991529E+03 0.  0.
        -24    2    4    4    0    0 -0.77518156550E+02 -0.13805333074E+03 -0.64036311726E+02  0.18855100280E+03  0.79893959169E+02 0.  0.
         24    2    4    4    0    0  0.77488118053E+03 -0.88717663116E+03  0.16838203296E+03  0.11928307673E+04  0.83483600900E+02 0.  0.
         13    1    3    3    0    0 -0.24388668186E+03  0.31126351051E+03 -0.29023993256E+02  0.39649473987E+03  0.00000000000E+00 0. -1.
        -14    1    3    3    0    0 -0.45347634212E+03  0.71396645139E+03  0.16703838718E+02  0.84597157447E+03  0.00000000000E+00 0.  1.
         13    1    5    5    0    0  0.62820202686E+01 -0.81372510023E+00  0.97510898495E+01  0.11627969747E+02  0.00000000000E+00 0. -1.
        -14    1    5    5    0    0 -0.83800176818E+02 -0.13723960564E+03 -0.73787401576E+02  0.17692303305E+03  0.00000000000E+00 0.  1.
          4    1    6    6  502    0  0.89277386943E+02 -0.88525806685E+02 -0.62217747435E+01  0.12588081963E+03  0.00000000000E+00 0. -1.
         -3    1    6    6    0  502  0.68560379359E+03 -0.79865082447E+03  0.17460380770E+03  0.10669499477E+04  0.00000000000E+00 0.  1.
<mgrwt>
<rscale>  0 0.12933335E+04</rscale>
<asrwt>0</asrwt>
<pdfrwt beam="1">  1        1 0.20891336E+00 0.12933335E+04</pdfrwt>
<pdfrwt beam="2">  1       -2 0.19475558E+00 0.12933335E+04</pdfrwt>
<totfact> 0.10022236E+00</totfact>
</mgrwt>
</event>
<event>
12    3  0.2212098E-007  0.1374643E+04  0.7818608E-02  0.8972380E-01
          1   -1    0    0  501    0  0.00000000000E+00  0.00000000000E+00  0.32928434195E+04  0.32928434195E+04  0.00000000000E+00 0. -1.
         -2   -1    0    0    0  501 -0.00000000000E+00 -0.00000000000E+00 -0.62535711523E+03  0.62535711523E+03  0.00000000000E+00 0.  1.
        -24    2    1    2    0    0 -0.59919941556E+03  0.12328029745E+04  0.13294964304E+04  0.19111121584E+04  0.77109077335E+02 0.  0.
    5000000    2    1    2    0    0  0.59919941556E+03 -0.12328029745E+04  0.13379898738E+04  0.20070883763E+04  0.59945286244E+03 0.  0.
        -24    2    4    4    0    0  0.39027677443E+03 -0.82091629176E+03  0.12204626403E+04  0.15238642539E+04  0.80085510633E+02 0.  0.
         24    2    4    4    0    0  0.20892264113E+03 -0.41188668276E+03  0.11752723350E+03  0.48322412246E+03  0.79959943071E+02 0.  0.
         11    1    3    3    0    0 -0.25997772483E+03  0.57225272714E+03  0.65801872277E+03  0.90997265929E+03  0.00000000000E+00 0. -1.
        -12    1    3    3    0    0 -0.33922169073E+03  0.66055024738E+03  0.67147770762E+03  0.10011394991E+04  0.00000000000E+00 0.  1.
         13    1    5    5    0    0  0.15210222217E+03 -0.39518548867E+03  0.52801677404E+03  0.67683703364E+03  0.00000000000E+00 0. -1.
        -14    1    5    5    0    0  0.23817455226E+03 -0.42573080309E+03  0.69244586630E+03  0.84702722022E+03  0.00000000000E+00 0.  1.
          4    1    6    6  502    0  0.20347292680E+03 -0.35045506785E+03  0.11606394742E+03  0.42153389711E+03  0.00000000000E+00 0. -1.
         -3    1    6    6    0  502  0.54497143316E+01 -0.61431614912E+02  0.14632860743E+01  0.61690225345E+02  0.00000000000E+00 0.  1.
<mgrwt>
<rscale>  0 0.13746432E+04</rscale>
<asrwt>0</asrwt>
<pdfrwt beam="1">  1        1 0.50659129E+00 0.13746432E+04</pdfrwt>
<pdfrwt beam="2">  1       -2 0.96208789E-01 0.13746432E+04</pdfrwt>
<totfact> 0.27988387E-01</totfact>
</mgrwt>
</event>
<event>
12    3  0.2212098E-007  0.1501895E+04  0.7818608E-02  0.8883194E-01
          1   -1    0    0  501    0  0.00000000000E+00  0.00000000000E+00  0.17039705351E+04  0.17039705351E+04  0.00000000000E+00 0. -1.
         -2   -1    0    0    0  501 -0.00000000000E+00 -0.00000000000E+00 -0.15290366805E+04  0.15290366805E+04  0.00000000000E+00 0.  1.
        -24    2    1    2    0    0 -0.14039419194E+04 -0.50639127199E+03  0.53013841021E+03  0.15856840748E+04  0.76565119279E+02 0.  0.
    5000000    2    1    2    0    0  0.14039419194E+04  0.50639127199E+03 -0.35520455560E+03  0.16473231409E+04  0.60001518375E+03 0.  0.
        -24    2    4    4    0    0  0.66540676211E+03  0.12113423738E+03  0.10999648779E+03  0.68979702433E+03  0.79253043621E+02 0.  0.
         24    2    4    4    0    0  0.73853515733E+03  0.38525703461E+03 -0.46520104339E+03  0.95752611657E+03  0.81160900835E+02 0.  0.
         13    1    3    3    0    0 -0.50139768546E+03 -0.17500908099E+03  0.22728739841E+03  0.57765680026E+03  0.00000000000E+00 0. -1.
        -14    1    3    3    0    0 -0.90254423398E+03 -0.33138219100E+03  0.30285101180E+03  0.10080272745E+04  0.00000000000E+00 0.  1.
         13    1    5    5    0    0  0.39753775556E+03  0.57289737312E+02  0.28670105403E+02  0.40266655689E+03  0.00000000000E+00 0. -1.
        -14    1    5    5    0    0  0.26786900655E+03  0.63844500070E+02  0.81326382385E+02  0.28713046744E+03  0.00000000000E+00 0.  1.
          4    1    6    6  502    0  0.28540169043E+03  0.12376158082E+03 -0.21082330477E+03  0.37578919572E+03  0.00000000000E+00 0. -1.
         -3    1    6    6    0  502  0.45313346690E+03  0.26149545379E+03 -0.25437773861E+03  0.58173692085E+03  0.00000000000E+00 0.  1.
<mgrwt>
<rscale>  0 0.15018952E+04</rscale>
<asrwt>0</asrwt>
<pdfrwt beam="1">  1        1 0.26214931E+00 0.15018952E+04</pdfrwt>
<pdfrwt beam="2">  1       -2 0.23523641E+00 0.15018952E+04</pdfrwt>
<totfact> 0.30993938E-01</totfact>
</mgrwt>
</event>
<event>
12    3  0.2212098E-007  0.3628670E+03  0.7818608E-02  0.1057454E+00
          1   -1    0    0  501    0  0.00000000000E+00  0.00000000000E+00  0.69770917652E+03  0.69770917652E+03  0.00000000000E+00 0. -1.
         -2   -1    0    0    0  501 -0.00000000000E+00 -0.00000000000E+00 -0.23502902824E+03  0.23502902824E+03  0.00000000000E+00 0.  1.
        -24    2    1    2    0    0 -0.10081152755E+03 -0.11253356612E+03  0.19428804515E+03  0.25831641287E+03  0.78439512214E+02 0.  0.
    5000000    2    1    2    0    0  0.10081152755E+03  0.11253356612E+03  0.26839210312E+03  0.67442179189E+03  0.59998638716E+03 0.  0.
        -24    2    4    4    0    0  0.30370472428E+03  0.14173822853E+03  0.22604248084E+02  0.34508088663E+03  0.79016335704E+02 0.  0.
         24    2    4    4    0    0 -0.20289319673E+03 -0.29204662406E+02  0.24578785504E+03  0.32934090527E+03  0.77686553624E+02 0.  0.
         11    1    5    5    0    0  0.81210400573E+02  0.41297989410E+01 -0.79011725643E+01  0.81698304318E+02  0.00000000000E+00 0. -1.
        -12    1    5    5    0    0  0.22249432371E+03  0.13760842959E+03  0.30505420649E+02  0.26338258231E+03  0.00000000000E+00 0.  1.
         11    1    3    3    0    0  0.51697786298E+01 -0.36364983614E+02  0.24453215528E+02  0.44125937882E+02  0.00000000000E+00 0. -1.
        -12    1    3    3    0    0 -0.10598130618E+03 -0.76168582508E+02  0.16983482962E+03  0.21419047498E+03  0.00000000000E+00 0.  1.
          4    1    6    6  502    0 -0.47773843072E+02 -0.36732443980E+02  0.43545016489E+02  0.74349048303E+02  0.00000000000E+00 0. -1.
         -3    1    6    6    0  502 -0.15511935366E+03  0.75277815737E+01  0.20224283855E+03  0.25499185696E+03  0.00000000000E+00 0.  1.
<mgrwt>
<rscale>  0 0.36286697E+03</rscale>
<asrwt>0</asrwt>
<pdfrwt beam="1">  1        1 0.10733987E+00 0.36286697E+03</pdfrwt>
<pdfrwt beam="2">  1       -2 0.36158312E-01 0.36286697E+03</pdfrwt>
<totfact> 0.17974636E+02</totfact>
</mgrwt>
</event>
<event>
12    3  0.2212098E-007  0.8829689E+03  0.7818608E-02  0.9447125E-01
         -2   -1    0    0    0  501 -0.00000000000E+00  0.00000000000E+00  0.18201604337E+04  0.18201604337E+04  0.00000000000E+00 0.  1.
          1   -1    0    0  501    0  0.00000000000E+00 -0.00000000000E+00 -0.51138657045E+03  0.51138657045E+03  0.00000000000E+00 0. -1.
        -24    2    1    2    0    0  0.52061482556E+03  0.58988110954E+03  0.10394615265E+04  0.13060352077E+04  0.79045422585E+02 0.  0.
    5000000    2    1    2    0    0 -0.52061482556E+03 -0.58988110954E+03  0.26931233678E+03  0.10255117964E+04  0.60012147927E+03 0.  0.
        -24    2    4    4    0    0 -0.43064774148E+03 -0.69684493433E+03  0.26740495891E+03  0.86435303563E+03  0.67456789230E+02 0.  0.
         24    2    4    4    0    0 -0.89967084078E+02  0.10696382479E+03  0.19073778623E+01  0.16115876079E+03  0.80207057413E+02 0.  0.
         11    1    5    5    0    0 -0.26420586624E+03 -0.44046010231E+03  0.13385951461E+03  0.53078075618E+03  0.00000000000E+00 0. -1.
        -12    1    5    5    0    0 -0.16644187524E+03 -0.25638483202E+03  0.13354544430E+03  0.33357227945E+03  0.00000000000E+00 0.  1.
         13    1    3    3    0    0  0.22553800145E+03  0.25799658396E+03  0.51809250631E+03  0.62116782960E+03  0.00000000000E+00 0. -1.
        -14    1    3    3    0    0  0.29507682410E+03  0.33188452558E+03  0.52136902017E+03  0.68486737813E+03  0.00000000000E+00 0.  1.
          2    1    6    6  502    0 -0.77163518328E+02  0.31531858871E+02  0.11117389161E+02  0.84095558898E+02  0.00000000000E+00 0. -1.
         -1    1    6    6    0  502 -0.12803565750E+02  0.75431965917E+02 -0.92100112987E+01  0.77063201894E+02  0.00000000000E+00 0.  1.
<mgrwt>
<rscale>  0 0.88296887E+03</rscale>
<asrwt>0</asrwt>
<pdfrwt beam="1">  1        1 0.78674858E-01 0.88296887E+03</pdfrwt>
<pdfrwt beam="2">  1       -2 0.28002468E+00 0.88296887E+03</pdfrwt>
<totfact> 0.16181658E+00</totfact>
</mgrwt>
</event>
<event>
12    3  0.2212098E-007  0.5884719E+03  0.7818608E-02  0.9929616E-01
         -2   -1    0    0    0  501 -0.00000000000E+00  0.00000000000E+00  0.11738193056E+03  0.11738193056E+03  0.00000000000E+00 0.  1.
          1   -1    0    0  501    0  0.00000000000E+00 -0.00000000000E+00 -0.31928447817E+04  0.31928447817E+04  0.00000000000E+00 0. -1.
        -24    2    1    2    0    0 -0.23556357927E+03  0.37741362775E+03 -0.84428707195E+03  0.95735001425E+03  0.75941712032E+02 0.  0.
    5000000    2    1    2    0    0  0.23556357927E+03 -0.37741362775E+03 -0.22311757792E+04  0.23528766980E+04  0.59996012547E+03 0.  0.
        -24    2    4    4    0    0  0.42456726433E+03 -0.30752398526E+03 -0.17161938725E+04  0.17962591434E+04  0.79982115482E+02 0.  0.
         24    2    4    4    0    0 -0.18900368506E+03 -0.69889642486E+02 -0.51498190668E+03  0.55661755461E+03  0.63322845779E+02 0.  0.
         11    1    3    3    0    0 -0.91065820856E+02  0.19809368180E+03 -0.46593725579E+03  0.51442357725E+03  0.00000000000E+00 0. -1.
        -12    1    3    3    0    0 -0.14449775842E+03  0.17931994595E+03 -0.37834981616E+03  0.44292643700E+03  0.00000000000E+00 0.  1.
         13    1    5    5    0    0  0.25023828173E+03 -0.16771057773E+03 -0.11113498617E+04  0.11514532342E+04  0.00000000000E+00 0. -1.
        -14    1    5    5    0    0  0.17432898260E+03 -0.13981340753E+03 -0.60484401085E+03  0.64480590922E+03  0.00000000000E+00 0.  1.
          4    1    6    6  502    0 -0.17869009517E+03 -0.73175527723E+02 -0.50867215314E+03  0.54408838193E+03  0.00000000000E+00 0. -1.
         -3    1    6    6    0  502 -0.10313589894E+02  0.32858852372E+01 -0.63097535357E+01  0.12529172677E+02  0.00000000000E+00 0.  1.
<mgrwt>
<rscale>  0 0.58847195E+03</rscale>
<asrwt>0</asrwt>
<pdfrwt beam="1">  1        1 0.49120681E+00 0.58847195E+03</pdfrwt>
<pdfrwt beam="2">  1       -2 0.18058761E-01 0.58847195E+03</pdfrwt>
<totfact> 0.10595153E+01</totfact>
</mgrwt>
</event>
<event>
12    3  0.2212098E-007  0.6806256E+03  0.7818608E-02  0.9750951E-01
         -2   -1    0    0    0  501 -0.00000000000E+00  0.00000000000E+00  0.31106338924E+03  0.31106338924E+03  0.00000000000E+00 0.  1.
          1   -1    0    0  501    0  0.00000000000E+00 -0.00000000000E+00 -0.16082153045E+04  0.16082153045E+04  0.00000000000E+00 0. -1.
        -24    2    1    2    0    0  0.31250925600E+03 -0.47466371696E+03 -0.66521105238E+03  0.87851007924E+03  0.79413700584E+02 0.  0.
    5000000    2    1    2    0    0 -0.31250925600E+03  0.47466371696E+03 -0.63194086291E+03  0.10407686145E+04  0.60073486290E+03 0.  0.
        -24    2    4    4    0    0  0.14270818050E+03  0.22699512808E+03 -0.10951997228E+03  0.30070666539E+03  0.80854569015E+02 0.  0.
         24    2    4    4    0    0 -0.45521743650E+03  0.24766858888E+03 -0.52242089064E+03  0.74006194914E+03  0.78774724293E+02 0.  0.
         11    1    3    3    0    0  0.82214448572E+02 -0.11607929403E+03 -0.11728522893E+03  0.18436226019E+03  0.00000000000E+00 0. -1.
        -12    1    3    3    0    0  0.23029480743E+03 -0.35858442293E+03 -0.54792582345E+03  0.69414781905E+03  0.00000000000E+00 0.  1.
         13    1    5    5    0    0  0.49035685797E+02  0.12869189022E+03 -0.22804121716E+02  0.13959272566E+03  0.00000000000E+00 0. -1.
        -14    1    5    5    0    0  0.93672494702E+02  0.98303237858E+02 -0.86715850561E+02  0.16111393973E+03  0.00000000000E+00 0.  1.
          4    1    6    6  502    0 -0.77854646937E+02  0.57338332762E+02 -0.60960166140E+02  0.11430298469E+03  0.00000000000E+00 0. -1.
         -3    1    6    6    0  502 -0.37736278956E+03  0.19033025612E+03 -0.46146072450E+03  0.62575896445E+03  0.00000000000E+00 0.  1.
<mgrwt>
<rscale>  0 0.68062560E+03</rscale>
<asrwt>0</asrwt>
<pdfrwt beam="1">  1        1 0.24741775E+00 0.68062560E+03</pdfrwt>
<pdfrwt beam="2">  1       -2 0.47855905E-01 0.68062560E+03</pdfrwt>
<totfact> 0.20827232E+01</totfact>
</mgrwt>
</event>
<event>
12    3  0.2212098E-007  0.4616968E+03  0.7818608E-02  0.1024290E+00
          3   -1    0    0  501    0  0.00000000000E+00  0.00000000000E+00  0.50746438766E+03  0.50746438766E+03  0.00000000000E+00 0. -1.
         -4   -1    0    0    0  501 -0.00000000000E+00 -0.00000000000E+00 -0.68945916091E+03  0.68945916091E+03  0.00000000000E+00 0.  1.
        -24    2    1    2    0    0 -0.39552104205E+03  0.16145707268E+03 -0.14451650712E+03  0.45942785652E+03  0.87656451512E+02 0.  0.
    5000000    2    1    2    0    0  0.39552104205E+03 -0.16145707268E+03 -0.37478266120E+02  0.73749569206E+03  0.59999166190E+03 0.  0.
        -24    2    4    4    0    0  0.24724499856E+03  0.17480211094E+02 -0.28893054835E+03  0.38907875329E+03  0.80409995659E+02 0.  0.
         24    2    4    4    0    0  0.14827604349E+03 -0.17893728377E+03  0.25145228223E+03  0.34841693877E+03  0.64511831369E+02 0.  0.
         11    1    3    3    0    0 -0.11724272249E+03  0.87033332481E+02 -0.27890927643E+02  0.14865584679E+03  0.00000000000E+00 0. -1.
        -12    1    3    3    0    0 -0.27827831956E+03  0.74423740196E+02 -0.11662557948E+03  0.31077200973E+03  0.00000000000E+00 0.  1.
         11    1    5    5    0    0  0.19228869818E+03  0.37501799828E+02 -0.25462312860E+03  0.32126977146E+03  0.00000000000E+00 0. -1.
        -12    1    5    5    0    0  0.54956300378E+02 -0.20021588734E+02 -0.34307419746E+02  0.67808981826E+02  0.00000000000E+00 0.  1.
          4    1    6    6  502    0  0.87156096058E+02 -0.78237347227E+02  0.16481260704E+03  0.20218917632E+03  0.00000000000E+00 0. -1.
         -3    1    6    6    0  502  0.61119947433E+02 -0.10069993654E+03  0.86639675184E+02  0.14622776245E+03  0.00000000000E+00 0.  1.
<mgrwt>
<rscale>  0 0.46169677E+03</rscale>
<asrwt>0</asrwt>
<pdfrwt beam="1">  1        3 0.78071444E-01 0.46169677E+03</pdfrwt>
<pdfrwt beam="2">  1       -4 0.10607064E+00 0.46169677E+03</pdfrwt>
<totfact> 0.24838455E+00</totfact>
</mgrwt>
</event>
<event>
12    3  0.2212098E-007  0.1024924E+04  0.7818608E-02  0.9281624E-01
          1   -1    0    0  501    0  0.00000000000E+00  0.00000000000E+00  0.73502728534E+03  0.73502728534E+03  0.00000000000E+00 0. -1.
         -2   -1    0    0    0  501 -0.00000000000E+00 -0.00000000000E+00 -0.15503126280E+04  0.15503126280E+04  0.00000000000E+00 0.  1.
        -24    2    1    2    0    0  0.27135240122E+03  0.92739531866E+03 -0.56049844348E+03  0.11197423285E+04  0.77266903177E+02 0.  0.
    5000000    2    1    2    0    0 -0.27135240122E+03 -0.92739531866E+03 -0.25478689922E+03  0.11655975849E+04  0.60000596929E+03 0.  0.
        -24    2    4    4    0    0  0.11535830940E+03 -0.42793666999E+03  0.62089540256E+02  0.45453183957E+03  0.79415043271E+02 0.  0.
         24    2    4    4    0    0 -0.38671071062E+03 -0.49945864866E+03 -0.31687643947E+03  0.71106574533E+03  0.78738179153E+02 0.  0.
         11    1    5    5    0    0  0.39074770331E+02 -0.29008218112E+03  0.42175734871E+02  0.29572504475E+03  0.00000000000E+00 0. -1.
        -12    1    5    5    0    0  0.76283539069E+02 -0.13785448888E+03  0.19913805385E+02  0.15880679482E+03  0.00000000000E+00 0.  1.
         13    1    3    3    0    0  0.98996715978E+02  0.42355387916E+03 -0.21736051138E+03  0.48625490253E+03  0.00000000000E+00 0. -1.
        -14    1    3    3    0    0  0.17235568524E+03  0.50384143950E+03 -0.34313793210E+03  0.63348742595E+03  0.00000000000E+00 0.  1.
          2    1    6    6  502    0 -0.19681023850E+03 -0.23474841557E+03 -0.11173423234E+03  0.32607610656E+03  0.00000000000E+00 0. -1.
         -1    1    6    6    0  502 -0.18990047212E+03 -0.26471023310E+03 -0.20514220713E+03  0.38498963877E+03  0.00000000000E+00 0.  1.
<mgrwt>
<rscale>  0 0.10249236E+04</rscale>
<asrwt>0</asrwt>
<pdfrwt beam="1">  1        1 0.11308112E+00 0.10249236E+04</pdfrwt>
<pdfrwt beam="2">  1       -2 0.23850963E+00 0.10249236E+04</pdfrwt>
<totfact> 0.16716238E+00</totfact>
</mgrwt>
</event>
<event>
12    3  0.2212098E-007  0.8136778E+03  0.7818608E-02  0.9540427E-01
          1   -1    0    0  501    0  0.00000000000E+00  0.00000000000E+00  0.87023230924E+03  0.87023230924E+03  0.00000000000E+00 0. -1.
         -2   -1    0    0    0  501 -0.00000000000E+00 -0.00000000000E+00 -0.13768271070E+04  0.13768271070E+04  0.00000000000E+00 0.  1.
        -24    2    1    2    0    0  0.50455560560E+03  0.59233354100E+03 -0.89690096463E+03  0.11899425384E+04  0.78080223904E+02 0.  0.
    5000000    2    1    2    0    0 -0.50455560560E+03 -0.59233354100E+03  0.39030616689E+03  0.10571168778E+04  0.59976812732E+03 0.  0.
        -24    2    4    4    0    0 -0.41148175688E+03 -0.23292560006E+03  0.46741625153E+03  0.66978027988E+03  0.80969745625E+02 0.  0.
         24    2    4    4    0    0 -0.93073848715E+02 -0.35940794094E+03 -0.77110084646E+02  0.38733659795E+03  0.79037115520E+02 0.  0.
         11    1    3    3    0    0  0.23998393398E+03  0.22247890763E+03 -0.37930855709E+03  0.50096320662E+03  0.00000000000E+00 0. -1.
        -12    1    3    3    0    0  0.26457167161E+03  0.36985463337E+03 -0.51759240754E+03  0.68897933176E+03  0.00000000000E+00 0.  1.
         13    1    5    5    0    0 -0.36636079702E+03 -0.20358762538E+03  0.37283463796E+03  0.56095795035E+03  0.00000000000E+00 0. -1.
        -14    1    5    5    0    0 -0.45120959864E+02 -0.29337974675E+02  0.94581613576E+02  0.10882232953E+03  0.00000000000E+00 0.  1.
          4    1    6    6  502    0  0.20472233553E+01 -0.14202712298E+02  0.11587305682E+02  0.18443801481E+02  0.00000000000E+00 0. -1.
         -3    1    6    6    0  502 -0.95121072070E+02 -0.34520522864E+03 -0.88697390329E+02  0.36889279647E+03  0.00000000000E+00 0.  1.
<mgrwt>
<rscale>  0 0.81367775E+03</rscale>
<asrwt>0</asrwt>
<pdfrwt beam="1">  1        1 0.13388189E+00 0.81367775E+03</pdfrwt>
<pdfrwt beam="2">  1       -2 0.21181955E+00 0.81367775E+03</pdfrwt>
<totfact> 0.19228053E+00</totfact>
</mgrwt>
</event>
<event>
12    3  0.2212098E-007  0.7908216E+03  0.7818608E-02  0.9573398E-01
         -2   -1    0    0    0  501 -0.00000000000E+00  0.00000000000E+00  0.11677520504E+04  0.11677520504E+04  0.00000000000E+00 0.  1.
          1   -1    0    0  501    0  0.00000000000E+00 -0.00000000000E+00 -0.12185561027E+04  0.12185561027E+04  0.00000000000E+00 0. -1.
        -24    2    1    2    0    0 -0.42461010008E+03  0.53432207688E+03 -0.90693352045E+03  0.11378340403E+04  0.79649693783E+02 0.  0.
    5000000    2    1    2    0    0  0.42461010008E+03 -0.53432207688E+03  0.85612946820E+03  0.12484741128E+04  0.59994676860E+03 0.  0.
        -24    2    4    4    0    0  0.42095215535E+03 -0.67947006976E+02  0.37478442216E+03  0.57342637386E+03  0.80851285067E+02 0.  0.
         24    2    4    4    0    0  0.36579447293E+01 -0.46637506990E+03  0.48134504604E+03  0.67504773896E+03  0.80481737961E+02 0.  0.
         11    1    3    3    0    0 -0.40756943191E+03  0.51992320004E+03 -0.89536197231E+03  0.11127021332E+04  0.00000000000E+00 0. -1.
        -12    1    3    3    0    0 -0.17040668172E+02  0.14398876838E+02 -0.11571548138E+02  0.25131907056E+02  0.00000000000E+00 0.  1.
         13    1    5    5    0    0  0.20687224179E+03 -0.38206534098E+02  0.23798364639E+03  0.31763513600E+03  0.00000000000E+00 0. -1.
        -14    1    5    5    0    0  0.21407991356E+03 -0.29740472879E+02  0.13680077576E+03  0.25579123786E+03  0.00000000000E+00 0.  1.
          4    1    6    6  502    0 -0.35129118374E+02 -0.22207848747E+03  0.25207788900E+03  0.33778124826E+03  0.00000000000E+00 0. -1.
         -3    1    6    6    0  502  0.38787063103E+02 -0.24429658243E+03  0.22926715704E+03  0.33726649070E+03  0.00000000000E+00 0.  1.
<mgrwt>
<rscale>  0 0.79082155E+03</rscale>
<asrwt>0</asrwt>
<pdfrwt beam="1">  1        1 0.18747017E+00 0.79082155E+03</pdfrwt>
<pdfrwt beam="2">  1       -2 0.17965416E+00 0.79082155E+03</pdfrwt>
<totfact> 0.16990588E+00</totfact>
</mgrwt>
</event>
<event>
12    3  0.2212098E-007  0.1182887E+04  0.7818608E-02  0.9127969E-01
         -2   -1    0    0    0  501 -0.00000000000E+00  0.00000000000E+00  0.98157700185E+03  0.98157700185E+03  0.00000000000E+00 0.  1.
          1   -1    0    0  501    0  0.00000000000E+00 -0.00000000000E+00 -0.16965818322E+04  0.16965818322E+04  0.00000000000E+00 0. -1.
        -24    2    1    2    0    0  0.10942847057E+04  0.35599625597E+03 -0.75694122050E+03  0.13797244604E+04  0.80543305066E+02 0.  0.
    5000000    2    1    2    0    0 -0.10942847057E+04 -0.35599625597E+03  0.41936390133E+02  0.12984343736E+04  0.59998400837E+03 0.  0.
        -24    2    4    4    0    0 -0.14218172302E+03 -0.18805184754E+03  0.19478355243E+03  0.31658819651E+03  0.81904298705E+02 0.  0.
         24    2    4    4    0    0 -0.95210298272E+03 -0.16794440843E+03 -0.15284716230E+03  0.98184617711E+03  0.77163763862E+02 0.  0.
         11    1    5    5    0    0 -0.17845995864E+02 -0.79479829041E+02  0.88403547273E+02  0.12021110582E+03  0.00000000000E+00 0. -1.
        -12    1    5    5    0    0 -0.12433572716E+03 -0.10857201850E+03  0.10638000516E+03  0.19637709069E+03  0.00000000000E+00 0.  1.
         13    1    3    3    0    0  0.63009289168E+03  0.19817669840E+03 -0.38718436449E+03  0.76563881043E+03  0.00000000000E+00 0. -1.
        -14    1    3    3    0    0  0.46419181406E+03  0.15781955758E+03 -0.36975685601E+03  0.61408565002E+03  0.00000000000E+00 0.  1.
          2    1    6    6  502    0 -0.47015092080E+03 -0.11149709614E+03 -0.10299186616E+03  0.49404535751E+03  0.00000000000E+00 0. -1.
         -1    1    6    6    0  502 -0.48195206191E+03 -0.56447312288E+02 -0.49855296142E+02  0.48780081960E+03  0.00000000000E+00 0.  1.
<mgrwt>
<rscale>  0 0.11828868E+04</rscale>
<asrwt>0</asrwt>
<pdfrwt beam="1">  1        1 0.26101259E+00 0.11828868E+04</pdfrwt>
<pdfrwt beam="2">  1       -2 0.15101185E+00 0.11828868E+04</pdfrwt>
<totfact> 0.12097782E+00</totfact>
</mgrwt>
</event>
<event>
12    3  0.2675807E-007  0.7261586E+03  0.7818608E-02  0.9673514E-01
         -2   -1    0    0    0  501 -0.00000000000E+00  0.00000000000E+00  0.24370117044E+03  0.24370117044E+03  0.00000000000E+00 0.  1.
          1   -1    0    0  501    0  0.00000000000E+00 -0.00000000000E+00 -0.22752946630E+04  0.22752946630E+04  0.00000000000E+00 0. -1.
        -24    2    1    2    0    0 -0.14977425923E+03  0.60206221420E+03 -0.82460533112E+03  0.10351468180E+04  0.81509166465E+02 0.  0.
    5000000    2    1    2    0    0  0.14977425923E+03 -0.60206221420E+03 -0.12069881614E+04  0.14838490154E+04  0.60006353018E+03 0.  0.
        -24    2    4    4    0    0  0.14774447151E+03 -0.70315267631E+03 -0.10928799024E+04  0.13102350714E+04  0.77957335249E+02 0.  0.
         24    2    4    4    0    0  0.20297877139E+01  0.10109046211E+03 -0.11410825905E+03  0.17361394407E+03  0.83052424554E+02 0.  0.
         11    1    3    3    0    0 -0.91151528461E+02  0.25492706649E+03 -0.40883366038E+03  0.49034821528E+03  0.00000000000E+00 0. -1.
        -12    1    3    3    0    0 -0.58622730766E+02  0.34713514771E+03 -0.41577167074E+03  0.54479860272E+03  0.00000000000E+00 0.  1.
         13    1    5    5    0    0  0.89216951494E+02 -0.26739143483E+03 -0.39101498199E+03  0.48202755107E+03  0.00000000000E+00 0. -1.
        -14    1    5    5    0    0  0.58527520019E+02 -0.43576124148E+03 -0.70186492039E+03  0.82820752029E+03  0.00000000000E+00 0.  1.
          2    1    6    6  502    0  0.14382020007E+02  0.90707398546E+02 -0.44302853060E+02  0.10196772744E+03  0.00000000000E+00 0. -1.
         -1    1    6    6    0  502 -0.12352232293E+02  0.10383063563E+02 -0.69805405990E+02  0.71646216627E+02  0.00000000000E+00 0.  1.
<mgrwt>
<rscale>  0 0.72615859E+03</rscale>
<asrwt>0</asrwt>
<pdfrwt beam="1">  1        1 0.35004535E+00 0.72615859E+03</pdfrwt>
<pdfrwt beam="2">  1       -2 0.37492486E-01 0.72615859E+03</pdfrwt>
<totfact> 0.11963329E+01</totfact>
</mgrwt>
</event>
<event>
12    3  0.2212098E-007  0.4914303E+03  0.7818608E-02  0.1016040E+00
          1   -1    0    0  501    0  0.00000000000E+00  0.00000000000E+00  0.12883290375E+04  0.12883290375E+04  0.00000000000E+00 0. -1.
         -2   -1    0    0    0  501 -0.00000000000E+00 -0.00000000000E+00 -0.34852719037E+03  0.34852719037E+03  0.00000000000E+00 0.  1.
        -24    2    1    2    0    0  0.29078297705E+03  0.29440289726E+03  0.78404872901E+03  0.89175358351E+03  0.96250914746E+02 0.  0.
    5000000    2    1    2    0    0 -0.29078297705E+03 -0.29440289726E+03  0.15575311816E+03  0.74510264439E+03  0.59974253743E+03 0.  0.
        -24    2    4    4    0    0  0.77616857681E+02 -0.11730698620E+03  0.26797290426E+03  0.31377589928E+03  0.82828328131E+02 0.  0.
         24    2    4    4    0    0 -0.36839983473E+03 -0.17709591105E+03 -0.11221978610E+03  0.43132674511E+03  0.79800255109E+02 0.  0.
         11    1    5    5    0    0  0.36647838501E+02 -0.10312581181E+03  0.23523906367E+03  0.25945214241E+03  0.00000000000E+00 0. -1.
        -12    1    5    5    0    0  0.40969019180E+02 -0.14181174393E+02  0.32733840595E+02  0.54323756864E+02  0.00000000000E+00 0.  1.
         13    1    3    3    0    0  0.23561707681E+03  0.19469759570E+03  0.50441271676E+03  0.58979212397E+03  0.00000000000E+00 0. -1.
        -14    1    3    3    0    0  0.55165900238E+02  0.99705301551E+02  0.27963601224E+03  0.30196145954E+03  0.00000000000E+00 0.  1.
          2    1    6    6  502    0 -0.28345056891E+03 -0.11827980094E+03 -0.51336387110E+02  0.31139968042E+03  0.00000000000E+00 0. -1.
         -1    1    6    6    0  502 -0.84949265823E+02 -0.58816110115E+02 -0.60883398993E+02  0.11992706469E+03  0.00000000000E+00 0.  1.
<mgrwt>
<rscale>  0 0.49143028E+03</rscale>
<asrwt>0</asrwt>
<pdfrwt beam="1">  1        1 0.19820447E+00 0.49143028E+03</pdfrwt>
<pdfrwt beam="2">  1       -2 0.53619568E-01 0.49143028E+03</pdfrwt>
<totfact> 0.28177259E+01</totfact>
</mgrwt>
</event>
<event>
12    3  0.2212098E-007  0.7842774E+03  0.7818608E-02  0.9583058E-01
          1   -1    0    0  501    0  0.00000000000E+00  0.00000000000E+00  0.48722328945E+03  0.48722328945E+03  0.00000000000E+00 0. -1.
         -2   -1    0    0    0  501 -0.00000000000E+00 -0.00000000000E+00 -0.16046243439E+04  0.16046243439E+04  0.00000000000E+00 0.  1.
        -24    2    1    2    0    0  0.42980235652E+03 -0.65131981105E+03 -0.49937388386E+03  0.92973509581E+03  0.78009682480E+02 0.  0.
    5000000    2    1    2    0    0 -0.42980235652E+03  0.65131981105E+03 -0.61802717058E+03  0.11621125375E+04  0.59966691120E+03 0.  0.
        -24    2    4    4    0    0 -0.21704657142E+03  0.37652160713E+03  0.79294342902E+01  0.44159043520E+03  0.77855646758E+02 0.  0.
         24    2    4    4    0    0 -0.21275578510E+03  0.27479820392E+03 -0.62595660487E+03  0.72052210234E+03  0.80940421330E+02 0.  0.
         11    1    3    3    0    0  0.35115410767E+03 -0.50539069155E+03 -0.42588284818E+03  0.74840173624E+03  0.00000000000E+00 0. -1.
        -12    1    3    3    0    0  0.78648248847E+02 -0.14592911950E+03 -0.73491035674E+02  0.18133335956E+03  0.00000000000E+00 0.  1.
         13    1    5    5    0    0 -0.19582664312E+03  0.31138816427E+03 -0.18144213057E+02  0.36829319227E+03  0.00000000000E+00 0. -1.
        -14    1    5    5    0    0 -0.21219928304E+02  0.65133442855E+02  0.26073647348E+02  0.73297242932E+02  0.00000000000E+00 0.  1.
          2    1    6    6  502    0 -0.15228395306E+03  0.15765986071E+03 -0.45114289562E+03  0.50157446735E+03  0.00000000000E+00 0. -1.
         -1    1    6    6    0  502 -0.60471832044E+02  0.11713834322E+03 -0.17481370925E+03  0.21894763499E+03  0.00000000000E+00 0.  1.
<mgrwt>
<rscale>  0 0.78427743E+03</rscale>
<asrwt>0</asrwt>
<pdfrwt beam="1">  1        1 0.74957427E-01 0.78427743E+03</pdfrwt>
<pdfrwt beam="2">  1       -2 0.24686529E+00 0.78427743E+03</pdfrwt>
<totfact> 0.27793425E+00</totfact>
</mgrwt>
</event>
<event>
12    3  0.2212098E-007  0.1019235E+04  0.7818608E-02  0.9287696E-01
         -2   -1    0    0    0  501 -0.00000000000E+00  0.00000000000E+00  0.42914250241E+03  0.42914250241E+03  0.00000000000E+00 0.  1.
          1   -1    0    0  501    0  0.00000000000E+00 -0.00000000000E+00 -0.28441130105E+04  0.28441130105E+04  0.00000000000E+00 0. -1.
        -24    2    1    2    0    0 -0.92381394237E+03 -0.32321953739E+03 -0.68634838821E+03  0.11981380925E+04  0.80979684146E+02 0.  0.
    5000000    2    1    2    0    0  0.92381394237E+03  0.32321953739E+03 -0.17286221199E+04  0.20751174205E+04  0.60006233487E+03 0.  0.
        -24    2    4    4    0    0  0.98128042334E+02 -0.73756184424E+02 -0.39480401261E+02  0.15195115441E+03  0.80382608874E+02 0.  0.
         24    2    4    4    0    0  0.82568590003E+03  0.39697572181E+03 -0.16891417187E+04  0.19231662660E+04  0.77600334505E+02 0.  0.
         11    1    5    5    0    0  0.45709204209E+02  0.46391507600E+01 -0.34607159132E+02  0.57519636060E+02  0.00000000000E+00 0. -1.
        -12    1    5    5    0    0  0.52418838124E+02 -0.78395335184E+02 -0.48732421286E+01  0.94431518349E+02  0.00000000000E+00 0.  1.
         13    1    3    3    0    0 -0.29345065879E+03 -0.63437928571E+02 -0.20454163536E+03  0.36328355388E+03  0.00000000000E+00 0. -1.
        -14    1    3    3    0    0 -0.63036328358E+03 -0.25978160882E+03 -0.48180675285E+03  0.83485453862E+03  0.00000000000E+00 0.  1.
          2    1    6    6  502    0  0.10873130880E+03  0.55398696166E+02 -0.17428361631E+03  0.21275876472E+03  0.00000000000E+00 0. -1.
         -1    1    6    6    0  502  0.71695459123E+03  0.34157702565E+03 -0.15148581023E+04  0.17104075013E+04  0.00000000000E+00 0.  1.
<mgrwt>
<rscale>  0 0.10192351E+04</rscale>
<asrwt>0</asrwt>
<pdfrwt beam="1">  1        1 0.43755585E+00 0.10192351E+04</pdfrwt>
<pdfrwt beam="2">  1       -2 0.66021924E-01 0.10192351E+04</pdfrwt>
<totfact> 0.14638983E+00</totfact>
</mgrwt>
</event>
<event>
12    3  0.2212098E-007  0.8728816E+03  0.7818608E-02  0.9460130E-01
          1   -1    0    0  501    0  0.00000000000E+00  0.00000000000E+00  0.98176370840E+03  0.98176370840E+03  0.00000000000E+00 0. -1.
         -2   -1    0    0    0  501 -0.00000000000E+00 -0.00000000000E+00 -0.91238564245E+03  0.91238564245E+03  0.00000000000E+00 0.  1.
        -24    2    1    2    0    0  0.15523639898E+03 -0.82219900772E+03  0.17621334270E+03  0.85884106067E+03  0.80294940606E+02 0.  0.
    5000000    2    1    2    0    0 -0.15523639898E+03  0.82219900772E+03 -0.10683527675E+03  0.10353082902E+04  0.60028320940E+03 0.  0.
        -24    2    4    4    0    0  0.83476044651E+02  0.13941814405E+03  0.17798861519E+03  0.25394446578E+03  0.80013596626E+02 0.  0.
         24    2    4    4    0    0 -0.23871244363E+03  0.68278086367E+03 -0.28482389194E+03  0.78136382440E+03  0.78939458578E+02 0.  0.
         13    1    3    3    0    0  0.13223034493E+03 -0.51665333317E+03  0.93247280487E+02  0.54139688410E+03  0.00000000000E+00 0. -1.
        -14    1    3    3    0    0  0.23006054042E+02 -0.30554567455E+03  0.82966062214E+02  0.31744417657E+03  0.00000000000E+00 0.  1.
         13    1    5    5    0    0  0.65741054541E+02  0.14698390388E+03  0.16588180726E+03  0.23117726582E+03  0.00000000000E+00 0. -1.
        -14    1    5    5    0    0  0.17734990110E+02 -0.75657598295E+01  0.12106807922E+02  0.22767199961E+02  0.00000000000E+00 0.  1.
          2    1    6    6  502    0 -0.77631971478E+02  0.14648769985E+03 -0.42035486024E+02  0.17103318768E+03  0.00000000000E+00 0. -1.
         -1    1    6    6    0  502 -0.16108047215E+03  0.53629316382E+03 -0.24278840592E+03  0.61033063672E+03  0.00000000000E+00 0.  1.
<mgrwt>
<rscale>  0 0.87288156E+03</rscale>
<asrwt>0</asrwt>
<pdfrwt beam="1">  1        1 0.15104057E+00 0.87288156E+03</pdfrwt>
<pdfrwt beam="2">  1       -2 0.14036702E+00 0.87288156E+03</pdfrwt>
<totfact> 0.49379845E+00</totfact>
</mgrwt>
</event>
<event>
12    3  0.2212098E-007  0.6237237E+03  0.7818608E-02  0.9857374E-01
          1   -1    0    0  501    0  0.00000000000E+00  0.00000000000E+00  0.40330282371E+03  0.40330282371E+03  0.00000000000E+00 0. -1.
         -2   -1    0    0    0  501 -0.00000000000E+00 -0.00000000000E+00 -0.12333363282E+04  0.12333363282E+04  0.00000000000E+00 0.  1.
        -24    2    1    2    0    0  0.24020765426E+02 -0.55723556414E+03 -0.50082656635E+03  0.75398108495E+03  0.81066366561E+02 0.  0.
    5000000    2    1    2    0    0 -0.24020765426E+02  0.55723556414E+03 -0.32920693819E+03  0.88265806700E+03  0.59968290286E+03 0.  0.
        -24    2    4    4    0    0 -0.19727690302E+02 -0.45376521386E+02  0.10124917642E+03  0.13885688850E+03  0.81127241426E+02 0.  0.
         24    2    4    4    0    0 -0.42930751242E+01  0.60261208553E+03 -0.43045611460E+03  0.74380117850E+03  0.69195161862E+02 0.  0.
         11    1    3    3    0    0 -0.12639476756E+02 -0.30506717865E+02 -0.48764491709E+02  0.58893054422E+02  0.00000000000E+00 0. -1.
        -12    1    3    3    0    0  0.36660242182E+02 -0.52672884628E+03 -0.45206207464E+03  0.69508803053E+03  0.00000000000E+00 0.  1.
         13    1    5    5    0    0 -0.30102307560E+02 -0.57366468195E+02  0.41260216304E+02  0.76807981636E+02  0.00000000000E+00 0. -1.
        -14    1    5    5    0    0  0.10374617258E+02  0.11989946809E+02  0.59988960112E+02  0.62048906864E+02  0.00000000000E+00 0.  1.
          4    1    6    6  502    0  0.21847962854E+02  0.47595808253E+03 -0.35393308326E+03  0.59353353506E+03  0.00000000000E+00 0. -1.
         -3    1    6    6    0  502 -0.26141037978E+02  0.12665400300E+03 -0.76523031337E+02  0.15026764345E+03  0.00000000000E+00 0.  1.
<mgrwt>
<rscale>  0 0.62372372E+03</rscale>
<asrwt>0</asrwt>
<pdfrwt beam="1">  1        1 0.62046588E-01 0.62372372E+03</pdfrwt>
<pdfrwt beam="2">  1       -2 0.18974405E+00 0.62372372E+03</pdfrwt>
<totfact> 0.83772615E+00</totfact>
</mgrwt>
</event>
<event>
12    3  0.2212098E-007  0.6526604E+03  0.7818608E-02  0.9801800E-01
         -2   -1    0    0    0  501 -0.00000000000E+00  0.00000000000E+00  0.28888331664E+03  0.28888331664E+03  0.00000000000E+00 0.  1.
          1   -1    0    0  501    0  0.00000000000E+00 -0.00000000000E+00 -0.15378653247E+04  0.15378653247E+04  0.00000000000E+00 0. -1.
        -24    2    1    2    0    0 -0.27692661395E+03  0.43249647728E+03 -0.33196818116E+03  0.61658260358E+03  0.78928330528E+02 0.  0.
    5000000    2    1    2    0    0  0.27692661395E+03 -0.43249647728E+03 -0.91701382694E+03  0.12101660378E+04  0.59987159283E+03 0.  0.
        -24    2    4    4    0    0  0.34046065309E+03 -0.58032977581E+01 -0.41460422844E+03  0.54289803351E+03  0.83032969244E+02 0.  0.
         24    2    4    4    0    0 -0.63534039137E+02 -0.42669317953E+03 -0.50240959850E+03  0.66726800430E+03  0.82021590519E+02 0.  0.
         11    1    5    5    0    0  0.23195826334E+03 -0.42160213060E+02 -0.28949204580E+03  0.37334670761E+03  0.00000000000E+00 0. -1.
        -12    1    5    5    0    0  0.10850238974E+03  0.36356915302E+02 -0.12511218264E+03  0.16955132590E+03  0.00000000000E+00 0.  1.
         13    1    3    3    0    0 -0.15754159052E+03  0.19745134936E+03 -0.12747969762E+03  0.28294427263E+03  0.00000000000E+00 0. -1.
        -14    1    3    3    0    0 -0.11938502342E+03  0.23504512793E+03 -0.20448848354E+03  0.33363833095E+03  0.00000000000E+00 0.  1.
          4    1    6    6  502    0  0.17171306959E+02 -0.14064728711E+03 -0.15238927455E+03  0.20808412758E+03  0.00000000000E+00 0. -1.
         -3    1    6    6    0  502 -0.80705346096E+02 -0.28604589241E+03 -0.35002032395E+03  0.45918387671E+03  0.00000000000E+00 0.  1.
<mgrwt>
<rscale>  0 0.65266039E+03</rscale>
<asrwt>0</asrwt>
<pdfrwt beam="1">  1        1 0.23659467E+00 0.65266039E+03</pdfrwt>
<pdfrwt beam="2">  1       -2 0.44443587E-01 0.65266039E+03</pdfrwt>
<totfact> 0.27050521E+01</totfact>
</mgrwt>
</event>
<event>
12    3  0.2212098E-007  0.1239162E+04  0.7818608E-02  0.9079252E-01
          1   -1    0    0  501    0  0.00000000000E+00  0.00000000000E+00  0.17818531982E+04  0.17818531982E+04  0.00000000000E+00 0. -1.
         -2   -1    0    0    0  501 -0.00000000000E+00 -0.00000000000E+00 -0.91910587323E+03  0.91910587323E+03  0.00000000000E+00 0.  1.
        -24    2    1    2    0    0 -0.15964032204E+03 -0.11819309235E+04  0.61120390565E+03  0.13423821570E+04  0.77291014464E+02 0.  0.
    5000000    2    1    2    0    0  0.15964032204E+03  0.11819309235E+04  0.25154341936E+03  0.13585769145E+04  0.60000950027E+03 0.  0.
        -24    2    4    4    0    0 -0.16178369346E+03  0.25022912145E+03 -0.78472207059E+02  0.31616610663E+03  0.70813438047E+02 0.  0.
         24    2    4    4    0    0  0.32142401551E+03  0.93170180202E+03  0.33001562642E+03  0.10424108078E+04  0.79550820126E+02 0.  0.
         11    1    3    3    0    0 -0.88551780910E+02 -0.74380364883E+03  0.34367737960E+03  0.82413556358E+03  0.00000000000E+00 0. -1.
        -12    1    3    3    0    0 -0.71088541134E+02 -0.43812727464E+03  0.26752652605E+03  0.51824659344E+03  0.00000000000E+00 0.  1.
         13    1    5    5    0    0 -0.36920326588E+01  0.12272815313E+02  0.10903250110E+02  0.16826585031E+02  0.00000000000E+00 0. -1.
        -14    1    5    5    0    0 -0.15809166080E+03  0.23795630614E+03 -0.89375457169E+02  0.29933952160E+03  0.00000000000E+00 0.  1.
          4    1    6    6  502    0  0.94018783020E+02  0.34793645907E+03  0.15164944397E+03  0.39102028716E+03  0.00000000000E+00 0. -1.
         -3    1    6    6    0  502  0.22740523248E+03  0.58376534295E+03  0.17836618244E+03  0.65139052068E+03  0.00000000000E+00 0.  1.
<mgrwt>
<rscale>  0 0.12391623E+04</rscale>
<asrwt>0</asrwt>
<pdfrwt beam="1">  1        1 0.27413126E+00 0.12391623E+04</pdfrwt>
<pdfrwt beam="2">  1       -2 0.14140090E+00 0.12391623E+04</pdfrwt>
<totfact> 0.12519469E+00</totfact>
</mgrwt>
</event>
<event>
12    3  0.2212098E-007  0.9062042E+03  0.7818608E-02  0.9417859E-01
         -2   -1    0    0    0  501 -0.00000000000E+00  0.00000000000E+00  0.19159334076E+04  0.19159334076E+04  0.00000000000E+00 0.  1.
          1   -1    0    0  501    0  0.00000000000E+00 -0.00000000000E+00 -0.56491991135E+03  0.56491991135E+03  0.00000000000E+00 0. -1.
        -24    2    1    2    0    0 -0.88452555210E+03 -0.71488695858E+02  0.20966260247E+03  0.91551308728E+03  0.81912881444E+02 0.  0.
    5000000    2    1    2    0    0  0.88452555210E+03  0.71488695858E+02  0.11413508938E+04  0.15653402317E+04  0.60009340292E+03 0.  0.
        -24    2    4    4    0    0  0.20142963728E+03  0.10370518040E+03  0.71780247052E+03  0.75698492882E+03  0.80356285124E+02 0.  0.
         24    2    4    4    0    0  0.68309591482E+03 -0.32216484544E+02  0.42354842328E+03  0.80835530288E+03  0.79919322447E+02 0.  0.
         11    1    5    5    0    0  0.84096127344E+02  0.79811606825E+02  0.27882534342E+03  0.30196957356E+03  0.00000000000E+00 0. -1.
        -12    1    5    5    0    0  0.11733350994E+03  0.23893573577E+02  0.43897712710E+03  0.45501535527E+03  0.00000000000E+00 0.  1.
         13    1    3    3    0    0 -0.69461928515E+03 -0.82314048550E+02  0.14293656969E+03  0.71393446257E+03  0.00000000000E+00 0. -1.
        -14    1    3    3    0    0 -0.18990626696E+03  0.10825352692E+02  0.66726032780E+02  0.20157862471E+03  0.00000000000E+00 0.  1.
          2    1    6    6  502    0  0.13691515263E+03  0.19972796274E+02  0.64597339679E+02  0.15270064801E+03  0.00000000000E+00 0. -1.
         -1    1    6    6    0  502  0.54618076219E+03 -0.52189280818E+02  0.35895108361E+03  0.65565465486E+03  0.00000000000E+00 0.  1.
<mgrwt>
<rscale>  0 0.90620416E+03</rscale>
<asrwt>0</asrwt>
<pdfrwt beam="1">  1        1 0.86910756E-01 0.90620416E+03</pdfrwt>
<pdfrwt beam="2">  1       -2 0.29475898E+00 0.90620416E+03</pdfrwt>
<totfact> 0.11432286E+00</totfact>
</mgrwt>
</event>
<event>
12    3  0.2212098E-007  0.1014421E+04  0.7818608E-02  0.9292868E-01
          1   -1    0    0  501    0  0.00000000000E+00  0.00000000000E+00  0.22007882399E+04  0.22007882399E+04  0.00000000000E+00 0. -1.
         -4   -1    0    0    0  501 -0.00000000000E+00 -0.00000000000E+00 -0.85560645969E+03  0.85560645969E+03  0.00000000000E+00 0.  1.
        -24    2    1    2    0    0  0.78396249517E+03  0.52350851254E+03 -0.36431106969E+03  0.10140911162E+04  0.83665285342E+02 0.  0.
    5000000    2    1    2    0    0 -0.78396249517E+03 -0.52350851254E+03  0.17094928499E+04  0.20423035833E+04  0.59998313828E+03 0.  0.
        -24    2    4    4    0    0 -0.25621770185E+03 -0.49244238626E+03  0.10735369500E+04  0.12112831390E+04  0.81106382666E+02 0.  0.
         24    2    4    4    0    0 -0.52774479331E+03 -0.31066126277E+02  0.63595589987E+03  0.83102044432E+03  0.81703128659E+02 0.  0.
         11    1    5    5    0    0 -0.12259022433E+03 -0.22060843861E+03  0.57483469636E+03  0.62779883277E+03  0.00000000000E+00 0. -1.
        -12    1    5    5    0    0 -0.13362747753E+03 -0.27183394765E+03  0.49870225363E+03  0.58348430624E+03  0.00000000000E+00 0.  1.
         13    1    3    3    0    0  0.23812085467E+03  0.18890239457E+03 -0.14991004648E+03  0.33890806738E+03  0.00000000000E+00 0. -1.
        -14    1    3    3    0    0  0.54584164050E+03  0.33460611797E+03 -0.21440102321E+03  0.67518304884E+03  0.00000000000E+00 0.  1.
          4    1    6    6  502    0 -0.51927730128E+02  0.51123629672E+01  0.10427099727E+03  0.11659788284E+03  0.00000000000E+00 0. -1.
         -3    1    6    6    0  502 -0.47581706319E+03 -0.36178489244E+02  0.53168490260E+03  0.71442256148E+03  0.00000000000E+00 0.  1.
<mgrwt>
<rscale>  0 0.10144206E+04</rscale>
<asrwt>0</asrwt>
<pdfrwt beam="1">  1        1 0.33858280E+00 0.10144206E+04</pdfrwt>
<pdfrwt beam="2">  1       -4 0.13163176E+00 0.10144206E+04</pdfrwt>
<totfact> 0.43777343E-01</totfact>
</mgrwt>
</event>
<event>
12    3  0.2212098E-007  0.1017097E+04  0.7818608E-02  0.9289989E-01
         -2   -1    0    0    0  501 -0.00000000000E+00  0.00000000000E+00  0.60751843966E+03  0.60751843966E+03  0.00000000000E+00 0.  1.
          1   -1    0    0  501    0  0.00000000000E+00 -0.00000000000E+00 -0.20692471460E+04  0.20692471460E+04  0.00000000000E+00 0. -1.
        -24    2    1    2    0    0 -0.98557541538E+03 -0.22304109214E+03 -0.96903510476E+03  0.14024301252E+04  0.81700634799E+02 0.  0.
    5000000    2    1    2    0    0  0.98557541538E+03  0.22304109214E+03 -0.49269360162E+03  0.12743354605E+04  0.60006470692E+03 0.  0.
        -24    2    4    4    0    0  0.29364534231E+03  0.11872364117E+03  0.11273212863E+03  0.34557558565E+03  0.79944121348E+02 0.  0.
         24    2    4    4    0    0  0.69193007308E+03  0.10431745097E+03 -0.60542573025E+03  0.92875987480E+03  0.80032703242E+02 0.  0.
         13    1    3    3    0    0 -0.52140039567E+03 -0.11138394780E+03 -0.56679187930E+03  0.77815023670E+03  0.00000000000E+00 0. -1.
        -14    1    3    3    0    0 -0.46417501971E+03 -0.11165714433E+03 -0.40224322546E+03  0.62427988854E+03  0.00000000000E+00 0.  1.
         13    1    5    5    0    0  0.17438781980E+03  0.94001524978E+02  0.10328408202E+03  0.22341665110E+03  0.00000000000E+00 0. -1.
        -14    1    5    5    0    0  0.11925752251E+03  0.24722116189E+02  0.94480466165E+01  0.12215893454E+03  0.00000000000E+00 0.  1.
          4    1    6    6  502    0  0.32401338005E+03  0.86509716314E+02 -0.30770175678E+03  0.45513621323E+03  0.00000000000E+00 0. -1.
         -3    1    6    6    0  502  0.36791669303E+03  0.17807734656E+02 -0.29772397347E+03  0.47362366157E+03  0.00000000000E+00 0.  1.
<mgrwt>
<rscale>  0 0.10170970E+04</rscale>
<asrwt>0</asrwt>
<pdfrwt beam="1">  1        1 0.31834571E+00 0.10170970E+04</pdfrwt>
<pdfrwt beam="2">  1       -2 0.93464375E-01 0.10170970E+04</pdfrwt>
<totfact> 0.22841344E+00</totfact>
</mgrwt>
</event>
<event>
12    3  0.2212098E-007  0.1124421E+04  0.7818608E-02  0.9181712E-01
          1   -1    0    0  501    0  0.00000000000E+00  0.00000000000E+00  0.11467877205E+04  0.11467877205E+04  0.00000000000E+00 0. -1.
         -2   -1    0    0    0  501 -0.00000000000E+00 -0.00000000000E+00 -0.11543144186E+04  0.11543144186E+04  0.00000000000E+00 0.  1.
        -24    2    1    2    0    0  0.10279833914E+04  0.19988731627E+03  0.21984160942E+03  0.10728829810E+04  0.77735226700E+02 0.  0.
    5000000    2    1    2    0    0 -0.10279833914E+04 -0.19988731627E+03 -0.22736830753E+03  0.12282191581E+04  0.60010095886E+03 0.  0.
        -24    2    4    4    0    0 -0.47846804683E+03  0.19260416837E+03 -0.40046159523E+02  0.52289419122E+03  0.76069723372E+02 0.  0.
         24    2    4    4    0    0 -0.54951534462E+03 -0.39249148464E+03 -0.18732214800E+03  0.70532496690E+03  0.79856385570E+02 0.  0.
         11    1    3    3    0    0  0.61061726435E+03  0.15748475625E+03  0.13047957827E+03  0.64395637455E+03  0.00000000000E+00 0. -1.
        -12    1    3    3    0    0  0.41736612710E+03  0.42402560019E+02  0.89362031157E+02  0.42892660649E+03  0.00000000000E+00 0.  1.
         13    1    5    5    0    0 -0.30300200903E+03  0.88738003560E+02 -0.35387848952E+01  0.31574859263E+03  0.00000000000E+00 0. -1.
        -14    1    5    5    0    0 -0.17546603780E+03  0.10386616481E+03 -0.36507374628E+02  0.20714559859E+03  0.00000000000E+00 0.  1.
          2    1    6    6  502    0 -0.22804125927E+03 -0.12008077855E+03 -0.88753302144E+02  0.27257908568E+03  0.00000000000E+00 0. -1.
         -1    1    6    6    0  502 -0.32147408535E+03 -0.27241070609E+03 -0.98568845861E+02  0.43274588122E+03  0.00000000000E+00 0.  1.
<mgrwt>
<rscale>  0 0.11244205E+04</rscale>
<asrwt>0</asrwt>
<pdfrwt beam="1">  1        1 0.17642888E+00 0.11244205E+04</pdfrwt>
<pdfrwt beam="2">  1       -2 0.17758683E+00 0.11244205E+04</pdfrwt>
<totfact> 0.18990887E+00</totfact>
</mgrwt>
</event>
<event>
12    3  0.2212098E-007  0.4190095E+03  0.7818608E-02  0.1037389E+00
         -2   -1    0    0    0  501 -0.00000000000E+00  0.00000000000E+00  0.77531586808E+03  0.77531586808E+03  0.00000000000E+00 0.  1.
          1   -1    0    0  501    0  0.00000000000E+00 -0.00000000000E+00 -0.80522548441E+03  0.80522548441E+03  0.00000000000E+00 0. -1.
        -24    2    1    2    0    0  0.21363535426E+03 -0.15496631086E+03 -0.63260540966E+03  0.69008702182E+03  0.79849052965E+02 0.  0.
    5000000    2    1    2    0    0 -0.21363535426E+03  0.15496631086E+03  0.60269579333E+03  0.89045433067E+03  0.60001006126E+03 0.  0.
        -24    2    4    4    0    0  0.40632733626E+02  0.26129818587E+03  0.52456834625E+03  0.59331533608E+03  0.83206833610E+02 0.  0.
         24    2    4    4    0    0 -0.25426808789E+03 -0.10633187500E+03  0.78127447081E+02  0.29713899459E+03  0.78923735057E+02 0.  0.
         11    1    3    3    0    0  0.79124621211E+02 -0.10624437883E+03 -0.29095173095E+03  0.31968966742E+03  0.00000000000E+00 0. -1.
        -12    1    3    3    0    0  0.13451073305E+03 -0.48721932030E+02 -0.34165367872E+03  0.37039735440E+03  0.00000000000E+00 0.  1.
         11    1    5    5    0    0  0.64265839188E+02  0.20324535839E+03  0.42876122773E+03  0.47882665360E+03  0.00000000000E+00 0. -1.
        -12    1    5    5    0    0 -0.23633105562E+02  0.58052827477E+02  0.95807118525E+02  0.11448868248E+03  0.00000000000E+00 0.  1.
          4    1    6    6  502    0  0.55952864917E+01 -0.56640965107E+01  0.30118486370E+01  0.85123705523E+01  0.00000000000E+00 0. -1.
         -3    1    6    6    0  502 -0.25986337438E+03 -0.10066777849E+03  0.75115598444E+02  0.28862662403E+03  0.00000000000E+00 0.  1.
<mgrwt>
<rscale>  0 0.41900952E+03</rscale>
<asrwt>0</asrwt>
<pdfrwt beam="1">  1        1 0.12388084E+00 0.41900952E+03</pdfrwt>
<pdfrwt beam="2">  1       -2 0.11927936E+00 0.41900952E+03</pdfrwt>
<totfact> 0.11084333E+01</totfact>
</mgrwt>
</event>
<event>
12    3  0.2212098E-007  0.7587607E+03  0.7818608E-02  0.9621705E-01
          1   -1    0    0  501    0  0.00000000000E+00  0.00000000000E+00  0.14339996551E+04  0.14339996551E+04  0.00000000000E+00 0. -1.
         -2   -1    0    0    0  501 -0.00000000000E+00 -0.00000000000E+00 -0.45059933253E+03  0.45059933253E+03  0.00000000000E+00 0.  1.
        -24    2    1    2    0    0  0.25737123426E+03 -0.59945240372E+03  0.16355323681E+03  0.67721483632E+03  0.79291466798E+02 0.  0.
    5000000    2    1    2    0    0 -0.25737123426E+03  0.59945240372E+03  0.81984708580E+03  0.12073841514E+04  0.60003675579E+03 0.  0.
        -24    2    4    4    0    0 -0.32880460691E+03  0.66223751088E+03  0.77849859645E+03  0.10769377088E+04  0.84046258291E+02 0.  0.
         24    2    4    4    0    0  0.71433372649E+02 -0.62785107160E+02  0.41348489352E+02  0.13044644260E+03  0.79132044110E+02 0.  0.
         11    1    5    5    0    0 -0.67512617703E+01  0.60612993231E+02  0.77774022994E+02  0.98834776959E+02  0.00000000000E+00 0. -1.
        -12    1    5    5    0    0 -0.32205334514E+03  0.60162451765E+03  0.70072457345E+03  0.97810293180E+03  0.00000000000E+00 0.  1.
         11    1    3    3    0    0  0.21623610549E+03 -0.42689739502E+03  0.13765382176E+03  0.49794378582E+03  0.00000000000E+00 0. -1.
        -12    1    3    3    0    0  0.41135128776E+02 -0.17255500870E+03  0.25899415045E+02  0.17927105050E+03  0.00000000000E+00 0.  1.
          4    1    6    6  502    0  0.40845509006E+02  0.75210232170E+01  0.33528620102E+02  0.53376865420E+02  0.00000000000E+00 0. -1.
         -3    1    6    6    0  502  0.30587863643E+02 -0.70306130377E+02  0.78198692502E+01  0.77069577175E+02  0.00000000000E+00 0.  1.
<mgrwt>
<rscale>  0 0.75876075E+03</rscale>
<asrwt>0</asrwt>
<pdfrwt beam="1">  1        1 0.22061533E+00 0.75876075E+03</pdfrwt>
<pdfrwt beam="2">  1       -2 0.69322975E-01 0.75876075E+03</pdfrwt>
<totfact> 0.12474517E+01</totfact>
</mgrwt>
</event>
<event>
12    3  0.2212098E-007  0.5406179E+03  0.7818608E-02  0.1003689E+00
          1   -1    0    0  501    0  0.00000000000E+00  0.00000000000E+00  0.82986346019E+03  0.82986346019E+03  0.00000000000E+00 0. -1.
         -2   -1    0    0    0  501 -0.00000000000E+00 -0.00000000000E+00 -0.57453027636E+03  0.57453027636E+03  0.00000000000E+00 0.  1.
        -24    2    1    2    0    0  0.31602329936E+03 -0.35319982414E+03  0.40084043428E+03  0.62606782274E+03  0.81651842693E+02 0.  0.
    5000000    2    1    2    0    0 -0.31602329936E+03  0.35319982414E+03 -0.14550725045E+03  0.77832591381E+03  0.59999835555E+03 0.  0.
        -24    2    4    4    0    0 -0.17186543110E+03  0.40003262843E+03 -0.31091454957E+03  0.54106360985E+03  0.80735014406E+02 0.  0.
         24    2    4    4    0    0 -0.14415786826E+03 -0.46832804298E+02  0.16540729913E+03  0.23726230396E+03  0.77194713133E+02 0.  0.
         11    1    5    5    0    0 -0.57973675449E+02  0.18494099791E+03 -0.95608171886E+02  0.21611349399E+03  0.00000000000E+00 0. -1.
        -12    1    5    5    0    0 -0.11389175565E+03  0.21509163053E+03 -0.21530637769E+03  0.32495011587E+03  0.00000000000E+00 0.  1.
         13    1    3    3    0    0  0.14234553506E+03 -0.19655144810E+03  0.24608023461E+03  0.34561568970E+03  0.00000000000E+00 0. -1.
        -14    1    3    3    0    0  0.17367776430E+03 -0.15664837604E+03  0.15476019967E+03  0.28045213305E+03  0.00000000000E+00 0.  1.
          4    1    6    6  502    0 -0.61685896598E+02  0.16071520324E+02  0.83767619876E+02  0.10526375323E+03  0.00000000000E+00 0. -1.
         -3    1    6    6    0  502 -0.82471971660E+02 -0.62904324622E+02  0.81639679250E+02  0.13199855073E+03  0.00000000000E+00 0.  1.
<mgrwt>
<rscale>  0 0.54061785E+03</rscale>
<asrwt>0</asrwt>
<pdfrwt beam="1">  1        1 0.12767130E+00 0.54061785E+03</pdfrwt>
<pdfrwt beam="2">  1       -2 0.88389273E-01 0.54061785E+03</pdfrwt>
<totfact> 0.21044778E+01</totfact>
</mgrwt>
</event>
<event>
12    3  0.2212098E-007  0.5125263E+03  0.7818608E-02  0.1010560E+00
          1   -1    0    0  501    0  0.00000000000E+00  0.00000000000E+00  0.60120905693E+03  0.60120905693E+03  0.00000000000E+00 0. -1.
         -2   -1    0    0    0  501 -0.00000000000E+00 -0.00000000000E+00 -0.62802747286E+03  0.62802747286E+03  0.00000000000E+00 0.  1.
        -24    2    1    2    0    0 -0.39454187530E+03  0.23616968658E+03 -0.70818118104E+02  0.47210244845E+03  0.80162982465E+02 0.  0.
    5000000    2    1    2    0    0  0.39454187530E+03 -0.23616968658E+03  0.43999702176E+02  0.75713408133E+03  0.59989718377E+03 0.  0.
        -24    2    4    4    0    0 -0.88812491959E+01 -0.11503166066E+03 -0.21579513709E+03  0.25610680966E+03  0.75577756124E+02 0.  0.
         24    2    4    4    0    0  0.40342312450E+03 -0.12113802592E+03  0.25979483927E+03  0.50102727168E+03  0.78168598233E+02 0.  0.
         11    1    3    3    0    0 -0.18770173679E+03  0.13719241841E+03 -0.13138884272E+01  0.23249823218E+03  0.00000000000E+00 0. -1.
        -12    1    3    3    0    0 -0.20684013851E+03  0.98977268170E+02 -0.69504229677E+02  0.23960421627E+03  0.00000000000E+00 0.  1.
         13    1    5    5    0    0  0.31543847591E+02 -0.32373032539E+02 -0.83671809003E+02  0.95099943104E+02  0.00000000000E+00 0. -1.
        -14    1    5    5    0    0 -0.40425096787E+02 -0.82658628118E+02 -0.13212332809E+03  0.16100686655E+03  0.00000000000E+00 0.  1.
          2    1    6    6  502    0  0.53875810092E+02  0.57386369285E+01  0.16460318559E+02  0.56625762282E+02  0.00000000000E+00 0. -1.
         -1    1    6    6    0  502  0.34954731441E+03 -0.12687666285E+03  0.24333452071E+03  0.44440150939E+03  0.00000000000E+00 0.  1.
<mgrwt>
<rscale>  0 0.51252635E+03</rscale>
<asrwt>0</asrwt>
<pdfrwt beam="1">  1        1 0.92493702E-01 0.51252635E+03</pdfrwt>
<pdfrwt beam="2">  1       -2 0.96619610E-01 0.51252635E+03</pdfrwt>
<totfact> 0.27939442E+01</totfact>
</mgrwt>
</event>
<event>
12    3  0.2212098E-007  0.3213436E+03  0.7818608E-02  0.1075033E+00
          3   -1    0    0  501    0  0.00000000000E+00  0.00000000000E+00  0.67071440300E+03  0.67071440300E+03  0.00000000000E+00 0. -1.
         -4   -1    0    0    0  501 -0.00000000000E+00 -0.00000000000E+00 -0.21681199588E+03  0.21681199588E+03  0.00000000000E+00 0.  1.
        -24    2    1    2    0    0  0.76874636694E+02 -0.97867122925E+02  0.11209090696E+03  0.18591699679E+03  0.80703622942E+02 0.  0.
    5000000    2    1    2    0    0 -0.76874636694E+02  0.97867122925E+02  0.34181150016E+03  0.70160940209E+03  0.59994413736E+03 0.  0.
        -24    2    4    4    0    0 -0.14673352332E+03 -0.16383693290E+03  0.35352440226E+03  0.42495087575E+03  0.85032207780E+02 0.  0.
         24    2    4    4    0    0  0.69858886629E+02  0.26170405582E+03 -0.11712902099E+02  0.27665852634E+03  0.55076957489E+02 0.  0.
         11    1    3    3    0    0  0.63606520899E+02 -0.19774036990E+02  0.68314403586E+02  0.95413100657E+02  0.00000000000E+00 0. -1.
        -12    1    3    3    0    0  0.13268115795E+02 -0.78093085935E+02  0.43776503376E+02  0.90503896134E+02  0.00000000000E+00 0.  1.
         13    1    5    5    0    0 -0.80793062531E+02 -0.67013775282E+02  0.96913070778E+02  0.14286535031E+03  0.00000000000E+00 0. -1.
        -14    1    5    5    0    0 -0.65940460792E+02 -0.96823157617E+02  0.25661133148E+03  0.28208552544E+03  0.00000000000E+00 0.  1.
          4    1    6    6  502    0  0.23367847520E+02  0.17330810552E+03 -0.21996108966E+02  0.17625431781E+03  0.00000000000E+00 0. -1.
         -3    1    6    6    0  502  0.46491039109E+02  0.88395950303E+02  0.10283206867E+02  0.10040420853E+03  0.00000000000E+00 0.  1.
<mgrwt>
<rscale>  0 0.32134360E+03</rscale>
<asrwt>0</asrwt>
<pdfrwt beam="1">  1        3 0.10318683E+00 0.32134360E+03</pdfrwt>
<pdfrwt beam="2">  1       -4 0.33355692E-01 0.32134360E+03</pdfrwt>
<totfact> 0.15723323E+01</totfact>
</mgrwt>
</event>
<event>
12    3  0.2212098E-007  0.6891994E+03  0.7818608E-02  0.9735883E-01
         -2   -1    0    0    0  501 -0.00000000000E+00  0.00000000000E+00  0.38184929191E+03  0.38184929191E+03  0.00000000000E+00 0.  1.
          1   -1    0    0  501    0  0.00000000000E+00 -0.00000000000E+00 -0.15899026198E+04  0.15899026198E+04  0.00000000000E+00 0. -1.
        -24    2    1    2    0    0 -0.37320204904E+03 -0.48684334051E+03 -0.20514424430E+03  0.65178140072E+03  0.80241047770E+02 0.  0.
    5000000    2    1    2    0    0  0.37320204904E+03  0.48684334051E+03 -0.10029090836E+04  0.13199705110E+04  0.60016607066E+03 0.  0.
        -24    2    4    4    0    0  0.20601545115E+03  0.53495212860E+03 -0.96092353555E+03  0.11219589798E+04  0.82472815196E+02 0.  0.
         24    2    4    4    0    0  0.16718659790E+03 -0.48108788097E+02 -0.41985548071E+02  0.19801153120E+03  0.84734681401E+02 0.  0.
         13    1    3    3    0    0 -0.19461220292E+03 -0.18963747209E+03 -0.82089110845E+02  0.28385718674E+03  0.00000000000E+00 0. -1.
        -14    1    3    3    0    0 -0.17858984612E+03 -0.29720586842E+03 -0.12305513345E+03  0.36792421398E+03  0.00000000000E+00 0.  1.
         13    1    5    5    0    0  0.10438290434E+03  0.24126948874E+03 -0.51797451454E+03  0.58086517767E+03  0.00000000000E+00 0. -1.
        -14    1    5    5    0    0  0.10163254680E+03  0.29368263986E+03 -0.44294902101E+03  0.54109380216E+03  0.00000000000E+00 0.  1.
          4    1    6    6  502    0  0.80554537818E+02  0.11148559825E+02 -0.45128260278E+02  0.93004751626E+02  0.00000000000E+00 0. -1.
         -3    1    6    6    0  502  0.86632060079E+02 -0.59257347922E+02  0.31427122069E+01  0.10500677957E+03  0.00000000000E+00 0.  1.
<mgrwt>
<rscale>  0 0.68919943E+03</rscale>
<asrwt>0</asrwt>
<pdfrwt beam="1">  1        1 0.24460040E+00 0.68919943E+03</pdfrwt>
<pdfrwt beam="2">  1       -2 0.58746045E-01 0.68919943E+03</pdfrwt>
<totfact> 0.14038332E+01</totfact>
</mgrwt>
</event>
<event>
12    3  0.2212098E-007  0.8716100E+03  0.7818608E-02  0.9461783E-01
          1   -1    0    0  501    0  0.00000000000E+00  0.00000000000E+00  0.76425325373E+03  0.76425325373E+03  0.00000000000E+00 0. -1.
         -2   -1    0    0    0  501 -0.00000000000E+00 -0.00000000000E+00 -0.15143824825E+04  0.15143824825E+04  0.00000000000E+00 0.  1.
        -24    2    1    2    0    0  0.74865675074E+03 -0.41844276423E+03 -0.86882118584E+03  0.12251208186E+04  0.10241821082E+03 0.  0.
    5000000    2    1    2    0    0 -0.74865675074E+03  0.41844276423E+03  0.11869195707E+03  0.10535149176E+04  0.60018715711E+03 0.  0.
        -24    2    4    4    0    0 -0.68271838520E+03  0.39956176366E+03  0.29537329448E+03  0.84760965159E+03  0.73774940899E+02 0.  0.
         24    2    4    4    0    0 -0.65938365536E+02  0.18881000572E+02 -0.17668133741E+03  0.20590526601E+03  0.80475607161E+02 0.  0.
         11    1    5    5    0    0 -0.46584827918E+03  0.31062361306E+03  0.20022754059E+03  0.59463662536E+03  0.00000000000E+00 0. -1.
        -12    1    5    5    0    0 -0.21687010602E+03  0.88938150601E+02  0.95145753891E+02  0.25297302623E+03  0.00000000000E+00 0.  1.
         13    1    3    3    0    0  0.32945929372E+03 -0.12774782023E+03 -0.34061730111E+03  0.49079840832E+03  0.00000000000E+00 0. -1.
        -14    1    3    3    0    0  0.41919745702E+03 -0.29069494401E+03 -0.52820388473E+03  0.73432241031E+03  0.00000000000E+00 0.  1.
          4    1    6    6  502    0 -0.41695946324E+02 -0.14519408326E+02 -0.15093967898E+03  0.15726459185E+03  0.00000000000E+00 0. -1.
         -3    1    6    6    0  502 -0.24242419212E+02  0.33400408898E+02 -0.25741658426E+02  0.48640674156E+02  0.00000000000E+00 0.  1.
<mgrwt>
<rscale>  0 0.87161004E+03</rscale>
<asrwt>0</asrwt>
<pdfrwt beam="1">  1        1 0.11757743E+00 0.87161004E+03</pdfrwt>
<pdfrwt beam="2">  1       -2 0.23298192E+00 0.87161004E+03</pdfrwt>
<totfact> 0.17340763E+00</totfact>
</mgrwt>
</event>
<event>
12    3  0.4807684E-007  0.1601860E+04  0.7818608E-02  0.8819406E-01
         -2   -1    0    0    0  501 -0.00000000000E+00  0.00000000000E+00  0.20993205326E+04  0.20993205326E+04  0.00000000000E+00 0.  1.
          1   -1    0    0  501    0  0.00000000000E+00 -0.00000000000E+00 -0.12386460221E+04  0.12386460221E+04  0.00000000000E+00 0. -1.
        -24    2    1    2    0    0 -0.15003385789E+04  0.40652433129E+03  0.48026288153E+03  0.16288548686E+04  0.78980150075E+02 0.  0.
    5000000    2    1    2    0    0  0.15003385789E+04 -0.40652433129E+03  0.38041162898E+03  0.17091116862E+04  0.60005988453E+03 0.  0.
        -24    2    4    4    0    0  0.15232046265E+04 -0.35483234123E+03  0.37994843857E+03  0.16113954409E+04  0.78588334780E+02 0.  0.
         24    2    4    4    0    0 -0.22866047523E+02 -0.51691990062E+02  0.46319041296E+00  0.97716245338E+02  0.79707791914E+02 0.  0.
         11    1    5    5    0    0  0.12208406465E+04 -0.26115463250E+03  0.32560165731E+03  0.12902209366E+04  0.00000000000E+00 0. -1.
        -12    1    5    5    0    0  0.30236398001E+03 -0.93677708727E+02  0.54346781257E+02  0.32117450421E+03  0.00000000000E+00 0.  1.
         13    1    3    3    0    0 -0.53057931492E+03  0.17499942799E+03  0.14852274341E+03  0.57809879305E+03  0.00000000000E+00 0. -1.
        -14    1    3    3    0    0 -0.96975926402E+03  0.23152490330E+03  0.33174013812E+03  0.10507560755E+04  0.00000000000E+00 0.  1.
          2    1    6    6  502    0 -0.22167714289E+02  0.78098105485E+01  0.24122605193E+02  0.33679382104E+02  0.00000000000E+00 0. -1.
         -1    1    6    6    0  502 -0.69833323462E+00 -0.59501800610E+02 -0.23659414781E+02  0.64036863234E+02  0.00000000000E+00 0.  1.
<mgrwt>
<rscale>  0 0.16018604E+04</rscale>
<asrwt>0</asrwt>
<pdfrwt beam="1">  1        1 0.19056093E+00 0.16018604E+04</pdfrwt>
<pdfrwt beam="2">  1       -2 0.32297239E+00 0.16018604E+04</pdfrwt>
<totfact> 0.18859077E-01</totfact>
</mgrwt>
</event>
<event>
12    3  0.2212098E-007  0.7856979E+03  0.7818608E-02  0.9580953E-01
          1   -1    0    0  501    0  0.00000000000E+00  0.00000000000E+00  0.27854546790E+04  0.27854546790E+04  0.00000000000E+00 0. -1.
         -2   -1    0    0    0  501 -0.00000000000E+00 -0.00000000000E+00 -0.22996668814E+03  0.22996668814E+03  0.00000000000E+00 0.  1.
        -24    2    1    2    0    0 -0.58279059567E+03  0.34194948924E+03  0.88691982518E+03  0.11178200131E+04  0.79501407181E+02 0.  0.
    5000000    2    1    2    0    0  0.58279059567E+03 -0.34194948924E+03  0.16685681656E+04  0.18976013540E+04  0.60016401411E+03 0.  0.
        -24    2    4    4    0    0  0.29769483057E+03 -0.48169338020E+03  0.11282677197E+04  0.12658563260E+04  0.93559960010E+02 0.  0.
         24    2    4    4    0    0  0.28509576511E+03  0.13974389097E+03  0.54030044596E+03  0.63174502803E+03  0.79807632421E+02 0.  0.
         11    1    5    5    0    0  0.23154265616E+03 -0.40480459534E+03  0.99035704373E+03  0.10946624302E+04  0.00000000000E+00 0. -1.
        -12    1    5    5    0    0  0.66152174405E+02 -0.76888784866E+02  0.13791067595E+03  0.17119389579E+03  0.00000000000E+00 0.  1.
         13    1    3    3    0    0 -0.16047689621E+03  0.12972579584E+03  0.30288519862E+03  0.36649837635E+03  0.00000000000E+00 0. -1.
        -14    1    3    3    0    0 -0.42231369947E+03  0.21222369339E+03  0.58403462655E+03  0.75132163672E+03  0.00000000000E+00 0.  1.
          2    1    6    6  502    0  0.27389674043E+03  0.14742036314E+03  0.53062374761E+03  0.61507214977E+03  0.00000000000E+00 0. -1.
         -1    1    6    6    0  502  0.11199024677E+02 -0.76764721743E+01  0.96766983498E+01  0.16672878267E+02  0.00000000000E+00 0.  1.
<mgrwt>
<rscale>  0 0.78569789E+03</rscale>
<asrwt>0</asrwt>
<pdfrwt beam="1">  1        1 0.42853147E+00 0.78569789E+03</pdfrwt>
<pdfrwt beam="2">  1       -2 0.35379492E-01 0.78569789E+03</pdfrwt>
<totfact> 0.59229871E+00</totfact>
</mgrwt>
</event>
<event>
12    3  0.2212098E-007  0.3606067E+03  0.7818608E-02  0.1058344E+00
         -2   -1    0    0    0  501 -0.00000000000E+00  0.00000000000E+00  0.20589112823E+03  0.20589112823E+03  0.00000000000E+00 0.  1.
          1   -1    0    0  501    0  0.00000000000E+00 -0.00000000000E+00 -0.12073528301E+04  0.12073528301E+04  0.00000000000E+00 0. -1.
        -24    2    1    2    0    0 -0.11408760546E+03 -0.23936781526E+03 -0.55437401872E+03  0.61937559993E+03  0.77347582091E+02 0.  0.
    5000000    2    1    2    0    0  0.11408760546E+03  0.23936781526E+03 -0.44708768316E+03  0.79386835841E+03  0.60002220071E+03 0.  0.
        -24    2    4    4    0    0  0.11422530823E+03  0.32543902267E+03 -0.24829952925E+02  0.35565838575E+03  0.83176813356E+02 0.  0.
         24    2    4    4    0    0 -0.13770277053E+00 -0.86071207403E+02 -0.42225773024E+03  0.43820997266E+03  0.79486588094E+02 0.  0.
         11    1    5    5    0    0  0.47272802030E+02  0.15028717917E+03 -0.52611997106E+02  0.16609929643E+03  0.00000000000E+00 0. -1.
        -12    1    5    5    0    0  0.66952506200E+02  0.17515184349E+03  0.27782044181E+02  0.18955908932E+03  0.00000000000E+00 0.  1.
         13    1    3    3    0    0 -0.72587377878E+02 -0.15119308087E+03 -0.42873652173E+03  0.46037297944E+03  0.00000000000E+00 0. -1.
        -14    1    3    3    0    0 -0.41500227581E+02 -0.88174734390E+02 -0.12563749699E+03  0.15900262050E+03  0.00000000000E+00 0.  1.
          2    1    6    6  502    0 -0.27955135736E+02 -0.76696320900E+02 -0.36317997418E+03  0.37224119721E+03  0.00000000000E+00 0. -1.
         -1    1    6    6    0  502  0.27817432965E+02 -0.93748865032E+01 -0.59077756057E+02  0.65968775451E+02  0.00000000000E+00 0.  1.
<mgrwt>
<rscale>  0 0.36060670E+03</rscale>
<asrwt>0</asrwt>
<pdfrwt beam="1">  1        1 0.18574659E+00 0.36060670E+03</pdfrwt>
<pdfrwt beam="2">  1       -2 0.31675558E-01 0.36060670E+03</pdfrwt>
<totfact> 0.91463204E+01</totfact>
</mgrwt>
</event>
<event>
12    3  0.2212098E-007  0.6272075E+03  0.7818608E-02  0.9850513E-01
         -2   -1    0    0    0  501 -0.00000000000E+00  0.00000000000E+00  0.21977313404E+03  0.21977313404E+03  0.00000000000E+00 0.  1.
          1   -1    0    0  501    0  0.00000000000E+00 -0.00000000000E+00 -0.28402186178E+04  0.28402186178E+04  0.00000000000E+00 0. -1.
        -24    2    1    2    0    0  0.25460081364E+03  0.44746888646E+03 -0.27916499649E+03  0.58885197825E+03  0.61348010343E+02 0.  0.
    5000000    2    1    2    0    0 -0.25460081364E+03 -0.44746888646E+03 -0.23412804873E+04  0.24711397736E+04  0.59990622757E+03 0.  0.
        -24    2    4    4    0    0  0.94720287126E+02 -0.34834102490E+03 -0.15957403957E+04  0.16380217269E+04  0.80089731367E+02 0.  0.
         24    2    4    4    0    0 -0.34932110077E+03 -0.99127861553E+02 -0.74554009160E+03  0.83311804666E+03  0.80025540415E+02 0.  0.
         13    1    3    3    0    0  0.20543985492E+03  0.39967791695E+03 -0.25098345512E+03  0.51472387357E+03  0.00000000000E+00 0. -1.
        -14    1    3    3    0    0  0.49160958720E+02  0.47790969508E+02 -0.28181541374E+02  0.74128104677E+02  0.00000000000E+00 0.  1.
         13    1    5    5    0    0  0.74751678900E+02 -0.12807943158E+03 -0.67336236660E+03  0.68949911606E+03  0.00000000000E+00 0. -1.
        -14    1    5    5    0    0  0.19968608226E+02 -0.22026159332E+03 -0.92237802908E+03  0.94852261088E+03  0.00000000000E+00 0.  1.
          2    1    6    6  502    0 -0.30285392677E+03 -0.10416015435E+03 -0.68873465633E+03  0.75955596604E+03  0.00000000000E+00 0. -1.
         -1    1    6    6    0  502 -0.46467173993E+02  0.50322927941E+01 -0.56805435266E+02  0.73562080622E+02  0.00000000000E+00 0.  1.
<mgrwt>
<rscale>  0 0.62720749E+03</rscale>
<asrwt>0</asrwt>
<pdfrwt beam="1">  1        1 0.43695669E+00 0.62720749E+03</pdfrwt>
<pdfrwt beam="2">  1       -2 0.33811253E-01 0.62720749E+03</pdfrwt>
<totfact> 0.60842556E+00</totfact>
</mgrwt>
</event>
<event>
12    3  0.2212098E-007  0.4598608E+03  0.7818608E-02  0.1024822E+00
          1   -1    0    0  501    0  0.00000000000E+00  0.00000000000E+00  0.17576144743E+04  0.17576144743E+04  0.00000000000E+00 0. -1.
         -2   -1    0    0    0  501 -0.00000000000E+00 -0.00000000000E+00 -0.20283723377E+03  0.20283723377E+03  0.00000000000E+00 0.  1.
        -24    2    1    2    0    0  0.95950695249E+02  0.41217203501E+03  0.36928727771E+03  0.56607453464E+03  0.70533417089E+02 0.  0.
    5000000    2    1    2    0    0 -0.95950695249E+02 -0.41217203501E+03  0.11854899629E+04  0.13943771735E+04  0.59984075179E+03 0.  0.
        -24    2    4    4    0    0 -0.99682608834E+02 -0.38364201494E+03  0.29598557603E+03  0.50013214827E+03  0.73531533226E+02 0.  0.
         24    2    4    4    0    0  0.37319135853E+01 -0.28530020069E+02  0.88950438683E+03  0.89424502521E+03  0.87339691434E+02 0.  0.
         11    1    5    5    0    0 -0.10088107672E+03 -0.26287581188E+03  0.19243559538E+03  0.34104566041E+03  0.00000000000E+00 0. -1.
        -12    1    5    5    0    0  0.11984678860E+01 -0.12076620306E+03  0.10354998065E+03  0.15908648786E+03  0.00000000000E+00 0.  1.
         13    1    3    3    0    0  0.68126920213E+02  0.14302060728E+03  0.13944659880E+03  0.21104863250E+03  0.00000000000E+00 0. -1.
        -14    1    3    3    0    0  0.27823775036E+02  0.26915142773E+03  0.22984067891E+03  0.35502590214E+03  0.00000000000E+00 0.  1.
          2    1    6    6  502    0 -0.12645726294E+02  0.27358083844E+02  0.43176632782E+03  0.43281698324E+03  0.00000000000E+00 0. -1.
         -1    1    6    6    0  502  0.16377639879E+02 -0.55888103913E+02  0.45773805901E+03  0.46142804197E+03  0.00000000000E+00 0.  1.
<mgrwt>
<rscale>  0 0.45986079E+03</rscale>
<asrwt>0</asrwt>
<pdfrwt beam="1">  1        1 0.27040222E+00 0.45986079E+03</pdfrwt>
<pdfrwt beam="2">  1       -2 0.31205729E-01 0.45986079E+03</pdfrwt>
<totfact> 0.39139877E+01</totfact>
</mgrwt>
</event>
<event>
12    3  0.2212098E-007  0.5183147E+03  0.7818608E-02  0.1009106E+00
         -2   -1    0    0    0  501 -0.00000000000E+00  0.00000000000E+00  0.38116466212E+03  0.38116466212E+03  0.00000000000E+00 0.  1.
          1   -1    0    0  501    0  0.00000000000E+00 -0.00000000000E+00 -0.14994760524E+04  0.14994760524E+04  0.00000000000E+00 0. -1.
        -24    2    1    2    0    0  0.25565852189E+03 -0.25903628381E+03  0.17300645332E+03  0.41101543171E+03  0.80878773933E+02 0.  0.
    5000000    2    1    2    0    0 -0.25565852189E+03  0.25903628381E+03 -0.12913178436E+04  0.14696252828E+04  0.59986300313E+03 0.  0.
        -24    2    4    4    0    0 -0.25181507372E+03 -0.12160966089E+03 -0.73964790931E+03  0.79463629614E+03  0.78537076697E+02 0.  0.
         24    2    4    4    0    0 -0.38434481693E+01  0.38064594470E+03 -0.55166993428E+03  0.67498898666E+03  0.79776615735E+02 0.  0.
         11    1    3    3    0    0  0.50745821788E+02 -0.86773187014E+02  0.76982205156E+02  0.12661352346E+03  0.00000000000E+00 0. -1.
        -12    1    3    3    0    0  0.20491270010E+03 -0.17226309680E+03  0.96024248160E+02  0.28440190825E+03  0.00000000000E+00 0.  1.
         13    1    5    5    0    0 -0.14398632819E+03 -0.65884575248E+02 -0.30897594507E+03  0.34718723276E+03  0.00000000000E+00 0. -1.
        -14    1    5    5    0    0 -0.10782874554E+03 -0.55725085641E+02 -0.43067196424E+03  0.44744906338E+03  0.00000000000E+00 0.  1.
          4    1    6    6  502    0  0.36954725041E+02  0.15198265253E+03 -0.21020835287E+03  0.26201513313E+03  0.00000000000E+00 0. -1.
         -3    1    6    6    0  502 -0.40798173210E+02  0.22866329217E+03 -0.34146158140E+03  0.41297385353E+03  0.00000000000E+00 0.  1.
<mgrwt>
<rscale>  0 0.51831467E+03</rscale>
<asrwt>0</asrwt>
<pdfrwt beam="1">  1        1 0.23068862E+00 0.51831467E+03</pdfrwt>
<pdfrwt beam="2">  1       -2 0.58640719E-01 0.51831467E+03</pdfrwt>
<totfact> 0.16678457E+01</totfact>
</mgrwt>
</event>
<event>
12    3  0.2212098E-007  0.7759439E+03  0.7818608E-02  0.9595505E-01
         -4   -1    0    0    0  501 -0.00000000000E+00  0.00000000000E+00  0.29820549391E+04  0.29820549391E+04  0.00000000000E+00 0.  1.
          1   -1    0    0  501    0  0.00000000000E+00 -0.00000000000E+00 -0.22712451449E+03  0.22712451449E+03  0.00000000000E+00 0. -1.
        -24    2    1    2    0    0  0.60763694030E+03 -0.33519606737E+03  0.15022112628E+04  0.16565288382E+04  0.76616310095E+02 0.  0.
    5000000    2    1    2    0    0 -0.60763694030E+03  0.33519606737E+03  0.12527191618E+04  0.15526506154E+04  0.59986630198E+03 0.  0.
        -24    2    4    4    0    0 -0.14550804323E+02  0.25228137715E+03  0.17636979608E+03  0.31830789379E+03  0.79724469996E+02 0.  0.
         24    2    4    4    0    0 -0.59308613597E+03  0.82914690215E+02  0.10763493657E+04  0.12343427216E+04  0.80299356554E+02 0.  0.
         11    1    3    3    0    0  0.27403383476E+03 -0.10802170516E+03  0.62902962259E+03  0.69458008716E+03  0.00000000000E+00 0. -1.
        -12    1    3    3    0    0  0.33360310553E+03 -0.22717436221E+03  0.87318164023E+03  0.96194875108E+03  0.00000000000E+00 0.  1.
         11    1    5    5    0    0 -0.24250928415E+02  0.20476974580E+03  0.17392147599E+03  0.26975439966E+03  0.00000000000E+00 0. -1.
        -12    1    5    5    0    0  0.97001240919E+01  0.47511631356E+02  0.24483200880E+01  0.48553494135E+02  0.00000000000E+00 0.  1.
          2    1    6    6  502    0 -0.30405902193E+03  0.35146871529E+02  0.46913620058E+03  0.56015709054E+03  0.00000000000E+00 0. -1.
         -1    1    6    6    0  502 -0.28902711404E+03  0.47767818686E+02  0.60721316516E+03  0.67418563104E+03  0.00000000000E+00 0.  1.
<mgrwt>
<rscale>  0 0.77594386E+03</rscale>
<asrwt>0</asrwt>
<pdfrwt beam="1">  1        1 0.34942235E-01 0.77594386E+03</pdfrwt>
<pdfrwt beam="2">  1       -4 0.45877766E+00 0.77594386E+03</pdfrwt>
<totfact> 0.16182415E-01</totfact>
</mgrwt>
</event>
<event>
12    3  0.2589397E-007  0.1079609E+04  0.7818608E-02  0.9225297E-01
         -2   -1    0    0    0  501 -0.00000000000E+00  0.00000000000E+00  0.22772854485E+04  0.22772854485E+04  0.00000000000E+00 0.  1.
          1   -1    0    0  501    0  0.00000000000E+00 -0.00000000000E+00 -0.10178994041E+04  0.10178994041E+04  0.00000000000E+00 0. -1.
        -24    2    1    2    0    0 -0.18782618032E+03  0.10395478050E+04 -0.48848972681E+03  0.11665586914E+04  0.79364062651E+02 0.  0.
    5000000    2    1    2    0    0  0.18782618032E+03 -0.10395478050E+04  0.17478757712E+04  0.21286261612E+04  0.60003442407E+03 0.  0.
        -24    2    4    4    0    0  0.26058643081E+03 -0.57934772242E+03  0.14071668682E+04  0.15459463155E+04  0.79261238951E+02 0.  0.
         24    2    4    4    0    0 -0.72760250490E+02 -0.46020008255E+03  0.34070890294E+03  0.58267984574E+03  0.79718730874E+02 0.  0.
         11    1    5    5    0    0  0.17994953187E+03 -0.43329182443E+03  0.95605520682E+03  0.10649719234E+04  0.00000000000E+00 0. -1.
        -12    1    5    5    0    0  0.80636898939E+02 -0.14605589799E+03  0.45111166140E+03  0.48097439210E+03  0.00000000000E+00 0.  1.
         11    1    3    3    0    0 -0.11756471266E+03  0.53366992484E+03 -0.28964809691E+03  0.61848287801E+03  0.00000000000E+00 0. -1.
        -12    1    3    3    0    0 -0.70261467660E+02  0.50587788013E+03 -0.19884162990E+03  0.54807581339E+03  0.00000000000E+00 0.  1.
          2    1    6    6  502    0 -0.58640053556E+02 -0.39197872160E+03  0.32169583677E+03  0.51046467602E+03  0.00000000000E+00 0. -1.
         -1    1    6    6    0  502 -0.14120196934E+02 -0.68221360959E+02  0.19013066165E+02  0.72215169719E+02  0.00000000000E+00 0.  1.
<mgrwt>
<rscale>  0 0.10796092E+04</rscale>
<asrwt>0</asrwt>
<pdfrwt beam="1">  1        1 0.15659991E+00 0.10796092E+04</pdfrwt>
<pdfrwt beam="2">  1       -2 0.35035161E+00 0.10796092E+04</pdfrwt>
<totfact> 0.19946438E-01</totfact>
</mgrwt>
</event>
<event>
12    3  0.2212098E-007  0.8749636E+03  0.7818608E-02  0.9457431E-01
         -2   -1    0    0    0  501 -0.00000000000E+00  0.00000000000E+00  0.96479909638E+03  0.96479909638E+03  0.00000000000E+00 0.  1.
          1   -1    0    0  501    0  0.00000000000E+00 -0.00000000000E+00 -0.11875781990E+04  0.11875781990E+04  0.00000000000E+00 0. -1.
        -24    2    1    2    0    0 -0.61232490042E+03  0.61341409681E+03 -0.57256933933E+03  0.10417941917E+04  0.79251824602E+02 0.  0.
    5000000    2    1    2    0    0  0.61232490042E+03 -0.61341409681E+03  0.34979023674E+03  0.11105831036E+04  0.59985246730E+03 0.  0.
        -24    2    4    4    0    0  0.46930851213E+03 -0.45555962018E+03  0.50920007345E+03  0.83266170966E+03  0.79093367821E+02 0.  0.
         24    2    4    4    0    0  0.14301638828E+03 -0.15785447664E+03 -0.15940983671E+03  0.27792139398E+03  0.80355971012E+02 0.  0.
         11    1    5    5    0    0  0.35412792456E+03 -0.29321325326E+03  0.35608929665E+03  0.58153261821E+03  0.00000000000E+00 0. -1.
        -12    1    5    5    0    0  0.11518058757E+03 -0.16234636691E+03  0.15311077680E+03  0.25112909145E+03  0.00000000000E+00 0.  1.
         13    1    3    3    0    0 -0.19572436110E+03  0.18042049838E+03 -0.21834927944E+03  0.34429055984E+03  0.00000000000E+00 0. -1.
        -14    1    3    3    0    0 -0.41660053931E+03  0.43299359844E+03 -0.35422005989E+03  0.69750363187E+03  0.00000000000E+00 0.  1.
          4    1    6    6  502    0  0.22646776547E+02 -0.73907150134E+02 -0.79244456216E+02  0.11070152289E+03  0.00000000000E+00 0. -1.
         -3    1    6    6    0  502  0.12036961174E+03 -0.83947326505E+02 -0.80165380498E+02  0.16721987109E+03  0.00000000000E+00 0.  1.
<mgrwt>
<rscale>  0 0.87496363E+03</rscale>
<asrwt>0</asrwt>
<pdfrwt beam="1">  1        1 0.18270434E+00 0.87496363E+03</pdfrwt>
<pdfrwt beam="2">  1       -2 0.14843063E+00 0.87496363E+03</pdfrwt>
<totfact> 0.29817728E+00</totfact>
</mgrwt>
</event>
<event>
12    3  0.2212098E-007  0.3363618E+03  0.7818608E-02  0.1068356E+00
         -2   -1    0    0    0  501 -0.00000000000E+00  0.00000000000E+00  0.86316362671E+02  0.86316362671E+02  0.00000000000E+00 0.  1.
          1   -1    0    0  501    0  0.00000000000E+00 -0.00000000000E+00 -0.25347674517E+04  0.25347674517E+04  0.00000000000E+00 0. -1.
        -24    2    1    2    0    0  0.17155263678E+03 -0.20052711181E+03 -0.61291682204E+03  0.67203207687E+03  0.79489948071E+02 0.  0.
    5000000    2    1    2    0    0 -0.17155263678E+03  0.20052711181E+03 -0.18355342670E+04  0.19490517375E+04  0.59997933332E+03 0.  0.
        -24    2    4    4    0    0 -0.72006799724E+02  0.25236353318E+03 -0.17755815314E+04  0.17966692041E+04  0.80362443836E+02 0.  0.
         24    2    4    4    0    0 -0.99545837054E+02 -0.51836421368E+02 -0.59952735623E+02  0.15238253339E+03  0.83843411905E+02 0.  0.
         11    1    3    3    0    0  0.17074118529E+03 -0.16761091802E+03 -0.56803166415E+03  0.61636510582E+03  0.00000000000E+00 0. -1.
        -12    1    3    3    0    0  0.81145148740E+00 -0.32916193786E+02 -0.44885157887E+02  0.55666971046E+02  0.00000000000E+00 0.  1.
         13    1    5    5    0    0 -0.43107964083E+02  0.72845723601E+02 -0.78382330480E+03  0.78838047234E+03  0.00000000000E+00 0. -1.
        -14    1    5    5    0    0 -0.28898835640E+02  0.17951780958E+03 -0.99175822657E+03  0.10082887318E+04  0.00000000000E+00 0.  1.
          4    1    6    6  502    0 -0.58788383890E+02  0.10366533120E+02 -0.49786138629E+01  0.59902635045E+02  0.00000000000E+00 0. -1.
         -3    1    6    6    0  502 -0.40757453164E+02 -0.62202954488E+02 -0.54974121760E+02  0.92479898350E+02  0.00000000000E+00 0.  1.
<mgrwt>
<rscale>  0 0.33636176E+03</rscale>
<asrwt>0</asrwt>
<pdfrwt beam="1">  1        1 0.38996426E+00 0.33636176E+03</pdfrwt>
<pdfrwt beam="2">  1       -2 0.13279439E-01 0.33636176E+03</pdfrwt>
<totfact> 0.54447836E+01</totfact>
</mgrwt>
</event>
<event>
12    3  0.2212098E-007  0.6531880E+03  0.7818608E-02  0.9800815E-01
         -2   -1    0    0    0  501 -0.00000000000E+00  0.00000000000E+00  0.92140028412E+03  0.92140028412E+03  0.00000000000E+00 0.  1.
          1   -1    0    0  501    0  0.00000000000E+00 -0.00000000000E+00 -0.93696873525E+03  0.93696873525E+03  0.00000000000E+00 0. -1.
        -24    2    1    2    0    0  0.54702842101E+03  0.96714581668E+01  0.61735113819E+03  0.82889061476E+03  0.81262493928E+02 0.  0.
    5000000    2    1    2    0    0 -0.54702842101E+03 -0.96714581668E+01 -0.63291958931E+03  0.10294784046E+04  0.59992078520E+03 0.  0.
        -24    2    4    4    0    0  0.87865173542E+02 -0.75383505178E+02 -0.23620931623E+03  0.27396292574E+03  0.76536801840E+02 0.  0.
         24    2    4    4    0    0 -0.63489359456E+03  0.65712047011E+02 -0.39671027308E+03  0.75551547886E+03  0.77567058081E+02 0.  0.
         11    1    3    3    0    0  0.19609098047E+03  0.33496289677E+02  0.18640408159E+03  0.27261723291E+03  0.00000000000E+00 0. -1.
        -12    1    3    3    0    0  0.35093744054E+03 -0.23824831510E+02  0.43094705660E+03  0.55627338186E+03  0.00000000000E+00 0.  1.
         11    1    5    5    0    0  0.72758884155E+02 -0.66033232335E+02 -0.11413347514E+03  0.15060110605E+03  0.00000000000E+00 0. -1.
        -12    1    5    5    0    0  0.15106289387E+02 -0.93502728429E+01 -0.12207584109E+03  0.12336181969E+03  0.00000000000E+00 0.  1.
          2    1    6    6  502    0 -0.96061512156E+02  0.25271183895E+02 -0.35173551294E+02  0.10537374229E+03  0.00000000000E+00 0. -1.
         -1    1    6    6    0  502 -0.53883208240E+03  0.40440863116E+02 -0.36153672179E+03  0.65014173657E+03  0.00000000000E+00 0.  1.
<mgrwt>
<rscale>  0 0.65318801E+03</rscale>
<asrwt>0</asrwt>
<pdfrwt beam="1">  1        1 0.14414903E+00 0.65318801E+03</pdfrwt>
<pdfrwt beam="2">  1       -2 0.14175389E+00 0.65318801E+03</pdfrwt>
<totfact> 0.53741900E+00</totfact>
</mgrwt>
</event>
<event>
12    3  0.2212098E-007  0.7343932E+03  0.7818608E-02  0.9660158E-01
         -2   -1    0    0    0  501 -0.00000000000E+00  0.00000000000E+00  0.34146408301E+03  0.34146408301E+03  0.00000000000E+00 0.  1.
          1   -1    0    0  501    0  0.00000000000E+00 -0.00000000000E+00 -0.24159729408E+04  0.24159729408E+04  0.00000000000E+00 0. -1.
        -24    2    1    2    0    0 -0.11841688380E+02 -0.72827924895E+03 -0.14536256032E+04  0.16278480890E+04  0.79568315083E+02 0.  0.
    5000000    2    1    2    0    0  0.11841688380E+02  0.72827924895E+03 -0.62088325464E+03  0.11295889348E+04  0.59995354460E+03 0.  0.
        -24    2    4    4    0    0  0.36205487160E+01  0.40316011324E+03 -0.67490542203E+03  0.79025893364E+03  0.80378282121E+02 0.  0.
         24    2    4    4    0    0  0.82211396644E+01  0.32511913570E+03  0.54022167388E+02  0.33933000115E+03  0.80351823688E+02 0.  0.
         13    1    5    5    0    0  0.12309099764E+02  0.19567210270E+03 -0.40260483067E+03  0.44780546601E+03  0.00000000000E+00 0. -1.
        -14    1    5    5    0    0 -0.86885510482E+01  0.20748801054E+03 -0.27230059136E+03  0.34245346763E+03  0.00000000000E+00 0.  1.
         13    1    3    3    0    0  0.27135845563E+02 -0.52652514735E+03 -0.10461616688E+04  0.11715030184E+04  0.00000000000E+00 0. -1.
        -14    1    3    3    0    0 -0.38977533944E+02 -0.20175410160E+03 -0.40746393441E+03  0.45634507065E+03  0.00000000000E+00 0.  1.
          4    1    6    6  502    0  0.36894020220E+02  0.12998256957E+03  0.42983961444E+02  0.14178948502E+03  0.00000000000E+00 0. -1.
         -3    1    6    6    0  502 -0.28672880556E+02  0.19513656613E+03  0.11038205944E+02  0.19754051613E+03  0.00000000000E+00 0.  1.
<mgrwt>
<rscale>  0 0.73439319E+03</rscale>
<asrwt>0</asrwt>
<pdfrwt beam="1">  1        1 0.37168814E+00 0.73439319E+03</pdfrwt>
<pdfrwt beam="2">  1       -2 0.52532936E-01 0.73439319E+03</pdfrwt>
<totfact> 0.49078269E+00</totfact>
</mgrwt>
</event>
<event>
12    3  0.2212098E-007  0.5377386E+03  0.7818608E-02  0.1004372E+00
          1   -1    0    0  501    0  0.00000000000E+00  0.00000000000E+00  0.17213945266E+04  0.17213945266E+04  0.00000000000E+00 0. -1.
         -2   -1    0    0    0  501 -0.00000000000E+00 -0.00000000000E+00 -0.27998972504E+03  0.27998972504E+03  0.00000000000E+00 0.  1.
        -24    2    1    2    0    0 -0.42876771393E+03 -0.23888026231E+03  0.19651892647E+03  0.53472460112E+03  0.80032358124E+02 0.  0.
    5000000    2    1    2    0    0  0.42876771393E+03  0.23888026231E+03  0.12448858751E+04  0.14666596506E+04  0.60037001611E+03 0.  0.
        -24    2    4    4    0    0  0.38045747641E+03  0.62659944707E+02  0.11997780066E+04  0.12626902394E+04  0.79026676625E+02 0.  0.
         24    2    4    4    0    0  0.48310237528E+02  0.17622031761E+03  0.45107868566E+02  0.20396941116E+03  0.78621380642E+02 0.  0.
         11    1    5    5    0    0  0.24588297577E+03  0.25735706068E+01  0.72518978069E+03  0.76574491775E+03  0.00000000000E+00 0. -1.
        -12    1    5    5    0    0  0.13457450063E+03  0.60086374101E+02  0.47458822588E+03  0.49694532166E+03  0.00000000000E+00 0.  1.
         11    1    3    3    0    0 -0.25810281187E+03 -0.16624348677E+03  0.15803231747E+03  0.34529432627E+03  0.00000000000E+00 0. -1.
        -12    1    3    3    0    0 -0.17066490206E+03 -0.72636775541E+02  0.38486609000E+02  0.18943027485E+03  0.00000000000E+00 0.  1.
          4    1    6    6  502    0 -0.37237646039E+01  0.81966051738E+02 -0.10625448356E+02  0.82735725132E+02  0.00000000000E+00 0. -1.
         -3    1    6    6    0  502  0.52034002132E+02  0.94254265869E+02  0.55733316921E+02  0.12123368603E+03  0.00000000000E+00 0.  1.
<mgrwt>
<rscale>  0 0.53773862E+03</rscale>
<asrwt>0</asrwt>
<pdfrwt beam="1">  1        1 0.26482992E+00 0.53773862E+03</pdfrwt>
<pdfrwt beam="2">  1       -2 0.43075343E-01 0.53773862E+03</pdfrwt>
<totfact> 0.22047130E+01</totfact>
</mgrwt>
</event>
<event>
12    3  0.2212098E-007  0.6451574E+03  0.7818608E-02  0.9815909E-01
         -2   -1    0    0    0  501 -0.00000000000E+00  0.00000000000E+00  0.77093464756E+03  0.77093464756E+03  0.00000000000E+00 0.  1.
          1   -1    0    0  501    0  0.00000000000E+00 -0.00000000000E+00 -0.11768420016E+04  0.11768420016E+04  0.00000000000E+00 0. -1.
        -24    2    1    2    0    0 -0.35196946266E+03  0.51639722986E+03 -0.78158653999E+03  0.10035261632E+04  0.75090872513E+02 0.  0.
    5000000    2    1    2    0    0  0.35196946266E+03 -0.51639722986E+03  0.37567918596E+03  0.94425048594E+03  0.59993793661E+03 0.  0.
        -24    2    4    4    0    0  0.25441383542E+03 -0.20599025043E+03 -0.10935875399E+03  0.35455522792E+03  0.81189221265E+02 0.  0.
         24    2    4    4    0    0  0.97555627232E+02 -0.31040697943E+03  0.48503793994E+03  0.58969525801E+03  0.81296376625E+02 0.  0.
         11    1    5    5    0    0  0.10173871490E+03 -0.13371614947E+03 -0.62380655774E+02  0.17922645160E+03  0.00000000000E+00 0. -1.
        -12    1    5    5    0    0  0.15267512053E+03 -0.72274100961E+02 -0.46978098212E+02  0.17532877633E+03  0.00000000000E+00 0.  1.
         13    1    3    3    0    0 -0.13897994158E+03  0.18686453840E+03 -0.23658274893E+03  0.33197165085E+03  0.00000000000E+00 0. -1.
        -14    1    3    3    0    0 -0.21298952107E+03  0.32953269145E+03 -0.54500379106E+03  0.67155451237E+03  0.00000000000E+00 0.  1.
          2    1    6    6  502    0  0.25960355982E+02 -0.15315201388E+03  0.16925732530E+03  0.22973358833E+03  0.00000000000E+00 0. -1.
         -1    1    6    6    0  502  0.71595271250E+02 -0.15725496555E+03  0.31578061465E+03  0.35996166969E+03  0.00000000000E+00 0.  1.
<mgrwt>
<rscale>  0 0.64515743E+03</rscale>
<asrwt>0</asrwt>
<pdfrwt beam="1">  1        1 0.18105262E+00 0.64515743E+03</pdfrwt>
<pdfrwt beam="2">  1       -2 0.11860533E+00 0.64515743E+03</pdfrwt>
<totfact> 0.55589293E+00</totfact>
</mgrwt>
</event>
<event>
12    3  0.2212098E-007  0.8738120E+03  0.7818608E-02  0.9458923E-01
         -2   -1    0    0    0  501 -0.00000000000E+00  0.00000000000E+00  0.14186186313E+04  0.14186186313E+04  0.00000000000E+00 0.  1.
          1   -1    0    0  501    0  0.00000000000E+00 -0.00000000000E+00 -0.74597160024E+03  0.74597160024E+03  0.00000000000E+00 0. -1.
        -24    2    1    2    0    0  0.31998308844E+03 -0.72195073180E+03  0.84338989060E+03  0.11580834999E+04  0.79049662933E+02 0.  0.
    5000000    2    1    2    0    0 -0.31998308844E+03  0.72195073180E+03 -0.17074285952E+03  0.10065067316E+04  0.60025048165E+03 0.  0.
        -24    2    4    4    0    0 -0.27233712614E+03  0.45239490323E+02  0.46510677203E+02  0.29091278885E+03  0.79075191201E+02 0.  0.
         24    2    4    4    0    0 -0.47645962298E+02  0.67671124147E+03 -0.21725353673E+03  0.71559394278E+03  0.68318003999E+02 0.  0.
         11    1    5    5    0    0 -0.49624275328E+02  0.20032104312E+01 -0.21424674824E+02  0.54088799628E+02  0.00000000000E+00 0. -1.
        -12    1    5    5    0    0 -0.22271285082E+03  0.43236279892E+02  0.67935352028E+02  0.23682398923E+03  0.00000000000E+00 0.  1.
         13    1    3    3    0    0  0.25386033093E+03 -0.58278615575E+03  0.72179754474E+03  0.96180895533E+03  0.00000000000E+00 0. -1.
        -14    1    3    3    0    0  0.66122757511E+02 -0.13916457604E+03  0.12159234586E+03  0.19627454460E+03  0.00000000000E+00 0.  1.
          4    1    6    6  502    0  0.37313577673E+01  0.39260948166E+03 -0.13844718802E+03  0.41632169292E+03  0.00000000000E+00 0. -1.
         -3    1    6    6    0  502 -0.51377320065E+02  0.28410175981E+03 -0.78806348702E+02  0.29927224987E+03  0.00000000000E+00 0.  1.
<mgrwt>
<rscale>  0 0.87381200E+03</rscale>
<asrwt>0</asrwt>
<pdfrwt beam="1">  1        1 0.11476486E+00 0.87381200E+03</pdfrwt>
<pdfrwt beam="2">  1       -2 0.21824902E+00 0.87381200E+03</pdfrwt>
<totfact> 0.22242577E+00</totfact>
</mgrwt>
</event>
<event>
12    3  0.2212098E-007  0.6188098E+03  0.7818608E-02  0.9867132E-01
          1   -1    0    0  501    0  0.00000000000E+00  0.00000000000E+00  0.28351642576E+04  0.28351642576E+04  0.00000000000E+00 0. -1.
         -2   -1    0    0    0  501 -0.00000000000E+00 -0.00000000000E+00 -0.22427841699E+03  0.22427841699E+03  0.00000000000E+00 0.  1.
        -24    2    1    2    0    0 -0.12124808144E+03 -0.56093310705E+03  0.18305642306E+04  0.19200221738E+04  0.78566515946E+02 0.  0.
    5000000    2    1    2    0    0  0.12124808144E+03  0.56093310705E+03  0.78032160998E+03  0.11394205008E+04  0.60002517852E+03 0.  0.
        -24    2    4    4    0    0  0.18860354258E+03  0.55393872131E+03  0.32875836305E+03  0.67560453983E+03  0.77071588329E+02 0.  0.
         24    2    4    4    0    0 -0.67355461134E+02  0.69943857428E+01  0.45156324693E+03  0.46381596099E+03  0.81426040782E+02 0.  0.
         11    1    5    5    0    0  0.41879961540E+02  0.10241749912E+03  0.97664384695E+02  0.14758593206E+03  0.00000000000E+00 0. -1.
        -12    1    5    5    0    0  0.14672358104E+03  0.45152122219E+03  0.23109397835E+03  0.52801860777E+03  0.00000000000E+00 0.  1.
         11    1    3    3    0    0 -0.96436007694E+02 -0.26061915968E+03  0.87143272130E+03  0.91466782917E+03  0.00000000000E+00 0. -1.
        -12    1    3    3    0    0 -0.24812073749E+02 -0.30031394737E+03  0.95913150933E+03  0.10053543446E+04  0.00000000000E+00 0.  1.
          4    1    6    6  502    0  0.21398059400E+01 -0.19727266297E+01  0.25704775812E+03  0.25706423394E+03  0.00000000000E+00 0. -1.
         -3    1    6    6    0  502 -0.69495267074E+02  0.89671123725E+01  0.19451548881E+03  0.20675172705E+03  0.00000000000E+00 0.  1.
<mgrwt>
<rscale>  0 0.61880976E+03</rscale>
<asrwt>0</asrwt>
<pdfrwt beam="1">  1        1 0.43617909E+00 0.61880976E+03</pdfrwt>
<pdfrwt beam="2">  1       -2 0.34504374E-01 0.61880976E+03</pdfrwt>
<totfact> 0.59135200E+00</totfact>
</mgrwt>
</event>
<event>
12    3  0.2212098E-007  0.6546591E+03  0.7818608E-02  0.9798076E-01
         -2   -1    0    0    0  501 -0.00000000000E+00  0.00000000000E+00  0.15917539050E+04  0.15917539050E+04  0.00000000000E+00 0.  1.
          1   -1    0    0  501    0  0.00000000000E+00 -0.00000000000E+00 -0.45275554892E+03  0.45275554892E+03  0.00000000000E+00 0. -1.
        -24    2    1    2    0    0  0.50131268199E+03 -0.26421712431E+03  0.10737122924E+04  0.12166633861E+04  0.79288172586E+02 0.  0.
    5000000    2    1    2    0    0 -0.50131268199E+03  0.26421712431E+03  0.65286063649E+02  0.82784606779E+03  0.59995145465E+03 0.  0.
        -24    2    4    4    0    0  0.67413152383E+02  0.98377379499E+02 -0.13532687162E+03  0.19742571089E+03  0.80255262921E+02 0.  0.
         24    2    4    4    0    0 -0.56872583438E+03  0.16583974481E+03  0.20061293527E+03  0.63042035690E+03  0.78945430226E+02 0.  0.
         11    1    3    3    0    0  0.17863730840E+03 -0.62138216757E+02  0.30611907578E+03  0.35983514905E+03  0.00000000000E+00 0. -1.
        -12    1    3    3    0    0  0.32267537359E+03 -0.20207890755E+03  0.76759321665E+03  0.85682823708E+03  0.00000000000E+00 0.  1.
         13    1    5    5    0    0  0.69216929299E+02  0.32154779951E+02 -0.84957235401E+02  0.11420440019E+03  0.00000000000E+00 0. -1.
        -14    1    5    5    0    0 -0.18037769164E+01  0.66222599547E+02 -0.50369636217E+02  0.83221310700E+02  0.00000000000E+00 0.  1.
          4    1    6    6  502    0 -0.38208187341E+03  0.14663951860E+03  0.15226186891E+03  0.43666163460E+03  0.00000000000E+00 0. -1.
         -3    1    6    6    0  502 -0.18664396097E+03  0.19200226212E+02  0.48351066353E+02  0.19375872231E+03  0.00000000000E+00 0.  1.
<mgrwt>
<rscale>  0 0.65465913E+03</rscale>
<asrwt>0</asrwt>
<pdfrwt beam="1">  1        1 0.69654701E-01 0.65465913E+03</pdfrwt>
<pdfrwt beam="2">  1       -2 0.24488521E+00 0.65465913E+03</pdfrwt>
<totfact> 0.32161966E+00</totfact>
</mgrwt>
</event>
<event>
12    3  0.2212098E-007  0.2137436E+04  0.7818608E-02  0.8544930E-01
          1   -1    0    0  501    0  0.00000000000E+00  0.00000000000E+00  0.13722926850E+04  0.13722926850E+04  0.00000000000E+00 0. -1.
         -2   -1    0    0    0  501 -0.00000000000E+00 -0.00000000000E+00 -0.41137959038E+04  0.41137959038E+04  0.00000000000E+00 0.  1.
        -24    2    1    2    0    0 -0.96381508926E+02 -0.20966676307E+04 -0.16160331612E+03  0.21065585425E+04  0.78541149628E+02 0.  0.
    5000000    2    1    2    0    0  0.96381508926E+02  0.20966676307E+04 -0.25798999027E+04  0.33795300463E+04  0.60002939682E+03 0.  0.
        -24    2    4    4    0    0 -0.16984096924E+03  0.16035923766E+04 -0.18405103579E+04  0.24483941213E+04  0.82467756629E+02 0.  0.
         24    2    4    4    0    0  0.26622247816E+03  0.49307525415E+03 -0.73938954486E+03  0.93113592502E+03  0.79495897216E+02 0.  0.
         11    1    3    3    0    0 -0.56438225332E+02 -0.52136916141E+03 -0.50539288582E+02  0.52684465968E+03  0.00000000000E+00 0. -1.
        -12    1    3    3    0    0 -0.39943283594E+02 -0.15752984693E+04 -0.11106402754E+03  0.15797138828E+04  0.00000000000E+00 0.  1.
         11    1    5    5    0    0 -0.46746842740E+02  0.39196875677E+03 -0.50494167708E+03  0.64092969258E+03  0.00000000000E+00 0. -1.
        -12    1    5    5    0    0 -0.12309412650E+03  0.12116236198E+04 -0.13355686808E+04  0.18074644287E+04  0.00000000000E+00 0.  1.
          2    1    6    6  502    0  0.17501373341E+03  0.36524349963E+03 -0.57973094486E+03  0.70719204557E+03  0.00000000000E+00 0. -1.
         -1    1    6    6    0  502  0.91208744756E+02  0.12783175452E+03 -0.15965860001E+03  0.22394387944E+03  0.00000000000E+00 0.  1.
<mgrwt>
<rscale>  0 0.21374355E+04</rscale>
<asrwt>0</asrwt>
<pdfrwt beam="1">  1        1 0.21112195E+00 0.21374355E+04</pdfrwt>
<pdfrwt beam="2">  1       -2 0.63289167E+00 0.21374355E+04</pdfrwt>
<totfact> 0.23164519E-03</totfact>
</mgrwt>
</event>
<event>
12    3  0.2212098E-007  0.4068044E+03  0.7818608E-02  0.1041449E+00
         -2   -1    0    0    0  501 -0.00000000000E+00  0.00000000000E+00  0.70697481975E+03  0.70697481975E+03  0.00000000000E+00 0.  1.
          1   -1    0    0  501    0  0.00000000000E+00 -0.00000000000E+00 -0.48245381652E+03  0.48245381652E+03  0.00000000000E+00 0. -1.
        -24    2    1    2    0    0 -0.20793969295E+03 -0.39488905784E-01 -0.29452434656E+03  0.36922536080E+03  0.79648345129E+02 0.  0.
    5000000    2    1    2    0    0  0.20793969295E+03  0.39488905784E-01  0.51904534979E+03  0.82020327546E+03  0.60007201275E+03 0.  0.
        -24    2    4    4    0    0  0.34634628828E+03 -0.16175477430E+03  0.42202496983E+03  0.57293626550E+03  0.63486461199E+02 0.  0.
         24    2    4    4    0    0 -0.13840659534E+03  0.16179426320E+03  0.97020379963E+02  0.24726700996E+03  0.79964059742E+02 0.  0.
         11    1    3    3    0    0 -0.12907440212E+03 -0.25277881254E+02 -0.12943638699E+03  0.18453441641E+03  0.00000000000E+00 0. -1.
        -12    1    3    3    0    0 -0.78865290830E+02  0.25238392348E+02 -0.16508795957E+03  0.18469094440E+03  0.00000000000E+00 0.  1.
         11    1    5    5    0    0  0.21687174973E+03 -0.71297596879E+02  0.27188416383E+03  0.35501788925E+03  0.00000000000E+00 0. -1.
        -12    1    5    5    0    0  0.12947453855E+03 -0.90457177417E+02  0.15014080600E+03  0.21791837625E+03  0.00000000000E+00 0.  1.
          4    1    6    6  502    0 -0.13766259781E+02  0.19647244768E+02 -0.14246441299E+02  0.27901348086E+02  0.00000000000E+00 0. -1.
         -3    1    6    6    0  502 -0.12464033555E+03  0.14214701843E+03  0.11126682126E+03  0.21936566188E+03  0.00000000000E+00 0.  1.
<mgrwt>
<rscale>  0 0.40680444E+03</rscale>
<asrwt>0</asrwt>
<pdfrwt beam="1">  1        1 0.74223664E-01 0.40680444E+03</pdfrwt>
<pdfrwt beam="2">  1       -2 0.10876536E+00 0.40680444E+03</pdfrwt>
<totfact> 0.29002468E+01</totfact>
</mgrwt>
</event>
<event>
12    3  0.2212098E-007  0.8500938E+03  0.7818608E-02  0.9490211E-01
          1   -1    0    0  501    0  0.00000000000E+00  0.00000000000E+00  0.59702131424E+03  0.59702131424E+03  0.00000000000E+00 0. -1.
         -2   -1    0    0    0  501 -0.00000000000E+00 -0.00000000000E+00 -0.18906535010E+04  0.18906535010E+04  0.00000000000E+00 0.  1.
        -24    2    1    2    0    0  0.63266878129E+03 -0.43757338303E+03 -0.12992882949E+04  0.15120811313E+04  0.80616511827E+02 0.  0.
    5000000    2    1    2    0    0 -0.63266878129E+03  0.43757338303E+03  0.56561081422E+01  0.97559368394E+03  0.60000899345E+03 0.  0.
        -24    2    4    4    0    0  0.44538538739E+02 -0.40193596255E+02  0.92760995613E+02  0.13844711672E+03  0.83449357141E+02 0.  0.
         24    2    4    4    0    0 -0.67720732003E+03  0.47776697929E+03 -0.87104887470E+02  0.83714656722E+03  0.79724982232E+02 0.  0.
         11    1    3    3    0    0  0.38520360358E+03 -0.31335028150E+03 -0.83111910089E+03  0.96815761888E+03  0.00000000000E+00 0. -1.
        -12    1    3    3    0    0  0.24746517771E+03 -0.12422310153E+03 -0.46816919397E+03  0.54392351237E+03  0.00000000000E+00 0.  1.
         13    1    5    5    0    0 -0.21448672974E+02 -0.97261189162E+01  0.46970475701E+02  0.52543967770E+02  0.00000000000E+00 0. -1.
        -14    1    5    5    0    0  0.65987211713E+02 -0.30467477339E+02  0.45790519912E+02  0.85903148947E+02  0.00000000000E+00 0.  1.
          4    1    6    6  502    0 -0.30164547019E+03  0.24549058966E+03 -0.70452807994E+02  0.39524576842E+03  0.00000000000E+00 0. -1.
         -3    1    6    6    0  502 -0.37556184984E+03  0.23227638963E+03 -0.16652079476E+02  0.44190079880E+03  0.00000000000E+00 0.  1.
<mgrwt>
<rscale>  0 0.85009383E+03</rscale>
<asrwt>0</asrwt>
<pdfrwt beam="1">  1        1 0.91849433E-01 0.85009383E+03</pdfrwt>
<pdfrwt beam="2">  1       -2 0.29086977E+00 0.85009383E+03</pdfrwt>
<totfact> 0.11239103E+00</totfact>
</mgrwt>
</event>
<event>
12    3  0.2212098E-007  0.8307322E+03  0.7818608E-02  0.9516569E-01
         -2   -1    0    0    0  501 -0.00000000000E+00  0.00000000000E+00  0.13054202850E+04  0.13054202850E+04  0.00000000000E+00 0.  1.
          1   -1    0    0  501    0  0.00000000000E+00 -0.00000000000E+00 -0.57159762382E+03  0.57159762382E+03  0.00000000000E+00 0. -1.
        -24    2    1    2    0    0  0.73235235544E+03  0.11775599063E+03  0.48912562156E+03  0.89207684749E+03  0.79691795811E+02 0.  0.
    5000000    2    1    2    0    0 -0.73235235544E+03 -0.11775599063E+03  0.24469703967E+03  0.98494106137E+03  0.60002150570E+03 0.  0.
        -24    2    4    4    0    0 -0.78856983523E+03 -0.37683737817E+02  0.29300390620E+03  0.84613030010E+03  0.82599918773E+02 0.  0.
         24    2    4    4    0    0  0.56217479790E+02 -0.80072252817E+02 -0.48306866537E+02  0.13881076126E+03  0.85807362052E+02 0.  0.
         11    1    5    5    0    0 -0.19506004599E+03 -0.39820683611E+02  0.93843623231E+02  0.22009255781E+03  0.00000000000E+00 0. -1.
        -12    1    5    5    0    0 -0.59350978924E+03  0.21369457946E+01  0.19916028297E+03  0.62603774229E+03  0.00000000000E+00 0.  1.
         11    1    3    3    0    0  0.19822508695E+03  0.68068566806E+02  0.13924005603E+03  0.25162334567E+03  0.00000000000E+00 0. -1.
        -12    1    3    3    0    0  0.53412726848E+03  0.49687423827E+02  0.34988556552E+03  0.64045350182E+03  0.00000000000E+00 0.  1.
          2    1    6    6  502    0  0.50730694080E+02 -0.94585807465E+02 -0.56467800457E+02  0.12127939142E+03  0.00000000000E+00 0. -1.
         -1    1    6    6    0  502  0.54867857092E+01  0.14513554648E+02  0.81609339205E+01  0.17531369838E+02  0.00000000000E+00 0.  1.
<mgrwt>
<rscale>  0 0.83073221E+03</rscale>
<asrwt>0</asrwt>
<pdfrwt beam="1">  1        1 0.87938097E-01 0.83073221E+03</pdfrwt>
<pdfrwt beam="2">  1       -2 0.20083389E+00 0.83073221E+03</pdfrwt>
<totfact> 0.42903882E+00</totfact>
</mgrwt>
</event>
<event>
12    3  0.2212098E-007  0.6423043E+03  0.7818608E-02  0.9821328E-01
          1   -1    0    0  501    0  0.00000000000E+00  0.00000000000E+00  0.26283515557E+04  0.26283515557E+04  0.00000000000E+00 0. -1.
         -2   -1    0    0    0  501 -0.00000000000E+00 -0.00000000000E+00 -0.19424146278E+03  0.19424146278E+03  0.00000000000E+00 0.  1.
        -24    2    1    2    0    0  0.34032774944E+03  0.46750848226E+03  0.82695137283E+03  0.10123353826E+04  0.81161540835E+02 0.  0.
    5000000    2    1    2    0    0 -0.34032774944E+03 -0.46750848226E+03  0.16071587201E+04  0.18102576359E+04  0.59973860876E+03 0.  0.
        -24    2    4    4    0    0 -0.31571927677E+03 -0.10436692325E+03  0.31340567163E+03  0.46387243353E+03  0.79896202579E+02 0.  0.
         24    2    4    4    0    0 -0.24608472665E+02 -0.36314155901E+03  0.12937530484E+04  0.13463852024E+04  0.80490956177E+02 0.  0.
         13    1    5    5    0    0 -0.29568420516E+03 -0.82134529260E+02  0.25809543854E+03  0.40098439555E+03  0.00000000000E+00 0. -1.
        -14    1    5    5    0    0 -0.20035071614E+02 -0.22232393987E+02  0.55310233093E+02  0.62888037986E+02  0.00000000000E+00 0.  1.
         13    1    3    3    0    0  0.30350225575E+03  0.36390964989E+03  0.66307112545E+03  0.81498906124E+03  0.00000000000E+00 0. -1.
        -14    1    3    3    0    0  0.36825493682E+02  0.10359883237E+03  0.16388024738E+03  0.19734632131E+03  0.00000000000E+00 0.  1.
          2    1    6    6  502    0 -0.14618442465E+02 -0.24002796997E+03  0.70715970777E+03  0.74692836170E+03  0.00000000000E+00 0. -1.
         -1    1    6    6    0  502 -0.99900302000E+01 -0.12311358905E+03  0.58659334067E+03  0.59945684067E+03  0.00000000000E+00 0.  1.
<mgrwt>
<rscale>  0 0.64230429E+03</rscale>
<asrwt>0</asrwt>
<pdfrwt beam="1">  1        1 0.40436175E+00 0.64230429E+03</pdfrwt>
<pdfrwt beam="2">  1       -2 0.29883304E-01 0.64230429E+03</pdfrwt>
<totfact> 0.10719353E+01</totfact>
</mgrwt>
</event>
<event>
12    3  0.2212098E-007  0.6320791E+03  0.7818608E-02  0.9841000E-01
          1   -1    0    0  501    0  0.00000000000E+00  0.00000000000E+00  0.12537466124E+04  0.12537466124E+04  0.00000000000E+00 0. -1.
         -4   -1    0    0    0  501 -0.00000000000E+00 -0.00000000000E+00 -0.43303735701E+03  0.43303735701E+03  0.00000000000E+00 0.  1.
        -24    2    1    2    0    0  0.43322034690E+03  0.24481821777E+03  0.75067502373E+03  0.90436794175E+03  0.82173925790E+02 0.  0.
    5000000    2    1    2    0    0 -0.43322034690E+03 -0.24481821777E+03  0.70034231694E+02  0.78241602771E+03  0.59971177917E+03 0.  0.
        -24    2    4    4    0    0 -0.54922025455E+03 -0.77682380189E+02  0.49746651651E+02  0.56276931757E+03  0.80976139952E+02 0.  0.
         24    2    4    4    0    0  0.11599990765E+03 -0.16713583758E+03  0.20287580043E+02  0.21964671014E+03  0.80266584533E+02 0.  0.
         11    1    5    5    0    0 -0.50480032880E+03 -0.74837848485E+02  0.22989763189E+02  0.51083520311E+03  0.00000000000E+00 0. -1.
        -12    1    5    5    0    0 -0.44419925748E+02 -0.28445317038E+01  0.26756888461E+02  0.51934114455E+02  0.00000000000E+00 0.  1.
         13    1    3    3    0    0  0.76312094085E+02  0.82094494072E+02  0.16431618166E+03  0.19890412066E+03  0.00000000000E+00 0. -1.
        -14    1    3    3    0    0  0.35690825282E+03  0.16272372370E+03  0.58635884208E+03  0.70546382109E+03  0.00000000000E+00 0.  1.
          2    1    6    6  502    0  0.47875929089E+02 -0.48257658766E+02 -0.29180721168E+02  0.73975811611E+02  0.00000000000E+00 0. -1.
         -1    1    6    6    0  502  0.68123978559E+02 -0.11887817882E+03  0.49468301211E+02  0.14567089853E+03  0.00000000000E+00 0.  1.
<mgrwt>
<rscale>  0 0.63207905E+03</rscale>
<asrwt>0</asrwt>
<pdfrwt beam="1">  1        1 0.19288409E+00 0.63207905E+03</pdfrwt>
<pdfrwt beam="2">  1       -4 0.66621132E-01 0.63207905E+03</pdfrwt>
<totfact> 0.10093609E+01</totfact>
</mgrwt>
</event>
<event>
12    3  0.2212098E-007  0.1016175E+04  0.7818608E-02  0.9290980E-01
         -2   -1    0    0    0  501 -0.00000000000E+00  0.00000000000E+00  0.18557327898E+04  0.18557327898E+04  0.00000000000E+00 0.  1.
          1   -1    0    0  501    0  0.00000000000E+00 -0.00000000000E+00 -0.64959527818E+03  0.64959527818E+03  0.00000000000E+00 0. -1.
        -24    2    1    2    0    0  0.78957901285E+03 -0.50142031662E+03  0.10064818812E+04  0.13762480713E+04  0.78712293131E+02 0.  0.
    5000000    2    1    2    0    0 -0.78957901285E+03  0.50142031662E+03  0.19965563043E+03  0.11290799967E+04  0.60008492460E+03 0.  0.
        -24    2    4    4    0    0 -0.54297749504E+03  0.16918157944E+02  0.13845353877E+02  0.54902844811E+03  0.78292776321E+02 0.  0.
         24    2    4    4    0    0 -0.24660151782E+03  0.48450215868E+03  0.18581027655E+03  0.58005154859E+03  0.79872960386E+02 0.  0.
         11    1    3    3    0    0  0.43791856239E+03 -0.23278170989E+03  0.51872772785E+03  0.71766179179E+03  0.00000000000E+00 0. -1.
        -12    1    3    3    0    0  0.35166045046E+03 -0.26863860673E+03  0.48775415334E+03  0.65858627950E+03  0.00000000000E+00 0.  1.
         13    1    5    5    0    0 -0.21549255147E+03 -0.30420224995E+02 -0.39032552738E+01  0.21766411103E+03  0.00000000000E+00 0. -1.
        -14    1    5    5    0    0 -0.32748494356E+03  0.47338382939E+02  0.17748609151E+02  0.33136433708E+03  0.00000000000E+00 0.  1.
          4    1    6    6  502    0 -0.34332682942E+02  0.10571913178E+03  0.10000042175E+02  0.11160317552E+03  0.00000000000E+00 0. -1.
         -3    1    6    6    0  502 -0.21226883487E+03  0.37878302689E+03  0.17581023438E+03  0.46844837307E+03  0.00000000000E+00 0.  1.
<mgrwt>
<rscale>  0 0.10161751E+04</rscale>
<asrwt>0</asrwt>
<pdfrwt beam="1">  1        1 0.99937736E-01 0.10161751E+04</pdfrwt>
<pdfrwt beam="2">  1       -2 0.28549735E+00 0.10161751E+04</pdfrwt>
<totfact> 0.10461899E+00</totfact>
</mgrwt>
</event>
<event>
12    3  0.2212098E-007  0.1095447E+04  0.7818608E-02  0.9209640E-01
         -2   -1    0    0    0  501 -0.00000000000E+00  0.00000000000E+00  0.11230907985E+04  0.11230907985E+04  0.00000000000E+00 0.  1.
          1   -1    0    0  501    0  0.00000000000E+00 -0.00000000000E+00 -0.12077218294E+04  0.12077218294E+04  0.00000000000E+00 0. -1.
        -24    2    1    2    0    0  0.59142557211E+02 -0.10497860026E+04  0.23172487185E+03  0.10796158492E+04  0.79532836914E+02 0.  0.
    5000000    2    1    2    0    0 -0.59142557211E+02  0.10497860026E+04 -0.31635590277E+03  0.12511967787E+04  0.59988651292E+03 0.  0.
        -24    2    4    4    0    0  0.72938012957E+02  0.96494275020E+03 -0.40842570900E+03  0.10529994268E+04  0.74577263586E+02 0.  0.
         24    2    4    4    0    0 -0.13208057017E+03  0.84843252423E+02  0.92069806222E+02  0.19819735185E+03  0.78496411156E+02 0.  0.
         11    1    3    3    0    0  0.40367824317E+02 -0.52494687992E+03  0.76815518882E+02  0.53207087114E+03  0.00000000000E+00 0. -1.
        -12    1    3    3    0    0  0.18774732894E+02 -0.52483912270E+03  0.15490935297E+03  0.54754497801E+03  0.00000000000E+00 0.  1.
         13    1    5    5    0    0 -0.12416262895E+02  0.80239719256E+02 -0.24471345296E+02  0.84802257465E+02  0.00000000000E+00 0. -1.
        -14    1    5    5    0    0  0.85354275852E+02  0.88470303094E+03 -0.38395436370E+03  0.96819716936E+03  0.00000000000E+00 0.  1.
          2    1    6    6  502    0 -0.78124681481E+02  0.84745660956E+02  0.86186584805E+02  0.14392157694E+03  0.00000000000E+00 0. -1.
         -1    1    6    6    0  502 -0.53955888687E+02  0.97591467055E-01  0.58832214171E+01  0.54275774913E+02  0.00000000000E+00 0.  1.
<mgrwt>
<rscale>  0 0.10954475E+04</rscale>
<asrwt>0</asrwt>
<pdfrwt beam="1">  1        1 0.18580336E+00 0.10954475E+04</pdfrwt>
<pdfrwt beam="2">  1       -2 0.17278320E+00 0.10954475E+04</pdfrwt>
<totfact> 0.18566792E+00</totfact>
</mgrwt>
</event>
<event>
12    3  0.2581135E-007  0.9576401E+03  0.7818608E-02  0.9356265E-01
          1   -1    0    0  501    0  0.00000000000E+00  0.00000000000E+00  0.31662802692E+04  0.31662802692E+04  0.00000000000E+00 0. -1.
         -2   -1    0    0    0  501 -0.00000000000E+00 -0.00000000000E+00 -0.41025628427E+03  0.41025628427E+03  0.00000000000E+00 0.  1.
        -24    2    1    2    0    0  0.67608514840E+03  0.54801678975E+03  0.33703833995E+03  0.93667452071E+03  0.79691815237E+02 0.  0.
    5000000    2    1    2    0    0 -0.67608514840E+03 -0.54801678975E+03  0.24189856450E+04  0.26398620328E+04  0.59997205904E+03 0.  0.
        -24    2    4    4    0    0 -0.52749578357E+03 -0.61658332008E+02  0.13683982658E+04  0.14699517991E+04  0.78682439876E+02 0.  0.
         24    2    4    4    0    0 -0.14858936484E+03 -0.48635845774E+03  0.10505873792E+04  0.11699102336E+04  0.79578669778E+02 0.  0.
         11    1    5    5    0    0 -0.29555036337E+03 -0.49660510861E+02  0.67071440382E+03  0.73462507112E+03  0.00000000000E+00 0. -1.
        -12    1    5    5    0    0 -0.23194542019E+03 -0.11997821147E+02  0.69768386199E+03  0.73532672802E+03  0.00000000000E+00 0.  1.
         11    1    3    3    0    0  0.27078604590E+03  0.26014930588E+03  0.17044694965E+03  0.41237714127E+03  0.00000000000E+00 0. -1.
        -12    1    3    3    0    0  0.40529910250E+03  0.28786748387E+03  0.16659139030E+03  0.52429737943E+03  0.00000000000E+00 0.  1.
          4    1    6    6  502    0 -0.12976171596E+03 -0.35445314451E+03  0.70819206922E+03  0.80250304765E+03  0.00000000000E+00 0. -1.
         -3    1    6    6    0  502 -0.18827648881E+02 -0.13190531323E+03  0.34239530999E+03  0.36740718600E+03  0.00000000000E+00 0.  1.
<mgrwt>
<rscale>  0 0.95764007E+03</rscale>
<asrwt>0</asrwt>
<pdfrwt beam="1">  1        1 0.48712002E+00 0.95764007E+03</pdfrwt>
<pdfrwt beam="2">  1       -2 0.63116354E-01 0.95764007E+03</pdfrwt>
<totfact> 0.95295190E-01</totfact>
</mgrwt>
</event>
<event>
12    3  0.2212098E-007  0.1153137E+04  0.7818608E-02  0.9154894E-01
          1   -1    0    0  501    0  0.00000000000E+00  0.00000000000E+00  0.19173097579E+04  0.19173097579E+04  0.00000000000E+00 0. -1.
         -2   -1    0    0    0  501 -0.00000000000E+00 -0.00000000000E+00 -0.88411077846E+03  0.88411077846E+03  0.00000000000E+00 0.  1.
        -24    2    1    2    0    0  0.10069877259E+04 -0.38836734741E+03 -0.14839052792E+03  0.10922986136E+04  0.79012883913E+02 0.  0.
    5000000    2    1    2    0    0 -0.10069877259E+04  0.38836734741E+03  0.11815895074E+04  0.17091219227E+04  0.60007541704E+03 0.  0.
        -24    2    4    4    0    0 -0.18279375659E+03  0.34936695644E+03  0.32739960011E+03  0.51888282720E+03  0.81105255723E+02 0.  0.
         24    2    4    4    0    0 -0.82419396936E+03  0.39000390967E+02  0.85418990726E+03  0.11902390955E+04  0.78816097890E+02 0.  0.
         11    1    5    5    0    0 -0.10608789454E+03  0.26492762876E+03  0.26188541720E+03  0.38733094582E+03  0.00000000000E+00 0. -1.
        -12    1    5    5    0    0 -0.76705862041E+02  0.84439327685E+02  0.65514182917E+02  0.13155188138E+03  0.00000000000E+00 0.  1.
         11    1    3    3    0    0  0.27834476908E+03 -0.11124551874E+03 -0.58323338746E+01  0.29980892587E+03  0.00000000000E+00 0. -1.
        -12    1    3    3    0    0  0.72864295686E+03 -0.27712182867E+03 -0.14255819404E+03  0.79248968775E+03  0.00000000000E+00 0.  1.
          2    1    6    6  502    0 -0.23192791479E+03 -0.17269157336E+02  0.27143649571E+03  0.35744447493E+03  0.00000000000E+00 0. -1.
         -1    1    6    6    0  502 -0.59226605457E+03  0.56269548304E+02  0.58275341154E+03  0.83279462062E+03  0.00000000000E+00 0.  1.
<mgrwt>
<rscale>  0 0.11531372E+04</rscale>
<asrwt>0</asrwt>
<pdfrwt beam="1">  1        1 0.29497073E+00 0.11531372E+04</pdfrwt>
<pdfrwt beam="2">  1       -2 0.13601704E+00 0.11531372E+04</pdfrwt>
<totfact> 0.11324133E+00</totfact>
</mgrwt>
</event>
<event>
12    3  0.2212098E-007  0.6412048E+03  0.7818608E-02  0.9823424E-01
          1   -1    0    0  501    0  0.00000000000E+00  0.00000000000E+00  0.14954010398E+04  0.14954010398E+04  0.00000000000E+00 0. -1.
         -2   -1    0    0    0  501 -0.00000000000E+00 -0.00000000000E+00 -0.38328221636E+03  0.38328221636E+03  0.00000000000E+00 0.  1.
        -24    2    1    2    0    0  0.60550907742E+03 -0.18052621982E+03  0.38757826654E+03  0.74550415237E+03  0.79552307450E+02 0.  0.
    5000000    2    1    2    0    0 -0.60550907742E+03  0.18052621982E+03  0.72454055693E+03  0.11331791038E+04  0.59992074797E+03 0.  0.
        -24    2    4    4    0    0 -0.31817752000E+03  0.13264853817E+03  0.75055833755E+03  0.82983814332E+03  0.80380079231E+02 0.  0.
         24    2    4    4    0    0 -0.28733155742E+03  0.47877681641E+02 -0.26017780613E+02  0.30334096051E+03  0.80542641669E+02 0.  0.
         11    1    5    5    0    0 -0.19205659301E+03  0.10897420449E+03  0.53791187465E+03  0.58147252476E+03  0.00000000000E+00 0. -1.
        -12    1    5    5    0    0 -0.12612092699E+03  0.23674333684E+02  0.21264646290E+03  0.24836561856E+03  0.00000000000E+00 0.  1.
         11    1    3    3    0    0  0.31219352101E+03 -0.58788947813E+02  0.22006087354E+03  0.38645533119E+03  0.00000000000E+00 0. -1.
        -12    1    3    3    0    0  0.29331555641E+03 -0.12173727200E+03  0.16751739301E+03  0.35904882118E+03  0.00000000000E+00 0.  1.
          4    1    6    6  502    0 -0.12470367281E+03 -0.10683846483E+02  0.13933123723E+02  0.12593364334E+03  0.00000000000E+00 0. -1.
         -3    1    6    6    0  502 -0.16262788461E+03  0.58561528124E+02 -0.39950904336E+02  0.17740731717E+03  0.00000000000E+00 0.  1.
<mgrwt>
<rscale>  0 0.64120476E+03</rscale>
<asrwt>0</asrwt>
<pdfrwt beam="1">  1        1 0.23006170E+00 0.64120476E+03</pdfrwt>
<pdfrwt beam="2">  1       -2 0.58966496E-01 0.64120476E+03</pdfrwt>
<totfact> 0.16260124E+01</totfact>
</mgrwt>
</event>
<event>
12    3  0.2212098E-007  0.1356010E+04  0.7818608E-02  0.8986291E-01
          1   -1    0    0  501    0  0.00000000000E+00  0.00000000000E+00  0.33502945152E+04  0.33502945152E+04  0.00000000000E+00 0. -1.
         -2   -1    0    0    0  501 -0.00000000000E+00 -0.00000000000E+00 -0.63592417942E+03  0.63592417942E+03  0.00000000000E+00 0.  1.
        -24    2    1    2    0    0  0.13372409291E+04  0.10852100673E+03  0.18313520404E+04  0.22716418422E+04  0.80723303887E+02 0.  0.
    5000000    2    1    2    0    0 -0.13372409291E+04 -0.10852100673E+03  0.88301829536E+03  0.17145768525E+04  0.60005196586E+03 0.  0.
        -24    2    4    4    0    0 -0.77498436360E+03 -0.18397925746E+03  0.20388617144E+03  0.82607344871E+03  0.79866393224E+02 0.  0.
         24    2    4    4    0    0 -0.56225656549E+03  0.75458250734E+02  0.67913212392E+03  0.88850340375E+03  0.79946630273E+02 0.  0.
         11    1    5    5    0    0 -0.45208644330E+03 -0.66727155536E+02  0.11488896086E+03  0.47120498600E+03  0.00000000000E+00 0. -1.
        -12    1    5    5    0    0 -0.32289792030E+03 -0.11725210193E+03  0.88997210575E+02  0.35486846271E+03  0.00000000000E+00 0.  1.
         13    1    3    3    0    0  0.11132058595E+04  0.10843614093E+03  0.15650816803E+04  0.19236596238E+04  0.00000000000E+00 0. -1.
        -14    1    3    3    0    0  0.22403506963E+03  0.84865796472E-01  0.26627036014E+03  0.34798221839E+03  0.00000000000E+00 0.  1.
          4    1    6    6  502    0 -0.42909894069E+03  0.76350454501E+02  0.47378654097E+03  0.64376158569E+03  0.00000000000E+00 0. -1.
         -3    1    6    6    0  502 -0.13315762479E+03 -0.89220376779E+00  0.20534558295E+03  0.24474181805E+03  0.00000000000E+00 0.  1.
<mgrwt>
<rscale>  0 0.13560104E+04</rscale>
<asrwt>0</asrwt>
<pdfrwt beam="1">  1        1 0.51542991E+00 0.13560104E+04</pdfrwt>
<pdfrwt beam="2">  1       -2 0.97834492E-01 0.13560104E+04</pdfrwt>
<totfact> 0.24384138E-01</totfact>
</mgrwt>
</event>
<event>
12    3  0.2212098E-007  0.5126247E+03  0.7818608E-02  0.1010535E+00
          1   -1    0    0  501    0  0.00000000000E+00  0.00000000000E+00  0.47235815250E+03  0.47235815250E+03  0.00000000000E+00 0. -1.
         -2   -1    0    0    0  501 -0.00000000000E+00 -0.00000000000E+00 -0.76093102104E+03  0.76093102104E+03  0.00000000000E+00 0.  1.
        -24    2    1    2    0    0 -0.38711198529E+03 -0.14134966621E+03  0.62965777043E+02  0.42493430929E+03  0.82274302456E+02 0.  0.
    5000000    2    1    2    0    0  0.38711198529E+03  0.14134966621E+03 -0.35153864559E+03  0.80835486425E+03  0.60001895797E+03 0.  0.
        -24    2    4    4    0    0  0.48014725805E+03  0.13834707496E+03 -0.82383299509E+02  0.51272628563E+03  0.80124486720E+02 0.  0.
         24    2    4    4    0    0 -0.93035272767E+02  0.30025912523E+01 -0.26915534608E+03  0.29562857862E+03  0.79291100615E+02 0.  0.
         11    1    5    5    0    0  0.20084590350E+03  0.98549106054E+02 -0.43966859448E+02  0.22800019296E+03  0.00000000000E+00 0. -1.
        -12    1    5    5    0    0  0.27930135455E+03  0.39797968902E+02 -0.38416440061E+02  0.28472609267E+03  0.00000000000E+00 0.  1.
         13    1    3    3    0    0 -0.10544740629E+03 -0.44851273051E+02 -0.18924090223E+02  0.11614178136E+03  0.00000000000E+00 0. -1.
        -14    1    3    3    0    0 -0.28166457900E+03 -0.96498393158E+02  0.81889867266E+02  0.30879252793E+03  0.00000000000E+00 0.  1.
          4    1    6    6  502    0 -0.99972224862E+02  0.41028661290E+01 -0.17792963977E+03  0.20413288800E+03  0.00000000000E+00 0. -1.
         -3    1    6    6    0  502  0.69369520946E+01 -0.11002748768E+01 -0.91225706315E+02  0.91495690619E+02  0.00000000000E+00 0.  1.
<mgrwt>
<rscale>  0 0.51262466E+03</rscale>
<asrwt>0</asrwt>
<pdfrwt beam="1">  1        1 0.72670485E-01 0.51262466E+03</pdfrwt>
<pdfrwt beam="2">  1       -2 0.11706631E+00 0.51262466E+03</pdfrwt>
<totfact> 0.24646266E+01</totfact>
</mgrwt>
</event>
<event>
12    3  0.2212098E-007  0.6906542E+03  0.7818608E-02  0.9733350E-01
          1   -1    0    0  501    0  0.00000000000E+00  0.00000000000E+00  0.49134628035E+03  0.49134628035E+03  0.00000000000E+00 0. -1.
         -2   -1    0    0    0  501 -0.00000000000E+00 -0.00000000000E+00 -0.10302308783E+04  0.10302308783E+04  0.00000000000E+00 0.  1.
        -24    2    1    2    0    0  0.56451743716E+03 -0.13429504213E+03 -0.16910305793E+03  0.60866000939E+03  0.71805763224E+02 0.  0.
    5000000    2    1    2    0    0 -0.56451743716E+03  0.13429504213E+03 -0.36978154004E+03  0.91291714928E+03  0.59997019834E+03 0.  0.
        -24    2    4    4    0    0  0.96148109656E+02 -0.20998828920E+01  0.29062053420E+02  0.12516264257E+03  0.74647274891E+02 0.  0.
         24    2    4    4    0    0 -0.66066554682E+03  0.13639492502E+03 -0.39884359346E+03  0.78775450670E+03  0.79990064803E+02 0.  0.
         13    1    5    5    0    0  0.76589659349E+02 -0.34242610193E+02  0.23524464351E+02  0.87131697418E+02  0.00000000000E+00 0. -1.
        -14    1    5    5    0    0  0.19558450307E+02  0.32142727301E+02  0.55375890687E+01  0.38030945156E+02  0.00000000000E+00 0.  1.
         13    1    3    3    0    0  0.20352805705E+03 -0.79211672299E+02 -0.45057735935E+02  0.22299856189E+03  0.00000000000E+00 0. -1.
        -14    1    3    3    0    0  0.36098938011E+03 -0.55083369832E+02 -0.12404532199E+03  0.38566144751E+03  0.00000000000E+00 0.  1.
          2    1    6    6  502    0 -0.28690528157E+03  0.82964279151E+02 -0.13901037609E+03  0.32942616300E+03  0.00000000000E+00 0. -1.
         -1    1    6    6    0  502 -0.37376026525E+03  0.53430645871E+02 -0.25983321736E+03  0.45832834371E+03  0.00000000000E+00 0.  1.
<mgrwt>
<rscale>  0 0.69065417E+03</rscale>
<asrwt>0</asrwt>
<pdfrwt beam="1">  1        1 0.75591736E-01 0.69065417E+03</pdfrwt>
<pdfrwt beam="2">  1       -2 0.15849706E+00 0.69065417E+03</pdfrwt>
<totfact> 0.10538491E+01</totfact>
</mgrwt>
</event>
<event>
12    3  0.2212098E-007  0.7630319E+03  0.7818608E-02  0.9615124E-01
          1   -1    0    0  501    0  0.00000000000E+00  0.00000000000E+00  0.17399131564E+04  0.17399131564E+04  0.00000000000E+00 0. -1.
         -2   -1    0    0    0  501 -0.00000000000E+00 -0.00000000000E+00 -0.43707775223E+03  0.43707775223E+03  0.00000000000E+00 0.  1.
        -24    2    1    2    0    0 -0.37164037592E+03 -0.65798108175E+03  0.73426585367E+03  0.10567680003E+04  0.80972770962E+02 0.  0.
    5000000    2    1    2    0    0  0.37164037592E+03  0.65798108175E+03  0.56856955047E+03  0.11202229083E+04  0.60047677524E+03 0.  0.
        -24    2    4    4    0    0  0.18239049547E+03  0.18507090462E+03 -0.88122645689E+02  0.28563209450E+03  0.79388665139E+02 0.  0.
         24    2    4    4    0    0  0.18924988045E+03  0.47291017713E+03  0.65669219616E+03  0.83459081379E+03  0.76404404893E+02 0.  0.
         11    1    5    5    0    0  0.16071209652E+03  0.15654317628E+03 -0.43714483407E+02  0.22857187068E+03  0.00000000000E+00 0. -1.
        -12    1    5    5    0    0  0.21678398954E+02  0.28527728335E+02 -0.44408162282E+02  0.57060223821E+02  0.00000000000E+00 0.  1.
         13    1    3    3    0    0 -0.92506735924E+02 -0.14282121146E+03  0.21221164849E+03  0.27200951894E+03  0.00000000000E+00 0. -1.
        -14    1    3    3    0    0 -0.27913364000E+03 -0.51515987028E+03  0.52205420517E+03  0.78475848136E+03  0.00000000000E+00 0.  1.
          4    1    6    6  502    0  0.10661549863E+03  0.29367203956E+03  0.34288102565E+03  0.46387231985E+03  0.00000000000E+00 0. -1.
         -3    1    6    6    0  502  0.82634381817E+02  0.17923813757E+03  0.31381117051E+03  0.37071849395E+03  0.00000000000E+00 0.  1.
<mgrwt>
<rscale>  0 0.76303194E+03</rscale>
<asrwt>0</asrwt>
<pdfrwt beam="1">  1        1 0.26767894E+00 0.76303194E+03</pdfrwt>
<pdfrwt beam="2">  1       -2 0.67242732E-01 0.76303194E+03</pdfrwt>
<totfact> 0.82520938E+00</totfact>
</mgrwt>
</event>
<event>
12    3  0.2212098E-007  0.1221952E+04  0.7818608E-02  0.9093856E-01
         -2   -1    0    0    0  501 -0.00000000000E+00  0.00000000000E+00  0.88861800720E+03  0.88861800720E+03  0.00000000000E+00 0.  1.
          1   -1    0    0  501    0  0.00000000000E+00 -0.00000000000E+00 -0.18670412697E+04  0.18670412697E+04  0.00000000000E+00 0. -1.
        -24    2    1    2    0    0  0.11005294258E+04  0.51880782525E+03 -0.48737953692E+03  0.13130357622E+04  0.78724349292E+02 0.  0.
    5000000    2    1    2    0    0 -0.11005294258E+04 -0.51880782525E+03 -0.49104372559E+03  0.14426235147E+04  0.59976002539E+03 0.  0.
        -24    2    4    4    0    0 -0.28945201805E+03 -0.64935321945E+02  0.11757117186E+03  0.32877332611E+03  0.79182401565E+02 0.  0.
         24    2    4    4    0    0 -0.81107740778E+03 -0.45387250330E+03 -0.60861489745E+03  0.11138501886E+04  0.80020863197E+02 0.  0.
         11    1    3    3    0    0  0.72011527283E+03  0.31944365968E+03 -0.27967975585E+03  0.83596113767E+03  0.00000000000E+00 0. -1.
        -12    1    3    3    0    0  0.38041415301E+03  0.19936416557E+03 -0.20769978107E+03  0.47707462454E+03  0.00000000000E+00 0.  1.
         13    1    5    5    0    0 -0.29165472205E+02 -0.70634095837E+01  0.42017669121E+02  0.51633332666E+02  0.00000000000E+00 0. -1.
        -14    1    5    5    0    0 -0.26028654585E+03 -0.57871912361E+02  0.75553502743E+02  0.27713999344E+03  0.00000000000E+00 0.  1.
          4    1    6    6  502    0 -0.44137612685E+03 -0.22886393181E+03 -0.36900361637E+03  0.61915688927E+03  0.00000000000E+00 0. -1.
         -3    1    6    6    0  502 -0.36970128093E+03 -0.22500857149E+03 -0.23961128109E+03  0.49469329932E+03  0.00000000000E+00 0.  1.
<mgrwt>
<rscale>  0 0.12219515E+04</rscale>
<asrwt>0</asrwt>
<pdfrwt beam="1">  1        1 0.28723712E+00 0.12219515E+04</pdfrwt>
<pdfrwt beam="2">  1       -2 0.13671046E+00 0.12219515E+04</pdfrwt>
<totfact> 0.11991567E+00</totfact>
</mgrwt>
</event>
<event>
12    3  0.2212098E-007  0.5893807E+03  0.7818608E-02  0.9927686E-01
          1   -1    0    0  501    0  0.00000000000E+00  0.00000000000E+00  0.49620135541E+03  0.49620135541E+03  0.00000000000E+00 0. -1.
         -2   -1    0    0    0  501 -0.00000000000E+00 -0.00000000000E+00 -0.11482724246E+04  0.11482724246E+04  0.00000000000E+00 0.  1.
        -24    2    1    2    0    0 -0.43840991616E+03  0.33511095068E+03 -0.61368691451E+03  0.82857614724E+03  0.73649160802E+02 0.  0.
    5000000    2    1    2    0    0  0.43840991616E+03 -0.33511095068E+03 -0.38384154669E+02  0.81589763276E+03  0.59976078562E+03 0.  0.
        -24    2    4    4    0    0  0.23933915734E+03 -0.25044733270E+02  0.23874494252E+03  0.34826281250E+03  0.79858425309E+02 0.  0.
         24    2    4    4    0    0  0.19907075882E+03 -0.31006621741E+03 -0.27712909719E+03  0.46763482026E+03  0.78176482495E+02 0.  0.
         13    1    5    5    0    0  0.13854844373E+03 -0.53786037686E+02  0.14525676518E+03  0.20781755686E+03  0.00000000000E+00 0. -1.
        -14    1    5    5    0    0  0.10079071361E+03  0.28741304415E+02  0.93488177348E+02  0.14044525564E+03  0.00000000000E+00 0.  1.
         13    1    3    3    0    0 -0.29133784669E+03  0.25489750264E+03 -0.46030530471E+03  0.60144114534E+03  0.00000000000E+00 0. -1.
        -14    1    3    3    0    0 -0.14707206946E+03  0.80213448038E+02 -0.15338160981E+03  0.22713500190E+03  0.00000000000E+00 0.  1.
          2    1    6    6  502    0  0.16324517407E+03 -0.22144683150E+03 -0.24001404884E+03  0.36509509676E+03  0.00000000000E+00 0. -1.
         -1    1    6    6    0  502  0.35825584755E+02 -0.88619385907E+02 -0.37115048351E+02  0.10253972350E+03  0.00000000000E+00 0.  1.
<mgrwt>
<rscale>  0 0.58938069E+03</rscale>
<asrwt>0</asrwt>
<pdfrwt beam="1">  1        1 0.76338670E-01 0.58938069E+03</pdfrwt>
<pdfrwt beam="2">  1       -2 0.17665730E+00 0.58938069E+03</pdfrwt>
<totfact> 0.78151636E+00</totfact>
</mgrwt>
</event>
<event>
12    3  0.2212098E-007  0.9626937E+03  0.7818608E-02  0.9350435E-01
          1   -1    0    0  501    0  0.00000000000E+00  0.00000000000E+00  0.66782605205E+03  0.66782605205E+03  0.00000000000E+00 0. -1.
         -2   -1    0    0    0  501 -0.00000000000E+00 -0.00000000000E+00 -0.14501281433E+04  0.14501281433E+04  0.00000000000E+00 0.  1.
        -24    2    1    2    0    0  0.87575007454E+03  0.79489472279E+02 -0.50701688171E+03  0.10184015567E+04  0.82576286586E+02 0.  0.
    5000000    2    1    2    0    0 -0.87575007454E+03 -0.79489472279E+02 -0.27528520949E+03  0.10995526386E+04  0.59998107405E+03 0.  0.
        -24    2    4    4    0    0 -0.80491119328E+03 -0.26376500275E+03 -0.23860415048E+03  0.88336394322E+03  0.77109725731E+02 0.  0.
         24    2    4    4    0    0 -0.70838881259E+02  0.18427553047E+03 -0.36681059010E+02  0.21618869538E+03  0.80102644729E+02 0.  0.
         13    1    3    3    0    0  0.64818908527E+03  0.55478209622E+02 -0.41568354899E+03  0.77202314402E+03  0.00000000000E+00 0. -1.
        -14    1    3    3    0    0  0.22756098927E+03  0.24011262657E+02 -0.91333332728E+02  0.24637841269E+03  0.00000000000E+00 0.  1.
         13    1    5    5    0    0 -0.76501302259E+02 -0.41183161494E+02 -0.43249337439E+02  0.97051569935E+02  0.00000000000E+00 0. -1.
        -14    1    5    5    0    0 -0.72840989102E+03 -0.22258184125E+03 -0.19535481304E+03  0.78631237328E+03  0.00000000000E+00 0.  1.
          4    1    6    6  502    0 -0.18012407003E+02  0.51886445006E+02 -0.48348367431E+02  0.73172499032E+02  0.00000000000E+00 0. -1.
         -3    1    6    6    0  502 -0.52826474256E+02  0.13238908546E+03  0.11667308422E+02  0.14301619635E+03  0.00000000000E+00 0.  1.
<mgrwt>
<rscale>  0 0.96269366E+03</rscale>
<asrwt>0</asrwt>
<pdfrwt beam="1">  1        1 0.10274247E+00 0.96269366E+03</pdfrwt>
<pdfrwt beam="2">  1       -2 0.22309663E+00 0.96269366E+03</pdfrwt>
<totfact> 0.24290766E+00</totfact>
</mgrwt>
</event>
<event>
12    3  0.2212098E-007  0.1026129E+04  0.7818608E-02  0.9280343E-01
          1   -1    0    0  501    0  0.00000000000E+00  0.00000000000E+00  0.10131441584E+04  0.10131441584E+04  0.00000000000E+00 0. -1.
         -2   -1    0    0    0  501 -0.00000000000E+00 -0.00000000000E+00 -0.16369908805E+04  0.16369908805E+04  0.00000000000E+00 0.  1.
        -24    2    1    2    0    0  0.91838037555E+03 -0.45023837687E+03  0.38241300295E+03  0.10949180621E+04  0.80428525326E+02 0.  0.
    5000000    2    1    2    0    0 -0.91838037555E+03  0.45023837687E+03 -0.10062597251E+04  0.15552169768E+04  0.60000341706E+03 0.  0.
        -24    2    4    4    0    0 -0.34836028389E+03  0.15007385708E+03 -0.77411503922E+03  0.86567530487E+03  0.79136524643E+02 0.  0.
         24    2    4    4    0    0 -0.57002009166E+03  0.30016451979E+03 -0.23214468585E+03  0.68954167196E+03  0.80962450274E+02 0.  0.
         11    1    5    5    0    0 -0.20024847892E+03  0.98919334839E+02 -0.53547732632E+03  0.58019001638E+03  0.00000000000E+00 0. -1.
        -12    1    5    5    0    0 -0.14811180497E+03  0.51154522240E+02 -0.23863771291E+03  0.28548528848E+03  0.00000000000E+00 0.  1.
         13    1    3    3    0    0  0.46154890664E+03 -0.23860755479E+03  0.23545228182E+03  0.57043731947E+03  0.00000000000E+00 0. -1.
        -14    1    3    3    0    0  0.45683146891E+03 -0.21163082208E+03  0.14696072113E+03  0.52448074263E+03  0.00000000000E+00 0.  1.
          4    1    6    6  502    0 -0.23964261591E+03  0.82133376473E+02 -0.97215532501E+02  0.27133988768E+03  0.00000000000E+00 0. -1.
         -3    1    6    6    0  502 -0.33037747576E+03  0.21803114332E+03 -0.13492915335E+03  0.41820178427E+03  0.00000000000E+00 0.  1.
<mgrwt>
<rscale>  0 0.10261286E+04</rscale>
<asrwt>0</asrwt>
<pdfrwt beam="1">  1        1 0.15586833E+00 0.10261286E+04</pdfrwt>
<pdfrwt beam="2">  1       -2 0.25184475E+00 0.10261286E+04</pdfrwt>
<totfact> 0.80960460E-01</totfact>
</mgrwt>
</event>
<event>
12    3  0.2212098E-007  0.8281531E+03  0.7818608E-02  0.9520137E-01
          1   -1    0    0  501    0  0.00000000000E+00  0.00000000000E+00  0.75626531155E+03  0.75626531155E+03  0.00000000000E+00 0. -1.
         -2   -1    0    0    0  501 -0.00000000000E+00 -0.00000000000E+00 -0.11402702475E+04  0.11402702475E+04  0.00000000000E+00 0.  1.
        -24    2    1    2    0    0  0.63353107703E+03 -0.46102142519E+03 -0.45091626177E+03  0.90751575635E+03  0.79730752203E+02 0.  0.
    5000000    2    1    2    0    0 -0.63353107703E+03  0.46102142519E+03  0.66911325846E+02  0.98901980267E+03  0.59981719256E+03 0.  0.
        -24    2    4    4    0    0 -0.45918056110E+03  0.10385960714E+03 -0.18451492185E+03  0.51193573000E+03  0.79992684524E+02 0.  0.
         24    2    4    4    0    0 -0.17435051593E+03  0.35716181805E+03  0.25142624770E+03  0.47708407267E+03  0.80195933066E+02 0.  0.
         13    1    3    3    0    0  0.37594037587E+03 -0.29290350368E+03 -0.31471454627E+03  0.57111196303E+03  0.00000000000E+00 0. -1.
        -14    1    3    3    0    0  0.25759070117E+03 -0.16811792151E+03 -0.13620171550E+03  0.33640379333E+03  0.00000000000E+00 0.  1.
         13    1    5    5    0    0 -0.29878576277E+03  0.78219192340E+02 -0.80913603338E+02  0.31927759911E+03  0.00000000000E+00 0. -1.
        -14    1    5    5    0    0 -0.16039479833E+03  0.25640414801E+02 -0.10360131852E+03  0.19265813090E+03  0.00000000000E+00 0.  1.
          4    1    6    6  502    0 -0.78516357323E+02  0.10515947551E+03  0.49589476205E+02  0.14029415457E+03  0.00000000000E+00 0. -1.
         -3    1    6    6    0  502 -0.95834158606E+02  0.25200234254E+03  0.20183677150E+03  0.33678991810E+03  0.00000000000E+00 0.  1.
<mgrwt>
<rscale>  0 0.82815314E+03</rscale>
<asrwt>0</asrwt>
<pdfrwt beam="1">  1        1 0.11634851E+00 0.82815314E+03</pdfrwt>
<pdfrwt beam="2">  1       -2 0.17542619E+00 0.82815314E+03</pdfrwt>
<totfact> 0.41946079E+00</totfact>
</mgrwt>
</event>
<event>
12    3  0.2212098E-007  0.7787253E+03  0.7818608E-02  0.9591332E-01
          3   -1    0    0  501    0  0.00000000000E+00  0.00000000000E+00  0.18523376765E+04  0.18523376765E+04  0.00000000000E+00 0. -1.
         -4   -1    0    0    0  501 -0.00000000000E+00 -0.00000000000E+00 -0.66925740508E+03  0.66925740508E+03  0.00000000000E+00 0.  1.
        -24    2    1    2    0    0  0.50640047442E+03 -0.43163346662E+03 -0.34230471857E+03  0.75249827406E+03  0.79575386329E+02 0.  0.
    5000000    2    1    2    0    0 -0.50640047442E+03  0.43163346662E+03  0.15253849900E+04  0.17690968076E+04  0.60012936666E+03 0.  0.
        -24    2    4    4    0    0 -0.69770997237E+02 -0.13799858778E+03  0.28978364510E+03  0.33794431152E+03  0.79499650556E+02 0.  0.
         24    2    4    4    0    0 -0.43662947718E+03  0.56963205440E+03  0.12356013449E+04  0.14311524960E+04  0.79754658764E+02 0.  0.
         13    1    3    3    0    0  0.18559712396E+03 -0.11024002634E+03 -0.11812328480E+03  0.24607370083E+03  0.00000000000E+00 0. -1.
        -14    1    3    3    0    0  0.32080335046E+03 -0.32139344028E+03 -0.22418143377E+03  0.50642457323E+03  0.00000000000E+00 0.  1.
         13    1    5    5    0    0 -0.59601119107E+02 -0.44208513952E+02  0.16985116017E+03  0.18535399299E+03  0.00000000000E+00 0. -1.
        -14    1    5    5    0    0 -0.10169878130E+02 -0.93790073825E+02  0.11993248492E+03  0.15259031853E+03  0.00000000000E+00 0.  1.
          2    1    6    6  502    0 -0.29836422099E+03  0.35648305783E+03  0.86177116952E+03  0.97915827500E+03  0.00000000000E+00 0. -1.
         -1    1    6    6    0  502 -0.13826525619E+03  0.21314899657E+03  0.37383017540E+03  0.45199422104E+03  0.00000000000E+00 0.  1.
<mgrwt>
<rscale>  0 0.77872535E+03</rscale>
<asrwt>0</asrwt>
<pdfrwt beam="1">  1        3 0.28497502E+00 0.77872535E+03</pdfrwt>
<pdfrwt beam="2">  1       -4 0.10296268E+00 0.77872535E+03</pdfrwt>
<totfact> 0.81995423E-02</totfact>
</mgrwt>
</event>
<event>
12    3  0.2212098E-007  0.6361793E+03  0.7818608E-02  0.9833064E-01
         -2   -1    0    0    0  501 -0.00000000000E+00  0.00000000000E+00  0.28328679234E+03  0.28328679234E+03  0.00000000000E+00 0.  1.
          1   -1    0    0  501    0  0.00000000000E+00 -0.00000000000E+00 -0.15414882971E+04  0.15414882971E+04  0.00000000000E+00 0. -1.
        -24    2    1    2    0    0  0.15526534456E+03  0.49302855958E+03 -0.59289588651E+03  0.79051169429E+03  0.78731942565E+02 0.  0.
    5000000    2    1    2    0    0 -0.15526534456E+03 -0.49302855958E+03 -0.66530561822E+03  0.10342633951E+04  0.59990392321E+03 0.  0.
        -24    2    4    4    0    0  0.17877388832E+03 -0.32381887706E+03 -0.18989041899E+03  0.42366789696E+03  0.81347079857E+02 0.  0.
         24    2    4    4    0    0 -0.33403923288E+03 -0.16920968252E+03 -0.47541519923E+03  0.61059549817E+03  0.81198060063E+02 0.  0.
         11    1    3    3    0    0  0.14465948124E+03  0.34679608106E+03 -0.44156287931E+03  0.57980312498E+03  0.00000000000E+00 0. -1.
        -12    1    3    3    0    0  0.10605863316E+02  0.14623247852E+03 -0.15133300720E+03  0.21070856931E+03  0.00000000000E+00 0.  1.
         13    1    5    5    0    0  0.34840292238E+02 -0.23353406490E+02 -0.41331276794E+02  0.58885499058E+02  0.00000000000E+00 0. -1.
        -14    1    5    5    0    0  0.14393359609E+03 -0.30046547057E+03 -0.14855914219E+03  0.36478239790E+03  0.00000000000E+00 0.  1.
          4    1    6    6  502    0 -0.69364769948E+02 -0.27129896132E+02 -0.15154443726E+03  0.16885857704E+03  0.00000000000E+00 0. -1.
         -3    1    6    6    0  502 -0.26467446294E+03 -0.14207978639E+03 -0.32387076197E+03  0.44173692113E+03  0.00000000000E+00 0.  1.
<mgrwt>
<rscale>  0 0.63617935E+03</rscale>
<asrwt>0</asrwt>
<pdfrwt beam="1">  1        1 0.23715205E+00 0.63617935E+03</pdfrwt>
<pdfrwt beam="2">  1       -2 0.43582583E-01 0.63617935E+03</pdfrwt>
<totfact> 0.28023015E+01</totfact>
</mgrwt>
</event>
<event>
12    3  0.2212098E-007  0.5172068E+03  0.7818608E-02  0.1009383E+00
         -4   -1    0    0    0  501 -0.00000000000E+00  0.00000000000E+00  0.52360308295E+03  0.52360308295E+03  0.00000000000E+00 0.  1.
          3   -1    0    0  501    0  0.00000000000E+00 -0.00000000000E+00 -0.70980047680E+03  0.70980047680E+03  0.00000000000E+00 0. -1.
        -24    2    1    2    0    0 -0.55240126717E+02  0.42694695942E+03 -0.22629268267E+03  0.49387344918E+03  0.85833721909E+02 0.  0.
    5000000    2    1    2    0    0  0.55240126717E+02 -0.42694695942E+03  0.40095288823E+02  0.73953011056E+03  0.59996831123E+03 0.  0.
        -24    2    4    4    0    0  0.22779348853E+03 -0.24698747705E+03  0.23087847517E+03  0.41533032594E+03  0.79383386837E+02 0.  0.
         24    2    4    4    0    0 -0.17255336182E+03 -0.17995948237E+03 -0.19078318635E+03  0.32419978462E+03  0.80914758782E+02 0.  0.
         11    1    5    5    0    0  0.30791683391E+02 -0.21670135987E+02  0.59582615366E+02  0.70482697264E+02  0.00000000000E+00 0. -1.
        -12    1    5    5    0    0  0.19700180514E+03 -0.22531734107E+03  0.17129585980E+03  0.34484762867E+03  0.00000000000E+00 0.  1.
         13    1    3    3    0    0  0.15623529315E+02  0.19961112865E+03 -0.11659799904E+03  0.23169762780E+03  0.00000000000E+00 0. -1.
        -14    1    3    3    0    0 -0.70863656032E+02  0.22733583078E+03 -0.10969468363E+03  0.26217582138E+03  0.00000000000E+00 0.  1.
          4    1    6    6  502    0 -0.81292891359E+01  0.65801142498E+01  0.51078732737E+00  0.10471110213E+02  0.00000000000E+00 0. -1.
         -3    1    6    6    0  502 -0.16442407268E+03 -0.18653959662E+03 -0.19129397367E+03  0.31372867441E+03  0.00000000000E+00 0.  1.
<mgrwt>
<rscale>  0 0.51720677E+03</rscale>
<asrwt>0</asrwt>
<pdfrwt beam="1">  1        3 0.10920007E+00 0.51720677E+03</pdfrwt>
<pdfrwt beam="2">  1       -4 0.80554320E-01 0.51720677E+03</pdfrwt>
<totfact> 0.21934916E+00</totfact>
</mgrwt>
</event>
<event>
12    3  0.2212098E-007  0.5363699E+03  0.7818608E-02  0.1004699E+00
          1   -1    0    0  501    0  0.00000000000E+00  0.00000000000E+00  0.52808504257E+03  0.52808504257E+03  0.00000000000E+00 0. -1.
         -2   -1    0    0    0  501 -0.00000000000E+00 -0.00000000000E+00 -0.60194643894E+03  0.60194643894E+03  0.00000000000E+00 0.  1.
        -24    2    1    2    0    0  0.21240861680E+03 -0.31067018078E+03  0.10661133052E+03  0.39908972659E+03  0.79203865825E+02 0.  0.
    5000000    2    1    2    0    0 -0.21240861680E+03  0.31067018078E+03 -0.18047272689E+03  0.73094175492E+03  0.60006004884E+03 0.  0.
        -24    2    4    4    0    0  0.76389729506E+02  0.37957720281E+03 -0.56515997237E+02  0.39935112964E+03  0.79831216524E+02 0.  0.
         24    2    4    4    0    0 -0.28879834630E+03 -0.68907022031E+02 -0.12395672966E+03  0.33159062528E+03  0.80214770659E+02 0.  0.
         11    1    5    5    0    0  0.54463458255E+01  0.19786710050E+03 -0.50070566502E+02  0.20417667294E+03  0.00000000000E+00 0. -1.
        -12    1    5    5    0    0  0.70943383681E+02  0.18171010231E+03 -0.64454307356E+01  0.19517445670E+03  0.00000000000E+00 0.  1.
         11    1    3    3    0    0  0.19931969497E+03 -0.30372622932E+03  0.85357113473E+02  0.37318065331E+03  0.00000000000E+00 0. -1.
        -12    1    3    3    0    0  0.13088921828E+02 -0.69439514579E+01  0.21254217044E+02  0.25909073288E+02  0.00000000000E+00 0.  1.
          4    1    6    6  502    0 -0.20176358113E+03 -0.22564173120E+02 -0.11307861512E+03  0.23238859218E+03  0.00000000000E+00 0. -1.
         -3    1    6    6    0  502 -0.87034765176E+02 -0.46342848912E+02 -0.10878114532E+02  0.99202033095E+02  0.00000000000E+00 0.  1.
<mgrwt>
<rscale>  0 0.53636989E+03</rscale>
<asrwt>0</asrwt>
<pdfrwt beam="1">  1        1 0.81243853E-01 0.53636989E+03</pdfrwt>
<pdfrwt beam="2">  1       -2 0.92607144E-01 0.53636989E+03</pdfrwt>
<totfact> 0.36871624E+01</totfact>
</mgrwt>
</event>
<event>
12    3  0.2212098E-007  0.5975545E+03  0.7818608E-02  0.9910493E-01
         -2   -1    0    0    0  501 -0.00000000000E+00  0.00000000000E+00  0.78741795913E+03  0.78741795913E+03  0.00000000000E+00 0.  1.
          1   -1    0    0  501    0  0.00000000000E+00 -0.00000000000E+00 -0.53763166928E+03  0.53763166928E+03  0.00000000000E+00 0. -1.
        -24    2    1    2    0    0  0.24679898815E+03  0.37848971722E+03  0.33669790182E+03  0.56883971752E+03  0.77774935248E+02 0.  0.
    5000000    2    1    2    0    0 -0.24679898815E+03 -0.37848971722E+03 -0.86911611971E+02  0.75620991089E+03  0.60011298473E+03 0.  0.
        -24    2    4    4    0    0 -0.27625577688E+03  0.68890043351E+02 -0.50142444306E+02  0.30013446516E+03  0.80643289383E+02 0.  0.
         24    2    4    4    0    0  0.29456788730E+02 -0.44737976057E+03 -0.36769167665E+02  0.45607544573E+03  0.75076547225E+02 0.  0.
         11    1    5    5    0    0 -0.11783907840E+03 -0.54315040559E+01 -0.41091216976E+02  0.12491612285E+03  0.00000000000E+00 0. -1.
        -12    1    5    5    0    0 -0.15841669848E+03  0.74321547407E+02 -0.90512273300E+01  0.17521834231E+03  0.00000000000E+00 0.  1.
         11    1    3    3    0    0  0.90661536271E+02  0.10539368994E+03  0.66312656379E+02  0.15402828453E+03  0.00000000000E+00 0. -1.
        -12    1    3    3    0    0  0.15613745188E+03  0.27309602728E+03  0.27038524544E+03  0.41481143300E+03  0.00000000000E+00 0.  1.
          2    1    6    6  502    0  0.83389515744E+01 -0.56936174630E+02 -0.30242461390E+02  0.65006711698E+02  0.00000000000E+00 0. -1.
         -1    1    6    6    0  502  0.21117837156E+02 -0.39044358594E+03 -0.65267062752E+01  0.39106873404E+03  0.00000000000E+00 0.  1.
<mgrwt>
<rscale>  0 0.59755446E+03</rscale>
<asrwt>0</asrwt>
<pdfrwt beam="1">  1        1 0.82712565E-01 0.59755446E+03</pdfrwt>
<pdfrwt beam="2">  1       -2 0.12114122E+00 0.59755446E+03</pdfrwt>
<totfact> 0.18800139E+01</totfact>
</mgrwt>
</event>
<event>
12    3  0.2212098E-007  0.1063429E+04  0.7818608E-02  0.9241588E-01
         -2   -1    0    0    0  501 -0.00000000000E+00  0.00000000000E+00  0.77962014892E+03  0.77962014892E+03  0.00000000000E+00 0.  1.
          1   -1    0    0  501    0  0.00000000000E+00 -0.00000000000E+00 -0.21139575939E+04  0.21139575939E+04  0.00000000000E+00 0. -1.
        -24    2    1    2    0    0  0.91346209114E+03  0.39780149671E+03 -0.14097199637E+04  0.17281057515E+04  0.79875463435E+02 0.  0.
    5000000    2    1    2    0    0 -0.91346209114E+03 -0.39780149671E+03  0.75382518708E+02  0.11654719913E+04  0.59998617959E+03 0.  0.
        -24    2    4    4    0    0 -0.46190815240E+03 -0.48189999165E+03  0.16156937707E+03  0.69110135114E+03  0.77004355362E+02 0.  0.
         24    2    4    4    0    0 -0.45155393874E+03  0.84098494940E+02 -0.86186858359E+02  0.47437064018E+03  0.81399098680E+02 0.  0.
         13    1    3    3    0    0  0.77943066947E+02  0.10730978318E+02 -0.10821375017E+03  0.13379271769E+03  0.00000000000E+00 0. -1.
        -14    1    3    3    0    0  0.83551902419E+03  0.38707051839E+03 -0.13015062135E+04  0.15943130338E+04  0.00000000000E+00 0.  1.
         13    1    5    5    0    0 -0.39206001442E+03 -0.41594677096E+03  0.16512578038E+03  0.59496999465E+03  0.00000000000E+00 0. -1.
        -14    1    5    5    0    0 -0.69848137973E+02 -0.65953220687E+02 -0.35564033148E+01  0.96131356496E+02  0.00000000000E+00 0.  1.
          2    1    6    6  502    0 -0.28258967251E+03  0.61762654656E+02 -0.14945681318E+02  0.28964620127E+03  0.00000000000E+00 0. -1.
         -1    1    6    6    0  502 -0.16896426623E+03  0.22335840284E+02 -0.71241177042E+02  0.18472443891E+03  0.00000000000E+00 0.  1.
<mgrwt>
<rscale>  0 0.10634292E+04</rscale>
<asrwt>0</asrwt>
<pdfrwt beam="1">  1        1 0.32522424E+00 0.10634292E+04</pdfrwt>
<pdfrwt beam="2">  1       -2 0.11994156E+00 0.10634292E+04</pdfrwt>
<totfact> 0.11603623E+00</totfact>
</mgrwt>
</event>
<event>
12    3  0.2212098E-007  0.4678511E+03  0.7818608E-02  0.1022528E+00
         -2   -1    0    0    0  501 -0.00000000000E+00  0.00000000000E+00  0.29426726290E+03  0.29426726290E+03  0.00000000000E+00 0.  1.
          1   -1    0    0  501    0  0.00000000000E+00 -0.00000000000E+00 -0.85443822637E+03  0.85443822637E+03  0.00000000000E+00 0. -1.
        -24    2    1    2    0    0 -0.30745984496E+03  0.68431231102E+02 -0.19160693585E+03  0.37716795147E+03  0.79549079802E+02 0.  0.
    5000000    2    1    2    0    0  0.30745984496E+03 -0.68431231102E+02 -0.36856402762E+03  0.77153753780E+03  0.60018025635E+03 0.  0.
        -24    2    4    4    0    0  0.15506754518E+03  0.22296100685E+03 -0.17344471547E+02  0.28370076101E+03  0.80173168580E+02 0.  0.
         24    2    4    4    0    0  0.15239229978E+03 -0.29139223795E+03 -0.35121955608E+03  0.48783677679E+03  0.80602077151E+02 0.  0.
         13    1    5    5    0    0  0.10234208476E+03  0.97717498647E+02 -0.37347690599E+02  0.14634705958E+03  0.00000000000E+00 0. -1.
        -14    1    5    5    0    0  0.52725460420E+02  0.12524350821E+03  0.20003219052E+02  0.13735370143E+03  0.00000000000E+00 0.  1.
         13    1    3    3    0    0 -0.14168620683E+03  0.60476004704E+02 -0.12480432418E+03  0.19826358134E+03  0.00000000000E+00 0. -1.
        -14    1    3    3    0    0 -0.16577363813E+03  0.79552263980E+01 -0.66802611662E+02  0.17890437013E+03  0.00000000000E+00 0.  1.
          2    1    6    6  502    0  0.15700237026E+03 -0.24060771237E+03 -0.30512489237E+03  0.41909785905E+03  0.00000000000E+00 0. -1.
         -1    1    6    6    0  502 -0.46100704795E+01 -0.50784525587E+02 -0.46094663705E+02  0.68738917732E+02  0.00000000000E+00 0.  1.
<mgrwt>
<rscale>  0 0.46785114E+03</rscale>
<asrwt>0</asrwt>
<pdfrwt beam="1">  1        1 0.13145203E+00 0.46785114E+03</pdfrwt>
<pdfrwt beam="2">  1       -2 0.45271888E-01 0.46785114E+03</pdfrwt>
<totfact> 0.84097146E+01</totfact>
</mgrwt>
</event>
<event>
12    3  0.2212098E-007  0.4413073E+03  0.7818608E-02  0.1030346E+00
          1   -1    0    0  501    0  0.00000000000E+00  0.00000000000E+00  0.91360555220E+03  0.91360555220E+03  0.00000000000E+00 0. -1.
         -2   -1    0    0    0  501 -0.00000000000E+00 -0.00000000000E+00 -0.27005790481E+03  0.27005790481E+03  0.00000000000E+00 0.  1.
        -24    2    1    2    0    0 -0.54926438023E+01 -0.28539162005E+03  0.66851489114E+02  0.30382358144E+03  0.79756511400E+02 0.  0.
    5000000    2    1    2    0    0  0.54926438023E+01  0.28539162005E+03  0.57669615828E+03  0.87983987557E+03  0.60005099927E+03 0.  0.
        -24    2    4    4    0    0  0.26031976128E+03  0.17010555924E+03  0.47042823403E+03  0.57003279741E+03  0.83260959402E+02 0.  0.
         24    2    4    4    0    0 -0.25482711748E+03  0.11528606081E+03  0.10626792426E+03  0.30980707816E+03  0.80372995037E+02 0.  0.
         11    1    5    5    0    0  0.21702740441E+03  0.13130341878E+03  0.31721888036E+03  0.40616412952E+03  0.00000000000E+00 0. -1.
        -12    1    5    5    0    0  0.43292356868E+02  0.38802140461E+02  0.15320935367E+03  0.16386866790E+03  0.00000000000E+00 0.  1.
         11    1    3    3    0    0 -0.18389010652E+02 -0.42558456251E+02  0.36003336399E+02  0.58699387927E+02  0.00000000000E+00 0. -1.
        -12    1    3    3    0    0  0.12896366849E+02 -0.24283316380E+03  0.30848152715E+02  0.24512419351E+03  0.00000000000E+00 0.  1.
          2    1    6    6  502    0 -0.15491606011E+03  0.85922429842E+02  0.27576865308E+02  0.17928227222E+03  0.00000000000E+00 0. -1.
         -1    1    6    6    0  502 -0.99911057364E+02  0.29363630968E+02  0.78691058949E+02  0.13052480594E+03  0.00000000000E+00 0.  1.
<mgrwt>
<rscale>  0 0.44130732E+03</rscale>
<asrwt>0</asrwt>
<pdfrwt beam="1">  1        1 0.14055470E+00 0.44130732E+03</pdfrwt>
<pdfrwt beam="2">  1       -2 0.41547370E-01 0.44130732E+03</pdfrwt>
<totfact> 0.89438259E+01</totfact>
</mgrwt>
</event>
<event>
12    3  0.2212098E-007  0.4188538E+03  0.7818608E-02  0.1037440E+00
         -2   -1    0    0    0  501 -0.00000000000E+00  0.00000000000E+00  0.22417185541E+03  0.22417185541E+03  0.00000000000E+00 0.  1.
          1   -1    0    0  501    0  0.00000000000E+00 -0.00000000000E+00 -0.10506866222E+04  0.10506866222E+04  0.00000000000E+00 0. -1.
        -24    2    1    2    0    0  0.23126215304E+03 -0.10497890821E+02 -0.49256147523E+03  0.55008028776E+03  0.79869436950E+02 0.  0.
    5000000    2    1    2    0    0 -0.23126215304E+03  0.10497890821E+02 -0.33395329158E+03  0.72477818987E+03  0.60015517528E+03 0.  0.
        -24    2    4    4    0    0 -0.88724579524E+02 -0.26256169462E+03 -0.28693344850E+03  0.40546280441E+03  0.72516118184E+02 0.  0.
         24    2    4    4    0    0 -0.14253757351E+03  0.27305958544E+03 -0.47019843078E+02  0.31931538546E+03  0.69806537537E+02 0.  0.
         11    1    3    3    0    0  0.19870372188E+03 -0.36923934395E+02 -0.38945726401E+03  0.43877500670E+03  0.00000000000E+00 0. -1.
        -12    1    3    3    0    0  0.32558431159E+02  0.26426043574E+02 -0.10310421122E+03  0.11130528106E+03  0.00000000000E+00 0.  1.
         13    1    5    5    0    0 -0.85821266895E+02 -0.16015448644E+03 -0.15803912463E+03  0.24081344292E+03  0.00000000000E+00 0. -1.
        -14    1    5    5    0    0 -0.29033126281E+01 -0.10240720819E+03 -0.12889432387E+03  0.16464936149E+03  0.00000000000E+00 0.  1.
          2    1    6    6  502    0 -0.10655438282E+03  0.22943889580E+03 -0.12966652225E+02  0.25330648921E+03  0.00000000000E+00 0. -1.
         -1    1    6    6    0  502 -0.35983190689E+02  0.43620689643E+02 -0.34053190853E+02  0.66008896252E+02  0.00000000000E+00 0.  1.
<mgrwt>
<rscale>  0 0.41885385E+03</rscale>
<asrwt>0</asrwt>
<pdfrwt beam="1">  1        1 0.16164410E+00 0.41885385E+03</pdfrwt>
<pdfrwt beam="2">  1       -2 0.34487977E-01 0.41885385E+03</pdfrwt>
<totfact> 0.10048969E+02</totfact>
</mgrwt>
</event>
<event>
12    3  0.2212098E-007  0.1006857E+04  0.7818608E-02  0.9301056E-01
          1   -1    0    0  501    0  0.00000000000E+00  0.00000000000E+00  0.12350915082E+04  0.12350915082E+04  0.00000000000E+00 0. -1.
         -2   -1    0    0    0  501 -0.00000000000E+00 -0.00000000000E+00 -0.10489547059E+04  0.10489547059E+04  0.00000000000E+00 0.  1.
        -24    2    1    2    0    0 -0.24005457753E+03 -0.97055197501E+03 -0.25599981004E+03  0.10369697712E+04  0.10086162383E+03 0.  0.
    5000000    2    1    2    0    0  0.24005457753E+03  0.97055197501E+03  0.44213661241E+03  0.12470764429E+04  0.60009793706E+03 0.  0.
        -24    2    4    4    0    0  0.50215129832E+02  0.37405790441E+03  0.47645911459E+03  0.61497417982E+03  0.93483040454E+02 0.  0.
         24    2    4    4    0    0  0.18983944770E+03  0.59649407060E+03 -0.34322502181E+02  0.63210226310E+03  0.80814879189E+02 0.  0.
         13    1    3    3    0    0 -0.13354886440E+03 -0.72122643743E+03 -0.17630148209E+03  0.75437728347E+03  0.00000000000E+00 0. -1.
        -14    1    3    3    0    0 -0.10650571312E+03 -0.24932553758E+03 -0.79698327947E+02  0.28259248769E+03  0.00000000000E+00 0.  1.
         13    1    5    5    0    0  0.55049690114E+02  0.29231677610E+03  0.31092790497E+03  0.43029725546E+03  0.00000000000E+00 0. -1.
        -14    1    5    5    0    0 -0.48345602816E+01  0.81741128311E+02  0.16553120963E+03  0.18467692436E+03  0.00000000000E+00 0.  1.
          4    1    6    6  502    0  0.11601777785E+03  0.46199582705E+03 -0.78213036602E+01  0.47640470378E+03  0.00000000000E+00 0. -1.
         -3    1    6    6    0  502  0.73821669841E+02  0.13449824355E+03 -0.26501198521E+02  0.15569755932E+03  0.00000000000E+00 0.  1.
<mgrwt>
<rscale>  0 0.10068566E+04</rscale>
<asrwt>0</asrwt>
<pdfrwt beam="1">  1        1 0.19001408E+00 0.10068566E+04</pdfrwt>
<pdfrwt beam="2">  1       -2 0.16137765E+00 0.10068566E+04</pdfrwt>
<totfact> 0.21645222E+00</totfact>
</mgrwt>
</event>
<event>
12    3  0.2212098E-007  0.4987352E+03  0.7818608E-02  0.1014110E+00
         -2   -1    0    0    0  501 -0.00000000000E+00  0.00000000000E+00  0.36686015361E+03  0.36686015361E+03  0.00000000000E+00 0.  1.
          1   -1    0    0  501    0  0.00000000000E+00 -0.00000000000E+00 -0.83183716287E+03  0.83183716287E+03  0.00000000000E+00 0. -1.
        -24    2    1    2    0    0  0.14177966966E+03  0.29896830220E+03  0.46801058420E+02  0.34349898524E+03  0.79483918752E+02 0.  0.
    5000000    2    1    2    0    0 -0.14177966966E+03 -0.29896830220E+03 -0.51177806768E+03  0.85519833125E+03  0.59996989488E+03 0.  0.
        -24    2    4    4    0    0  0.18518451045E+03  0.34460501094E+02 -0.21193462746E+03  0.29432885649E+03  0.78945300053E+02 0.  0.
         24    2    4    4    0    0 -0.32696418011E+03 -0.33342880329E+03 -0.29984344022E+03  0.56086947475E+03  0.81167340293E+02 0.  0.
         11    1    3    3    0    0  0.93611909769E+02  0.13117068787E+03 -0.55495312173E+01  0.16124433727E+03  0.00000000000E+00 0. -1.
        -12    1    3    3    0    0  0.48167759892E+02  0.16779761433E+03  0.52350589637E+02  0.18225464796E+03  0.00000000000E+00 0.  1.
         13    1    5    5    0    0  0.10448203201E+03  0.24024641708E+02 -0.17439541927E+03  0.20471306916E+03  0.00000000000E+00 0. -1.
        -14    1    5    5    0    0  0.80702478441E+02  0.10435859386E+02 -0.37539208191E+02  0.89615787333E+02  0.00000000000E+00 0.  1.
          4    1    6    6  502    0 -0.25610485051E+03 -0.21152954545E+03 -0.22543989531E+03  0.40144437903E+03  0.00000000000E+00 0. -1.
         -3    1    6    6    0  502 -0.70859329597E+02 -0.12189925784E+03 -0.74403544907E+02  0.15942509573E+03  0.00000000000E+00 0.  1.
<mgrwt>
<rscale>  0 0.49873525E+03</rscale>
<asrwt>0</asrwt>
<pdfrwt beam="1">  1        1 0.12797495E+00 0.49873525E+03</pdfrwt>
<pdfrwt beam="2">  1       -2 0.56440024E-01 0.49873525E+03</pdfrwt>
<totfact> 0.55964130E+01</totfact>
</mgrwt>
</event>
<event>
12    3  0.2212098E-007  0.5629147E+03  0.7818608E-02  0.9985481E-01
         -2   -1    0    0    0  501 -0.00000000000E+00  0.00000000000E+00  0.10451436621E+04  0.10451436621E+04  0.00000000000E+00 0.  1.
          1   -1    0    0  501    0  0.00000000000E+00 -0.00000000000E+00 -0.38663165963E+03  0.38663165963E+03  0.00000000000E+00 0. -1.
        -24    2    1    2    0    0  0.82844929969E+02 -0.43002972383E+03  0.91520529955E+01  0.44517683531E+03  0.79434305067E+02 0.  0.
    5000000    2    1    2    0    0 -0.82844929969E+02  0.43002972383E+03  0.64935994953E+03  0.98659848647E+03  0.59993281595E+03 0.  0.
        -24    2    4    4    0    0 -0.76334586218E+02 -0.11488196037E+03  0.28459099309E+03  0.32600917813E+03  0.79152492102E+02 0.  0.
         24    2    4    4    0    0 -0.65103437512E+01  0.54491168420E+03  0.36476895644E+03  0.66058930834E+03  0.79691370652E+02 0.  0.
         11    1    3    3    0    0  0.56916425487E+02 -0.22275565929E+03  0.42010690836E+02  0.23371876557E+03  0.00000000000E+00 0. -1.
        -12    1    3    3    0    0  0.25928504482E+02 -0.20727406454E+03 -0.32858637840E+02  0.21145806974E+03  0.00000000000E+00 0.  1.
         13    1    5    5    0    0 -0.38102689870E+02 -0.33538432426E+02  0.18508749542E+03  0.19192191742E+03  0.00000000000E+00 0. -1.
        -14    1    5    5    0    0 -0.38231896348E+02 -0.81343527943E+02  0.99503497670E+02  0.13408726071E+03  0.00000000000E+00 0.  1.
          4    1    6    6  502    0 -0.21720981639E+02  0.41853645982E+03  0.31343163700E+03  0.52333924018E+03  0.00000000000E+00 0. -1.
         -3    1    6    6    0  502  0.15210637888E+02  0.12637522438E+03  0.51337319444E+02  0.13725006816E+03  0.00000000000E+00 0.  1.
<mgrwt>
<rscale>  0 0.56291471E+03</rscale>
<asrwt>0</asrwt>
<pdfrwt beam="1">  1        1 0.59481794E-01 0.56291471E+03</pdfrwt>
<pdfrwt beam="2">  1       -2 0.16079133E+00 0.56291471E+03</pdfrwt>
<totfact> 0.14171444E+01</totfact>
</mgrwt>
</event>
<event>
12    3  0.2212098E-007  0.6776805E+03  0.7818608E-02  0.9756182E-01
          1   -1    0    0  501    0  0.00000000000E+00  0.00000000000E+00  0.12170161516E+04  0.12170161516E+04  0.00000000000E+00 0. -1.
         -2   -1    0    0    0  501 -0.00000000000E+00 -0.00000000000E+00 -0.10931915990E+04  0.10931915990E+04  0.00000000000E+00 0.  1.
        -24    2    1    2    0    0 -0.63015315903E+03  0.59989412375E+02  0.92623386650E+03  0.11251294734E+04  0.85530245734E+02 0.  0.
    5000000    2    1    2    0    0  0.63015315903E+03 -0.59989412375E+02 -0.80240931387E+03  0.11850782772E+04  0.59988172388E+03 0.  0.
        -24    2    4    4    0    0  0.39482324372E+03 -0.18370215004E+03 -0.13637169580E+03  0.46354048697E+03  0.81490305734E+02 0.  0.
         24    2    4    4    0    0  0.23532991531E+03  0.12371273767E+03 -0.66603761807E+03  0.72153779023E+03  0.79534040117E+02 0.  0.
         11    1    3    3    0    0 -0.58962434149E+03  0.77318326096E+02  0.86333909535E+03  0.10483269438E+04  0.00000000000E+00 0. -1.
        -12    1    3    3    0    0 -0.40528817544E+02 -0.17328913721E+02  0.62894771149E+02  0.76802529517E+02  0.00000000000E+00 0.  1.
         11    1    5    5    0    0  0.10628168802E+03 -0.22686237170E+02 -0.77154787064E+01  0.10894948911E+03  0.00000000000E+00 0. -1.
        -12    1    5    5    0    0  0.28854155570E+03 -0.16101591287E+03 -0.12865621710E+03  0.35459099786E+03  0.00000000000E+00 0.  1.
          2    1    6    6  502    0  0.16782687552E+03  0.12616341495E+03 -0.50318354134E+03  0.54523090860E+03  0.00000000000E+00 0. -1.
         -1    1    6    6    0  502  0.67503039796E+02 -0.24506772839E+01 -0.16285407673E+03  0.17630688163E+03  0.00000000000E+00 0.  1.
<mgrwt>
<rscale>  0 0.67768046E+03</rscale>
<asrwt>0</asrwt>
<pdfrwt beam="1">  1        1 0.18723325E+00 0.67768046E+03</pdfrwt>
<pdfrwt beam="2">  1       -2 0.16818332E+00 0.67768046E+03</pdfrwt>
<totfact> 0.20880640E+00</totfact>
</mgrwt>
</event>
<event>
12    3  0.2212098E-007  0.1285746E+04  0.7818608E-02  0.9040946E-01
          1   -1    0    0  501    0  0.00000000000E+00  0.00000000000E+00  0.63270525980E+03  0.63270525980E+03  0.00000000000E+00 0. -1.
         -2   -1    0    0    0  501 -0.00000000000E+00 -0.00000000000E+00 -0.28349331243E+04  0.28349331243E+04  0.00000000000E+00 0.  1.
        -24    2    1    2    0    0 -0.82568158802E+03 -0.93874305909E+03 -0.75300096966E+03  0.14618585921E+04  0.83853844187E+02 0.  0.
    5000000    2    1    2    0    0  0.82568158802E+03  0.93874305909E+03 -0.14492268949E+04  0.20057797920E+04  0.59992113275E+03 0.  0.
        -24    2    4    4    0    0  0.71230841900E+03  0.53672117893E+03 -0.12448568136E+04  0.15338408628E+04  0.86870008256E+02 0.  0.
         24    2    4    4    0    0  0.11337316901E+03  0.40202188016E+03 -0.20437008128E+03  0.47193892924E+03  0.80524252430E+02 0.  0.
         11    1    3    3    0    0 -0.28943648198E+03 -0.37169037938E+03 -0.31782886646E+03  0.56828021572E+03  0.00000000000E+00 0. -1.
        -12    1    3    3    0    0 -0.53624510603E+03 -0.56705267971E+03 -0.43517210320E+03  0.89357837637E+03  0.00000000000E+00 0.  1.
         11    1    5    5    0    0  0.69551852527E+03  0.50719441687E+03 -0.11798176524E+04  0.14604663256E+04  0.00000000000E+00 0. -1.
        -12    1    5    5    0    0  0.16789893732E+02  0.29526762068E+02 -0.65039161217E+02  0.73374537147E+02  0.00000000000E+00 0.  1.
          4    1    6    6  502    0  0.59438959997E+02  0.32935961658E+03 -0.15457733924E+03  0.36865281879E+03  0.00000000000E+00 0. -1.
         -3    1    6    6    0  502  0.53934209018E+02  0.72662263583E+02 -0.49792742038E+02  0.10328611045E+03  0.00000000000E+00 0.  1.
<mgrwt>
<rscale>  0 0.12857461E+04</rscale>
<asrwt>0</asrwt>
<pdfrwt beam="1">  1        1 0.97339268E-01 0.12857461E+04</pdfrwt>
<pdfrwt beam="2">  1       -2 0.43614357E+00 0.12857461E+04</pdfrwt>
<totfact> 0.11691031E-01</totfact>
</mgrwt>
</event>
<event>
12    3  0.2212098E-007  0.5352428E+03  0.7818608E-02  0.1004969E+00
          1   -1    0    0  501    0  0.00000000000E+00  0.00000000000E+00  0.20968466708E+04  0.20968466708E+04  0.00000000000E+00 0. -1.
         -2   -1    0    0    0  501 -0.00000000000E+00 -0.00000000000E+00 -0.24033816665E+03  0.24033816665E+03  0.00000000000E+00 0.  1.
        -24    2    1    2    0    0  0.39573028946E+03  0.21362386047E+03  0.13688313621E+04  0.14429211952E+04  0.78004242862E+02 0.  0.
    5000000    2    1    2    0    0 -0.39573028946E+03 -0.21362386047E+03  0.48767714202E+03  0.89426364224E+03  0.59970063466E+03 0.  0.
        -24    2    4    4    0    0  0.81316101743E+02 -0.53619332894E+02  0.34160605105E+03  0.36414695349E+03  0.80130945096E+02 0.  0.
         24    2    4    4    0    0 -0.47704639120E+03 -0.16000452758E+03  0.14607109098E+03  0.53011668875E+03  0.80698400610E+02 0.  0.
         13    1    5    5    0    0  0.72866507925E+02 -0.67487606373E+02  0.21898051362E+03  0.24045076489E+03  0.00000000000E+00 0. -1.
        -14    1    5    5    0    0  0.84495938182E+01  0.13868273479E+02  0.12262553742E+03  0.12369618860E+03  0.00000000000E+00 0.  1.
         13    1    3    3    0    0  0.21084107734E+03  0.10907447029E+03  0.84373831614E+03  0.87649617573E+03  0.00000000000E+00 0. -1.
        -14    1    3    3    0    0  0.18488921212E+03  0.10454939019E+03  0.52509304599E+03  0.56642501949E+03  0.00000000000E+00 0.  1.
          2    1    6    6  502    0 -0.30067362027E+02  0.90661034995E+00 -0.72222087453E+01  0.30935877242E+02  0.00000000000E+00 0. -1.
         -1    1    6    6    0  502 -0.44697902918E+03 -0.16091113793E+03  0.15329329972E+03  0.49918081150E+03  0.00000000000E+00 0.  1.
<mgrwt>
<rscale>  0 0.53524278E+03</rscale>
<asrwt>0</asrwt>
<pdfrwt beam="1">  1        1 0.32259178E+00 0.53524278E+03</pdfrwt>
<pdfrwt beam="2">  1       -2 0.36975104E-01 0.53524278E+03</pdfrwt>
<totfact> 0.16715888E+01</totfact>
</mgrwt>
</event>
<event>
12    3  0.2212098E-007  0.4853642E+03  0.7818608E-02  0.1017671E+00
         -2   -1    0    0    0  501 -0.00000000000E+00  0.00000000000E+00  0.19699286725E+03  0.19699286725E+03  0.00000000000E+00 0.  1.
          1   -1    0    0  501    0  0.00000000000E+00 -0.00000000000E+00 -0.21721914108E+04  0.21721914108E+04  0.00000000000E+00 0. -1.
        -24    2    1    2    0    0  0.33609057732E+03 -0.21735308524E+03 -0.20231758196E+03  0.45520121136E+03  0.77951902027E+02 0.  0.
    5000000    2    1    2    0    0 -0.33609057732E+03  0.21735308524E+03 -0.17728809616E+04  0.19139830667E+04  0.60002086278E+03 0.  0.
        -24    2    4    4    0    0  0.44949047956E+02 -0.55459957807E+02 -0.10085689665E+04  0.10139580164E+04  0.76179228826E+02 0.  0.
         24    2    4    4    0    0 -0.38103962528E+03  0.27281304305E+03 -0.76431199510E+03  0.90002505035E+03  0.79082949553E+02 0.  0.
         11    1    5    5    0    0 -0.16723125443E+02 -0.20886637350E+02 -0.14123534970E+03  0.14374748189E+03  0.00000000000E+00 0. -1.
        -12    1    5    5    0    0  0.61672173400E+02 -0.34573320457E+02 -0.86733361680E+03  0.87021053447E+03  0.00000000000E+00 0.  1.
         13    1    3    3    0    0  0.16590926459E+03 -0.10981359106E+03 -0.57141149678E+02  0.20700246338E+03  0.00000000000E+00 0. -1.
        -14    1    3    3    0    0  0.17018131273E+03 -0.10753949418E+03 -0.14517643228E+03  0.24819874799E+03  0.00000000000E+00 0.  1.
          4    1    6    6  502    0 -0.24786419317E+03  0.13886514662E+03 -0.50132522077E+03  0.57623533750E+03  0.00000000000E+00 0. -1.
         -3    1    6    6    0  502 -0.13317543210E+03  0.13394789643E+03 -0.26298677433E+03  0.32378971285E+03  0.00000000000E+00 0.  1.
<mgrwt>
<rscale>  0 0.48536419E+03</rscale>
<asrwt>0</asrwt>
<pdfrwt beam="1">  1        1 0.33418327E+00 0.48536419E+03</pdfrwt>
<pdfrwt beam="2">  1       -2 0.30306597E-01 0.48536419E+03</pdfrwt>
<totfact> 0.21868561E+01</totfact>
</mgrwt>
</event>
<event>
12    3  0.2419280E-007  0.7199148E+03  0.7818608E-02  0.9683768E-01
          1   -1    0    0  501    0  0.00000000000E+00  0.00000000000E+00  0.27213093658E+04  0.27213093658E+04  0.00000000000E+00 0. -1.
         -2   -1    0    0    0  501 -0.00000000000E+00 -0.00000000000E+00 -0.27653512969E+03  0.27653512969E+03  0.00000000000E+00 0.  1.
        -24    2    1    2    0    0 -0.30616766489E+03 -0.51205161711E+03  0.18964015330E+04  0.19895602156E+04  0.77946004896E+02 0.  0.
    5000000    2    1    2    0    0  0.30616766489E+03  0.51205161711E+03  0.54837270314E+03  0.10082842799E+04  0.59999089150E+03 0.  0.
        -24    2    4    4    0    0 -0.99968247666E+02 -0.55269133504E+02  0.46880509059E+02  0.14529130338E+03  0.76573187539E+02 0.  0.
         24    2    4    4    0    0  0.40613591256E+03  0.56732075062E+03  0.50149219408E+03  0.86299297649E+03  0.80394298266E+02 0.  0.
         11    1    5    5    0    0 -0.58714319953E+02 -0.71427818914E+02  0.24497203771E+02  0.95652588439E+02  0.00000000000E+00 0. -1.
        -12    1    5    5    0    0 -0.41253927712E+02  0.16158685410E+02  0.22383305288E+02  0.49638714946E+02  0.00000000000E+00 0.  1.
         11    1    3    3    0    0 -0.19433463292E+03 -0.24937022856E+03  0.98722805768E+03  0.10366150193E+04  0.00000000000E+00 0. -1.
        -12    1    3    3    0    0 -0.11183303198E+03 -0.26268138855E+03  0.90917347528E+03  0.95294519626E+03  0.00000000000E+00 0.  1.
          4    1    6    6  502    0  0.23922519556E+03  0.27236510046E+03  0.23718832624E+03  0.43320866132E+03  0.00000000000E+00 0. -1.
         -3    1    6    6    0  502  0.16691071700E+03  0.29495565015E+03  0.26430386784E+03  0.42978431517E+03  0.00000000000E+00 0.  1.
<mgrwt>
<rscale>  0 0.71991483E+03</rscale>
<asrwt>0</asrwt>
<pdfrwt beam="1">  1        1 0.41866296E+00 0.71991483E+03</pdfrwt>
<pdfrwt beam="2">  1       -2 0.42543868E-01 0.71991483E+03</pdfrwt>
<totfact> 0.46435832E+00</totfact>
</mgrwt>
</event>
<event>
12    3  0.2212098E-007  0.9461772E+03  0.7818608E-02  0.9369630E-01
          1   -1    0    0  501    0  0.00000000000E+00  0.00000000000E+00  0.56118109933E+03  0.56118109933E+03  0.00000000000E+00 0. -1.
         -2   -1    0    0    0  501 -0.00000000000E+00 -0.00000000000E+00 -0.17166942793E+04  0.17166942793E+04  0.00000000000E+00 0.  1.
        -24    2    1    2    0    0 -0.88326212193E+03  0.24197693088E+02 -0.41823724337E+03  0.98006121093E+03  0.69714281487E+02 0.  0.
    5000000    2    1    2    0    0  0.88326212193E+03 -0.24197693088E+02 -0.73727593664E+03  0.12978141677E+04  0.60000691901E+03 0.  0.
        -24    2    4    4    0    0  0.34705544734E+03 -0.23646128488E+03 -0.10671526955E+03  0.43962400163E+03  0.74294624831E+02 0.  0.
         24    2    4    4    0    0  0.53620667459E+03  0.21226359179E+03 -0.63056066708E+03  0.85819016611E+03  0.79436616645E+02 0.  0.
         13    1    3    3    0    0 -0.53589620369E+03 -0.19330323103E+02 -0.25052755805E+03  0.59188044389E+03  0.00000000000E+00 0. -1.
        -14    1    3    3    0    0 -0.34736591824E+03  0.43528016191E+02 -0.16770968531E+03  0.38818076704E+03  0.00000000000E+00 0.  1.
         13    1    5    5    0    0  0.32288256019E+03 -0.23804388693E+03 -0.92996103002E+02  0.41178430635E+03  0.00000000000E+00 0. -1.
        -14    1    5    5    0    0  0.24172887145E+02  0.15826020592E+01 -0.13719166550E+02  0.27839695275E+02  0.00000000000E+00 0.  1.
          4    1    6    6  502    0  0.52171610251E+03  0.21751502724E+03 -0.62235339830E+03  0.84072839316E+03  0.00000000000E+00 0. -1.
         -3    1    6    6    0  502  0.14490572086E+02 -0.52514354555E+01 -0.82072687810E+01  0.17461772950E+02  0.00000000000E+00 0.  1.
<mgrwt>
<rscale>  0 0.94617716E+03</rscale>
<asrwt>0</asrwt>
<pdfrwt beam="1">  1        1 0.86335554E-01 0.94617716E+03</pdfrwt>
<pdfrwt beam="2">  1       -2 0.26410681E+00 0.94617716E+03</pdfrwt>
<totfact> 0.17575276E+00</totfact>
</mgrwt>
</event>
<event>
12    3  0.2212098E-007  0.8220948E+03  0.7818608E-02  0.9528575E-01
         -2   -1    0    0    0  501 -0.00000000000E+00  0.00000000000E+00  0.41024595251E+03  0.41024595251E+03  0.00000000000E+00 0.  1.
          1   -1    0    0  501    0  0.00000000000E+00 -0.00000000000E+00 -0.21883921422E+04  0.21883921422E+04  0.00000000000E+00 0. -1.
        -24    2    1    2    0    0 -0.64433030988E+03  0.36525926036E+03 -0.13753056328E+04  0.15639892161E+04  0.77593871743E+02 0.  0.
    5000000    2    1    2    0    0  0.64433030988E+03 -0.36525926036E+03 -0.40284055691E+03  0.10346488786E+04  0.59970151932E+03 0.  0.
        -24    2    4    4    0    0  0.68547032517E+02  0.11337511486E+03 -0.20378883501E+03  0.25592782365E+03  0.80103366401E+02 0.  0.
         24    2    4    4    0    0  0.57578327736E+03 -0.47863437523E+03 -0.19905172190E+03  0.77872105499E+03  0.78534360974E+02 0.  0.
         13    1    3    3    0    0 -0.16680136570E+03  0.11210835852E+03 -0.31051004194E+03  0.36987493264E+03  0.00000000000E+00 0. -1.
        -14    1    3    3    0    0 -0.47752894417E+03  0.25315090185E+03 -0.10647955908E+04  0.11941142834E+04  0.00000000000E+00 0.  1.
         13    1    5    5    0    0  0.15640177986E+01  0.75893602671E+02 -0.80076718684E+02  0.11033841558E+03  0.00000000000E+00 0. -1.
        -14    1    5    5    0    0  0.66983014718E+02  0.37481512191E+02 -0.12371211632E+03  0.14558940807E+03  0.00000000000E+00 0.  1.
          2    1    6    6  502    0  0.78001238810E+02 -0.85743731594E+02 -0.70042401176E+01  0.11612596671E+03  0.00000000000E+00 0. -1.
         -1    1    6    6    0  502  0.49778203855E+03 -0.39289064363E+03 -0.19204748179E+03  0.66259508828E+03  0.00000000000E+00 0.  1.
<mgrwt>
<rscale>  0 0.82209480E+03</rscale>
<asrwt>0</asrwt>
<pdfrwt beam="1">  1        1 0.33667572E+00 0.82209480E+03</pdfrwt>
<pdfrwt beam="2">  1       -2 0.63114761E-01 0.82209480E+03</pdfrwt>
<totfact> 0.46922651E+00</totfact>
</mgrwt>
</event>
<event>
12    3  0.2212098E-007  0.4892596E+03  0.7818608E-02  0.1016621E+00
          1   -1    0    0  501    0  0.00000000000E+00  0.00000000000E+00  0.48373940046E+03  0.48373940046E+03  0.00000000000E+00 0. -1.
         -2   -1    0    0    0  501 -0.00000000000E+00 -0.00000000000E+00 -0.64642834548E+03  0.64642834548E+03  0.00000000000E+00 0.  1.
        -24    2    1    2    0    0  0.23787936729E+03  0.23665319402E+03  0.14881590012E+03  0.37543490278E+03  0.78828081780E+02 0.  0.
    5000000    2    1    2    0    0 -0.23787936729E+03 -0.23665319402E+03 -0.31150484513E+03  0.75473284316E+03  0.59999589030E+03 0.  0.
        -24    2    4    4    0    0 -0.37492900149E+03 -0.28680715199E+03 -0.10748740923E+03  0.49072596011E+03  0.80176843247E+02 0.  0.
         24    2    4    4    0    0  0.13704963420E+03  0.50153957976E+02 -0.20401743590E+03  0.26400688304E+03  0.82331636744E+02 0.  0.
         13    1    3    3    0    0  0.11655735834E+02 -0.45411596007E+01 -0.68248227896E+00  0.12527732852E+02  0.00000000000E+00 0. -1.
        -14    1    3    3    0    0  0.22622363146E+03  0.24119435362E+03  0.14949838240E+03  0.36290716993E+03  0.00000000000E+00 0.  1.
         13    1    5    5    0    0 -0.27201245851E+03 -0.17720815511E+03 -0.10196226119E+03  0.34027901864E+03  0.00000000000E+00 0. -1.
        -14    1    5    5    0    0 -0.10291654298E+03 -0.10959899688E+03 -0.55251480451E+01  0.15044694147E+03  0.00000000000E+00 0.  1.
          4    1    6    6  502    0  0.12962135217E+03  0.64048315047E+02 -0.20157205197E+03  0.24806284231E+03  0.00000000000E+00 0. -1.
         -3    1    6    6    0  502  0.74282820307E+01 -0.13894357071E+02 -0.24453839246E+01  0.15944040733E+02  0.00000000000E+00 0.  1.
<mgrwt>
<rscale>  0 0.48925965E+03</rscale>
<asrwt>0</asrwt>
<pdfrwt beam="1">  1        1 0.74421447E-01 0.48925965E+03</pdfrwt>
<pdfrwt beam="2">  1       -2 0.99450514E-01 0.48925965E+03</pdfrwt>
<totfact> 0.35377048E+01</totfact>
</mgrwt>
</event>
<event>
12    3  0.2212098E-007  0.5315290E+03  0.7818608E-02  0.1005862E+00
          1   -1    0    0  501    0  0.00000000000E+00  0.00000000000E+00  0.35176408128E+03  0.35176408128E+03  0.00000000000E+00 0. -1.
         -2   -1    0    0    0  501 -0.00000000000E+00 -0.00000000000E+00 -0.10824682680E+04  0.10824682680E+04  0.00000000000E+00 0.  1.
        -24    2    1    2    0    0  0.28431194347E+03 -0.27162800641E+03 -0.57358015358E+03  0.69968981496E+03  0.77178944743E+02 0.  0.
    5000000    2    1    2    0    0 -0.28431194347E+03  0.27162800641E+03 -0.15712403313E+03  0.73454253431E+03  0.60020806214E+03 0.  0.
        -24    2    4    4    0    0  0.10676857392E+03 -0.69974924455E+02 -0.14565757375E+03  0.20920629046E+03  0.79089346612E+02 0.  0.
         24    2    4    4    0    0 -0.39108051739E+03  0.34160293087E+03 -0.11466459376E+02  0.52533624385E+03  0.78804542725E+02 0.  0.
         11    1    3    3    0    0  0.11579859719E+03 -0.15659730013E+03 -0.24598115428E+03  0.31374951439E+03  0.00000000000E+00 0. -1.
        -12    1    3    3    0    0  0.16851334628E+03 -0.11503070628E+03 -0.32759899930E+03  0.38594030057E+03  0.00000000000E+00 0.  1.
         13    1    5    5    0    0 -0.85927993343E+01 -0.76206773773E+01  0.20720084867E+01  0.11670653078E+02  0.00000000000E+00 0. -1.
        -14    1    5    5    0    0  0.11536137326E+03 -0.62354247078E+02 -0.14772958224E+03  0.19753563738E+03  0.00000000000E+00 0.  1.
          4    1    6    6  502    0 -0.84644701281E+02  0.48256251345E+02  0.21731075145E+02  0.99828006470E+02  0.00000000000E+00 0. -1.
         -3    1    6    6    0  502 -0.30643581611E+03  0.29334667952E+03 -0.33197534521E+02  0.42550823738E+03  0.00000000000E+00 0.  1.
<mgrwt>
<rscale>  0 0.53152903E+03</rscale>
<asrwt>0</asrwt>
<pdfrwt beam="1">  1        1 0.54117551E-01 0.53152903E+03</pdfrwt>
<pdfrwt beam="2">  1       -2 0.16653358E+00 0.53152903E+03</pdfrwt>
<totfact> 0.14630685E+01</totfact>
</mgrwt>
</event>
<event>
12    3  0.2212098E-007  0.8770427E+03  0.7818608E-02  0.9454743E-01
          1   -1    0    0  501    0  0.00000000000E+00  0.00000000000E+00  0.19621134396E+04  0.19621134396E+04  0.00000000000E+00 0. -1.
         -2   -1    0    0    0  501 -0.00000000000E+00 -0.00000000000E+00 -0.46588439459E+03  0.46588439459E+03  0.00000000000E+00 0.  1.
        -24    2    1    2    0    0  0.41411305717E+03 -0.72770818822E+03  0.42434254183E+03  0.94141077657E+03  0.71685606000E+02 0.  0.
    5000000    2    1    2    0    0 -0.41411305717E+03  0.72770818822E+03  0.10718865032E+04  0.14865870577E+04  0.59995964273E+03 0.  0.
        -24    2    4    4    0    0 -0.36879667098E+03  0.74527879879E+03  0.66122846391E+03  0.10653221883E+04  0.78973483119E+02 0.  0.
         24    2    4    4    0    0 -0.45316386196E+02 -0.17570610569E+02  0.41065803931E+03  0.42126486932E+03  0.80385096026E+02 0.  0.
         11    1    3    3    0    0  0.31314255413E+03 -0.53809969538E+03  0.28030885588E+03  0.68277565573E+03  0.00000000000E+00 0. -1.
        -12    1    3    3    0    0  0.10097050304E+03 -0.18960849284E+03  0.14403368594E+03  0.25863512083E+03  0.00000000000E+00 0.  1.
         13    1    5    5    0    0 -0.19135597025E+03  0.35551662481E+03  0.27380310193E+03  0.48782918782E+03  0.00000000000E+00 0. -1.
        -14    1    5    5    0    0 -0.17744070073E+03  0.38976217398E+03  0.38742536198E+03  0.57749300052E+03  0.00000000000E+00 0.  1.
          4    1    6    6  502    0 -0.82267444945E+00 -0.36375648663E+02  0.27223409464E+03  0.27465481408E+03  0.00000000000E+00 0. -1.
         -3    1    6    6    0  502 -0.44493711747E+02  0.18805038094E+02  0.13842394466E+03  0.14661005525E+03  0.00000000000E+00 0.  1.
<mgrwt>
<rscale>  0 0.87704274E+03</rscale>
<asrwt>0</asrwt>
<pdfrwt beam="1">  1        1 0.30186360E+00 0.87704274E+03</pdfrwt>
<pdfrwt beam="2">  1       -2 0.71674523E-01 0.87704274E+03</pdfrwt>
<totfact> 0.50132844E+00</totfact>
</mgrwt>
</event>
<event>
12    3  0.2212098E-007  0.8476046E+03  0.7818608E-02  0.9493558E-01
         -2   -1    0    0    0  501 -0.00000000000E+00  0.00000000000E+00  0.63628270554E+03  0.63628270554E+03  0.00000000000E+00 0.  1.
          1   -1    0    0  501    0  0.00000000000E+00 -0.00000000000E+00 -0.19246669387E+04  0.19246669387E+04  0.00000000000E+00 0. -1.
        -24    2    1    2    0    0  0.47549992816E+02  0.75272238221E+03 -0.13985608684E+04  0.15909441171E+04  0.79238213876E+02 0.  0.
    5000000    2    1    2    0    0 -0.47549992816E+02 -0.75272238221E+03  0.11017663526E+03  0.97000552714E+03  0.59993320064E+03 0.  0.
        -24    2    4    4    0    0  0.22038864115E+03 -0.11719155656E+03 -0.20413212258E+02  0.26338840409E+03  0.81558188418E+02 0.  0.
         24    2    4    4    0    0 -0.26793863397E+03 -0.63553082565E+03  0.13058984751E+03  0.70661712305E+03  0.81015482439E+02 0.  0.
         11    1    5    5    0    0  0.20988382928E+02 -0.13623541397E+02 -0.29286889329E+02  0.38520578717E+02  0.00000000000E+00 0. -1.
        -12    1    5    5    0    0  0.19940025822E+03 -0.10356801517E+03  0.88736770710E+01  0.22486782538E+03  0.00000000000E+00 0.  1.
         13    1    3    3    0    0  0.27444255311E+02  0.67003307761E+03 -0.12797148714E+04  0.14447725303E+04  0.00000000000E+00 0. -1.
        -14    1    3    3    0    0  0.20105737505E+02  0.82689304595E+02 -0.11884599699E+03  0.14617158676E+03  0.00000000000E+00 0.  1.
          4    1    6    6  502    0 -0.11219817876E+03 -0.28094244998E+03  0.16890210791E+02  0.30298906043E+03  0.00000000000E+00 0. -1.
         -3    1    6    6    0  502 -0.15574045521E+03 -0.35458837566E+03  0.11369963672E+03  0.40362806262E+03  0.00000000000E+00 0.  1.
<mgrwt>
<rscale>  0 0.84760456E+03</rscale>
<asrwt>0</asrwt>
<pdfrwt beam="1">  1        1 0.29610260E+00 0.84760456E+03</pdfrwt>
<pdfrwt beam="2">  1       -2 0.97889647E-01 0.84760456E+03</pdfrwt>
<totfact> 0.26236089E+00</totfact>
</mgrwt>
</event>
<event>
12    3  0.2212098E-007  0.5629483E+03  0.7818608E-02  0.9985406E-01
          1   -1    0    0  501    0  0.00000000000E+00  0.00000000000E+00  0.11730402966E+04  0.11730402966E+04  0.00000000000E+00 0. -1.
         -2   -1    0    0    0  501 -0.00000000000E+00 -0.00000000000E+00 -0.40940444678E+03  0.40940444678E+03  0.00000000000E+00 0.  1.
        -24    2    1    2    0    0 -0.12624174030E+03  0.54326404271E+03  0.36670579942E+03  0.67218271126E+03  0.79269520589E+02 0.  0.
    5000000    2    1    2    0    0  0.12624174030E+03 -0.54326404271E+03  0.39693005038E+03  0.91026203211E+03  0.59995891952E+03 0.  0.
        -24    2    4    4    0    0  0.13916121164E+03 -0.52835189987E+03  0.51019388810E+02  0.55400249871E+03  0.76119758416E+02 0.  0.
         24    2    4    4    0    0 -0.12919471343E+02 -0.14912142839E+02  0.34591066157E+03  0.35625953340E+03  0.82929998209E+02 0.  0.
         11    1    3    3    0    0 -0.54640150360E+02  0.18409686045E+03  0.84361184974E+02  0.20974749007E+03  0.00000000000E+00 0. -1.
        -12    1    3    3    0    0 -0.71601589936E+02  0.35916718226E+03  0.28234461445E+03  0.46243522120E+03  0.00000000000E+00 0.  1.
         11    1    5    5    0    0  0.42384183192E+01 -0.23032114307E+02  0.18724537058E+02  0.29984175281E+02  0.00000000000E+00 0. -1.
        -12    1    5    5    0    0  0.13492279332E+03 -0.50531978557E+03  0.32294851752E+02  0.52401832343E+03  0.00000000000E+00 0.  1.
          2    1    6    6  502    0 -0.10454329510E+02 -0.62495255398E+01  0.21346107670E+01  0.12365522152E+02  0.00000000000E+00 0. -1.
         -1    1    6    6    0  502 -0.24651418334E+01 -0.86626172997E+01  0.34377605080E+03  0.34389401124E+03  0.00000000000E+00 0.  1.
<mgrwt>
<rscale>  0 0.56294828E+03</rscale>
<asrwt>0</asrwt>
<pdfrwt beam="1">  1        1 0.18046774E+00 0.56294828E+03</pdfrwt>
<pdfrwt beam="2">  1       -2 0.62985300E-01 0.56294828E+03</pdfrwt>
<totfact> 0.24049769E+01</totfact>
</mgrwt>
</event>
<event>
12    3  0.2314961E-007  0.1145798E+04  0.7818608E-02  0.9161669E-01
          1   -1    0    0  501    0  0.00000000000E+00  0.00000000000E+00  0.28304034430E+04  0.28304034430E+04  0.00000000000E+00 0. -1.
         -2   -1    0    0    0  501 -0.00000000000E+00 -0.00000000000E+00 -0.49667124899E+03  0.49667124899E+03  0.00000000000E+00 0.  1.
        -24    2    1    2    0    0 -0.10212683509E+04  0.41978630257E+03  0.12265605224E+04  0.16522508033E+04  0.79198594980E+02 0.  0.
    5000000    2    1    2    0    0  0.10212683509E+04 -0.41978630257E+03  0.11071716716E+04  0.16748238887E+04  0.59999696949E+03 0.  0.
        -24    2    4    4    0    0  0.19986791658E+03 -0.28476055040E+03  0.59483469525E+03  0.69362795646E+03  0.79092807299E+02 0.  0.
         24    2    4    4    0    0  0.82140043433E+03 -0.13502575217E+03  0.51233697638E+03  0.98119593227E+03  0.85590027852E+02 0.  0.
         11    1    5    5    0    0  0.11027836545E+03 -0.12237647725E+03  0.21423916191E+03  0.27025125082E+03  0.00000000000E+00 0. -1.
        -12    1    5    5    0    0  0.89589551125E+02 -0.16238407315E+03  0.38059553334E+03  0.42337670564E+03  0.00000000000E+00 0.  1.
         11    1    3    3    0    0 -0.48209344286E+03  0.17413127587E+03  0.52035254514E+03  0.73041259581E+03  0.00000000000E+00 0. -1.
        -12    1    3    3    0    0 -0.53917490805E+03  0.24565502669E+03  0.70620797725E+03  0.92183820747E+03  0.00000000000E+00 0.  1.
          2    1    6    6  502    0  0.59846890135E+03 -0.13448671637E+03  0.36082091380E+03  0.71164839254E+03  0.00000000000E+00 0. -1.
         -1    1    6    6    0  502  0.22293153298E+03 -0.53903580094E+00  0.15151606258E+03  0.26954753973E+03  0.00000000000E+00 0.  1.
<mgrwt>
<rscale>  0 0.11457979E+04</rscale>
<asrwt>0</asrwt>
<pdfrwt beam="1">  1        1 0.43544667E+00 0.11457979E+04</pdfrwt>
<pdfrwt beam="2">  1       -2 0.76410963E-01 0.11457979E+04</pdfrwt>
<totfact> 0.10666120E+00</totfact>
</mgrwt>
</event>
<event>
12    3  0.2212098E-007  0.3490198E+03  0.7818608E-02  0.1063018E+00
         -2   -1    0    0    0  501 -0.00000000000E+00  0.00000000000E+00  0.25186104986E+03  0.25186104986E+03  0.00000000000E+00 0.  1.
          1   -1    0    0  501    0  0.00000000000E+00 -0.00000000000E+00 -0.93991054889E+03  0.93991054889E+03  0.00000000000E+00 0. -1.
        -24    2    1    2    0    0  0.93880459698E+01 -0.21528850188E+03 -0.46084399381E+03  0.51498366062E+03  0.79960675514E+02 0.  0.
    5000000    2    1    2    0    0 -0.93880459698E+01  0.21528850188E+03 -0.22720550523E+03  0.67678793813E+03  0.59998524744E+03 0.  0.
        -24    2    4    4    0    0 -0.20473710341E+03  0.63892913330E+02  0.10786656675E+03  0.25280427264E+03  0.79216274558E+02 0.  0.
         24    2    4    4    0    0  0.19534905744E+03  0.15139558855E+03 -0.33507207198E+03  0.42398366549E+03  0.80043592532E+02 0.  0.
         11    1    3    3    0    0 -0.16701584288E+02 -0.15974633463E+03 -0.38676285523E+03  0.41878794220E+03  0.00000000000E+00 0. -1.
        -12    1    3    3    0    0  0.26089630258E+02 -0.55542167245E+02 -0.74081138575E+02  0.96195718418E+02  0.00000000000E+00 0.  1.
         13    1    5    5    0    0 -0.12536147212E+03  0.18596917763E+02  0.24453749195E+02  0.12907102654E+03  0.00000000000E+00 0. -1.
        -14    1    5    5    0    0 -0.79375631290E+02  0.45295995567E+02  0.83412817560E+02  0.12373324610E+03  0.00000000000E+00 0.  1.
          2    1    6    6  502    0  0.99634368197E+02  0.31450622854E+02 -0.16099251198E+03  0.19192378153E+03  0.00000000000E+00 0. -1.
         -1    1    6    6    0  502  0.95714689244E+02  0.11994496569E+03 -0.17407956001E+03  0.23205988396E+03  0.00000000000E+00 0.  1.
<mgrwt>
<rscale>  0 0.34901982E+03</rscale>
<asrwt>0</asrwt>
<pdfrwt beam="1">  1        1 0.14460162E+00 0.34901982E+03</pdfrwt>
<pdfrwt beam="2">  1       -2 0.38747855E-01 0.34901982E+03</pdfrwt>
<totfact> 0.98807417E+01</totfact>
</mgrwt>
</event>
<event>
12    3  0.2212098E-007  0.7434677E+03  0.7818608E-02  0.9645655E-01
         -2   -1    0    0    0  501 -0.00000000000E+00  0.00000000000E+00  0.55902163792E+03  0.55902163792E+03  0.00000000000E+00 0.  1.
          1   -1    0    0  501    0  0.00000000000E+00 -0.00000000000E+00 -0.10166719598E+04  0.10166719598E+04  0.00000000000E+00 0. -1.
        -24    2    1    2    0    0 -0.74043874732E+02 -0.62337216663E+03 -0.12080475447E+03  0.64429249959E+03  0.80272553293E+02 0.  0.
    5000000    2    1    2    0    0  0.74043874732E+02  0.62337216663E+03 -0.33684556738E+03  0.93140109811E+03  0.59997309588E+03 0.  0.
        -24    2    4    4    0    0 -0.21333502202E+03  0.80003663128E+02 -0.41149939938E+02  0.24485208338E+03  0.79666852853E+02 0.  0.
         24    2    4    4    0    0  0.28737889676E+03  0.54336850350E+03 -0.29569562745E+03  0.68654901473E+03  0.77959506369E+02 0.  0.
         11    1    3    3    0    0 -0.66868087938E+02 -0.50573102462E+03 -0.12886569391E+03  0.52615736953E+03  0.00000000000E+00 0. -1.
        -12    1    3    3    0    0 -0.71757867936E+01 -0.11764114201E+03  0.80609394313E+01  0.11813513006E+03  0.00000000000E+00 0.  1.
         13    1    5    5    0    0 -0.17453010584E+03  0.30147341189E+02 -0.20061259155E+02  0.17824722760E+03  0.00000000000E+00 0. -1.
        -14    1    5    5    0    0 -0.38804916180E+02  0.49856321940E+02 -0.21088680783E+02  0.66604855786E+02  0.00000000000E+00 0.  1.
          4    1    6    6  502    0  0.98143030625E+02  0.12078869529E+03 -0.58051639414E+02  0.16610826653E+03  0.00000000000E+00 0. -1.
         -3    1    6    6    0  502  0.18923586613E+03  0.42257980821E+03 -0.23764398803E+03  0.52044074820E+03  0.00000000000E+00 0.  1.
<mgrwt>
<rscale>  0 0.74346766E+03</rscale>
<asrwt>0</asrwt>
<pdfrwt beam="1">  1        1 0.15641107E+00 0.74346766E+03</pdfrwt>
<pdfrwt beam="2">  1       -2 0.86003330E-01 0.74346766E+03</pdfrwt>
<totfact> 0.15475249E+01</totfact>
</mgrwt>
</event>
<event>
12    3  0.2212098E-007  0.9364216E+03  0.7818608E-02  0.9381164E-01
         -2   -1    0    0    0  501 -0.00000000000E+00  0.00000000000E+00  0.41835454515E+03  0.41835454515E+03  0.00000000000E+00 0.  1.
          1   -1    0    0  501    0  0.00000000000E+00 -0.00000000000E+00 -0.22256142435E+04  0.22256142435E+04  0.00000000000E+00 0. -1.
        -24    2    1    2    0    0  0.13645367273E+03  0.83674664643E+03 -0.55291325330E+03  0.10154421675E+04  0.81517940930E+02 0.  0.
    5000000    2    1    2    0    0 -0.13645367273E+03 -0.83674664643E+03 -0.12543464451E+04  0.16285266212E+04  0.59995782898E+03 0.  0.
        -24    2    4    4    0    0 -0.30161037408E+02 -0.88279517062E+03 -0.11549367221E+04  0.14560918985E+04  0.78024249445E+02 0.  0.
         24    2    4    4    0    0 -0.10629263533E+03  0.46048524189E+02 -0.99409723018E+02  0.17243472269E+03  0.80205047549E+02 0.  0.
         13    1    3    3    0    0  0.13722652428E+03  0.62428596823E+03 -0.42006999127E+03  0.76486788837E+03  0.00000000000E+00 0. -1.
        -14    1    3    3    0    0 -0.77285154954E+00  0.21246067820E+03 -0.13284326202E+03  0.25057427910E+03  0.00000000000E+00 0.  1.
         13    1    5    5    0    0 -0.13312033029E+02 -0.47622793187E+03 -0.68623029422E+03  0.83539348215E+03  0.00000000000E+00 0. -1.
        -14    1    5    5    0    0 -0.16849004379E+02 -0.40656723875E+03 -0.46870642784E+03  0.62069841635E+03  0.00000000000E+00 0.  1.
          4    1    6    6  502    0 -0.11457247396E+03  0.27911821691E+02 -0.96316387188E+02  0.15225888486E+03  0.00000000000E+00 0. -1.
         -3    1    6    6    0  502  0.82798386307E+01  0.18136702499E+02 -0.30933358301E+01  0.20175837822E+02  0.00000000000E+00 0.  1.
<mgrwt>
<rscale>  0 0.93642155E+03</rscale>
<asrwt>0</asrwt>
<pdfrwt beam="1">  1        1 0.34240219E+00 0.93642155E+03</pdfrwt>
<pdfrwt beam="2">  1       -2 0.64362238E-01 0.93642155E+03</pdfrwt>
<totfact> 0.41787752E+00</totfact>
</mgrwt>
</event>
<event>
12    3  0.2212098E-007  0.6740249E+03  0.7818608E-02  0.9762714E-01
         -2   -1    0    0    0  501 -0.00000000000E+00  0.00000000000E+00  0.38786234502E+03  0.38786234502E+03  0.00000000000E+00 0.  1.
          1   -1    0    0  501    0  0.00000000000E+00 -0.00000000000E+00 -0.11937722717E+04  0.11937722717E+04  0.00000000000E+00 0. -1.
        -24    2    1    2    0    0 -0.18930113210E+03 -0.51040628151E+03 -0.30368817525E+03  0.62843722494E+03  0.79732973654E+02 0.  0.
    5000000    2    1    2    0    0  0.18930113210E+03  0.51040628151E+03 -0.50222175141E+03  0.95319739176E+03  0.60000757433E+03 0.  0.
        -24    2    4    4    0    0 -0.16374181639E+03  0.38763608094E+03 -0.26774826857E+03  0.50476497917E+03  0.77623676757E+02 0.  0.
         24    2    4    4    0    0  0.35304294849E+03  0.12277020056E+03 -0.23447348284E+03  0.44843241259E+03  0.80012304565E+02 0.  0.
         11    1    5    5    0    0 -0.67227742961E+02  0.80359162818E+02 -0.81279041129E+02  0.13260259047E+03  0.00000000000E+00 0. -1.
        -12    1    5    5    0    0 -0.96514073427E+02  0.30727691813E+03 -0.18646922744E+03  0.37216238870E+03  0.00000000000E+00 0.  1.
         11    1    3    3    0    0 -0.13986051760E+03 -0.33484854355E+03 -0.16161529005E+03  0.39724553299E+03  0.00000000000E+00 0. -1.
        -12    1    3    3    0    0 -0.49440614499E+02 -0.17555773795E+03 -0.14207288520E+03  0.23119169195E+03  0.00000000000E+00 0.  1.
          2    1    6    6  502    0  0.27382865369E+03  0.77024779081E+02 -0.21049144094E+03  0.35386663432E+03  0.00000000000E+00 0. -1.
         -1    1    6    6    0  502  0.79214294797E+02  0.45745421481E+02 -0.23982041909E+02  0.94565778276E+02  0.00000000000E+00 0.  1.
<mgrwt>
<rscale>  0 0.67402490E+03</rscale>
<asrwt>0</asrwt>
<pdfrwt beam="1">  1        1 0.18365727E+00 0.67402490E+03</pdfrwt>
<pdfrwt beam="2">  1       -2 0.59671130E-01 0.67402490E+03</pdfrwt>
<totfact> 0.25670535E+01</totfact>
</mgrwt>
</event>
<event>
12    3  0.2212098E-007  0.6796739E+03  0.7818608E-02  0.9752638E-01
          1   -1    0    0  501    0  0.00000000000E+00  0.00000000000E+00  0.35173289211E+04  0.35173289211E+04  0.00000000000E+00 0. -1.
         -2   -1    0    0    0  501 -0.00000000000E+00 -0.00000000000E+00 -0.19064480628E+03  0.19064480628E+03  0.00000000000E+00 0.  1.
        -24    2    1    2    0    0 -0.55500285884E+03 -0.27000460307E+03  0.66654612594E+03  0.91202050611E+03  0.81037069073E+02 0.  0.
    5000000    2    1    2    0    0  0.55500285884E+03  0.27000460307E+03  0.26601379889E+04  0.27959532212E+04  0.60007469253E+03 0.  0.
        -24    2    4    4    0    0  0.49662913649E+03  0.35825084707E+03  0.14170182905E+04  0.15457993588E+04  0.81059566405E+02 0.  0.
         24    2    4    4    0    0  0.58373722348E+02 -0.88246244004E+02  0.12431196983E+04  0.12501538625E+04  0.79644236383E+02 0.  0.
         11    1    3    3    0    0 -0.40518102925E+03 -0.16108439728E+03  0.44099534842E+03  0.62015864651E+03  0.00000000000E+00 0. -1.
        -12    1    3    3    0    0 -0.14982182958E+03 -0.10892020579E+03  0.22555077752E+03  0.29186185960E+03  0.00000000000E+00 0.  1.
         13    1    5    5    0    0  0.43543102177E+03  0.32585843215E+03  0.13090973053E+04  0.14175752704E+04  0.00000000000E+00 0. -1.
        -14    1    5    5    0    0  0.61198114719E+02  0.32392414926E+02  0.10792098525E+03  0.12822408840E+03  0.00000000000E+00 0.  1.
          4    1    6    6  502    0  0.39152646696E+02 -0.49045537402E+01  0.61118561837E+03  0.61245803488E+03  0.00000000000E+00 0. -1.
         -3    1    6    6    0  502  0.19221075652E+02 -0.83341690264E+02  0.63193407997E+03  0.63769582758E+03  0.00000000000E+00 0.  1.
<mgrwt>
<rscale>  0 0.67967395E+03</rscale>
<asrwt>0</asrwt>
<pdfrwt beam="1">  1        1 0.54112748E+00 0.67967395E+03</pdfrwt>
<pdfrwt beam="2">  1       -2 0.29329973E-01 0.67967395E+03</pdfrwt>
<totfact> 0.24976726E+00</totfact>
</mgrwt>
</event>
<event>
12    3  0.2212098E-007  0.1329216E+04  0.7818608E-02  0.9006712E-01
          1   -1    0    0  501    0  0.00000000000E+00  0.00000000000E+00  0.15876794364E+04  0.15876794364E+04  0.00000000000E+00 0. -1.
         -2   -1    0    0    0  501 -0.00000000000E+00 -0.00000000000E+00 -0.11607872925E+04  0.11607872925E+04  0.00000000000E+00 0.  1.
        -24    2    1    2    0    0 -0.10491172867E+04  0.71711885983E+03 -0.20802684553E+02  0.12735765618E+04  0.81596365216E+02 0.  0.
    5000000    2    1    2    0    0  0.10491172867E+04 -0.71711885983E+03  0.44769482851E+03  0.14748901671E+04  0.59996983686E+03 0.  0.
        -24    2    4    4    0    0  0.30540993850E+03 -0.53705993552E+03  0.29493979326E+03  0.69046178260E+03  0.89662627186E+02 0.  0.
         24    2    4    4    0    0  0.74370734818E+03 -0.18005892431E+03  0.15275503525E+03  0.78442838447E+03  0.80448453172E+02 0.  0.
         13    1    5    5    0    0  0.15853369505E+03 -0.25449706960E+03  0.19086310111E+03  0.35542990064E+03  0.00000000000E+00 0. -1.
        -14    1    5    5    0    0  0.14687624344E+03 -0.28256286592E+03  0.10407669215E+03  0.33503188197E+03  0.00000000000E+00 0.  1.
         13    1    3    3    0    0 -0.65655765492E+03  0.45046855760E+03  0.26432398133E+02  0.79667342575E+03  0.00000000000E+00 0. -1.
        -14    1    3    3    0    0 -0.39255963175E+03  0.26665030223E+03 -0.47235082686E+02  0.47690313608E+03  0.00000000000E+00 0.  1.
          4    1    6    6  502    0  0.48525818469E+03 -0.78048191630E+02  0.92728419449E+02  0.50016555839E+03  0.00000000000E+00 0. -1.
         -3    1    6    6    0  502  0.25844916349E+03 -0.10201073268E+03  0.60026615805E+02  0.28426282608E+03  0.00000000000E+00 0.  1.
<mgrwt>
<rscale>  0 0.13292164E+04</rscale>
<asrwt>0</asrwt>
<pdfrwt beam="1">  1        1 0.24425838E+00 0.13292164E+04</pdfrwt>
<pdfrwt beam="2">  1       -2 0.17858266E+00 0.13292164E+04</pdfrwt>
<totfact> 0.88939674E-01</totfact>
</mgrwt>
</event>
<event>
12    3  0.2212098E-007  0.1337025E+04  0.7818608E-02  0.9000709E-01
         -2   -1    0    0    0  501 -0.00000000000E+00  0.00000000000E+00  0.13883589512E+04  0.13883589512E+04  0.00000000000E+00 0.  1.
          1   -1    0    0  501    0  0.00000000000E+00 -0.00000000000E+00 -0.13623499075E+04  0.13623499075E+04  0.00000000000E+00 0. -1.
        -24    2    1    2    0    0  0.11729602847E+04  0.52676549813E+03 -0.23056596928E+03  0.13087723225E+04  0.80041278390E+02 0.  0.
    5000000    2    1    2    0    0 -0.11729602847E+04 -0.52676549813E+03  0.25657501298E+03  0.14419365362E+04  0.60002709737E+03 0.  0.
        -24    2    4    4    0    0 -0.65649003149E+03 -0.55751970312E+03  0.14462683899E+02  0.86527545628E+03  0.81762248010E+02 0.  0.
         24    2    4    4    0    0 -0.51647025325E+03  0.30754204994E+02  0.24211232909E+03  0.57666107993E+03  0.78944775621E+02 0.  0.
         13    1    3    3    0    0  0.34503327234E+03  0.16800773218E+03 -0.33766681553E+02  0.38524634440E+03  0.00000000000E+00 0. -1.
        -14    1    3    3    0    0  0.82792701240E+03  0.35875776595E+03 -0.19679928773E+03  0.92352597806E+03  0.00000000000E+00 0.  1.
         13    1    5    5    0    0 -0.37378438574E+03 -0.36808319324E+03  0.18988428029E+02  0.52493862933E+03  0.00000000000E+00 0. -1.
        -14    1    5    5    0    0 -0.28270564575E+03 -0.18943650988E+03 -0.45257441304E+01  0.34033682695E+03  0.00000000000E+00 0.  1.
          4    1    6    6  502    0 -0.14503598640E+03  0.43495373968E+02  0.61246419094E+02  0.16333526490E+03  0.00000000000E+00 0. -1.
         -3    1    6    6    0  502 -0.37143426685E+03 -0.12741168974E+02  0.18086590999E+03  0.41332581503E+03  0.00000000000E+00 0.  1.
<mgrwt>
<rscale>  0 0.13370248E+04</rscale>
<asrwt>0</asrwt>
<pdfrwt beam="1">  1        1 0.20959229E+00 0.13370248E+04</pdfrwt>
<pdfrwt beam="2">  1       -2 0.21359369E+00 0.13370248E+04</pdfrwt>
<totfact> 0.74627949E-01</totfact>
</mgrwt>
</event>
<event>
12    3  0.2212098E-007  0.8566345E+03  0.7818608E-02  0.9481475E-01
         -2   -1    0    0    0  501 -0.00000000000E+00  0.00000000000E+00  0.47060182309E+03  0.47060182309E+03  0.00000000000E+00 0.  1.
          1   -1    0    0  501    0  0.00000000000E+00 -0.00000000000E+00 -0.17310482410E+04  0.17310482410E+04  0.00000000000E+00 0. -1.
        -24    2    1    2    0    0  0.62842312486E+03 -0.44847435809E+03 -0.82027963639E+03  0.11293446167E+04  0.80719933041E+02 0.  0.
    5000000    2    1    2    0    0 -0.62842312486E+03  0.44847435809E+03 -0.44016678152E+03  0.10723054474E+04  0.60003941813E+03 0.  0.
        -24    2    4    4    0    0 -0.71489371053E+03  0.41027131950E+03 -0.45861482552E+03  0.94724368992E+03  0.86876216315E+02 0.  0.
         24    2    4    4    0    0  0.86470585671E+02  0.38203038593E+02  0.18448044003E+02  0.12506175750E+03  0.79771414165E+02 0.  0.
         11    1    5    5    0    0 -0.57345332797E+03  0.35886095618E+03 -0.35011262276E+03  0.76171435187E+03  0.00000000000E+00 0. -1.
        -12    1    5    5    0    0 -0.14144038256E+03  0.51410363313E+02 -0.10850220276E+03  0.18552933806E+03  0.00000000000E+00 0.  1.
         13    1    3    3    0    0  0.39756507016E+03 -0.25116780541E+03 -0.54033989922E+03  0.71631728876E+03  0.00000000000E+00 0. -1.
        -14    1    3    3    0    0  0.23085805470E+03 -0.19730655268E+03 -0.27993973717E+03  0.41302732790E+03  0.00000000000E+00 0.  1.
          4    1    6    6  502    0  0.40675146809E+02  0.50581928362E+02 -0.15493196478E+02  0.66731088571E+02  0.00000000000E+00 0. -1.
         -3    1    6    6    0  502  0.45795438862E+02 -0.12378889770E+02  0.33941240481E+02  0.58330668930E+02  0.00000000000E+00 0.  1.
<mgrwt>
<rscale>  0 0.85663445E+03</rscale>
<asrwt>0</asrwt>
<pdfrwt beam="1">  1        1 0.26631511E+00 0.85663445E+03</pdfrwt>
<pdfrwt beam="2">  1       -2 0.72400281E-01 0.85663445E+03</pdfrwt>
<totfact> 0.70298622E+00</totfact>
</mgrwt>
</event>
<event>
12    3  0.2212098E-007  0.4133225E+03  0.7818608E-02  0.1039262E+00
          1   -1    0    0  501    0  0.00000000000E+00  0.00000000000E+00  0.19440426779E+04  0.19440426779E+04  0.00000000000E+00 0. -1.
         -2   -1    0    0    0  501 -0.00000000000E+00 -0.00000000000E+00 -0.11279912332E+03  0.11279912332E+03  0.00000000000E+00 0.  1.
        -24    2    1    2    0    0 -0.13114587394E+03  0.16605856772E+03  0.90673520270E+03  0.93447987701E+03  0.79430627331E+02 0.  0.
    5000000    2    1    2    0    0  0.13114587394E+03 -0.16605856772E+03  0.92450835188E+03  0.11223619242E+04  0.60017156553E+03 0.  0.
        -24    2    4    4    0    0  0.32703152682E+02 -0.37165110471E+03  0.44280630755E+03  0.58288555432E+03  0.66963449737E+02 0.  0.
         24    2    4    4    0    0  0.98442721256E+02  0.20559253699E+03  0.48170204433E+03  0.53947636990E+03  0.83896564467E+02 0.  0.
         11    1    5    5    0    0 -0.94047725646E+01 -0.15325996855E+02  0.96001425741E+01  0.20383784341E+02  0.00000000000E+00 0. -1.
        -12    1    5    5    0    0  0.42107925247E+02 -0.35632510785E+03  0.43320616497E+03  0.56250176998E+03  0.00000000000E+00 0.  1.
         13    1    3    3    0    0 -0.28951692871E+02  0.11301305826E+02  0.58880741347E+02  0.66579739674E+02  0.00000000000E+00 0. -1.
        -14    1    3    3    0    0 -0.10219418107E+03  0.15475726189E+03  0.84785446135E+03  0.86790013733E+03  0.00000000000E+00 0.  1.
          4    1    6    6  502    0  0.30536861312E+02  0.12128852355E+03  0.18208591342E+03  0.22090424557E+03  0.00000000000E+00 0. -1.
         -3    1    6    6    0  502  0.67905859944E+02  0.84304013438E+02  0.29961613091E+03  0.31857212433E+03  0.00000000000E+00 0.  1.
<mgrwt>
<rscale>  0 0.41332253E+03</rscale>
<asrwt>0</asrwt>
<pdfrwt beam="1">  1        1 0.29908346E+00 0.41332253E+03</pdfrwt>
<pdfrwt beam="2">  1       -2 0.17353713E-01 0.41332253E+03</pdfrwt>
<totfact> 0.84134706E+01</totfact>
</mgrwt>
</event>
<event>
12    3  0.2212098E-007  0.6438141E+03  0.7818608E-02  0.9818456E-01
         -4   -1    0    0    0  501 -0.00000000000E+00  0.00000000000E+00  0.19635259917E+04  0.19635259917E+04  0.00000000000E+00 0.  1.
          3   -1    0    0  501    0  0.00000000000E+00 -0.00000000000E+00 -0.24828913624E+03  0.24828913624E+03  0.00000000000E+00 0. -1.
        -24    2    1    2    0    0  0.27565744543E+03  0.45335665149E+03  0.38980774257E+03  0.66320380660E+03  0.79811855311E+02 0.  0.
    5000000    2    1    2    0    0 -0.27565744543E+03 -0.45335665149E+03  0.13254291129E+04  0.15486113213E+04  0.59992950469E+03 0.  0.
        -24    2    4    4    0    0  0.13923633497E+03 -0.23847181601E+03  0.75346916866E+03  0.80599069141E+03  0.75164103856E+02 0.  0.
         24    2    4    4    0    0 -0.41489378040E+03 -0.21488483548E+03  0.57195994419E+03  0.74262062990E+03  0.77684494244E+02 0.  0.
         11    1    3    3    0    0  0.96634750530E+02  0.23460541377E+03  0.19240096123E+03  0.31842755073E+03  0.00000000000E+00 0. -1.
        -12    1    3    3    0    0  0.17902269490E+03  0.21875123772E+03  0.19740678135E+03  0.34477625588E+03  0.00000000000E+00 0.  1.
         13    1    5    5    0    0  0.99819630954E+02 -0.12057402215E+03  0.34130997418E+03  0.37549241273E+03  0.00000000000E+00 0. -1.
        -14    1    5    5    0    0  0.39416704018E+02 -0.11789779386E+03  0.41215919448E+03  0.43049827868E+03  0.00000000000E+00 0.  1.
          4    1    6    6  502    0 -0.18076617025E+03 -0.63563376711E+02  0.19094170058E+03  0.27050960091E+03  0.00000000000E+00 0. -1.
         -3    1    6    6    0  502 -0.23412761016E+03 -0.15132145877E+03  0.38101824361E+03  0.47211102899E+03  0.00000000000E+00 0.  1.
<mgrwt>
<rscale>  0 0.64381406E+03</rscale>
<asrwt>0</asrwt>
<pdfrwt beam="1">  1        3 0.38198330E-01 0.64381406E+03</pdfrwt>
<pdfrwt beam="2">  1       -4 0.30208091E+00 0.64381406E+03</pdfrwt>
<totfact> 0.47979113E-01</totfact>
</mgrwt>
</event>
<event>
12    3  0.2212098E-007  0.5215905E+03  0.7818608E-02  0.1008292E+00
         -2   -1    0    0    0  501 -0.00000000000E+00  0.00000000000E+00  0.86811036758E+03  0.86811036758E+03  0.00000000000E+00 0.  1.
          1   -1    0    0  501    0  0.00000000000E+00 -0.00000000000E+00 -0.46354684659E+03  0.46354684659E+03  0.00000000000E+00 0. -1.
        -24    2    1    2    0    0  0.40684318863E+03 -0.40620731188E+02 -0.12144599741E+03  0.43507323926E+03  0.85838041097E+02 0.  0.
    5000000    2    1    2    0    0 -0.40684318863E+03  0.40620731188E+02  0.52600951840E+03  0.89658397491E+03  0.60000448888E+03 0.  0.
        -24    2    4    4    0    0 -0.50507162376E+03  0.64072255225E+02  0.21242408085E+03  0.55723483419E+03  0.78638866308E+02 0.  0.
         24    2    4    4    0    0  0.98228435127E+02 -0.23451524038E+02  0.31358543755E+03  0.33934914072E+03  0.81383126118E+02 0.  0.
         13    1    3    3    0    0  0.32271373986E+03 -0.51204814579E+01 -0.11815256445E+03  0.34370104118E+03  0.00000000000E+00 0. -1.
        -14    1    3    3    0    0  0.84129448774E+02 -0.35500249730E+02 -0.32934329595E+01  0.91372198083E+02  0.00000000000E+00 0.  1.
         13    1    5    5    0    0 -0.23743181854E+03 -0.92647856917E+01  0.94579561686E+02  0.25574400911E+03  0.00000000000E+00 0. -1.
        -14    1    5    5    0    0 -0.26763980522E+03  0.73337040917E+02  0.11784451917E+03  0.30149082508E+03  0.00000000000E+00 0.  1.
          4    1    6    6  502    0  0.21153809395E+02  0.16827740655E+02  0.16488181715E+03  0.16708282418E+03  0.00000000000E+00 0. -1.
         -3    1    6    6    0  502  0.77074625732E+02 -0.40279264692E+02  0.14870362039E+03  0.17226631654E+03  0.00000000000E+00 0.  1.
<mgrwt>
<rscale>  0 0.52159052E+03</rscale>
<asrwt>0</asrwt>
<pdfrwt beam="1">  1        1 0.71314900E-01 0.52159052E+03</pdfrwt>
<pdfrwt beam="2">  1       -2 0.13355544E+00 0.52159052E+03</pdfrwt>
<totfact> 0.18187095E+01</totfact>
</mgrwt>
</event>
<event>
12    3  0.2212098E-007  0.1311717E+04  0.7818608E-02  0.9020325E-01
          1   -1    0    0  501    0  0.00000000000E+00  0.00000000000E+00  0.20966812185E+04  0.20966812185E+04  0.00000000000E+00 0. -1.
         -2   -1    0    0    0  501 -0.00000000000E+00 -0.00000000000E+00 -0.89361626279E+03  0.89361626279E+03  0.00000000000E+00 0.  1.
        -24    2    1    2    0    0 -0.11710101641E+04  0.41876532855E+03  0.99364539613E+03  0.15938188246E+04  0.79360364957E+02 0.  0.
    5000000    2    1    2    0    0  0.11710101641E+04 -0.41876532855E+03  0.20941955959E+03  0.13964786567E+04  0.59972233717E+03 0.  0.
        -24    2    4    4    0    0  0.11914625490E+03  0.12730703489E+03  0.48133699494E+02  0.19764894172E+03  0.79657642114E+02 0.  0.
         24    2    4    4    0    0  0.10518639093E+04 -0.54607236343E+03  0.16128586010E+03  0.11988297150E+04  0.81036085373E+02 0.  0.
         11    1    5    5    0    0  0.60528220473E+01  0.57309201206E+02  0.50815787475E+01  0.57851565581E+02  0.00000000000E+00 0. -1.
        -12    1    5    5    0    0  0.11309343285E+03  0.69997833680E+02  0.43052120746E+02  0.13979737613E+03  0.00000000000E+00 0.  1.
         13    1    3    3    0    0 -0.10811366879E+04  0.36355824985E+03  0.90506881668E+03  0.14560840299E+04  0.00000000000E+00 0. -1.
        -14    1    3    3    0    0 -0.89873476199E+02  0.55207078694E+02  0.88576579455E+02  0.13773479477E+03  0.00000000000E+00 0.  1.
          2    1    6    6  502    0  0.71200712507E+03 -0.33751405878E+03  0.81263795991E+02  0.79213236935E+03  0.00000000000E+00 0. -1.
         -1    1    6    6    0  502  0.33985678418E+03 -0.20855830465E+03  0.80022064105E+02  0.40669734562E+03  0.00000000000E+00 0.  1.
<mgrwt>
<rscale>  0 0.13117170E+04</rscale>
<asrwt>0</asrwt>
<pdfrwt beam="1">  1        1 0.32256634E+00 0.13117170E+04</pdfrwt>
<pdfrwt beam="2">  1       -2 0.13747943E+00 0.13117170E+04</pdfrwt>
<totfact> 0.81793409E-01</totfact>
</mgrwt>
</event>
<event>
12    3  0.2212098E-007  0.3768557E+03  0.7818608E-02  0.1052102E+00
         -2   -1    0    0    0  501 -0.00000000000E+00  0.00000000000E+00  0.14554955513E+04  0.14554955513E+04  0.00000000000E+00 0.  1.
          1   -1    0    0  501    0  0.00000000000E+00 -0.00000000000E+00 -0.14183796632E+03  0.14183796632E+03  0.00000000000E+00 0. -1.
        -24    2    1    2    0    0 -0.21627750764E+03 -0.14831849780E+02  0.16813858879E+03  0.28616859942E+03  0.81399865941E+02 0.  0.
    5000000    2    1    2    0    0  0.21627750764E+03  0.14831849780E+02  0.11455189962E+04  0.13111649182E+04  0.59995310483E+03 0.  0.
        -24    2    4    4    0    0 -0.13749803602E+03 -0.53376073956E+02  0.75611843639E+03  0.77453570611E+03  0.80223157504E+02 0.  0.
         24    2    4    4    0    0  0.35377554365E+03  0.68207923736E+02  0.38940055982E+03  0.53662921211E+03  0.80800118519E+02 0.  0.
         13    1    3    3    0    0 -0.70880380032E+02 -0.42852406526E+02  0.50059319717E+02  0.96779607920E+02  0.00000000000E+00 0. -1.
        -14    1    3    3    0    0 -0.14539712760E+03  0.28020556746E+02  0.11807926907E+03  0.18938899150E+03  0.00000000000E+00 0.  1.
         13    1    5    5    0    0 -0.10495368043E+03 -0.18540447367E+02  0.64314067996E+03  0.65191177121E+03  0.00000000000E+00 0. -1.
        -14    1    5    5    0    0 -0.32544355590E+02 -0.34835626589E+02  0.11297775644E+03  0.12262393490E+03  0.00000000000E+00 0.  1.
          4    1    6    6  502    0  0.15954663999E+03  0.70233290407E+02  0.20046166781E+03  0.26565527601E+03  0.00000000000E+00 0. -1.
         -3    1    6    6    0  502  0.19422890366E+03 -0.20253666709E+01  0.18893889202E+03  0.27097393610E+03  0.00000000000E+00 0.  1.
<mgrwt>
<rscale>  0 0.37685574E+03</rscale>
<asrwt>0</asrwt>
<pdfrwt beam="1">  1        1 0.21821227E-01 0.37685574E+03</pdfrwt>
<pdfrwt beam="2">  1       -2 0.22392238E+00 0.37685574E+03</pdfrwt>
<totfact> 0.20256075E+01</totfact>
</mgrwt>
</event>
<event>
12    3  0.2212098E-007  0.5341403E+03  0.7818608E-02  0.1005233E+00
         -2   -1    0    0    0  501 -0.00000000000E+00  0.00000000000E+00  0.26592768114E+03  0.26592768114E+03  0.00000000000E+00 0.  1.
          1   -1    0    0  501    0  0.00000000000E+00 -0.00000000000E+00 -0.14993675694E+04  0.14993675694E+04  0.00000000000E+00 0. -1.
        -24    2    1    2    0    0  0.39630335900E+03  0.42465526591E+02 -0.86636640856E+03  0.95673992644E+03  0.76817053238E+02 0.  0.
    5000000    2    1    2    0    0 -0.39630335900E+03 -0.42465526591E+02 -0.36707347975E+03  0.80855532414E+03  0.60013256815E+03 0.  0.
        -24    2    4    4    0    0 -0.46980747687E+03  0.10043334433E+03 -0.11885733205E+03  0.50150773733E+03  0.81098848611E+02 0.  0.
         24    2    4    4    0    0  0.73504117864E+02 -0.14289887092E+03 -0.24821614770E+03  0.30704758681E+03  0.82728604080E+02 0.  0.
         11    1    5    5    0    0 -0.38884249936E+03  0.10211600372E+03 -0.12299063033E+03  0.42041986475E+03  0.00000000000E+00 0. -1.
        -12    1    5    5    0    0 -0.80964977506E+02 -0.16826593960E+01  0.41332982774E+01  0.81087872582E+02  0.00000000000E+00 0.  1.
         13    1    3    3    0    0  0.26128723090E+02  0.22439712066E+02 -0.58704876729E+02  0.68062569741E+02  0.00000000000E+00 0. -1.
        -14    1    3    3    0    0  0.37017463592E+03  0.20025814525E+02 -0.80766153183E+03  0.88867735670E+03  0.00000000000E+00 0.  1.
          4    1    6    6  502    0  0.42181834458E+02 -0.14268522454E+03 -0.21420132414E+03  0.26080756838E+03  0.00000000000E+00 0. -1.
         -3    1    6    6    0  502  0.31322283407E+02 -0.21364637782E+00 -0.34014823564E+02  0.46240018433E+02  0.00000000000E+00 0.  1.
<mgrwt>
<rscale>  0 0.53414034E+03</rscale>
<asrwt>0</asrwt>
<pdfrwt beam="1">  1        1 0.23067193E+00 0.53414034E+03</pdfrwt>
<pdfrwt beam="2">  1       -2 0.40911951E-01 0.53414034E+03</pdfrwt>
<totfact> 0.34392835E+01</totfact>
</mgrwt>
</event>
<event>
12    3  0.2212098E-007  0.8358538E+03  0.7818608E-02  0.9509523E-01
          1   -1    0    0  501    0  0.00000000000E+00  0.00000000000E+00  0.16042953044E+04  0.16042953044E+04  0.00000000000E+00 0. -1.
         -2   -1    0    0    0  501 -0.00000000000E+00 -0.00000000000E+00 -0.54777602482E+03  0.54777602482E+03  0.00000000000E+00 0.  1.
        -24    2    1    2    0    0  0.50835332471E+03 -0.56848136150E+03  0.87611853603E+03  0.11649142112E+04  0.88584813293E+02 0.  0.
    5000000    2    1    2    0    0 -0.50835332471E+03  0.56848136150E+03  0.18040074353E+03  0.98715711801E+03  0.60028375479E+03 0.  0.
        -24    2    4    4    0    0  0.78909931086E+02  0.12565665955E+03 -0.98889992169E+02  0.19608234557E+03  0.81563977222E+02 0.  0.
         24    2    4    4    0    0 -0.58726325579E+03  0.44282470195E+03  0.27929073570E+03  0.79107477244E+03  0.82608306378E+02 0.  0.
         11    1    5    5    0    0  0.42581420745E+02  0.12284869686E+03 -0.91273619191E+02  0.15885796572E+03  0.00000000000E+00 0. -1.
        -12    1    5    5    0    0  0.36328510341E+02  0.28079626928E+01 -0.76163729789E+01  0.37224379853E+02  0.00000000000E+00 0.  1.
         13    1    3    3    0    0  0.81905519672E+02 -0.54103682199E+02  0.13720544792E+03  0.16870405306E+03  0.00000000000E+00 0. -1.
        -14    1    3    3    0    0  0.42644780503E+03 -0.51437767930E+03  0.73891308812E+03  0.99621015814E+03  0.00000000000E+00 0.  1.
          4    1    6    6  502    0 -0.44660749999E+03  0.37305336457E+03  0.20120494580E+03  0.61571949951E+03  0.00000000000E+00 0. -1.
         -3    1    6    6    0  502 -0.14065575580E+03  0.69771337386E+02  0.78085789896E+02  0.17535527293E+03  0.00000000000E+00 0.  1.
<mgrwt>
<rscale>  0 0.83585376E+03</rscale>
<asrwt>0</asrwt>
<pdfrwt beam="1">  1        1 0.24681466E+00 0.83585376E+03</pdfrwt>
<pdfrwt beam="2">  1       -2 0.84273235E-01 0.83585376E+03</pdfrwt>
<totfact> 0.61114490E+00</totfact>
</mgrwt>
</event>
<event>
12    3  0.2212098E-007  0.1035489E+04  0.7818608E-02  0.9270455E-01
          1   -1    0    0  501    0  0.00000000000E+00  0.00000000000E+00  0.90891532052E+03  0.90891532052E+03  0.00000000000E+00 0. -1.
         -2   -1    0    0    0  501 -0.00000000000E+00 -0.00000000000E+00 -0.16477215820E+04  0.16477215820E+04  0.00000000000E+00 0.  1.
        -24    2    1    2    0    0 -0.44799198047E+03 -0.91694478494E+03  0.20330900714E+03  0.10436615502E+04  0.80064509791E+02 0.  0.
    5000000    2    1    2    0    0  0.44799198047E+03  0.91694478494E+03 -0.94211526859E+03  0.15129753523E+04  0.60002390302E+03 0.  0.
        -24    2    4    4    0    0 -0.10773495764E+02  0.12218393040E+03 -0.44125938101E+03  0.46470005652E+03  0.78684942260E+02 0.  0.
         24    2    4    4    0    0  0.45876547624E+03  0.79476085455E+03 -0.50085588757E+03  0.10482752958E+04  0.76901869558E+02 0.  0.
         13    1    5    5    0    0 -0.92529283246E+01  0.64030872947E+01 -0.16195204182E+03  0.16234247768E+03  0.00000000000E+00 0. -1.
        -14    1    5    5    0    0 -0.15205674391E+01  0.11578084310E+03 -0.27930733920E+03  0.30235757884E+03  0.00000000000E+00 0.  1.
         13    1    3    3    0    0 -0.89971378847E+02 -0.12229491792E+03  0.38637260615E+02  0.15666439886E+03  0.00000000000E+00 0. -1.
        -14    1    3    3    0    0 -0.35802060163E+03 -0.79464986702E+03  0.16467174652E+03  0.88699715131E+03  0.00000000000E+00 0.  1.
          2    1    6    6  502    0  0.44288590158E+03  0.72990910056E+03 -0.47186373596E+03  0.97548480368E+03  0.00000000000E+00 0. -1.
         -1    1    6    6    0  502  0.15879574657E+02  0.64851753985E+02 -0.28992151613E+02  0.72790492108E+02  0.00000000000E+00 0.  1.
<mgrwt>
<rscale>  0 0.10354894E+04</rscale>
<asrwt>0</asrwt>
<pdfrwt beam="1">  1        1 0.13983313E+00 0.10354894E+04</pdfrwt>
<pdfrwt beam="2">  1       -2 0.25349563E+00 0.10354894E+04</pdfrwt>
<totfact> 0.95659495E-01</totfact>
</mgrwt>
</event>
<event>
12    3  0.2212098E-007  0.8386866E+03  0.7818608E-02  0.9505648E-01
          1   -1    0    0  501    0  0.00000000000E+00  0.00000000000E+00  0.16864209459E+04  0.16864209459E+04  0.00000000000E+00 0. -1.
         -2   -1    0    0    0  501 -0.00000000000E+00 -0.00000000000E+00 -0.47958352468E+03  0.47958352468E+03  0.00000000000E+00 0.  1.
        -24    2    1    2    0    0 -0.74989233446E+03  0.25678104753E+03  0.43754828610E+03  0.90896990366E+03  0.80639713715E+02 0.  0.
    5000000    2    1    2    0    0  0.74989233446E+03 -0.25678104753E+03  0.76928913514E+03  0.12570345669E+04  0.60004592274E+03 0.  0.
        -24    2    4    4    0    0  0.58867245576E+03 -0.34409754477E+03  0.30385542888E+03  0.75069912588E+03  0.79263329833E+02 0.  0.
         24    2    4    4    0    0  0.16121987870E+03  0.87316497244E+02  0.46543370627E+03  0.50633544106E+03  0.78300855483E+02 0.  0.
         11    1    3    3    0    0 -0.45128115308E+03  0.12849777657E+03  0.29370358749E+03  0.55355953159E+03  0.00000000000E+00 0. -1.
        -12    1    3    3    0    0 -0.29861118138E+03  0.12828327097E+03  0.14384469861E+03  0.35541037207E+03  0.00000000000E+00 0.  1.
         13    1    5    5    0    0  0.47004595425E+03 -0.29906068507E+03  0.22212131661E+03  0.59976526388E+03  0.00000000000E+00 0. -1.
        -14    1    5    5    0    0  0.11862650151E+03 -0.45036859705E+02  0.81734112266E+02  0.15093386200E+03  0.00000000000E+00 0.  1.
          4    1    6    6  502    0  0.88444362032E+01  0.37962224363E+02  0.81996372580E+02  0.90789645041E+02  0.00000000000E+00 0. -1.
         -3    1    6    6    0  502  0.15237544250E+03  0.49354272880E+02  0.38343733369E+03  0.41554579602E+03  0.00000000000E+00 0.  1.
<mgrwt>
<rscale>  0 0.83868660E+03</rscale>
<asrwt>0</asrwt>
<pdfrwt beam="1">  1        1 0.25944937E+00 0.83868660E+03</pdfrwt>
<pdfrwt beam="2">  1       -2 0.73782082E-01 0.83868660E+03</pdfrwt>
<totfact> 0.72435932E+00</totfact>
</mgrwt>
</event>
<event>
12    3  0.2241247E-007  0.1216166E+04  0.7818608E-02  0.9098823E-01
         -4   -1    0    0    0  501 -0.00000000000E+00  0.00000000000E+00  0.17840642787E+04  0.17840642787E+04  0.00000000000E+00 0.  1.
          3   -1    0    0  501    0  0.00000000000E+00 -0.00000000000E+00 -0.88627279405E+03  0.88627279405E+03  0.00000000000E+00 0. -1.
        -24    2    1    2    0    0 -0.65860592148E+03 -0.96731226676E+03  0.22957633388E+03  0.11952383111E+04  0.80215621242E+02 0.  0.
    5000000    2    1    2    0    0  0.65860592148E+03  0.96731226676E+03  0.66821515076E+03  0.14750987617E+04  0.59995840503E+03 0.  0.
        -24    2    4    4    0    0  0.74322288181E+02  0.49344483206E+03  0.76332099003E+02  0.51453014964E+03  0.99514223818E+02 0.  0.
         24    2    4    4    0    0  0.58428363330E+03  0.47386743470E+03  0.59188305175E+03  0.96056861203E+03  0.80179808311E+02 0.  0.
         11    1    3    3    0    0 -0.43006211513E+03 -0.61134087437E+03  0.18397768101E+03  0.76976546730E+03  0.00000000000E+00 0. -1.
        -12    1    3    3    0    0 -0.22854380635E+03 -0.35597139240E+03  0.45598652873E+02  0.42547284375E+03  0.00000000000E+00 0.  1.
         13    1    5    5    0    0  0.93609087110E+02  0.40475465304E+03  0.82526755163E+02  0.42355596521E+03  0.00000000000E+00 0. -1.
        -14    1    5    5    0    0 -0.19286798930E+02  0.88690179019E+02 -0.61946561603E+01  0.90974184428E+02  0.00000000000E+00 0.  1.
          4    1    6    6  502    0  0.52035871369E+03  0.44817667566E+03  0.52384859178E+03  0.86374352132E+03  0.00000000000E+00 0. -1.
         -3    1    6    6    0  502  0.63924919609E+02  0.25690759040E+02  0.68034459974E+02  0.96825090711E+02  0.00000000000E+00 0.  1.
<mgrwt>
<rscale>  0 0.12161658E+04</rscale>
<asrwt>0</asrwt>
<pdfrwt beam="1">  1        3 0.13634966E+00 0.12161658E+04</pdfrwt>
<pdfrwt beam="2">  1       -4 0.27447143E+00 0.12161658E+04</pdfrwt>
<totfact> 0.40052738E-02</totfact>
</mgrwt>
</event>
<event>
12    3  0.2212098E-007  0.3380120E+03  0.7818608E-02  0.1067646E+00
          1   -1    0    0  501    0  0.00000000000E+00  0.00000000000E+00  0.87923767467E+02  0.87923767467E+02  0.00000000000E+00 0. -1.
         -2   -1    0    0    0  501 -0.00000000000E+00 -0.00000000000E+00 -0.31450213538E+04  0.31450213538E+04  0.00000000000E+00 0.  1.
        -24    2    1    2    0    0  0.36355850941E+02  0.13831778173E+03 -0.20168305459E+04  0.20234691854E+04  0.79803112973E+02 0.  0.
    5000000    2    1    2    0    0 -0.36355850941E+02 -0.13831778173E+03 -0.10402670404E+04  0.12094759358E+04  0.60018577735E+03 0.  0.
        -24    2    4    4    0    0 -0.24822003869E+03  0.13260562369E+02 -0.21801241524E+03  0.34032469127E+03  0.80637783739E+02 0.  0.
         24    2    4    4    0    0  0.21186418775E+03 -0.15157834410E+03 -0.82225462517E+03  0.86915124455E+03  0.10704573251E+03 0.  0.
         13    1    5    5    0    0 -0.66165975672E+02 -0.41509990187E+01 -0.16746703096E+02  0.68378499502E+02  0.00000000000E+00 0. -1.
        -14    1    5    5    0    0 -0.18205406302E+03  0.17411561388E+02 -0.20126571215E+03  0.27194619177E+03  0.00000000000E+00 0.  1.
         13    1    3    3    0    0 -0.25364698914E+02  0.49040079033E+02 -0.69773836676E+03  0.69991937089E+03  0.00000000000E+00 0. -1.
        -14    1    3    3    0    0  0.61720549855E+02  0.89277702696E+02 -0.13190921791E+04  0.13235498145E+04  0.00000000000E+00 0.  1.
          4    1    6    6  502    0  0.44045373068E+02 -0.14382599955E+02 -0.30219012214E+03  0.30572164462E+03  0.00000000000E+00 0. -1.
         -3    1    6    6    0  502  0.16781881468E+03 -0.13719574414E+03 -0.52006450303E+03  0.56342959994E+03  0.00000000000E+00 0.  1.
<mgrwt>
<rscale>  0 0.33801197E+03</rscale>
<asrwt>0</asrwt>
<pdfrwt beam="1">  1        1 0.13526732E-01 0.33801197E+03</pdfrwt>
<pdfrwt beam="2">  1       -2 0.48384950E+00 0.33801197E+03</pdfrwt>
<totfact> 0.93654900E-01</totfact>
</mgrwt>
</event>
<event>
12    3  0.2940314E-007  0.7718473E+03  0.7818608E-02  0.9601685E-01
          1   -1    0    0  501    0  0.00000000000E+00  0.00000000000E+00  0.85620584094E+03  0.85620584094E+03  0.00000000000E+00 0. -1.
         -2   -1    0    0    0  501 -0.00000000000E+00 -0.00000000000E+00 -0.72064455864E+03  0.72064455864E+03  0.00000000000E+00 0.  1.
        -24    2    1    2    0    0 -0.65474855557E+03 -0.13332128555E+03  0.66277545924E+02  0.67612079680E+03  0.79223623786E+02 0.  0.
    5000000    2    1    2    0    0  0.65474855557E+03  0.13332128555E+03  0.69283736378E+02  0.90072960278E+03  0.60003611974E+03 0.  0.
        -24    2    4    4    0    0  0.29047845260E+01 -0.15807289615E+03  0.33970181776E+02  0.18127027055E+03  0.81911290222E+02 0.  0.
         24    2    4    4    0    0  0.65184377104E+03  0.29139418170E+03  0.35313554602E+02  0.71945933223E+03  0.81017359990E+02 0.  0.
         11    1    5    5    0    0  0.96661568181E+01 -0.98472332940E+02 -0.19576756548E+02  0.10086369188E+03  0.00000000000E+00 0. -1.
        -12    1    5    5    0    0 -0.67613722921E+01 -0.59600563207E+02  0.53546938324E+02  0.80406578672E+02  0.00000000000E+00 0.  1.
         13    1    3    3    0    0 -0.35262301470E+03 -0.68237771571E+02 -0.39479284975E+01  0.35918653942E+03  0.00000000000E+00 0. -1.
        -14    1    3    3    0    0 -0.30212554087E+03 -0.65083513978E+02  0.70225474421E+02  0.31693425738E+03  0.00000000000E+00 0.  1.
          2    1    6    6  502    0  0.41832475494E+03  0.15503863061E+03 -0.43476215353E+01  0.44615185687E+03  0.00000000000E+00 0. -1.
         -1    1    6    6    0  502  0.23351901610E+03  0.13635555109E+03  0.39661176137E+02  0.27330747536E+03  0.00000000000E+00 0.  1.
<mgrwt>
<rscale>  0 0.77184729E+03</rscale>
<asrwt>0</asrwt>
<pdfrwt beam="1">  1        1 0.13172398E+00 0.77184729E+03</pdfrwt>
<pdfrwt beam="2">  1       -2 0.11086839E+00 0.77184729E+03</pdfrwt>
<totfact> 0.11398809E+01</totfact>
</mgrwt>
</event>
<event>
12    3  0.2212098E-007  0.1104602E+04  0.7818608E-02  0.9200718E-01
          1   -1    0    0  501    0  0.00000000000E+00  0.00000000000E+00  0.22413192175E+04  0.22413192175E+04  0.00000000000E+00 0. -1.
         -2   -1    0    0    0  501 -0.00000000000E+00 -0.00000000000E+00 -0.59277439686E+03  0.59277439686E+03  0.00000000000E+00 0.  1.
        -24    2    1    2    0    0 -0.96721440972E+03  0.38618612528E+03  0.45217818214E+03  0.11382173377E+04  0.80188289112E+02 0.  0.
    5000000    2    1    2    0    0  0.96721440972E+03 -0.38618612528E+03  0.11963666385E+04  0.16958762767E+04  0.60004980987E+03 0.  0.
        -24    2    4    4    0    0  0.10215400791E+04 -0.30760118035E+03  0.10080101138E+04  0.14699161830E+04  0.80041090495E+02 0.  0.
         24    2    4    4    0    0 -0.54325669401E+02 -0.78584944939E+02  0.18835652474E+03  0.22596009368E+03  0.80330016792E+02 0.  0.
         11    1    3    3    0    0 -0.79624279310E+03  0.32225582104E+03  0.33908128386E+03  0.92348660891E+03  0.00000000000E+00 0. -1.
        -12    1    3    3    0    0 -0.17097161662E+03  0.63930304241E+02  0.11309689828E+03  0.21473072880E+03  0.00000000000E+00 0.  1.
         13    1    5    5    0    0  0.67022847747E+03 -0.23973993445E+03  0.68493648009E+03  0.98783573025E+03  0.00000000000E+00 0. -1.
        -14    1    5    5    0    0  0.35131160165E+03 -0.67861245894E+02  0.32307363370E+03  0.48208045277E+03  0.00000000000E+00 0.  1.
          4    1    6    6  502    0 -0.41772609892E+02 -0.73463137101E+02  0.19374261018E+03  0.21137166899E+03  0.00000000000E+00 0. -1.
         -3    1    6    6    0  502 -0.12553059510E+02 -0.51218078375E+01 -0.53860854460E+01  0.14588424692E+02  0.00000000000E+00 0.  1.
<mgrwt>
<rscale>  0 0.11046021E+04</rscale>
<asrwt>0</asrwt>
<pdfrwt beam="1">  1        1 0.34481834E+00 0.11046021E+04</pdfrwt>
<pdfrwt beam="2">  1       -2 0.91196062E-01 0.11046021E+04</pdfrwt>
<totfact> 0.18303472E+00</totfact>
</mgrwt>
</event>
<event>
12    3  0.2212098E-007  0.1233109E+04  0.7818608E-02  0.9084360E-01
         -2   -1    0    0    0  501 -0.00000000000E+00  0.00000000000E+00  0.62670755755E+03  0.62670755755E+03  0.00000000000E+00 0.  1.
          1   -1    0    0  501    0  0.00000000000E+00 -0.00000000000E+00 -0.33539028558E+04  0.33539028558E+04  0.00000000000E+00 0. -1.
        -24    2    1    2    0    0 -0.61446462947E+03 -0.99009851974E+03 -0.23383622534E+04  0.26135040422E+04  0.67849030267E+02 0.  0.
    5000000    2    1    2    0    0  0.61446462947E+03  0.99009851974E+03 -0.38883304491E+03  0.13671063712E+04  0.59993902495E+03 0.  0.
        -24    2    4    4    0    0  0.38670579353E+03  0.13012515132E+03 -0.11513837087E+03  0.43142801534E+03  0.79996013767E+02 0.  0.
         24    2    4    4    0    0  0.22775883594E+03  0.85997336842E+03 -0.27369467404E+03  0.93567835585E+03  0.95691845291E+02 0.  0.
         11    1    3    3    0    0 -0.10675345296E+03 -0.18459178162E+03 -0.48709391399E+03  0.53172446493E+03  0.00000000000E+00 0. -1.
        -12    1    3    3    0    0 -0.50771117651E+03 -0.80550673812E+03 -0.18512683394E+04  0.20817795773E+04  0.00000000000E+00 0.  1.
         11    1    5    5    0    0  0.21442839429E+03  0.70767359677E+02 -0.22239675377E+02  0.22689680173E+03  0.00000000000E+00 0. -1.
        -12    1    5    5    0    0  0.17227739924E+03  0.59357791644E+02 -0.92898695495E+02  0.20453121361E+03  0.00000000000E+00 0.  1.
          4    1    6    6  502    0  0.20395725953E+03  0.64421787427E+03 -0.18029290202E+03  0.69937169214E+03  0.00000000000E+00 0. -1.
         -3    1    6    6    0  502  0.23801576415E+02  0.21575549415E+03 -0.93401772023E+02  0.23630666371E+03  0.00000000000E+00 0.  1.
<mgrwt>
<rscale>  0 0.12331089E+04</rscale>
<asrwt>0</asrwt>
<pdfrwt beam="1">  1        1 0.51598506E+00 0.12331089E+04</pdfrwt>
<pdfrwt beam="2">  1       -2 0.96416547E-01 0.12331089E+04</pdfrwt>
<totfact> 0.25498150E-01</totfact>
</mgrwt>
</event>
<event>
12    3  0.2212098E-007  0.4968351E+03  0.7818608E-02  0.1014608E+00
         -2   -1    0    0    0  501 -0.00000000000E+00  0.00000000000E+00  0.51577830943E+03  0.51577830943E+03  0.00000000000E+00 0.  1.
          1   -1    0    0  501    0  0.00000000000E+00 -0.00000000000E+00 -0.83747787461E+03  0.83747787461E+03  0.00000000000E+00 0. -1.
        -24    2    1    2    0    0 -0.14939226167E+03  0.37178130065E+03 -0.46358920599E+03  0.61797890922E+03  0.80272018592E+02 0.  0.
    5000000    2    1    2    0    0  0.14939226167E+03 -0.37178130065E+03  0.14188964082E+03  0.73527727482E+03  0.59996718021E+03 0.  0.
        -24    2    4    4    0    0  0.22790771154E+03 -0.32194993731E+02 -0.13939951910E+03  0.28046539605E+03  0.79058015749E+02 0.  0.
         24    2    4    4    0    0 -0.78515449875E+02 -0.33958630692E+03  0.28128915992E+03  0.45481187877E+03  0.79036180741E+02 0.  0.
         13    1    3    3    0    0 -0.68203522798E+02  0.16369070974E+03 -0.26640264596E+03  0.32002615323E+03  0.00000000000E+00 0. -1.
        -14    1    3    3    0    0 -0.81188738871E+02  0.20809059091E+03 -0.19718656004E+03  0.29795275599E+03  0.00000000000E+00 0.  1.
         13    1    5    5    0    0  0.21740592940E+02  0.11948514553E+02 -0.40705512967E+02  0.47669268583E+02  0.00000000000E+00 0. -1.
        -14    1    5    5    0    0  0.20616711860E+03 -0.44143508283E+02 -0.98694006132E+02  0.23279612747E+03  0.00000000000E+00 0.  1.
          4    1    6    6  502    0 -0.74080162043E+02 -0.14630562700E+03  0.13360686294E+03  0.21152777767E+03  0.00000000000E+00 0. -1.
         -1    1    6    6    0  502 -0.44352878319E+01 -0.19328067992E+03  0.14768229697E+03  0.24328410110E+03  0.00000000000E+00 0.  1.
<mgrwt>
<rscale>  0 0.49683505E+03</rscale>
<asrwt>0</asrwt>
<pdfrwt beam="1">  1        1 0.12884275E+00 0.49683505E+03</pdfrwt>
<pdfrwt beam="2">  1       -2 0.79350510E-01 0.49683505E+03</pdfrwt>
<totfact> 0.26620816E+01</totfact>
</mgrwt>
</event>
<event>
12    3  0.2212098E-007  0.1720629E+04  0.7818608E-02  0.8749685E-01
         -2   -1    0    0    0  501 -0.00000000000E+00  0.00000000000E+00  0.14150119602E+04  0.14150119602E+04  0.00000000000E+00 0.  1.
          1   -1    0    0  501    0  0.00000000000E+00 -0.00000000000E+00 -0.23174733333E+04  0.23174733333E+04  0.00000000000E+00 0. -1.
        -24    2    1    2    0    0  0.14951407801E+04 -0.74027186416E+03 -0.10172370601E+04  0.19557055541E+04  0.81022174480E+02 0.  0.
    5000000    2    1    2    0    0 -0.14951407801E+04  0.74027186416E+03  0.11477568703E+03  0.17767797394E+04  0.60027027157E+03 0.  0.
        -24    2    4    4    0    0 -0.43851867425E+03 -0.53448923646E+02  0.41489108120E+02  0.45079404785E+03  0.79614774846E+02 0.  0.
         24    2    4    4    0    0 -0.10566221058E+04  0.79372078781E+03  0.73286578914E+02  0.13259856916E+04  0.80150908097E+02 0.  0.
         11    1    5    5    0    0 -0.13312871410E+03 -0.53528085207E+02  0.12396307193E+02  0.14402145277E+03  0.00000000000E+00 0. -1.
        -12    1    5    5    0    0 -0.30538996015E+03  0.79161561043E-01  0.29092800927E+02  0.30677259508E+03  0.00000000000E+00 0.  1.
         11    1    3    3    0    0  0.60173906635E+03 -0.31258910890E+03 -0.45757370197E+03  0.81803150777E+03  0.00000000000E+00 0. -1.
        -12    1    3    3    0    0  0.89340171374E+03 -0.42768275527E+03 -0.55966335810E+03  0.11376740463E+04  0.00000000000E+00 0.  1.
          2    1    6    6  502    0 -0.76640766165E+03  0.61800121952E+03  0.45532935173E+02  0.98558584575E+03  0.00000000000E+00 0. -1.
         -1    1    6    6    0  502 -0.29021444419E+03  0.17571956829E+03  0.27753643741E+02  0.34039984582E+03  0.00000000000E+00 0.  1.
<mgrwt>
<rscale>  0 0.17206291E+04</rscale>
<asrwt>0</asrwt>
<pdfrwt beam="1">  1        1 0.35653436E+00 0.17206291E+04</pdfrwt>
<pdfrwt beam="2">  1       -2 0.21769415E+00 0.17206291E+04</pdfrwt>
<totfact> 0.14907314E-01</totfact>
</mgrwt>
</event>
<event>
12    3  0.2212098E-007  0.1339299E+04  0.7818608E-02  0.8998968E-01
         -2   -1    0    0    0  501 -0.00000000000E+00  0.00000000000E+00  0.73902737117E+03  0.73902737117E+03  0.00000000000E+00 0.  1.
          1   -1    0    0  501    0  0.00000000000E+00 -0.00000000000E+00 -0.31688696380E+04  0.31688696380E+04  0.00000000000E+00 0. -1.
        -24    2    1    2    0    0 -0.10213660850E+04 -0.81058370965E+03 -0.30146071243E+03  0.13407475184E+04  0.80564986040E+02 0.  0.
    5000000    2    1    2    0    0  0.10213660850E+04  0.81058370965E+03 -0.21283815544E+04  0.25671494908E+04  0.60001153049E+03 0.  0.
        -24    2    4    4    0    0  0.76218580443E+03  0.35415495647E+03 -0.92704068765E+03  0.12537336346E+04  0.78042656904E+02 0.  0.
         24    2    4    4    0    0  0.25918028061E+03  0.45642875318E+03 -0.12013408668E+04  0.13134158562E+04  0.79622286294E+02 0.  0.
         11    1    5    5    0    0  0.42245760381E+03  0.15383607671E+03 -0.50239868372E+03  0.67419611607E+03  0.00000000000E+00 0. -1.
        -12    1    5    5    0    0  0.33972820062E+03  0.20031887976E+03 -0.42464200392E+03  0.57953751853E+03  0.00000000000E+00 0.  1.
         13    1    3    3    0    0 -0.43200278654E+03 -0.39167443877E+03 -0.12238581513E+03  0.59583014469E+03  0.00000000000E+00 0. -1.
        -14    1    3    3    0    0 -0.58936329850E+03 -0.41890927088E+03 -0.17907489730E+03  0.74491737373E+03  0.00000000000E+00 0.  1.
          4    1    6    6  502    0  0.55650050340E+01 -0.73722821488E+00 -0.39373725433E+01  0.68567987438E+01  0.00000000000E+00 0. -1.
         -3    1    6    6    0  502  0.25361527558E+03  0.45716598139E+03 -0.11974034942E+04  0.13065590574E+04  0.00000000000E+00 0.  1.
<mgrwt>
<rscale>  0 0.13392989E+04</rscale>
<asrwt>0</asrwt>
<pdfrwt beam="1">  1        1 0.48751842E+00 0.13392989E+04</pdfrwt>
<pdfrwt beam="2">  1       -2 0.11369651E+00 0.13392989E+04</pdfrwt>
<totfact> 0.23256900E-01</totfact>
</mgrwt>
</event>
<event>
12    3  0.2212098E-007  0.4172183E+03  0.7818608E-02  0.1037975E+00
          1   -1    0    0  501    0  0.00000000000E+00  0.00000000000E+00  0.17030776404E+04  0.17030776404E+04  0.00000000000E+00 0. -1.
         -2   -1    0    0    0  501 -0.00000000000E+00 -0.00000000000E+00 -0.13503204098E+03  0.13503204098E+03  0.00000000000E+00 0.  1.
        -24    2    1    2    0    0 -0.96640915237E+02 -0.26706775396E+03  0.50921291701E+03  0.58830101475E+03  0.78330309573E+02 0.  0.
    5000000    2    1    2    0    0  0.96640915237E+02  0.26706775396E+03  0.10588326824E+04  0.12498086666E+04  0.60019197107E+03 0.  0.
        -24    2    4    4    0    0 -0.11452791399E+03  0.29752032354E+03  0.93530259286E+03  0.99135995316E+03  0.79803699933E+02 0.  0.
         24    2    4    4    0    0  0.21116882923E+03 -0.30452569582E+02  0.12353008953E+03  0.25844871345E+03  0.77565591800E+02 0.  0.
         11    1    5    5    0    0 -0.73723905667E+02  0.10329223311E+03  0.29877622286E+03  0.32461012158E+03  0.00000000000E+00 0. -1.
        -12    1    5    5    0    0 -0.40804008325E+02  0.19422809043E+03  0.63652637000E+03  0.66674983158E+03  0.00000000000E+00 0.  1.
         13    1    3    3    0    0 -0.90680203260E+02 -0.16900844533E+03  0.28521226259E+03  0.34370450767E+03  0.00000000000E+00 0. -1.
        -14    1    3    3    0    0 -0.59607119768E+01 -0.98059308625E+02  0.22400065442E+03  0.24459650708E+03  0.00000000000E+00 0.  1.
          2    1    6    6  502    0  0.15194511931E+03 -0.44169143406E+02  0.56652597324E+02  0.16807066756E+03  0.00000000000E+00 0. -1.
         -1    1    6    6    0  502  0.59223709919E+02  0.13716573824E+02  0.66877492210E+02  0.90378045887E+02  0.00000000000E+00 0.  1.
<mgrwt>
<rscale>  0 0.41721830E+03</rscale>
<asrwt>0</asrwt>
<pdfrwt beam="1">  1        1 0.26201193E+00 0.41721830E+03</pdfrwt>
<pdfrwt beam="2">  1       -2 0.20774161E-01 0.41721830E+03</pdfrwt>
<totfact> 0.88936958E+01</totfact>
</mgrwt>
</event>
<event>
12    3  0.2212098E-007  0.3899681E+03  0.7818608E-02  0.1047310E+00
         -2   -1    0    0    0  501 -0.00000000000E+00  0.00000000000E+00  0.21294956921E+03  0.21294956921E+03  0.00000000000E+00 0.  1.
          1   -1    0    0  501    0  0.00000000000E+00 -0.00000000000E+00 -0.12876834407E+04  0.12876834407E+04  0.00000000000E+00 0. -1.
        -24    2    1    2    0    0 -0.18177953317E+03  0.17310365941E+03 -0.23248779428E+02  0.26427429324E+03  0.79320367752E+02 0.  0.
    5000000    2    1    2    0    0  0.18177953317E+03 -0.17310365941E+03 -0.10514850921E+04  0.12363587167E+04  0.59996108365E+03 0.  0.
        -24    2    4    4    0    0 -0.14824720532E+03  0.69913191890E+00 -0.69149048028E+03  0.71172719185E+03  0.80117342874E+02 0.  0.
         24    2    4    4    0    0  0.33002673849E+03 -0.17380279133E+03 -0.35999461183E+03  0.52463152487E+03  0.80728297057E+02 0.  0.
         11    1    5    5    0    0 -0.34503499987E+02 -0.12663989546E+02 -0.34156921280E+03  0.34354096594E+03  0.00000000000E+00 0. -1.
        -12    1    5    5    0    0 -0.11374370534E+03  0.13363121465E+02 -0.34992126748E+03  0.36818622591E+03  0.00000000000E+00 0.  1.
         11    1    3    3    0    0 -0.17473781192E+03  0.17572164528E+03 -0.35055144298E+02  0.25028036814E+03  0.00000000000E+00 0. -1.
        -12    1    3    3    0    0 -0.70417212455E+01 -0.26179858690E+01  0.11806364870E+02  0.13993925094E+02  0.00000000000E+00 0.  1.
          4    1    6    6  502    0  0.18824626592E+03 -0.10795911761E+03 -0.15427566213E+03  0.26625703302E+03  0.00000000000E+00 0. -1.
         -3    1    6    6    0  502  0.14178047257E+03 -0.65843673721E+02 -0.20571894970E+03  0.25837449185E+03  0.00000000000E+00 0.  1.
<mgrwt>
<rscale>  0 0.38996811E+03</rscale>
<asrwt>0</asrwt>
<pdfrwt beam="1">  1        1 0.19810515E+00 0.38996811E+03</pdfrwt>
<pdfrwt beam="2">  1       -2 0.32761472E-01 0.38996811E+03</pdfrwt>
<totfact> 0.75096484E+01</totfact>
</mgrwt>
</event>
<event>
12    3  0.2212098E-007  0.5082526E+03  0.7818608E-02  0.1011647E+00
          3   -1    0    0  501    0  0.00000000000E+00  0.00000000000E+00  0.96056819828E+02  0.96056819828E+02  0.00000000000E+00 0. -1.
         -4   -1    0    0    0  501 -0.00000000000E+00 -0.00000000000E+00 -0.32756635123E+04  0.32756635123E+04  0.00000000000E+00 0.  1.
        -24    2    1    2    0    0  0.33774124889E+03 -0.10365671110E+03 -0.16715141249E+04  0.17107168884E+04  0.88198286684E+02 0.  0.
    5000000    2    1    2    0    0 -0.33774124889E+03  0.10365671110E+03 -0.15080925676E+04  0.16610034437E+04  0.59981278959E+03 0.  0.
        -24    2    4    4    0    0 -0.48407530807E+03  0.11016078872E+03 -0.13087143515E+04  0.14019923518E+04  0.79906177501E+02 0.  0.
         24    2    4    4    0    0  0.14633405918E+03 -0.65040776141E+01 -0.19937821605E+03  0.25901109193E+03  0.76675372860E+02 0.  0.
         13    1    3    3    0    0  0.21657815717E+03 -0.51413257566E+02 -0.84947017827E+03  0.87815090104E+03  0.00000000000E+00 0. -1.
        -14    1    3    3    0    0  0.12116309171E+03 -0.52243453539E+02 -0.82204394661E+03  0.83256598740E+03  0.00000000000E+00 0.  1.
         13    1    5    5    0    0 -0.17758910244E+03  0.32991806316E+02 -0.58564664174E+03  0.61286893997E+03  0.00000000000E+00 0. -1.
        -14    1    5    5    0    0 -0.30648620562E+03  0.77168982403E+02 -0.72306770979E+03  0.78912341179E+03  0.00000000000E+00 0.  1.
          4    1    6    6  502    0  0.13896335210E+03 -0.28698451215E+02 -0.16887700607E+03  0.22057619434E+03  0.00000000000E+00 0. -1.
         -3    1    6    6    0  502  0.73707070806E+01  0.22194373601E+02 -0.30501209978E+02  0.38434897587E+02  0.00000000000E+00 0.  1.
<mgrwt>
<rscale>  0 0.50825257E+03</rscale>
<asrwt>0</asrwt>
<pdfrwt beam="1">  1        3 0.14777975E-01 0.50825257E+03</pdfrwt>
<pdfrwt beam="2">  1       -4 0.50394815E+00 0.50825257E+03</pdfrwt>
<totfact> 0.11347727E-01</totfact>
</mgrwt>
</event>
<event>
12    3  0.2212098E-007  0.1205613E+04  0.7818608E-02  0.9107958E-01
         -2   -1    0    0    0  501 -0.00000000000E+00  0.00000000000E+00  0.42805339208E+03  0.42805339208E+03  0.00000000000E+00 0.  1.
          1   -1    0    0  501    0  0.00000000000E+00 -0.00000000000E+00 -0.42319640549E+04  0.42319640549E+04  0.00000000000E+00 0. -1.
        -24    2    1    2    0    0  0.70332061294E+03 -0.91111710610E+03 -0.27698703733E+04  0.30005062675E+04  0.77856987477E+02 0.  0.
    5000000    2    1    2    0    0 -0.70332061294E+03  0.91111710610E+03 -0.10340402895E+04  0.16595111795E+04  0.59995313898E+03 0.  0.
        -24    2    4    4    0    0  0.30616118728E+01 -0.49793890369E+02 -0.32274278174E+02  0.99909681122E+02  0.80321294592E+02 0.  0.
         24    2    4    4    0    0 -0.70638222482E+03  0.96091099647E+03 -0.10017660113E+04  0.15596014984E+04  0.80597156509E+02 0.  0.
         11    1    5    5    0    0 -0.19068417442E+02 -0.10872115866E+02 -0.47736902599E+02  0.52541596064E+02  0.00000000000E+00 0. -1.
        -12    1    5    5    0    0  0.22130029315E+02 -0.38921774503E+02  0.15462624425E+02  0.47368085058E+02  0.00000000000E+00 0.  1.
         11    1    3    3    0    0  0.27832155827E+03 -0.38747818923E+03 -0.12385939999E+04  0.13272970028E+04  0.00000000000E+00 0. -1.
        -12    1    3    3    0    0  0.42499905468E+03 -0.52363891688E+03 -0.15312763734E+04  0.16732092647E+04  0.00000000000E+00 0.  1.
          4    1    6    6  502    0 -0.43435245147E+03  0.56505989251E+03 -0.55051212940E+03  0.90056556609E+03  0.00000000000E+00 0. -1.
         -3    1    6    6    0  502 -0.27202977335E+03  0.39585110397E+03 -0.45125388191E+03  0.65903593228E+03  0.00000000000E+00 0.  1.
<mgrwt>
<rscale>  0 0.12056125E+04</rscale>
<asrwt>0</asrwt>
<pdfrwt beam="1">  1        1 0.65107137E+00 0.12056125E+04</pdfrwt>
<pdfrwt beam="2">  1       -2 0.65854371E-01 0.12056125E+04</pdfrwt>
<totfact> 0.11237503E-01</totfact>
</mgrwt>
</event>
<event>
12    3  0.2212098E-007  0.1655873E+04  0.7818608E-02  0.8786940E-01
         -2   -1    0    0    0  501 -0.00000000000E+00  0.00000000000E+00  0.25644891463E+04  0.25644891463E+04  0.00000000000E+00 0.  1.
          1   -1    0    0  501    0  0.00000000000E+00 -0.00000000000E+00 -0.11923161729E+04  0.11923161729E+04  0.00000000000E+00 0. -1.
        -24    2    1    2    0    0  0.15150563419E+04 -0.53101704396E+03  0.12542997951E+04  0.20388575018E+04  0.79354374445E+02 0.  0.
    5000000    2    1    2    0    0 -0.15150563419E+04  0.53101704396E+03  0.11787317836E+03  0.17179478174E+04  0.60006316068E+03 0.  0.
        -24    2    4    4    0    0 -0.10046867174E+04  0.62692152884E+03  0.11642651217E+03  0.11926285830E+04  0.79886173868E+02 0.  0.
         24    2    4    4    0    0 -0.51036962455E+03 -0.95904484878E+02  0.14466661917E+01  0.52531923439E+03  0.79267782215E+02 0.  0.
         11    1    3    3    0    0  0.11865111824E+03 -0.59503694228E+02  0.86615861429E+02  0.15849632468E+03  0.00000000000E+00 0. -1.
        -12    1    3    3    0    0  0.13964052237E+04 -0.47151334974E+03  0.11676839336E+04  0.18803611772E+04  0.00000000000E+00 0.  1.
         13    1    5    5    0    0 -0.65361856998E+03  0.43932005835E+03  0.10408150424E+03  0.79438800861E+03  0.00000000000E+00 0. -1.
        -14    1    5    5    0    0 -0.35106814739E+03  0.18760147049E+03  0.12345007931E+02  0.39824057435E+03  0.00000000000E+00 0.  1.
          4    1    6    6  502    0 -0.22713853178E+03 -0.34439124882E+02  0.39172722154E+02  0.23305035530E+03  0.00000000000E+00 0. -1.
         -3    1    6    6    0  502 -0.28323109277E+03 -0.61465359995E+02 -0.37726055963E+02  0.29226887909E+03  0.00000000000E+00 0.  1.
<mgrwt>
<rscale>  0 0.16558732E+04</rscale>
<asrwt>0</asrwt>
<pdfrwt beam="1">  1        1 0.18343326E+00 0.16558732E+04</pdfrwt>
<pdfrwt beam="2">  1       -2 0.39453679E+00 0.16558732E+04</pdfrwt>
<totfact> 0.71207563E-02</totfact>
</mgrwt>
</event>
<event>
12    3  0.2212098E-007  0.6944359E+03  0.7818608E-02  0.9726795E-01
         -2   -1    0    0    0  501 -0.00000000000E+00  0.00000000000E+00  0.86905369520E+03  0.86905369520E+03  0.00000000000E+00 0.  1.
          1   -1    0    0  501    0  0.00000000000E+00 -0.00000000000E+00 -0.71383935524E+03  0.71383935524E+03  0.00000000000E+00 0. -1.
        -24    2    1    2    0    0  0.16400968585E+03  0.63583183504E+03 -0.70601557923E+02  0.66519207940E+03  0.79464602201E+02 0.  0.
    5000000    2    1    2    0    0 -0.16400968585E+03 -0.63583183504E+03  0.22581589788E+03  0.91770097104E+03  0.60000079417E+03 0.  0.
        -24    2    4    4    0    0 -0.50410772822E+02 -0.57101500616E+03  0.38581141387E+03  0.69560388736E+03  0.80093306603E+02 0.  0.
         24    2    4    4    0    0 -0.11359891303E+03 -0.64816828883E+02 -0.15999551598E+03  0.22209708369E+03  0.81379451330E+02 0.  0.
         11    1    5    5    0    0 -0.22985349792E+02 -0.16489252792E+03  0.70870247938E+02  0.18094326214E+03  0.00000000000E+00 0. -1.
        -12    1    5    5    0    0 -0.27425423030E+02 -0.40612247824E+03  0.31494116593E+03  0.51466062522E+03  0.00000000000E+00 0.  1.
         13    1    3    3    0    0  0.12490477948E+03  0.32586420907E+03 -0.40296429503E+02  0.35130113709E+03  0.00000000000E+00 0. -1.
        -14    1    3    3    0    0  0.39104906373E+02  0.30996762597E+03 -0.30305128420E+02  0.31389094230E+03  0.00000000000E+00 0.  1.
          2    1    6    6  502    0  0.10994149198E+02 -0.17476103147E+02 -0.24409318448E+02  0.31970303797E+02  0.00000000000E+00 0. -1.
         -1    1    6    6    0  502 -0.12459306223E+03 -0.47340725736E+02 -0.13558619753E+03  0.19012677989E+03  0.00000000000E+00 0.  1.
<mgrwt>
<rscale>  0 0.69443587E+03</rscale>
<asrwt>0</asrwt>
<pdfrwt beam="1">  1        1 0.10982144E+00 0.69443587E+03</pdfrwt>
<pdfrwt beam="2">  1       -2 0.13370057E+00 0.69443587E+03</pdfrwt>
<totfact> 0.96238897E+00</totfact>
</mgrwt>
</event>
<event>
12    3  0.2212098E-007  0.1851724E+04  0.7818608E-02  0.8679267E-01
         -2   -1    0    0    0  501 -0.00000000000E+00  0.00000000000E+00  0.22156722938E+04  0.22156722938E+04  0.00000000000E+00 0.  1.
          1   -1    0    0  501    0  0.00000000000E+00 -0.00000000000E+00 -0.17119475949E+04  0.17119475949E+04  0.00000000000E+00 0. -1.
        -24    2    1    2    0    0 -0.88604927198E+02  0.18197543223E+04 -0.29974670487E+03  0.18479739073E+04  0.76176427909E+02 0.  0.
    5000000    2    1    2    0    0  0.88604927198E+02 -0.18197543223E+04  0.80347140376E+03  0.20796459814E+04  0.60000373700E+03 0.  0.
        -24    2    4    4    0    0  0.25179058232E+03 -0.14844186220E+04  0.78036024327E+03  0.16976552852E+04  0.78576175566E+02 0.  0.
         24    2    4    4    0    0 -0.16318565513E+03 -0.33533570035E+03  0.23111160490E+02  0.38199069620E+03  0.79392545470E+02 0.  0.
         13    1    3    3    0    0 -0.86677291730E+02  0.10044822525E+04 -0.16914681525E+03  0.10223053329E+04  0.00000000000E+00 0. -1.
        -14    1    3    3    0    0 -0.19276354682E+01  0.81527206982E+03 -0.13059988962E+03  0.82566857442E+03  0.00000000000E+00 0.  1.
         13    1    5    5    0    0  0.17409487466E+03 -0.92216849570E+03  0.52418162419E+03  0.10749279673E+04  0.00000000000E+00 0. -1.
        -14    1    5    5    0    0  0.77695707661E+02 -0.56225012630E+03  0.25617861908E+03  0.62272731784E+03  0.00000000000E+00 0.  1.
          4    1    6    6  502    0 -0.13634712160E+03 -0.25434847413E+03  0.49242561931E+02  0.29276016424E+03  0.00000000000E+00 0. -1.
         -3    1    6    6    0  502 -0.26838533531E+02 -0.80987226214E+02 -0.26131401441E+02  0.89230531956E+02  0.00000000000E+00 0.  1.
<mgrwt>
<rscale>  0 0.18517241E+04</rscale>
<asrwt>0</asrwt>
<pdfrwt beam="1">  1        1 0.26337655E+00 0.18517241E+04</pdfrwt>
<pdfrwt beam="2">  1       -2 0.34087266E+00 0.18517241E+04</pdfrwt>
<totfact> 0.65952480E-02</totfact>
</mgrwt>
</event>
<event>
12    3  0.2212098E-007  0.9964419E+03  0.7818608E-02  0.9312456E-01
          1   -1    0    0  501    0  0.00000000000E+00  0.00000000000E+00  0.31659486049E+04  0.31659486049E+04  0.00000000000E+00 0. -1.
         -2   -1    0    0    0  501 -0.00000000000E+00 -0.00000000000E+00 -0.34729745141E+03  0.34729745141E+03  0.00000000000E+00 0.  1.
        -24    2    1    2    0    0  0.27759462033E+03  0.86318912015E+03  0.18303009419E+04  0.20439408483E+04  0.74420582878E+02 0.  0.
    5000000    2    1    2    0    0 -0.27759462033E+03 -0.86318912015E+03  0.98835021166E+03  0.14693052080E+04  0.59988950911E+03 0.  0.
        -24    2    4    4    0    0 -0.34073297884E+03 -0.17627492916E+03  0.38539993274E+03  0.54971772242E+03  0.80527341123E+02 0.  0.
         24    2    4    4    0    0  0.63138358509E+02 -0.68691419099E+03  0.60295027892E+03  0.91958748563E+03  0.79085692624E+02 0.  0.
         11    1    3    3    0    0  0.18486044692E+03  0.63246016078E+03  0.12636430998E+04  0.14251221434E+04  0.00000000000E+00 0. -1.
        -12    1    3    3    0    0  0.92734173414E+02  0.23072895937E+03  0.56665784206E+03  0.61881870494E+03  0.00000000000E+00 0.  1.
         11    1    5    5    0    0 -0.31201814089E+03 -0.13321352431E+03  0.34680610386E+03  0.48515527100E+03  0.00000000000E+00 0. -1.
        -12    1    5    5    0    0 -0.28714837955E+02 -0.43061404848E+02  0.38593828876E+02  0.64562451422E+02  0.00000000000E+00 0.  1.
          2    1    6    6  502    0  0.73877019183E+02 -0.37698974450E+03  0.32772247775E+03  0.50495653660E+03  0.00000000000E+00 0. -1.
         -1    1    6    6    0  502 -0.10738660674E+02 -0.30992444648E+03  0.27522780116E+03  0.41463094903E+03  0.00000000000E+00 0.  1.
<mgrwt>
<rscale>  0 0.99644193E+03</rscale>
<asrwt>0</asrwt>
<pdfrwt beam="1">  1        1 0.48706900E+00 0.99644193E+03</pdfrwt>
<pdfrwt beam="2">  1       -2 0.53430379E-01 0.99644193E+03</pdfrwt>
<totfact> 0.13459412E+00</totfact>
</mgrwt>
</event>
<event>
12    3  0.2212098E-007  0.1183907E+04  0.7818608E-02  0.9127061E-01
          1   -1    0    0  501    0  0.00000000000E+00  0.00000000000E+00  0.14858264078E+04  0.14858264078E+04  0.00000000000E+00 0. -1.
         -2   -1    0    0    0  501 -0.00000000000E+00 -0.00000000000E+00 -0.11671404668E+04  0.11671404668E+04  0.00000000000E+00 0.  1.
        -24    2    1    2    0    0 -0.41730408179E+03 -0.10418524159E+04  0.69913918008E+03  0.13246729102E+04  0.79772003849E+02 0.  0.
    5000000    2    1    2    0    0  0.41730408179E+03  0.10418524159E+04 -0.38045323912E+03  0.13282939645E+04  0.60001752948E+03 0.  0.
        -24    2    4    4    0    0  0.44815319617E+02  0.79333078012E+03 -0.35075607525E+03  0.87229988557E+03  0.80592347583E+02 0.  0.
         24    2    4    4    0    0  0.37248876217E+03  0.24852163580E+03 -0.29697163870E+02  0.45599407891E+03  0.80856645066E+02 0.  0.
         11    1    5    5    0    0  0.35284245112E+02  0.66776435267E+03 -0.26178314372E+03  0.71811184573E+03  0.00000000000E+00 0. -1.
        -12    1    5    5    0    0  0.95310745054E+01  0.12556642745E+03 -0.88972931535E+02  0.15418803984E+03  0.00000000000E+00 0.  1.
         11    1    3    3    0    0 -0.14371348984E+03 -0.32245374974E+03  0.26102157339E+03  0.43904697887E+03  0.00000000000E+00 0. -1.
        -12    1    3    3    0    0 -0.27359059194E+03 -0.71939866618E+03  0.43811760669E+03  0.88562593130E+03  0.00000000000E+00 0.  1.
          4    1    6    6  502    0  0.28691252025E+03  0.16529988908E+03  0.67231781057E+01  0.33119186090E+03  0.00000000000E+00 0. -1.
         -3    1    6    6    0  502  0.85576241926E+02  0.83221746723E+02 -0.36420341976E+02  0.12480221801E+03  0.00000000000E+00 0.  1.
<mgrwt>
<rscale>  0 0.11839065E+04</rscale>
<asrwt>0</asrwt>
<pdfrwt beam="1">  1        1 0.22858868E+00 0.11839065E+04</pdfrwt>
<pdfrwt beam="2">  1       -2 0.17956007E+00 0.11839065E+04</pdfrwt>
<totfact> 0.10459762E+00</totfact>
</mgrwt>
</event>
<event>
12    3  0.2212098E-007  0.5213205E+03  0.7818608E-02  0.1008359E+00
         -2   -1    0    0    0  501 -0.00000000000E+00  0.00000000000E+00  0.73825728069E+03  0.73825728069E+03  0.00000000000E+00 0.  1.
          1   -1    0    0  501    0  0.00000000000E+00 -0.00000000000E+00 -0.47845575126E+03  0.47845575126E+03  0.00000000000E+00 0. -1.
        -24    2    1    2    0    0  0.11910916138E+03 -0.37356430952E+03  0.29786525623E+03  0.49873471751E+03  0.79216929433E+02 0.  0.
    5000000    2    1    2    0    0 -0.11910916138E+03  0.37356430952E+03 -0.38063726790E+02  0.71797831444E+03  0.60025555145E+03 0.  0.
        -24    2    4    4    0    0 -0.31355326151E+03  0.22669823235E+03  0.12488719034E+03  0.41429401058E+03  0.79592590949E+02 0.  0.
         24    2    4    4    0    0  0.19444410013E+03  0.14686607717E+03 -0.16295091713E+03  0.30368430386E+03  0.79328445851E+02 0.  0.
         13    1    3    3    0    0  0.85105377638E+02 -0.31101979782E+03  0.20649724474E+03  0.38290645336E+03  0.00000000000E+00 0. -1.
        -14    1    3    3    0    0  0.34003783742E+02 -0.62544511701E+02  0.91368011489E+02  0.11582826415E+03  0.00000000000E+00 0.  1.
         13    1    5    5    0    0 -0.20531377518E+03  0.18921197695E+03  0.73293338400E+02  0.28866387366E+03  0.00000000000E+00 0. -1.
        -14    1    5    5    0    0 -0.10823948633E+03  0.37486255403E+02  0.51593851943E+02  0.12563013692E+03  0.00000000000E+00 0.  1.
          4    1    6    6  502    0  0.15828877327E+03  0.75779175004E+02 -0.99253889508E+02  0.20161635274E+03  0.00000000000E+00 0. -1.
         -3    1    6    6    0  502  0.36155326860E+02  0.71086902162E+02 -0.63697027625E+02  0.10206795113E+03  0.00000000000E+00 0.  1.
<mgrwt>
<rscale>  0 0.52132054E+03</rscale>
<asrwt>0</asrwt>
<pdfrwt beam="1">  1        1 0.73608577E-01 0.52132054E+03</pdfrwt>
<pdfrwt beam="2">  1       -2 0.11357804E+00 0.52132054E+03</pdfrwt>
<totfact> 0.26044259E+01</totfact>
</mgrwt>
</event>
<event>
12    3  0.2212098E-007  0.1238130E+04  0.7818608E-02  0.9080121E-01
          1   -1    0    0  501    0  0.00000000000E+00  0.00000000000E+00  0.12102038284E+04  0.12102038284E+04  0.00000000000E+00 0. -1.
         -2   -1    0    0    0  501 -0.00000000000E+00 -0.00000000000E+00 -0.15887310302E+04  0.15887310302E+04  0.00000000000E+00 0.  1.
        -24    2    1    2    0    0  0.12787490011E+03  0.11873011125E+04  0.38775678059E+03  0.12584005231E+04  0.84738620685E+02 0.  0.
    5000000    2    1    2    0    0 -0.12787490011E+03 -0.11873011125E+04 -0.76628398240E+03  0.15405343354E+04  0.60001581233E+03 0.  0.
        -24    2    4    4    0    0 -0.23992715682E+03 -0.32663412613E+03 -0.45359869570E+03  0.61467528445E+03  0.88425311105E+02 0.  0.
         24    2    4    4    0    0  0.11205225671E+03 -0.86066698640E+03 -0.31268528669E+03  0.92585905097E+03  0.78355114938E+02 0.  0.
         11    1    3    3    0    0  0.44633900270E+02  0.70847496722E+03  0.25870253628E+03  0.75555010854E+03  0.00000000000E+00 0. -1.
        -12    1    3    3    0    0  0.83240999843E+02  0.47882614531E+03  0.12905424432E+03  0.50285041460E+03  0.00000000000E+00 0.  1.
         11    1    5    5    0    0 -0.16869323986E+03 -0.26883261780E+03 -0.39109770928E+03  0.50367231785E+03  0.00000000000E+00 0. -1.
        -12    1    5    5    0    0 -0.71233916961E+02 -0.57801508327E+02 -0.62500986427E+02  0.11100296660E+03  0.00000000000E+00 0.  1.
          2    1    6    6  502    0  0.63352548627E+02 -0.22550580454E+03 -0.92869434119E+02  0.25197449294E+03  0.00000000000E+00 0. -1.
         -1    1    6    6    0  502  0.48699708080E+02 -0.63516118185E+03 -0.21981585257E+03  0.67388455802E+03  0.00000000000E+00 0.  1.
<mgrwt>
<rscale>  0 0.12381304E+04</rscale>
<asrwt>0</asrwt>
<pdfrwt beam="1">  1        1 0.18618521E+00 0.12381304E+04</pdfrwt>
<pdfrwt beam="2">  1       -2 0.24442016E+00 0.12381304E+04</pdfrwt>
<totfact> 0.62225648E-01</totfact>
</mgrwt>
</event>
<event>
12    3  0.2664897E-007  0.6097546E+03  0.7818608E-02  0.9885373E-01
         -2   -1    0    0    0  501 -0.00000000000E+00  0.00000000000E+00  0.26337799851E+03  0.26337799851E+03  0.00000000000E+00 0.  1.
          1   -1    0    0  501    0  0.00000000000E+00 -0.00000000000E+00 -0.17144475329E+04  0.17144475329E+04  0.00000000000E+00 0. -1.
        -24    2    1    2    0    0 -0.22901718175E+03  0.45562974253E+03 -0.34805845399E+03  0.62250561891E+03  0.79506140465E+02 0.  0.
    5000000    2    1    2    0    0  0.22901718175E+03 -0.45562974253E+03 -0.11030110804E+04  0.13553199125E+04  0.60017604914E+03 0.  0.
        -24    2    4    4    0    0  0.18343815366E+02 -0.48535764447E+03 -0.97806113893E+03  0.10962659022E+04  0.96368035213E+02 0.  0.
         24    2    4    4    0    0  0.21067336638E+03  0.29727901947E+02 -0.12494994149E+03  0.25905401034E+03  0.78927035544E+02 0.  0.
         11    1    5    5    0    0 -0.27814864494E+02 -0.14655744629E+03 -0.23564013718E+03  0.27888891337E+03  0.00000000000E+00 0. -1.
        -12    1    5    5    0    0  0.46158679860E+02 -0.33880019818E+03 -0.74242100175E+03  0.81737698882E+03  0.00000000000E+00 0.  1.
         13    1    3    3    0    0 -0.34313610235E+02  0.14526766696E+03 -0.11285707889E+03  0.18712786849E+03  0.00000000000E+00 0. -1.
        -14    1    3    3    0    0 -0.19470357151E+03  0.31036207557E+03 -0.23520137510E+03  0.43537775042E+03  0.00000000000E+00 0.  1.
          2    1    6    6  502    0  0.10005913477E+03  0.14214534652E+02 -0.14729738020E+02  0.10213152613E+03  0.00000000000E+00 0. -1.
         -1    1    6    6    0  502  0.11061423161E+03  0.15513367294E+02 -0.11022020347E+03  0.15692248422E+03  0.00000000000E+00 0.  1.
<mgrwt>
<rscale>  0 0.60975460E+03</rscale>
<asrwt>0</asrwt>
<pdfrwt beam="1">  1        1 0.26376116E+00 0.60975460E+03</pdfrwt>
<pdfrwt beam="2">  1       -2 0.40519692E-01 0.60975460E+03</pdfrwt>
<totfact> 0.24823038E+01</totfact>
</mgrwt>
</event>
<event>
12    3  0.2212098E-007  0.4022256E+03  0.7818608E-02  0.1043012E+00
          1   -1    0    0  501    0  0.00000000000E+00  0.00000000000E+00  0.28916438297E+03  0.28916438297E+03  0.00000000000E+00 0. -1.
         -2   -1    0    0    0  501 -0.00000000000E+00 -0.00000000000E+00 -0.59326653835E+03  0.59326653835E+03  0.00000000000E+00 0.  1.
        -24    2    1    2    0    0  0.11123443375E+03  0.14719555163E+03 -0.83721780260E+02  0.21716737382E+03  0.78183771280E+02 0.  0.
    5000000    2    1    2    0    0 -0.11123443375E+03 -0.14719555163E+03 -0.22038037512E+03  0.66526354750E+03  0.59997370628E+03 0.  0.
        -24    2    4    4    0    0  0.17603409448E+03  0.11599717843E+03 -0.12559421775E+03  0.25785415784E+03  0.79192874421E+02 0.  0.
         24    2    4    4    0    0 -0.28726852822E+03 -0.26319273006E+03 -0.94786157365E+02  0.40740938966E+03  0.72141352175E+02 0.  0.
         11    1    3    3    0    0  0.53621588596E+02  0.12787958222E+03 -0.48332866249E+02  0.14684865771E+03  0.00000000000E+00 0. -1.
        -12    1    3    3    0    0  0.57612845150E+02  0.19315969417E+02 -0.35388914011E+02  0.70318716112E+02  0.00000000000E+00 0.  1.
         11    1    5    5    0    0  0.70637390988E+02  0.26969714725E+02 -0.70200456514E+01  0.75936075477E+02  0.00000000000E+00 0. -1.
        -12    1    5    5    0    0  0.10539670349E+03  0.89027463701E+02 -0.11857417210E+03  0.18191808236E+03  0.00000000000E+00 0.  1.
          2    1    6    6  502    0 -0.13872564453E+03 -0.15274598428E+03 -0.18382533564E+02  0.20715708461E+03  0.00000000000E+00 0. -1.
         -1    1    6    6    0  502 -0.14854288370E+03 -0.11044674578E+03 -0.76403623801E+02  0.20025230506E+03  0.00000000000E+00 0.  1.
<mgrwt>
<rscale>  0 0.40222558E+03</rscale>
<asrwt>0</asrwt>
<pdfrwt beam="1">  1        1 0.44486828E-01 0.40222558E+03</pdfrwt>
<pdfrwt beam="2">  1       -2 0.91271775E-01 0.40222558E+03</pdfrwt>
<totfact> 0.85154255E+01</totfact>
</mgrwt>
</event>
<event>
12    3  0.2212098E-007  0.9242767E+03  0.7818608E-02  0.9395733E-01
         -2   -1    0    0    0  501 -0.00000000000E+00  0.00000000000E+00  0.19736631491E+03  0.19736631491E+03  0.00000000000E+00 0.  1.
          1   -1    0    0  501    0  0.00000000000E+00 -0.00000000000E+00 -0.50026921043E+04  0.50026921043E+04  0.00000000000E+00 0. -1.
        -24    2    1    2    0    0 -0.58954664622E+03  0.60204309754E+03 -0.13515033424E+04  0.15946612410E+04  0.79762458881E+02 0.  0.
    5000000    2    1    2    0    0  0.58954664622E+03 -0.60204309754E+03 -0.34538224470E+04  0.36053971782E+04  0.59998181436E+03 0.  0.
        -24    2    4    4    0    0  0.54159830830E+03 -0.18567639338E+03 -0.23965245639E+04  0.24652649766E+04  0.79981052736E+02 0.  0.
         24    2    4    4    0    0  0.47948337928E+02 -0.41636670416E+03 -0.10572978831E+04  0.11401322015E+04  0.79764328042E+02 0.  0.
         11    1    3    3    0    0 -0.41136110302E+03  0.46836588757E+03 -0.97762255733E+03  0.11594526408E+04  0.00000000000E+00 0. -1.
        -12    1    3    3    0    0 -0.17818554321E+03  0.13367720997E+03 -0.37388078503E+03  0.43520860020E+03  0.00000000000E+00 0.  1.
         11    1    5    5    0    0  0.49615614068E+03 -0.18740646234E+03 -0.21401621327E+04  0.22049004631E+04  0.00000000000E+00 0. -1.
        -12    1    5    5    0    0  0.45442167616E+02  0.17300689639E+01 -0.25636243129E+03  0.26036451354E+03  0.00000000000E+00 0.  1.
          4    1    6    6  502    0  0.37861600931E+02 -0.41462771911E+03 -0.10345517803E+04  0.11151892362E+04  0.00000000000E+00 0. -1.
         -3    1    6    6    0  502  0.10086736997E+02 -0.17389850474E+01 -0.22746102714E+02  0.24942965359E+02  0.00000000000E+00 0.  1.
<mgrwt>
<rscale>  0 0.92427674E+03</rscale>
<asrwt>0</asrwt>
<pdfrwt beam="1">  1        1 0.76964491E+00 0.92427674E+03</pdfrwt>
<pdfrwt beam="2">  1       -2 0.30364050E-01 0.92427674E+03</pdfrwt>
<totfact> 0.84140410E-02</totfact>
</mgrwt>
</event>
<event>
12    3  0.2212098E-007  0.5483329E+03  0.7818608E-02  0.1001881E+00
         -2   -1    0    0    0  501 -0.00000000000E+00  0.00000000000E+00  0.23874723992E+03  0.23874723992E+03  0.00000000000E+00 0.  1.
          1   -1    0    0  501    0  0.00000000000E+00 -0.00000000000E+00 -0.15462680278E+04  0.15462680278E+04  0.00000000000E+00 0. -1.
        -24    2    1    2    0    0  0.34750899330E+03 -0.20193330831E+03 -0.18358123971E+03  0.44912456237E+03  0.80444014794E+02 0.  0.
    5000000    2    1    2    0    0 -0.34750899330E+03  0.20193330831E+03 -0.11239395481E+04  0.13358907053E+04  0.59985357149E+03 0.  0.
        -24    2    4    4    0    0 -0.41675809505E+03 -0.47737886703E+02 -0.51290609077E+03  0.66747570778E+03  0.80529168098E+02 0.  0.
         24    2    4    4    0    0  0.69249101743E+02  0.24967119502E+03 -0.61103345737E+03  0.66841499753E+03  0.79281644694E+02 0.  0.
         13    1    3    3    0    0  0.84713694415E+02 -0.90643346508E+02 -0.46191384886E+02  0.13238682081E+03  0.00000000000E+00 0. -1.
        -14    1    3    3    0    0  0.26279529889E+03 -0.11128996180E+03 -0.13738985482E+03  0.31673774155E+03  0.00000000000E+00 0.  1.
         13    1    5    5    0    0 -0.31237389570E+03 -0.44958753827E+02 -0.43390325173E+03  0.53653590013E+03  0.00000000000E+00 0. -1.
        -14    1    5    5    0    0 -0.10438419934E+03 -0.27791328764E+01 -0.79002839039E+02  0.13093980765E+03  0.00000000000E+00 0.  1.
          2    1    6    6  502    0  0.66967397588E+02  0.11934382470E+03 -0.36820680749E+03  0.39281526690E+03  0.00000000000E+00 0. -1.
         -1    1    6    6    0  502  0.22817041555E+01  0.13032737032E+03 -0.24282664988E+03  0.27559973063E+03  0.00000000000E+00 0.  1.
<mgrwt>
<rscale>  0 0.54833294E+03</rscale>
<asrwt>0</asrwt>
<pdfrwt beam="1">  1        1 0.23788740E+00 0.54833294E+03</pdfrwt>
<pdfrwt beam="2">  1       -2 0.36730343E-01 0.54833294E+03</pdfrwt>
<totfact> 0.39275287E+01</totfact>
</mgrwt>
</event>
<event>
12    3  0.2212098E-007  0.2595808E+04  0.7818608E-02  0.8369627E-01
          1   -1    0    0  501    0  0.00000000000E+00  0.00000000000E+00  0.29840053516E+04  0.29840053516E+04  0.00000000000E+00 0. -1.
         -2   -1    0    0    0  501 -0.00000000000E+00 -0.00000000000E+00 -0.23426301141E+04  0.23426301141E+04  0.00000000000E+00 0.  1.
        -24    2    1    2    0    0 -0.17333537351E+04  0.19097903161E+04  0.71502446275E+03  0.26776520145E+04  0.82134680565E+02 0.  0.
    5000000    2    1    2    0    0  0.17333537351E+04 -0.19097903161E+04 -0.73649225308E+02  0.26489834512E+04  0.59989573584E+03 0.  0.
        -24    2    4    4    0    0  0.11658008072E+02 -0.14798020488E+03 -0.78901413609E+02  0.18466265191E+03  0.76425203637E+02 0.  0.
         24    2    4    4    0    0  0.17216957270E+04 -0.17618101113E+04  0.52521883010E+01  0.24643207993E+04  0.68105593543E+02 0.  0.
         13    1    3    3    0    0 -0.15566859234E+04  0.17140921951E+04  0.66747598478E+03  0.24097525408E+04  0.00000000000E+00 0. -1.
        -14    1    3    3    0    0 -0.17666781169E+03  0.19569812103E+03  0.47548477970E+02  0.26789947372E+03  0.00000000000E+00 0.  1.
         13    1    5    5    0    0  0.10350517449E+02 -0.14602116307E+03 -0.48562406748E+02  0.15423235921E+03  0.00000000000E+00 0. -1.
        -14    1    5    5    0    0  0.13074906230E+01 -0.19590418060E+01 -0.30339006861E+02  0.30430292700E+02  0.00000000000E+00 0.  1.
          4    1    6    6  502    0  0.91503974936E+03 -0.96747281530E+03  0.28898614178E+02  0.13319671622E+04  0.00000000000E+00 0. -1.
         -3    1    6    6    0  502  0.80665597769E+03 -0.79433729595E+03 -0.23646425877E+02  0.11323536371E+04  0.00000000000E+00 0.  1.
<mgrwt>
<rscale>  0 0.25958077E+04</rscale>
<asrwt>0</asrwt>
<pdfrwt beam="1">  1        1 0.45907775E+00 0.25958077E+04</pdfrwt>
<pdfrwt beam="2">  1       -2 0.36040463E+00 0.25958077E+04</pdfrwt>
<totfact> 0.59728406E-03</totfact>
</mgrwt>
</event>
<event>
12    3  0.2212098E-007  0.1509714E+04  0.7818608E-02  0.8878019E-01
         -2   -1    0    0    0  501 -0.00000000000E+00  0.00000000000E+00  0.24062095679E+04  0.24062095679E+04  0.00000000000E+00 0.  1.
          1   -1    0    0  501    0  0.00000000000E+00 -0.00000000000E+00 -0.20527066010E+04  0.20527066010E+04  0.00000000000E+00 0. -1.
        -24    2    1    2    0    0 -0.14249984636E+04 -0.35609124196E+03  0.17912055290E+04  0.23177868289E+04  0.79353279214E+02 0.  0.
    5000000    2    1    2    0    0  0.14249984636E+04  0.35609124196E+03 -0.14377025622E+04  0.21411293400E+04  0.60002049916E+03 0.  0.
        -24    2    4    4    0    0  0.10615110572E+04  0.40376646020E+02 -0.11779769026E+04  0.15882616245E+04  0.80680894533E+02 0.  0.
         24    2    4    4    0    0  0.36348740645E+03  0.31571459594E+03 -0.25972565961E+03  0.55286771554E+03  0.80040563975E+02 0.  0.
         11    1    3    3    0    0 -0.12648178642E+04 -0.30254742550E+03  0.15496995305E+04  0.20230837376E+04  0.00000000000E+00 0. -1.
        -12    1    3    3    0    0 -0.16018059942E+03 -0.53543816461E+02  0.24150599849E+03  0.29470309129E+03  0.00000000000E+00 0.  1.
         13    1    5    5    0    0  0.75609011636E+03  0.23274508281E+02 -0.78350039449E+03  0.10890761383E+04  0.00000000000E+00 0. -1.
        -14    1    5    5    0    0  0.30542094080E+03  0.17102137739E+02 -0.39447650811E+03  0.49918548621E+03  0.00000000000E+00 0.  1.
          4    1    6    6  502    0  0.26841941483E+03  0.18474869467E+03 -0.18367886644E+03  0.37405746673E+03  0.00000000000E+00 0. -1.
         -1    1    6    6    0  502  0.95067991626E+02  0.13096590127E+03 -0.76046793179E+02  0.17881024881E+03  0.00000000000E+00 0.  1.
<mgrwt>
<rscale>  0 0.15097138E+04</rscale>
<asrwt>0</asrwt>
<pdfrwt beam="1">  1        1 0.31580102E+00 0.15097138E+04</pdfrwt>
<pdfrwt beam="2">  1       -2 0.37018609E+00 0.15097138E+04</pdfrwt>
<totfact> 0.26210079E-02</totfact>
</mgrwt>
</event>
<event>
12    3  0.2212098E-007  0.7655411E+03  0.7818608E-02  0.9611280E-01
          1   -1    0    0  501    0  0.00000000000E+00  0.00000000000E+00  0.15759213736E+04  0.15759213736E+04  0.00000000000E+00 0. -1.
         -2   -1    0    0    0  501 -0.00000000000E+00 -0.00000000000E+00 -0.63835160437E+03  0.63835160437E+03  0.00000000000E+00 0.  1.
        -24    2    1    2    0    0 -0.54402115811E+03  0.53226025330E+03 -0.12583484558E+03  0.77546088436E+03  0.79026432858E+02 0.  0.
    5000000    2    1    2    0    0  0.54402115811E+03 -0.53226025330E+03  0.10634046149E+04  0.14388120937E+04  0.60007571877E+03 0.  0.
        -24    2    4    4    0    0  0.28379178657E+03 -0.27726858405E+03  0.11788387049E+03  0.42211590012E+03  0.82882931789E+02 0.  0.
         24    2    4    4    0    0  0.26022937154E+03 -0.25499166925E+03  0.94552074436E+03  0.10166961935E+04  0.83196122212E+02 0.  0.
         11    1    5    5    0    0  0.21606959143E+03 -0.21931035399E+03  0.54290156662E+02  0.31261881073E+03  0.00000000000E+00 0. -1.
        -12    1    5    5    0    0  0.67722195141E+02 -0.57958230060E+02  0.63593713832E+02  0.10949708939E+03  0.00000000000E+00 0.  1.
         13    1    3    3    0    0 -0.18183548550E+03  0.17778671771E+03 -0.80069722946E+02  0.26661474324E+03  0.00000000000E+00 0. -1.
        -14    1    3    3    0    0 -0.36218567261E+03  0.35447353559E+03 -0.45765122634E+02  0.50884614112E+03  0.00000000000E+00 0.  1.
          2    1    6    6  502    0  0.24439539759E+03 -0.25955349893E+03  0.91523317308E+03  0.98221631542E+03  0.00000000000E+00 0. -1.
         -1    1    6    6    0  502  0.15833973955E+02  0.45618296895E+01  0.30287571282E+02  0.34479878124E+02  0.00000000000E+00 0.  1.
<mgrwt>
<rscale>  0 0.76554105E+03</rscale>
<asrwt>0</asrwt>
<pdfrwt beam="1">  1        1 0.24244944E+00 0.76554105E+03</pdfrwt>
<pdfrwt beam="2">  1       -2 0.98207940E-01 0.76554105E+03</pdfrwt>
<totfact> 0.45267880E+00</totfact>
</mgrwt>
</event>
<event>
12    3  0.2212098E-007  0.5861983E+03  0.7818608E-02  0.9934461E-01
          1   -1    0    0  501    0  0.00000000000E+00  0.00000000000E+00  0.15932319951E+04  0.15932319951E+04  0.00000000000E+00 0. -1.
         -2   -1    0    0    0  501 -0.00000000000E+00 -0.00000000000E+00 -0.22810494859E+03  0.22810494859E+03  0.00000000000E+00 0.  1.
        -24    2    1    2    0    0 -0.44637131326E+03 -0.42972208064E+02  0.47123362277E+03  0.65507138041E+03  0.77223223451E+02 0.  0.
    5000000    2    1    2    0    0  0.44637131326E+03  0.42972208064E+02  0.89389342371E+03  0.11662655632E+04  0.60002995849E+03 0.  0.
        -24    2    4    4    0    0 -0.13144362885E+03  0.69333866800E+01  0.11158860559E+03  0.18981759516E+03  0.79077197228E+02 0.  0.
         24    2    4    4    0    0  0.57781494210E+03  0.36038821384E+02  0.78230481811E+03  0.97644796807E+03  0.79252141571E+02 0.  0.
         13    1    3    3    0    0 -0.98881840589E+02 -0.33031749161E+02  0.14297996038E+03  0.17695192545E+03  0.00000000000E+00 0. -1.
        -14    1    3    3    0    0 -0.34748947267E+03 -0.99404589030E+01  0.32825366239E+03  0.47811945496E+03  0.00000000000E+00 0.  1.
         13    1    5    5    0    0 -0.45202944452E+02 -0.16043818361E+02  0.13565497502E+01  0.47984898895E+02  0.00000000000E+00 0. -1.
        -14    1    5    5    0    0 -0.86240684393E+02  0.22977205041E+02  0.11023205584E+03  0.14183269627E+03  0.00000000000E+00 0.  1.
          4    1    6    6  502    0  0.13924412605E+03 -0.21759469569E+02  0.21467991530E+03  0.25680706219E+03  0.00000000000E+00 0. -1.
         -1    1    6    6    0  502  0.43857081605E+03  0.57798290952E+02  0.56762490281E+03  0.71964090588E+03  0.00000000000E+00 0.  1.
<mgrwt>
<rscale>  0 0.58619831E+03</rscale>
<asrwt>0</asrwt>
<pdfrwt beam="1">  1        1 0.24511261E+00 0.58619831E+03</pdfrwt>
<pdfrwt beam="2">  1       -2 0.35093070E-01 0.58619831E+03</pdfrwt>
<totfact> 0.39604889E+01</totfact>
</mgrwt>
</event>
<event>
12    3  0.2212098E-007  0.4364706E+03  0.7818608E-02  0.1031835E+00
          1   -1    0    0  501    0  0.00000000000E+00  0.00000000000E+00  0.38052713374E+03  0.38052713374E+03  0.00000000000E+00 0. -1.
         -2   -1    0    0    0  501 -0.00000000000E+00 -0.00000000000E+00 -0.80351276865E+03  0.80351276865E+03  0.00000000000E+00 0.  1.
        -24    2    1    2    0    0 -0.25341486500E+03 -0.97009654314E+02 -0.44290036959E+03  0.52535616402E+03  0.78793368111E+02 0.  0.
    5000000    2    1    2    0    0  0.25341486500E+03  0.97009654314E+02  0.19914734671E+02  0.65868373837E+03  0.59986473784E+03 0.  0.
        -24    2    4    4    0    0  0.11903488854E+03  0.31411013468E+03 -0.11008859929E+03  0.36136790381E+03  0.75051854191E+02 0.  0.
         24    2    4    4    0    0  0.13437997646E+03 -0.21710048036E+03  0.13000333396E+03  0.29731583456E+03  0.79405553888E+02 0.  0.
         11    1    3    3    0    0 -0.20915171296E+03 -0.99485673031E+02 -0.40710659830E+03  0.46837764737E+03  0.00000000000E+00 0. -1.
        -12    1    3    3    0    0 -0.44263152035E+02  0.24760187177E+01 -0.35793771291E+02  0.56978516653E+02  0.00000000000E+00 0.  1.
         13    1    5    5    0    0  0.40927381358E+02  0.18828118187E+03 -0.87268186904E+02  0.21151971642E+03  0.00000000000E+00 0. -1.
        -14    1    5    5    0    0  0.78107507179E+02  0.12582895281E+03 -0.22820412387E+02  0.14984818739E+03  0.00000000000E+00 0.  1.
          2    1    6    6  502    0  0.11738505599E+03 -0.17400274752E+03  0.13673055957E+03  0.25050240206E+03  0.00000000000E+00 0. -1.
         -1    1    6    6    0  502  0.16994920469E+02 -0.43097732843E+02 -0.67272256098E+01  0.46813432500E+02  0.00000000000E+00 0.  1.
<mgrwt>
<rscale>  0 0.43647056E+03</rscale>
<asrwt>0</asrwt>
<pdfrwt beam="1">  1        1 0.58542636E-01 0.43647056E+03</pdfrwt>
<pdfrwt beam="2">  1       -2 0.12361735E+00 0.43647056E+03</pdfrwt>
<totfact> 0.28941377E+01</totfact>
</mgrwt>
</event>
<event>
12    3  0.2212098E-007  0.8008868E+03  0.7818608E-02  0.9558734E-01
          1   -1    0    0  501    0  0.00000000000E+00  0.00000000000E+00  0.11908931929E+04  0.11908931929E+04  0.00000000000E+00 0. -1.
         -2   -1    0    0    0  501 -0.00000000000E+00 -0.00000000000E+00 -0.80084075420E+03  0.80084075420E+03  0.00000000000E+00 0.  1.
        -24    2    1    2    0    0 -0.49638619216E+03 -0.61398617565E+03 -0.22500843145E+03  0.82482578591E+03  0.79564484676E+02 0.  0.
    5000000    2    1    2    0    0  0.49638619216E+03  0.61398617565E+03  0.61506087016E+03  0.11669081612E+04  0.59999708917E+03 0.  0.
        -24    2    4    4    0    0  0.14246462585E+03  0.12324207959E+03  0.50777187131E+03  0.54734793595E+03  0.79200441241E+02 0.  0.
         24    2    4    4    0    0  0.35392156631E+03  0.49074409606E+03  0.10728899884E+03  0.61956022524E+03  0.79080342163E+02 0.  0.
         11    1    3    3    0    0 -0.13489400722E+03 -0.14613466210E+03 -0.23831653423E+02  0.20029897742E+03  0.00000000000E+00 0. -1.
        -12    1    3    3    0    0 -0.36149218494E+03 -0.46785151355E+03 -0.20117677803E+03  0.62452680849E+03  0.00000000000E+00 0.  1.
         13    1    5    5    0    0 -0.35414808878E+00  0.32249274259E+02  0.11905374033E+03  0.12334477774E+03  0.00000000000E+00 0. -1.
        -14    1    5    5    0    0  0.14281877394E+03  0.90992805328E+02  0.38871813099E+03  0.42400315821E+03  0.00000000000E+00 0.  1.
          2    1    6    6  502    0  0.23083560592E+03  0.25389608949E+03  0.53912434148E+02  0.34735407263E+03  0.00000000000E+00 0. -1.
         -1    1    6    6    0  502  0.12308596039E+03  0.23684800657E+03  0.53376564695E+02  0.27220615261E+03  0.00000000000E+00 0.  1.
<mgrwt>
<rscale>  0 0.80088681E+03</rscale>
<asrwt>0</asrwt>
<pdfrwt beam="1">  1        1 0.18321434E+00 0.80088681E+03</pdfrwt>
<pdfrwt beam="2">  1       -2 0.12320627E+00 0.80088681E+03</pdfrwt>
<totfact> 0.48297902E+00</totfact>
</mgrwt>
</event>
<event>
12    3  0.2212098E-007  0.6322606E+03  0.7818608E-02  0.9840647E-01
         -2   -1    0    0    0  501 -0.00000000000E+00  0.00000000000E+00  0.14461351665E+04  0.14461351665E+04  0.00000000000E+00 0.  1.
          1   -1    0    0  501    0  0.00000000000E+00 -0.00000000000E+00 -0.36416518187E+03  0.36416518187E+03  0.00000000000E+00 0. -1.
        -24    2    1    2    0    0 -0.24355678945E+03 -0.42315160768E+03  0.87892055164E+03  0.10104180320E+04  0.10032980891E+03 0.  0.
    5000000    2    1    2    0    0  0.24355678945E+03  0.42315160768E+03  0.20304943295E+03  0.79988231632E+03  0.60017118806E+03 0.  0.
        -24    2    4    4    0    0  0.93647736182E+01  0.50776755430E+03  0.14800893171E+03  0.53489869189E+03  0.79337119550E+02 0.  0.
         24    2    4    4    0    0  0.23419201583E+03 -0.84615946615E+02  0.55040501238E+02  0.26498362443E+03  0.71979898184E+02 0.  0.
         11    1    3    3    0    0 -0.20338948305E+03 -0.29145958140E+03  0.69576937603E+03  0.78128803525E+03  0.00000000000E+00 0. -1.
        -12    1    3    3    0    0 -0.40167306396E+02 -0.13169202628E+03  0.18315117561E+03  0.22912999677E+03  0.00000000000E+00 0.  1.
         13    1    5    5    0    0 -0.34009637694E+02  0.22701392491E+03  0.55909302167E+02  0.23625796839E+03  0.00000000000E+00 0. -1.
        -14    1    5    5    0    0  0.43374411312E+02  0.28075362939E+03  0.92099629545E+02  0.29864072350E+03  0.00000000000E+00 0.  1.
          2    1    6    6  502    0  0.17961104591E+03 -0.93514005981E+02  0.31720566795E+02  0.20496631793E+03  0.00000000000E+00 0. -1.
         -1    1    6    6    0  502  0.54580969919E+02  0.88980593666E+01  0.23319934443E+02  0.60017306506E+02  0.00000000000E+00 0.  1.
<mgrwt>
<rscale>  0 0.63226062E+03</rscale>
<asrwt>0</asrwt>
<pdfrwt beam="1">  1        1 0.56025413E-01 0.63226062E+03</pdfrwt>
<pdfrwt beam="2">  1       -2 0.22248233E+00 0.63226062E+03</pdfrwt>
<totfact> 0.59050915E+00</totfact>
</mgrwt>
</event>
<event>
12    3  0.2212098E-007  0.4857873E+03  0.7818608E-02  0.1017557E+00
          1   -1    0    0  501    0  0.00000000000E+00  0.00000000000E+00  0.15678537524E+03  0.15678537524E+03  0.00000000000E+00 0. -1.
         -2   -1    0    0    0  501 -0.00000000000E+00 -0.00000000000E+00 -0.15420353208E+04  0.15420353208E+04  0.00000000000E+00 0.  1.
        -24    2    1    2    0    0 -0.15045603501E+03  0.26128283799E+03 -0.45671410282E+03  0.55274574259E+03  0.77681042368E+02 0.  0.
    5000000    2    1    2    0    0  0.15045603501E+03 -0.26128283799E+03 -0.92853584274E+03  0.11460749534E+04  0.60033594575E+03 0.  0.
        -24    2    4    4    0    0  0.25424363680E+02 -0.42998190465E+03 -0.52263963684E+03  0.68226623577E+03  0.82487513425E+02 0.  0.
         24    2    4    4    0    0  0.12503167133E+03  0.16869906666E+03 -0.40589620589E+03  0.46380871768E+03  0.79211758616E+02 0.  0.
         11    1    5    5    0    0  0.54886682078E+02 -0.27144600625E+03 -0.31667540361E+03  0.42068847551E+03  0.00000000000E+00 0. -1.
        -12    1    5    5    0    0 -0.29462318397E+02 -0.15853589840E+03 -0.20596423324E+03  0.26157776025E+03  0.00000000000E+00 0.  1.
         13    1    3    3    0    0 -0.27357087391E+02  0.64391508003E+01 -0.35430930131E+02  0.45224149561E+02  0.00000000000E+00 0. -1.
        -14    1    3    3    0    0 -0.12309894762E+03  0.25484368719E+03 -0.42128317268E+03  0.50752159303E+03  0.00000000000E+00 0.  1.
          4    1    6    6  502    0  0.90840278096E+02  0.61390683904E+02 -0.16816368549E+03  0.20074809417E+03  0.00000000000E+00 0. -1.
         -3    1    6    6    0  502  0.34191393235E+02  0.10730838276E+03 -0.23773252040E+03  0.26306062350E+03  0.00000000000E+00 0.  1.
<mgrwt>
<rscale>  0 0.48578735E+03</rscale>
<asrwt>0</asrwt>
<pdfrwt beam="1">  1        1 0.24120827E-01 0.48578735E+03</pdfrwt>
<pdfrwt beam="2">  1       -2 0.23723620E+00 0.48578735E+03</pdfrwt>
<totfact> 0.14527452E+01</totfact>
</mgrwt>
</event>
<event>
12    3  0.2212098E-007  0.1025218E+04  0.7818608E-02  0.9281310E-01
         -2   -1    0    0    0  501 -0.00000000000E+00  0.00000000000E+00  0.11441553735E+04  0.11441553735E+04  0.00000000000E+00 0.  1.
          1   -1    0    0  501    0  0.00000000000E+00 -0.00000000000E+00 -0.97782962244E+03  0.97782962244E+03  0.00000000000E+00 0. -1.
        -24    2    1    2    0    0  0.71724528214E+02  0.93991168759E+03  0.30967124751E+03  0.99543555052E+03  0.80107835410E+02 0.  0.
    5000000    2    1    2    0    0 -0.71724528214E+02 -0.93991168759E+03 -0.14334549642E+03  0.11265494455E+04  0.59998944432E+03 0.  0.
        -24    2    4    4    0    0 -0.24094595979E+03 -0.12828677804E+03 -0.39910619321E+02  0.28723863419E+03  0.80004515363E+02 0.  0.
         24    2    4    4    0    0  0.16922143158E+03 -0.81162490955E+03 -0.10343487710E+03  0.83931081126E+03  0.79830930032E+02 0.  0.
         13    1    3    3    0    0  0.40102178924E+02  0.52984468503E+03  0.21622030499E+03  0.57366784405E+03  0.00000000000E+00 0. -1.
        -14    1    3    3    0    0  0.31622349290E+02  0.41006700256E+03  0.93450942516E+02  0.42176770647E+03  0.00000000000E+00 0.  1.
         13    1    5    5    0    0 -0.10932785540E+03 -0.39750343681E+02 -0.53479179100E+02  0.12803395013E+03  0.00000000000E+00 0. -1.
        -14    1    5    5    0    0 -0.13161810440E+03 -0.88536434354E+02  0.13568559779E+02  0.15920468406E+03  0.00000000000E+00 0.  1.
          2    1    6    6  502    0  0.14838623656E+03 -0.52819913615E+03 -0.62761570890E+02  0.55222442667E+03  0.00000000000E+00 0. -1.
         -1    1    6    6    0  502  0.20835195016E+02 -0.28342577341E+03 -0.40673306210E+02  0.28708638460E+03  0.00000000000E+00 0.  1.
<mgrwt>
<rscale>  0 0.10252185E+04</rscale>
<asrwt>0</asrwt>
<pdfrwt beam="1">  1        1 0.15043533E+00 0.10252185E+04</pdfrwt>
<pdfrwt beam="2">  1       -2 0.17602390E+00 0.10252185E+04</pdfrwt>
<totfact> 0.26502069E+00</totfact>
</mgrwt>
</event>
<event>
12    3  0.2212098E-007  0.5679845E+03  0.7818608E-02  0.9974149E-01
          1   -1    0    0  501    0  0.00000000000E+00  0.00000000000E+00  0.13867673366E+04  0.13867673366E+04  0.00000000000E+00 0. -1.
         -2   -1    0    0    0  501 -0.00000000000E+00 -0.00000000000E+00 -0.24543637992E+03  0.24543637992E+03  0.00000000000E+00 0.  1.
        -24    2    1    2    0    0 -0.31921712995E+03 -0.28098208378E+03  0.47709069218E+03  0.64121768511E+03  0.51904563077E+02 0.  0.
    5000000    2    1    2    0    0  0.31921712995E+03  0.28098208378E+03  0.66424026449E+03  0.99098603140E+03  0.59998973157E+03 0.  0.
        -24    2    4    4    0    0  0.36633208257E+03 -0.46657391797E+02  0.45483929240E+03  0.59115157746E+03  0.78773718234E+02 0.  0.
         24    2    4    4    0    0 -0.47114952619E+02  0.32763947558E+03  0.20940097209E+03  0.39983445394E+03  0.80320475161E+02 0.  0.
         11    1    5    5    0    0  0.76915246595E+02  0.19893587890E+02  0.77708207342E+02  0.11113179332E+03  0.00000000000E+00 0. -1.
        -12    1    5    5    0    0  0.28941683598E+03 -0.66550979687E+02  0.37713108506E+03  0.48001978414E+03  0.00000000000E+00 0.  1.
         13    1    3    3    0    0 -0.10814338684E+03 -0.12846580332E+03  0.18074583704E+03  0.24671342150E+03  0.00000000000E+00 0. -1.
        -14    1    3    3    0    0 -0.21107374312E+03 -0.15251628046E+03  0.29634485515E+03  0.39450426361E+03  0.00000000000E+00 0.  1.
          2    1    6    6  502    0 -0.37108918304E+02  0.28582745878E+03  0.14563863843E+03  0.32293191389E+03  0.00000000000E+00 0. -1.
         -1    1    6    6    0  502 -0.10006034315E+02  0.41812016801E+02  0.63762333664E+02  0.76902540048E+02  0.00000000000E+00 0.  1.
<mgrwt>
<rscale>  0 0.56798452E+03</rscale>
<asrwt>0</asrwt>
<pdfrwt beam="1">  1        1 0.21334882E+00 0.56798452E+03</pdfrwt>
<pdfrwt beam="2">  1       -2 0.37759444E-01 0.56798452E+03</pdfrwt>
<totfact> 0.47721390E+01</totfact>
</mgrwt>
</event>
<event>
12    3  0.2212098E-007  0.1040427E+04  0.7818608E-02  0.9265283E-01
          1   -1    0    0  501    0  0.00000000000E+00  0.00000000000E+00  0.19254861696E+04  0.19254861696E+04  0.00000000000E+00 0. -1.
         -2   -1    0    0    0  501 -0.00000000000E+00 -0.00000000000E+00 -0.71778684398E+03  0.71778684398E+03  0.00000000000E+00 0.  1.
        -24    2    1    2    0    0  0.65802255149E+03 -0.79942022325E+03  0.97451930780E+03  0.14241244329E+04  0.79850783198E+02 0.  0.
    5000000    2    1    2    0    0 -0.65802255149E+03  0.79942022325E+03  0.23318001785E+03  0.12191485807E+04  0.59990330010E+03 0.  0.
        -24    2    4    4    0    0 -0.39635746166E+03  0.47173545064E+03 -0.15692184144E+03  0.64082368415E+03  0.79980979226E+02 0.  0.
         24    2    4    4    0    0 -0.26166508982E+03  0.32768477260E+03  0.39010185928E+03  0.57832489654E+03  0.80214063061E+02 0.  0.
         11    1    5    5    0    0 -0.13081442812E+03  0.21513931360E+03 -0.72784647061E+02  0.26209720279E+03  0.00000000000E+00 0. -1.
        -12    1    5    5    0    0 -0.26554303354E+03  0.25659613705E+03 -0.84137194375E+02  0.37872648137E+03  0.00000000000E+00 0.  1.
         13    1    3    3    0    0  0.41110395383E+03 -0.43936543028E+03  0.55130015495E+03  0.81607616252E+03  0.00000000000E+00 0. -1.
        -14    1    3    3    0    0  0.24691859766E+03 -0.36005479297E+03  0.42321915285E+03  0.60804827041E+03  0.00000000000E+00 0.  1.
          4    1    6    6  502    0 -0.12127879503E+03  0.18607422236E+03  0.25120080407E+03  0.33531180462E+03  0.00000000000E+00 0. -1.
         -1    1    6    6    0  502 -0.14038629479E+03  0.14161055024E+03  0.13890105522E+03  0.24301309192E+03  0.00000000000E+00 0.  1.
<mgrwt>
<rscale>  0 0.10404272E+04</rscale>
<asrwt>0</asrwt>
<pdfrwt beam="1">  1        1 0.29622864E+00 0.10404272E+04</pdfrwt>
<pdfrwt beam="2">  1       -2 0.11042875E+00 0.10404272E+04</pdfrwt>
<totfact> 0.19106844E+00</totfact>
</mgrwt>
</event>
<event>
12    3  0.2212098E-007  0.1075837E+04  0.7818608E-02  0.9229068E-01
          1   -1    0    0  501    0  0.00000000000E+00  0.00000000000E+00  0.29408469785E+04  0.29408469785E+04  0.00000000000E+00 0. -1.
         -2   -1    0    0    0  501 -0.00000000000E+00 -0.00000000000E+00 -0.45038287663E+03  0.45038287663E+03  0.00000000000E+00 0.  1.
        -24    2    1    2    0    0  0.69735456838E+03 -0.70637144793E+03  0.17552848383E+04  0.20180318353E+04  0.78508651030E+02 0.  0.
    5000000    2    1    2    0    0 -0.69735456838E+03  0.70637144793E+03  0.73517926357E+03  0.13731980198E+04  0.59993352593E+03 0.  0.
        -24    2    4    4    0    0 -0.94356437484E+02 -0.92311277082E+02  0.11244427413E+03  0.19183930127E+03  0.82061522983E+02 0.  0.
         24    2    4    4    0    0 -0.60299813090E+03  0.79868272501E+03  0.62273498943E+03  0.11813587185E+04  0.79427411582E+02 0.  0.
         11    1    3    3    0    0  0.36605900400E+03 -0.42414657048E+03  0.10092373711E+04  0.11543221296E+04  0.00000000000E+00 0. -1.
        -12    1    3    3    0    0  0.33129556438E+03 -0.28222487744E+03  0.74604746716E+03  0.86370970568E+03  0.00000000000E+00 0.  1.
         13    1    5    5    0    0  0.15129608541E+02 -0.10560159914E+02  0.17682723108E+02  0.25555835508E+02  0.00000000000E+00 0. -1.
        -14    1    5    5    0    0 -0.10948604602E+03 -0.81751117168E+02  0.94761551027E+02  0.16628346576E+03  0.00000000000E+00 0.  1.
          4    1    6    6  502    0 -0.23962490523E+02  0.41161136181E+02  0.50161645696E+02  0.69171025601E+02  0.00000000000E+00 0. -1.
         -3    1    6    6    0  502 -0.57903564037E+03  0.75752158883E+03  0.57257334374E+03  0.11121876929E+04  0.00000000000E+00 0.  1.
<mgrwt>
<rscale>  0 0.10758371E+04</rscale>
<asrwt>0</asrwt>
<pdfrwt beam="1">  1        1 0.45243799E+00 0.10758371E+04</pdfrwt>
<pdfrwt beam="2">  1       -2 0.69289675E-01 0.10758371E+04</pdfrwt>
<totfact> 0.11151868E+00</totfact>
</mgrwt>
</event>
<event>
12    3  0.2212098E-007  0.6479428E+03  0.7818608E-02  0.9810647E-01
         -2   -1    0    0    0  501 -0.00000000000E+00  0.00000000000E+00  0.21527081591E+03  0.21527081591E+03  0.00000000000E+00 0.  1.
          1   -1    0    0  501    0  0.00000000000E+00 -0.00000000000E+00 -0.20198639681E+04  0.20198639681E+04  0.00000000000E+00 0. -1.
        -24    2    1    2    0    0  0.28037408323E+03  0.43367520353E+03 -0.81093389157E+03  0.96470999642E+03  0.79798446083E+02 0.  0.
    5000000    2    1    2    0    0 -0.28037408323E+03 -0.43367520353E+03 -0.99365926067E+03  0.12704247876E+04  0.59994716937E+03 0.  0.
        -24    2    4    4    0    0 -0.44303469379E+03 -0.40500652910E+03 -0.80214773490E+03  0.10050320256E+04  0.79613788324E+02 0.  0.
         24    2    4    4    0    0  0.16266061056E+03 -0.28668674428E+02 -0.19151152577E+03  0.26539276208E+03  0.80475378449E+02 0.  0.
         13    1    5    5    0    0 -0.17461337767E+03 -0.21310829093E+03 -0.35894928076E+03  0.45249260932E+03  0.00000000000E+00 0. -1.
        -14    1    5    5    0    0 -0.26842131612E+03 -0.19189823816E+03 -0.44319845414E+03  0.55253941625E+03  0.00000000000E+00 0.  1.
         13    1    3    3    0    0  0.12677778837E+03  0.12643648582E+03 -0.27712463334E+03  0.32993462227E+03  0.00000000000E+00 0. -1.
        -14    1    3    3    0    0  0.15359629486E+03  0.30723871771E+03 -0.53380925822E+03  0.63477537414E+03  0.00000000000E+00 0.  1.
          2    1    6    6  502    0  0.94359032698E+02 -0.15150881785E+01 -0.52114042119E+02  0.10780443372E+03  0.00000000000E+00 0. -1.
         -1    1    6    6    0  502  0.68301577866E+02 -0.27153586250E+02 -0.13939748365E+03  0.15758832835E+03  0.00000000000E+00 0.  1.
<mgrwt>
<rscale>  0 0.64794284E+03</rscale>
<asrwt>0</asrwt>
<pdfrwt beam="1">  1        1 0.31074830E+00 0.64794284E+03</pdfrwt>
<pdfrwt beam="2">  1       -2 0.33118588E-01 0.64794284E+03</pdfrwt>
<totfact> 0.22727345E+01</totfact>
</mgrwt>
</event>
<event>
12    3  0.2212098E-007  0.1040133E+04  0.7818608E-02  0.9265590E-01
          1   -1    0    0  501    0  0.00000000000E+00  0.00000000000E+00  0.17572963306E+04  0.17572963306E+04  0.00000000000E+00 0. -1.
         -4   -1    0    0    0  501 -0.00000000000E+00 -0.00000000000E+00 -0.70216544367E+03  0.70216544367E+03  0.00000000000E+00 0.  1.
        -24    2    1    2    0    0  0.70408753619E+03  0.65342202617E+03  0.89561116019E+03  0.13157287193E+04  0.79517983074E+02 0.  0.
    5000000    2    1    2    0    0 -0.70408753619E+03 -0.65342202617E+03  0.15951972671E+03  0.11437330550E+04  0.59998262883E+03 0.  0.
        -24    2    4    4    0    0 -0.49241586034E+03 -0.78257659855E+02 -0.37020343100E+01  0.50464488515E+03  0.77814614361E+02 0.  0.
         24    2    4    4    0    0 -0.21167167585E+03 -0.57516436631E+03  0.16322176102E+03  0.63908816981E+03  0.78570979922E+02 0.  0.
         11    1    5    5    0    0 -0.17841501145E+03  0.65699995963E+01  0.12594833399E+02  0.17897963860E+03  0.00000000000E+00 0. -1.
        -12    1    5    5    0    0 -0.31400084889E+03 -0.84827659452E+02 -0.16296867709E+02  0.32566524655E+03  0.00000000000E+00 0.  1.
         13    1    3    3    0    0  0.54628942027E+03  0.48284095475E+03  0.63827113852E+03  0.96899822732E+03  0.00000000000E+00 0. -1.
        -14    1    3    3    0    0  0.15779811591E+03  0.17058107142E+03  0.25734002167E+03  0.34673049197E+03  0.00000000000E+00 0.  1.
          4    1    6    6  502    0 -0.15250047231E+03 -0.47268689169E+03  0.15571941842E+03  0.52051688628E+03  0.00000000000E+00 0. -1.
         -3    1    6    6    0  502 -0.59171203536E+02 -0.10247747462E+03  0.75023426068E+01  0.11857128352E+03  0.00000000000E+00 0.  1.
<mgrwt>
<rscale>  0 0.10401335E+04</rscale>
<asrwt>0</asrwt>
<pdfrwt beam="1">  1        1 0.27035328E+00 0.10401335E+04</pdfrwt>
<pdfrwt beam="2">  1       -4 0.10802545E+00 0.10401335E+04</pdfrwt>
<totfact> 0.14288482E+00</totfact>
</mgrwt>
</event>
<event>
12    3  0.2212098E-007  0.6168469E+03  0.7818608E-02  0.9871058E-01
          1   -1    0    0  501    0  0.00000000000E+00  0.00000000000E+00  0.13803012625E+04  0.13803012625E+04  0.00000000000E+00 0. -1.
         -2   -1    0    0    0  501 -0.00000000000E+00 -0.00000000000E+00 -0.39645645271E+03  0.39645645271E+03  0.00000000000E+00 0.  1.
        -24    2    1    2    0    0  0.90408783511E+02 -0.51248829725E+03  0.80646295822E+03  0.96295137986E+03  0.77941350087E+02 0.  0.
    5000000    2    1    2    0    0 -0.90408783511E+02  0.51248829725E+03  0.17738185159E+03  0.81380633536E+03  0.59999868937E+03 0.  0.
        -24    2    4    4    0    0  0.26094402105E+02  0.56414961942E+03  0.27664119068E+03  0.63446028369E+03  0.84046369871E+02 0.  0.
         24    2    4    4    0    0 -0.11650318562E+03 -0.51661322175E+02 -0.99259339088E+02  0.17934605167E+03  0.77914731508E+02 0.  0.
         13    1    5    5    0    0  0.34755215329E+02  0.46667361621E+03  0.19481259197E+03  0.50689657234E+03  0.00000000000E+00 0. -1.
        -14    1    5    5    0    0 -0.86608132248E+01  0.97476003210E+02  0.81828598704E+02  0.12756371135E+03  0.00000000000E+00 0.  1.
         13    1    3    3    0    0  0.48947401938E+02 -0.33074819045E+03  0.44911985436E+03  0.55990968667E+03  0.00000000000E+00 0. -1.
        -14    1    3    3    0    0  0.41461381573E+02 -0.18174010679E+03  0.35734310386E+03  0.40304169319E+03  0.00000000000E+00 0.  1.
          4    1    6    6  502    0 -0.46524635728E+02  0.16554099070E+02 -0.48534351607E+02  0.69239896097E+02  0.00000000000E+00 0. -1.
         -3    1    6    6    0  502 -0.69978549888E+02 -0.68215421245E+02 -0.50724987481E+02  0.11010615557E+03  0.00000000000E+00 0.  1.
<mgrwt>
<rscale>  0 0.61684691E+03</rscale>
<asrwt>0</asrwt>
<pdfrwt beam="1">  1        1 0.21235404E+00 0.61684691E+03</pdfrwt>
<pdfrwt beam="2">  1       -2 0.60993301E-01 0.61684691E+03</pdfrwt>
<totfact> 0.18232334E+01</totfact>
</mgrwt>
</event>
<event>
12    3  0.2212098E-007  0.5984052E+03  0.7818608E-02  0.9908720E-01
          1   -1    0    0  501    0  0.00000000000E+00  0.00000000000E+00  0.12002911503E+04  0.12002911503E+04  0.00000000000E+00 0. -1.
         -2   -1    0    0    0  501 -0.00000000000E+00 -0.00000000000E+00 -0.56767122949E+03  0.56767122949E+03  0.00000000000E+00 0.  1.
        -24    2    1    2    0    0 -0.46876434029E+03 -0.11277117152E+03  0.83936039842E+03  0.97117512712E+03  0.78726775945E+02 0.  0.
    5000000    2    1    2    0    0  0.46876434029E+03  0.11277117152E+03 -0.20674047763E+03  0.79678725264E+03  0.59972573484E+03 0.  0.
        -24    2    4    4    0    0 -0.97345507182E+02  0.99649922972E+02 -0.15432299105E+03  0.22258284451E+03  0.79506491473E+02 0.  0.
         24    2    4    4    0    0  0.56610984747E+03  0.13121248548E+02 -0.52417486581E+02  0.57420440814E+03  0.79439177081E+02 0.  0.
         11    1    5    5    0    0 -0.91164321511E+02  0.64276702599E+02 -0.71988431693E+02  0.13275828528E+03  0.00000000000E+00 0. -1.
        -12    1    5    5    0    0 -0.61811856714E+01  0.35373220373E+02 -0.82334559355E+02  0.89824559225E+02  0.00000000000E+00 0.  1.
         13    1    3    3    0    0 -0.23486143665E+03 -0.64529055184E+02  0.50039619704E+03  0.55652515433E+03  0.00000000000E+00 0. -1.
        -14    1    3    3    0    0 -0.23390290364E+03 -0.48242116337E+02  0.33896420138E+03  0.41464997279E+03  0.00000000000E+00 0.  1.
          4    1    6    6  502    0  0.26033659611E+03  0.20103522731E+02 -0.61345717287E+02  0.26822116235E+03  0.00000000000E+00 0. -1.
         -3    1    6    6    0  502  0.30577325136E+03 -0.69822741824E+01  0.89282307063E+01  0.30598324579E+03  0.00000000000E+00 0.  1.
<mgrwt>
<rscale>  0 0.59840523E+03</rscale>
<asrwt>0</asrwt>
<pdfrwt beam="1">  1        1 0.18466018E+00 0.59840523E+03</pdfrwt>
<pdfrwt beam="2">  1       -2 0.87334035E-01 0.59840523E+03</pdfrwt>
<totfact> 0.11127140E+01</totfact>
</mgrwt>
</event>
<event>
12    3  0.2212098E-007  0.9870517E+03  0.7818608E-02  0.9322861E-01
          1   -1    0    0  501    0  0.00000000000E+00  0.00000000000E+00  0.24872135001E+04  0.24872135001E+04  0.00000000000E+00 0. -1.
         -2   -1    0    0    0  501 -0.00000000000E+00 -0.00000000000E+00 -0.39921596809E+03  0.39921596809E+03  0.00000000000E+00 0.  1.
        -24    2    1    2    0    0  0.77192985937E+03  0.46380954695E+03  0.10677977956E+04  0.13991730445E+04  0.80610623075E+02 0.  0.
    5000000    2    1    2    0    0 -0.77192985937E+03 -0.46380954695E+03  0.10201997364E+04  0.14872564237E+04  0.60010762704E+03 0.  0.
        -24    2    4    4    0    0 -0.12659395004E+03 -0.40198490538E+03  0.41030969945E+03  0.59360945117E+03  0.80001491911E+02 0.  0.
         24    2    4    4    0    0 -0.64533590933E+03 -0.61824641571E+02  0.60989003699E+03  0.89364697255E+03  0.79739150721E+02 0.  0.
         11    1    3    3    0    0  0.18931691139E+03  0.10238994164E+03  0.30824364722E+03  0.37595044772E+03  0.00000000000E+00 0. -1.
        -12    1    3    3    0    0  0.58261294798E+03  0.36141960531E+03  0.75955414838E+03  0.10232225968E+04  0.00000000000E+00 0.  1.
         11    1    5    5    0    0 -0.48596109131E+02 -0.11131056823E+03  0.73659162039E+02  0.14204681121E+03  0.00000000000E+00 0. -1.
        -12    1    5    5    0    0 -0.77997840909E+02 -0.29067433715E+03  0.33665053741E+03  0.45156263996E+03  0.00000000000E+00 0.  1.
          4    1    6    6  502    0 -0.50918456767E+03 -0.72309528072E+02  0.51142095481E+03  0.72529234438E+03  0.00000000000E+00 0. -1.
         -3    1    6    6    0  502 -0.13615134166E+03  0.10484886501E+02  0.98469082179E+02  0.16835462817E+03  0.00000000000E+00 0.  1.
<mgrwt>
<rscale>  0 0.98705168E+03</rscale>
<asrwt>0</asrwt>
<pdfrwt beam="1">  1        1 0.38264822E+00 0.98705168E+03</pdfrwt>
<pdfrwt beam="2">  1       -2 0.61417843E-01 0.98705168E+03</pdfrwt>
<totfact> 0.30451230E+00</totfact>
</mgrwt>
</event>
<event>
12    3  0.2212098E-007  0.1299877E+04  0.7818608E-02  0.9029662E-01
         -2   -1    0    0    0  501 -0.00000000000E+00  0.00000000000E+00  0.37585515939E+03  0.37585515939E+03  0.00000000000E+00 0.  1.
          1   -1    0    0  501    0  0.00000000000E+00 -0.00000000000E+00 -0.46383694463E+04  0.46383694463E+04  0.00000000000E+00 0. -1.
        -24    2    1    2    0    0  0.56108556623E+03  0.11168220311E+04 -0.21176509508E+04  0.24602679722E+04  0.79777715102E+02 0.  0.
    5000000    2    1    2    0    0 -0.56108556623E+03 -0.11168220311E+04 -0.21448633362E+04  0.25539566335E+04  0.60012273188E+03 0.  0.
        -24    2    4    4    0    0 -0.61722542788E+03 -0.10917559158E+04 -0.18041244727E+04  0.21986582765E+04  0.79592053947E+02 0.  0.
         24    2    4    4    0    0  0.56139861644E+02 -0.25066115257E+02 -0.34073886344E+03  0.35529835704E+03  0.79711700907E+02 0.  0.
         13    1    3    3    0    0  0.18322246106E+03  0.28878133519E+03 -0.59826921890E+03  0.68912349261E+03  0.00000000000E+00 0. -1.
        -14    1    3    3    0    0  0.37786310517E+03  0.82804069591E+03 -0.15193817319E+04  0.17711444795E+04  0.00000000000E+00 0.  1.
         13    1    5    5    0    0 -0.17103617155E+03 -0.33774225351E+03 -0.48917668689E+03  0.61856045200E+03  0.00000000000E+00 0. -1.
        -14    1    5    5    0    0 -0.44618925632E+03 -0.75401366234E+03 -0.13149477858E+04  0.15800978245E+04  0.00000000000E+00 0.  1.
          4    1    6    6  502    0  0.68000054444E+02 -0.33214268996E+01 -0.17601777882E+03  0.18872545600E+03  0.00000000000E+00 0. -1.
         -3    1    6    6    0  502 -0.11860192800E+02 -0.21744688358E+02 -0.16472108462E+03  0.16657290104E+03  0.00000000000E+00 0.  1.
<mgrwt>
<rscale>  0 0.12998773E+04</rscale>
<asrwt>0</asrwt>
<pdfrwt beam="1">  1        1 0.71359528E+00 0.12998773E+04</pdfrwt>
<pdfrwt beam="2">  1       -2 0.57823872E-01 0.12998773E+04</pdfrwt>
<totfact> 0.57664404E-02</totfact>
</mgrwt>
</event>
<event>
12    3  0.2212098E-007  0.9490608E+03  0.7818608E-02  0.9366249E-01
          1   -1    0    0  501    0  0.00000000000E+00  0.00000000000E+00  0.16697520026E+04  0.16697520026E+04  0.00000000000E+00 0. -1.
         -2   -1    0    0    0  501 -0.00000000000E+00 -0.00000000000E+00 -0.59725886595E+03  0.59725886595E+03  0.00000000000E+00 0.  1.
        -24    2    1    2    0    0  0.85931924140E+03 -0.97882987119E+02  0.17599548835E+03  0.88437104491E+03  0.55920437617E+02 0.  0.
    5000000    2    1    2    0    0 -0.85931924140E+03  0.97882987119E+02  0.89649764827E+03  0.13826398236E+04  0.59997850848E+03 0.  0.
        -24    2    4    4    0    0 -0.82185332593E+03  0.25240565865E+03  0.66199769853E+03  0.10879726302E+04  0.79322035842E+02 0.  0.
         24    2    4    4    0    0 -0.37465915470E+02 -0.15452267153E+03  0.23449994974E+03  0.29466719339E+03  0.80978871256E+02 0.  0.
         11    1    3    3    0    0  0.33085255070E+03 -0.64651102296E+02  0.63329317215E+02  0.34300696458E+03  0.00000000000E+00 0. -1.
        -12    1    3    3    0    0  0.52846669070E+03 -0.33231884823E+02  0.11266617114E+03  0.54136408033E+03  0.00000000000E+00 0.  1.
         13    1    5    5    0    0 -0.15486174714E+02  0.57651431898E+00  0.13702695250E+01  0.15557365285E+02  0.00000000000E+00 0. -1.
        -14    1    5    5    0    0 -0.80636715122E+03  0.25182914433E+03  0.66062742900E+03  0.10724152649E+04  0.00000000000E+00 0.  1.
          4    1    6    6  502    0 -0.43054707836E+01 -0.12978746395E+03  0.13705980371E+03  0.18880866683E+03  0.00000000000E+00 0. -1.
         -3    1    6    6    0  502 -0.33160444686E+02 -0.24735207583E+02  0.97440146030E+02  0.10585852655E+03  0.00000000000E+00 0.  1.
<mgrwt>
<rscale>  0 0.94906080E+03</rscale>
<asrwt>0</asrwt>
<pdfrwt beam="1">  1        1 0.25688492E+00 0.94906080E+03</pdfrwt>
<pdfrwt beam="2">  1       -2 0.91885980E-01 0.94906080E+03</pdfrwt>
<totfact> 0.44576549E+00</totfact>
</mgrwt>
</event>
<event>
12    3  0.2212098E-007  0.9660014E+03  0.7818608E-02  0.9346641E-01
         -2   -1    0    0    0  501 -0.00000000000E+00  0.00000000000E+00  0.47293297655E+03  0.47293297655E+03  0.00000000000E+00 0.  1.
          1   -1    0    0  501    0  0.00000000000E+00 -0.00000000000E+00 -0.22776319389E+04  0.22776319389E+04  0.00000000000E+00 0. -1.
        -24    2    1    2    0    0  0.47756961643E+03 -0.78323240812E+03 -0.11523501519E+04  0.14750724836E+04  0.80013846014E+02 0.  0.
    5000000    2    1    2    0    0 -0.47756961643E+03  0.78323240812E+03 -0.65234881041E+03  0.12754924318E+04  0.59983016724E+03 0.  0.
        -24    2    4    4    0    0  0.17864718588E+02  0.31902929287E+03  0.51484745430E+00  0.33005755936E+03  0.82697578827E+02 0.  0.
         24    2    4    4    0    0 -0.49543433502E+03  0.46420311525E+03 -0.65286365787E+03  0.94543487247E+03  0.81709422876E+02 0.  0.
         11    1    3    3    0    0  0.47628056214E+03 -0.77292920245E+03 -0.11484808423E+04  0.14639914518E+04  0.00000000000E+00 0. -1.
        -12    1    3    3    0    0  0.12890542955E+01 -0.10303205668E+02 -0.38693095992E+01  0.11081031756E+02  0.00000000000E+00 0.  1.
         13    1    5    5    0    0 -0.32323466624E+02  0.15740033100E+03  0.48874558869E+01  0.16075931674E+03  0.00000000000E+00 0. -1.
        -14    1    5    5    0    0  0.50188185212E+02  0.16162896188E+03 -0.43726084326E+01  0.16929824263E+03  0.00000000000E+00 0.  1.
          2    1    6    6  502    0 -0.28465756001E+03  0.21088704685E+03 -0.33450213441E+03  0.48723192725E+03  0.00000000000E+00 0. -1.
         -1    1    6    6    0  502 -0.21077677501E+03  0.25331606840E+03 -0.31836152345E+03  0.45820294522E+03  0.00000000000E+00 0.  1.
<mgrwt>
<rscale>  0 0.96600138E+03</rscale>
<asrwt>0</asrwt>
<pdfrwt beam="1">  1        1 0.35040490E+00 0.96600138E+03</pdfrwt>
<pdfrwt beam="2">  1       -2 0.72758921E-01 0.96600138E+03</pdfrwt>
<totfact> 0.29380066E+00</totfact>
</mgrwt>
</event>
<event>
12    3  0.2212098E-007  0.1237146E+04  0.7818608E-02  0.9080950E-01
          1   -1    0    0  501    0  0.00000000000E+00  0.00000000000E+00  0.26083649489E+04  0.26083649489E+04  0.00000000000E+00 0. -1.
         -2   -1    0    0    0  501 -0.00000000000E+00 -0.00000000000E+00 -0.61585853714E+03  0.61585853714E+03  0.00000000000E+00 0.  1.
        -24    2    1    2    0    0  0.11037787865E+04  0.44401076606E+03  0.79869839231E+03  0.14351940547E+04  0.79935491411E+02 0.  0.
    5000000    2    1    2    0    0 -0.11037787865E+04 -0.44401076606E+03  0.11938080195E+04  0.17890294314E+04  0.59997962386E+03 0.  0.
        -24    2    4    4    0    0 -0.36156729435E+02 -0.15410317613E+03  0.27403592323E+02  0.17938555092E+03  0.79831829689E+02 0.  0.
         24    2    4    4    0    0 -0.10676220571E+04 -0.28990758993E+03  0.11664044271E+04  0.16096438804E+04  0.81184153326E+02 0.  0.
         11    1    3    3    0    0  0.27579598564E+03  0.94934853465E+02  0.23381724996E+03  0.37382690978E+03  0.00000000000E+00 0. -1.
        -12    1    3    3    0    0  0.82798280087E+03  0.34907591259E+03  0.56488114235E+03  0.10613671449E+04  0.00000000000E+00 0.  1.
         13    1    5    5    0    0 -0.54142051682E+02 -0.62591004173E+02  0.22456758212E+01  0.82789121408E+02  0.00000000000E+00 0. -1.
        -14    1    5    5    0    0  0.17985322246E+02 -0.91512171955E+02  0.25157916502E+02  0.96596429515E+02  0.00000000000E+00 0.  1.
          4    1    6    6  502    0 -0.59684125570E+03 -0.13000309197E+03  0.60524574418E+03  0.85990854123E+03  0.00000000000E+00 0. -1.
         -3    1    6    6    0  502 -0.47078080137E+03 -0.15990449796E+03  0.56115868296E+03  0.74973533922E+03  0.00000000000E+00 0.  1.
<mgrwt>
<rscale>  0 0.12371455E+04</rscale>
<asrwt>0</asrwt>
<pdfrwt beam="1">  1        1 0.40128691E+00 0.12371455E+04</pdfrwt>
<pdfrwt beam="2">  1       -2 0.94747469E-01 0.12371455E+04</pdfrwt>
<totfact> 0.92199418E-01</totfact>
</mgrwt>
</event>
<event>
12    3  0.2212098E-007  0.5260881E+03  0.7818608E-02  0.1007185E+00
          1   -1    0    0  501    0  0.00000000000E+00  0.00000000000E+00  0.78793975173E+03  0.78793975173E+03  0.00000000000E+00 0. -1.
         -2   -1    0    0    0  501 -0.00000000000E+00 -0.00000000000E+00 -0.39002056375E+03  0.39002056375E+03  0.00000000000E+00 0.  1.
        -24    2    1    2    0    0 -0.34656244539E+01  0.36216482597E+03 -0.16400288693E+01  0.37113756310E+03  0.81024868547E+02 0.  0.
    5000000    2    1    2    0    0  0.34656244539E+01 -0.36216482597E+03  0.39955921685E+03  0.80682275239E+03  0.60011666722E+03 0.  0.
        -24    2    4    4    0    0  0.17748606565E+03 -0.44104152810E+03  0.34650247556E+03  0.59369172744E+03  0.79918512548E+02 0.  0.
         24    2    4    4    0    0 -0.17402044120E+03  0.78876702131E+02  0.53056741285E+02  0.21313102495E+03  0.78135573886E+02 0.  0.
         11    1    5    5    0    0  0.45629941619E+02 -0.21882722156E+03  0.16838642087E+03  0.27985966341E+03  0.00000000000E+00 0. -1.
        -12    1    5    5    0    0  0.13185612403E+03 -0.22221430654E+03  0.17811605469E+03  0.31383206403E+03  0.00000000000E+00 0.  1.
         13    1    3    3    0    0 -0.20450282546E+02  0.75578250396E+02  0.26531430344E+02  0.82669237237E+02  0.00000000000E+00 0. -1.
        -14    1    3    3    0    0  0.16984658092E+02  0.28658657557E+03 -0.28171459214E+02  0.28846832586E+03  0.00000000000E+00 0.  1.
          2    1    6    6  502    0 -0.13852484616E+03  0.25633584070E+02  0.48449334841E+02  0.14897500355E+03  0.00000000000E+00 0. -1.
         -1    1    6    6    0  502 -0.35495595040E+02  0.53243118061E+02  0.46074064447E+01  0.64156021402E+02  0.00000000000E+00 0.  1.
<mgrwt>
<rscale>  0 0.52608811E+03</rscale>
<asrwt>0</asrwt>
<pdfrwt beam="1">  1        1 0.12122150E+00 0.52608811E+03</pdfrwt>
<pdfrwt beam="2">  1       -2 0.60003164E-01 0.52608811E+03</pdfrwt>
<totfact> 0.53506278E+01</totfact>
</mgrwt>
</event>
<event>
12    3  0.2212098E-007  0.8088392E+03  0.7818608E-02  0.9547310E-01
         -2   -1    0    0    0  501 -0.00000000000E+00  0.00000000000E+00  0.57218146609E+03  0.57218146609E+03  0.00000000000E+00 0.  1.
          1   -1    0    0  501    0  0.00000000000E+00 -0.00000000000E+00 -0.14486893738E+04  0.14486893738E+04  0.00000000000E+00 0. -1.
        -24    2    1    2    0    0  0.96352587017E+02  0.79332219608E+03 -0.24911654167E+03  0.84092846441E+03  0.80359835106E+02 0.  0.
    5000000    2    1    2    0    0 -0.96352587017E+02 -0.79332219608E+03 -0.62739136602E+03  0.11799423755E+04  0.60000012955E+03 0.  0.
        -24    2    4    4    0    0 -0.13973419163E+03 -0.55048981911E+03 -0.89277017874E+02  0.58142310811E+03  0.86705014128E+02 0.  0.
         24    2    4    4    0    0  0.43381604615E+02 -0.24283237697E+03 -0.53811434815E+03  0.59851926736E+03  0.88367045855E+02 0.  0.
         13    1    5    5    0    0 -0.10990855478E+03 -0.41759368201E+03 -0.10476833298E+03  0.44434308508E+03  0.00000000000E+00 0. -1.
        -14    1    5    5    0    0 -0.29825636849E+02 -0.13289613710E+03  0.15491315107E+02  0.13708002303E+03  0.00000000000E+00 0.  1.
         13    1    3    3    0    0  0.80832027975E+02  0.44776968756E+03 -0.11010542906E+03  0.46813963232E+03  0.00000000000E+00 0. -1.
        -14    1    3    3    0    0  0.15520559042E+02  0.34555250852E+03 -0.13901111260E+03  0.37278883208E+03  0.00000000000E+00 0.  1.
          2    1    6    6  502    0  0.18893016616E+02 -0.37749251164E+02 -0.18211945279E+03  0.18694771228E+03  0.00000000000E+00 0. -1.
         -1    1    6    6    0  502  0.24488588000E+02 -0.20508312581E+03 -0.35599489536E+03  0.41157155508E+03  0.00000000000E+00 0.  1.
<mgrwt>
<rscale>  0 0.80883916E+03</rscale>
<asrwt>0</asrwt>
<pdfrwt beam="1">  1        1 0.22287528E+00 0.80883916E+03</pdfrwt>
<pdfrwt beam="2">  1       -2 0.88027920E-01 0.80883916E+03</pdfrwt>
<totfact> 0.70944821E+00</totfact>
</mgrwt>
</event>
<event>
12    3  0.2212098E-007  0.2482730E+04  0.7818608E-02  0.8409164E-01
          1   -1    0    0  501    0  0.00000000000E+00  0.00000000000E+00  0.38911169267E+04  0.38911169267E+04  0.00000000000E+00 0. -1.
         -2   -1    0    0    0  501 -0.00000000000E+00 -0.00000000000E+00 -0.16934344797E+04  0.16934344797E+04  0.00000000000E+00 0.  1.
        -24    2    1    2    0    0 -0.15090470864E+04 -0.19639543636E+04  0.16522220923E+04  0.29784307425E+04  0.82897493995E+02 0.  0.
    5000000    2    1    2    0    0  0.15090470864E+04  0.19639543636E+04  0.54546035472E+03  0.26061206638E+04  0.59999838716E+03 0.  0.
        -24    2    4    4    0    0  0.92509010725E+03  0.10529242510E+04  0.58361244741E+03  0.15203388520E+04  0.79909643763E+02 0.  0.
         24    2    4    4    0    0  0.58395697918E+03  0.91103011255E+03 -0.38152092690E+02  0.10857818118E+04  0.80529132849E+02 0.  0.
         11    1    5    5    0    0  0.37409677057E+03  0.36755783485E+03  0.21360716085E+03  0.56628188641E+03  0.00000000000E+00 0. -1.
        -12    1    5    5    0    0  0.55099333668E+03  0.68536641616E+03  0.37000528656E+03  0.95405696557E+03  0.00000000000E+00 0.  1.
         11    1    3    3    0    0 -0.63760843273E+03 -0.80649012813E+03  0.73194592956E+03  0.12620284007E+04  0.00000000000E+00 0. -1.
        -12    1    3    3    0    0 -0.87143865371E+03 -0.11574642354E+04  0.92027616273E+03  0.17164023419E+04  0.00000000000E+00 0.  1.
          4    1    6    6  502    0  0.20587543459E+03  0.38918244670E+03 -0.74369189183E+00  0.44028198290E+03  0.00000000000E+00 0. -1.
         -3    1    6    6    0  502  0.37808154459E+03  0.52184766585E+03 -0.37408400798E+02  0.64549982894E+03  0.00000000000E+00 0.  1.
<mgrwt>
<rscale>  0 0.24827301E+04</rscale>
<asrwt>0</asrwt>
<pdfrwt beam="1">  1        1 0.59863337E+00 0.24827301E+04</pdfrwt>
<pdfrwt beam="2">  1       -2 0.26052838E+00 0.24827301E+04</pdfrwt>
<totfact> 0.48874003E-03</totfact>
</mgrwt>
</event>
<event>
12    3  0.2212098E-007  0.8859904E+03  0.7818608E-02  0.9443265E-01
          1   -1    0    0  501    0  0.00000000000E+00  0.00000000000E+00  0.79893282110E+03  0.79893282110E+03  0.00000000000E+00 0. -1.
         -2   -1    0    0    0  501 -0.00000000000E+00 -0.00000000000E+00 -0.11754623624E+04  0.11754623624E+04  0.00000000000E+00 0.  1.
        -24    2    1    2    0    0  0.87037447437E+03  0.38923446327E+02 -0.24565798855E+03  0.90850156284E+03  0.77204158107E+02 0.  0.
    5000000    2    1    2    0    0 -0.87037447437E+03 -0.38923446327E+02 -0.13087155273E+03  0.10658936206E+04  0.59994590332E+03 0.  0.
        -24    2    4    4    0    0 -0.65068468266E+03  0.34469683697E+02 -0.34399890438E+03  0.74113295107E+03  0.79775244301E+02 0.  0.
         24    2    4    4    0    0 -0.21968979171E+03 -0.73393130024E+02  0.21312735165E+03  0.32476066958E+03  0.79975423511E+02 0.  0.
         13    1    5    5    0    0 -0.57474010970E+03  0.63675135265E+01 -0.31259066532E+03  0.65427797072E+03  0.00000000000E+00 0. -1.
        -14    1    5    5    0    0 -0.75944572957E+02  0.28102170171E+02 -0.31408239064E+02  0.86854980346E+02  0.00000000000E+00 0.  1.
         13    1    3    3    0    0  0.60923367391E+03  0.59666335987E+02 -0.15726180302E+03  0.63202611953E+03  0.00000000000E+00 0. -1.
        -14    1    3    3    0    0  0.26114080046E+03 -0.20742889660E+02 -0.88396185535E+02  0.27647544331E+03  0.00000000000E+00 0.  1.
          2    1    6    6  502    0 -0.18104407768E+03 -0.87366604066E+02  0.15632357924E+03  0.25465062929E+03  0.00000000000E+00 0. -1.
         -1    1    6    6    0  502 -0.38645714033E+02  0.13973474042E+02  0.56803772404E+02  0.70110040289E+02  0.00000000000E+00 0.  1.
<mgrwt>
<rscale>  0 0.88599044E+03</rscale>
<asrwt>0</asrwt>
<pdfrwt beam="1">  1        1 0.12291274E+00 0.88599044E+03</pdfrwt>
<pdfrwt beam="2">  1       -2 0.18084036E+00 0.88599044E+03</pdfrwt>
<totfact> 0.35038166E+00</totfact>
</mgrwt>
</event>
<event>
12    3  0.2212098E-007  0.3535922E+03  0.7818608E-02  0.1061150E+00
         -2   -1    0    0    0  501 -0.00000000000E+00  0.00000000000E+00  0.82002950252E+03  0.82002950252E+03  0.00000000000E+00 0.  1.
          1   -1    0    0  501    0  0.00000000000E+00 -0.00000000000E+00 -0.22531662777E+03  0.22531662777E+03  0.00000000000E+00 0. -1.
        -24    2    1    2    0    0 -0.15227349755E+03 -0.14401027768E+03  0.14629511545E+03  0.26755160511E+03  0.79091228729E+02 0.  0.
    5000000    2    1    2    0    0  0.15227349755E+03  0.14401027768E+03  0.44841775930E+03  0.77779452517E+03  0.59996638106E+03 0.  0.
        -24    2    4    4    0    0  0.14726501022E+03  0.28949456410E+03  0.39282105579E+02  0.33631520065E+03  0.77914982458E+02 0.  0.
         24    2    4    4    0    0  0.50084873288E+01 -0.14548428641E+03  0.40913565372E+03  0.44147932453E+03  0.79506278350E+02 0.  0.
         11    1    3    3    0    0 -0.14588563608E+03 -0.13578936676E+03  0.10560790456E+03  0.22555354230E+03  0.00000000000E+00 0. -1.
        -12    1    3    3    0    0 -0.63878614711E+01 -0.82209109270E+01  0.40687210886E+02  0.41998062817E+02  0.00000000000E+00 0.  1.
         13    1    5    5    0    0  0.80165473995E+02  0.78130278709E+02  0.20058762534E+02  0.11372421741E+03  0.00000000000E+00 0. -1.
        -14    1    5    5    0    0  0.67099536222E+02  0.21136428539E+03  0.19223343045E+02  0.22259098323E+03  0.00000000000E+00 0.  1.
          4    1    6    6  502    0  0.38749232728E+02 -0.99151519560E+02  0.29782159576E+03  0.31627555987E+03  0.00000000000E+00 0. -1.
         -3    1    6    6    0  502 -0.33740745399E+02 -0.46332766854E+02  0.11131405796E+03  0.12520376466E+03  0.00000000000E+00 0.  1.
<mgrwt>
<rscale>  0 0.35359223E+03</rscale>
<asrwt>0</asrwt>
<pdfrwt beam="1">  1        1 0.34664097E-01 0.35359223E+03</pdfrwt>
<pdfrwt beam="2">  1       -2 0.12615838E+00 0.35359223E+03</pdfrwt>
<totfact> 0.54321527E+01</totfact>
</mgrwt>
</event>
<event>
12    3  0.2278731E-007  0.5885857E+03  0.7818608E-02  0.9929374E-01
          3   -1    0    0  501    0  0.00000000000E+00  0.00000000000E+00  0.19301863860E+04  0.19301863860E+04  0.00000000000E+00 0. -1.
         -4   -1    0    0    0  501 -0.00000000000E+00 -0.00000000000E+00 -0.22803107869E+03  0.22803107869E+03  0.00000000000E+00 0.  1.
        -24    2    1    2    0    0 -0.48526312980E+03 -0.19749639316E+03  0.69357069536E+03  0.87291159884E+03  0.80307032511E+02 0.  0.
    5000000    2    1    2    0    0  0.48526312980E+03  0.19749639316E+03  0.10085846119E+04  0.12853058658E+04  0.60023588600E+03 0.  0.
        -24    2    4    4    0    0  0.12458235866E+02  0.16691333127E+03  0.21183710214E+02  0.18695044017E+03  0.80538498267E+02 0.  0.
         24    2    4    4    0    0  0.47280489393E+03  0.30583061893E+02  0.98740090173E+03  0.10983554257E+04  0.83332520413E+02 0.  0.
         11    1    3    3    0    0 -0.28047503058E+03 -0.76479871921E+02  0.41330969103E+03  0.50531209592E+03  0.00000000000E+00 0. -1.
        -12    1    3    3    0    0 -0.20478809922E+03 -0.12101652124E+03  0.28026100433E+03  0.36759950291E+03  0.00000000000E+00 0.  1.
         13    1    5    5    0    0  0.79609635472E+01  0.15162034949E+03  0.44941053545E+02  0.15834078949E+03  0.00000000000E+00 0. -1.
        -14    1    5    5    0    0  0.44972723187E+01  0.15292981776E+02 -0.23757343330E+02  0.28609650680E+02  0.00000000000E+00 0.  1.
          2    1    6    6  502    0  0.15303029774E+03  0.48516741273E+02  0.31310403197E+03  0.35186116729E+03  0.00000000000E+00 0. -1.
         -1    1    6    6    0  502  0.31977459620E+03 -0.17933679381E+02  0.67429686976E+03  0.74649425838E+03  0.00000000000E+00 0.  1.
<mgrwt>
<rscale>  0 0.58858569E+03</rscale>
<asrwt>0</asrwt>
<pdfrwt beam="1">  1        3 0.29695174E+00 0.58858569E+03</pdfrwt>
<pdfrwt beam="2">  1       -4 0.35081706E-01 0.58858569E+03</pdfrwt>
<totfact> 0.74566416E-01</totfact>
</mgrwt>
</event>
<event>
12    3  0.2212098E-007  0.1116772E+04  0.7818608E-02  0.9188998E-01
          1   -1    0    0  501    0  0.00000000000E+00  0.00000000000E+00  0.31769749014E+04  0.31769749014E+04  0.00000000000E+00 0. -1.
         -2   -1    0    0    0  501 -0.00000000000E+00 -0.00000000000E+00 -0.48841764638E+03  0.48841764638E+03  0.00000000000E+00 0.  1.
        -24    2    1    2    0    0  0.10928182390E+04  0.14519744564E+03  0.68313810595E+03  0.12995579191E+04  0.82698920997E+02 0.  0.
    5000000    2    1    2    0    0 -0.10928182390E+04 -0.14519744564E+03  0.20054191490E+04  0.23658346287E+04  0.60011126076E+03 0.  0.
        -24    2    4    4    0    0 -0.10441850744E+04 -0.18963827223E+03  0.14396490530E+04  0.17907670556E+04  0.89286659950E+02 0.  0.
         24    2    4    4    0    0 -0.48633164541E+02  0.44440826598E+02  0.56577009607E+03  0.57506757311E+03  0.79162745493E+02 0.  0.
         11    1    5    5    0    0 -0.73711912529E+03 -0.15975867784E+03  0.96741798325E+03  0.12266886297E+04  0.00000000000E+00 0. -1.
        -12    1    5    5    0    0 -0.30706594915E+03 -0.29879594394E+02  0.47223106972E+03  0.56407842583E+03  0.00000000000E+00 0.  1.
         11    1    3    3    0    0  0.76512629891E+03  0.13580419136E+03  0.49998468149E+03  0.92403772293E+03  0.00000000000E+00 0. -1.
        -12    1    3    3    0    0  0.32769194006E+03  0.93932542787E+01  0.18315342446E+03  0.37552019612E+03  0.00000000000E+00 0.  1.
          4    1    6    6  502    0 -0.27821780945E+02  0.25803110003E+02  0.80510463484E+02  0.89004419616E+02  0.00000000000E+00 0. -1.
         -3    1    6    6    0  502 -0.20811383595E+02  0.18637716595E+02  0.48525963259E+03  0.48606315350E+03  0.00000000000E+00 0.  1.
<mgrwt>
<rscale>  0 0.11167716E+04</rscale>
<asrwt>0</asrwt>
<pdfrwt beam="1">  1        1 0.48876536E+00 0.11167716E+04</pdfrwt>
<pdfrwt beam="2">  1       -2 0.75141178E-01 0.11167716E+04</pdfrwt>
<totfact> 0.62375787E-01</totfact>
</mgrwt>
</event>
<event>
12    3  0.2212098E-007  0.3236589E+03  0.7818608E-02  0.1073978E+00
         -2   -1    0    0    0  501 -0.00000000000E+00  0.00000000000E+00  0.12296498492E+03  0.12296498492E+03  0.00000000000E+00 0.  1.
          1   -1    0    0  501    0  0.00000000000E+00 -0.00000000000E+00 -0.18837678151E+04  0.18837678151E+04  0.00000000000E+00 0. -1.
        -24    2    1    2    0    0 -0.36336721201E+02 -0.18245182360E+03 -0.99936726352E+03  0.10195363878E+04  0.78169644633E+02 0.  0.
    5000000    2    1    2    0    0  0.36336721201E+02  0.18245182360E+03 -0.76143556665E+03  0.98719641224E+03  0.60013632529E+03 0.  0.
        -24    2    4    4    0    0  0.29988249837E+02  0.31360014423E+03 -0.15261944982E+03  0.35898898330E+03  0.79599296952E+02 0.  0.
         24    2    4    4    0    0  0.63484713644E+01 -0.13114832063E+03 -0.60881611683E+03  0.62820742894E+03  0.82142099895E+02 0.  0.
         11    1    5    5    0    0 -0.22507928976E+02  0.65168439516E+02 -0.16523381993E+02  0.70898198343E+02  0.00000000000E+00 0. -1.
        -12    1    5    5    0    0  0.52496178813E+02  0.24843170471E+03 -0.13609606783E+03  0.28809078495E+03  0.00000000000E+00 0.  1.
         11    1    3    3    0    0 -0.35527892194E+02 -0.12550326881E+03 -0.84479466431E+03  0.85480484700E+03  0.00000000000E+00 0. -1.
        -12    1    3    3    0    0 -0.80882900714E+00 -0.56948554792E+02 -0.15457259921E+03  0.16473154077E+03  0.00000000000E+00 0.  1.
          2    1    6    6  502    0 -0.13764356211E+02 -0.92281834657E+02 -0.52915008433E+03  0.53731295001E+03  0.00000000000E+00 0. -1.
         -1    1    6    6    0  502  0.20112827575E+02 -0.38866485975E+02 -0.79666032500E+02  0.90894478927E+02  0.00000000000E+00 0.  1.
<mgrwt>
<rscale>  0 0.32365887E+03</rscale>
<asrwt>0</asrwt>
<pdfrwt beam="1">  1        1 0.28981042E+00 0.32365887E+03</pdfrwt>
<pdfrwt beam="2">  1       -2 0.18917691E-01 0.32365887E+03</pdfrwt>
<totfact> 0.81038064E+01</totfact>
</mgrwt>
</event>
<event>
12    3  0.2212098E-007  0.5961249E+03  0.7818608E-02  0.9913478E-01
          1   -1    0    0  501    0  0.00000000000E+00  0.00000000000E+00  0.12953908557E+04  0.12953908557E+04  0.00000000000E+00 0. -1.
         -2   -1    0    0    0  501 -0.00000000000E+00 -0.00000000000E+00 -0.38475083493E+03  0.38475083493E+03  0.00000000000E+00 0.  1.
        -24    2    1    2    0    0  0.52693043261E+03 -0.68419581461E+02  0.63693070248E+03  0.83323147840E+03  0.79101560659E+02 0.  0.
    5000000    2    1    2    0    0 -0.52693043261E+03  0.68419581461E+02  0.27370931834E+03  0.84691021228E+03  0.60000266397E+03 0.  0.
        -24    2    4    4    0    0 -0.51584615456E+03 -0.39080579544E+02  0.40209608926E+03  0.66012307255E+03  0.80353338698E+02 0.  0.
         24    2    4    4    0    0 -0.11084278047E+02  0.10750016100E+03 -0.12838677092E+03  0.18678713972E+03  0.82019063530E+02 0.  0.
         11    1    3    3    0    0  0.10753665884E+03 -0.41574585063E+02  0.16521545617E+03  0.20146643908E+03  0.00000000000E+00 0. -1.
        -12    1    3    3    0    0  0.41939377377E+03 -0.26844996397E+02  0.47171524631E+03  0.63176503932E+03  0.00000000000E+00 0.  1.
         13    1    5    5    0    0 -0.28823671233E+03  0.15181586136E+02  0.24127277392E+03  0.37619600520E+03  0.00000000000E+00 0. -1.
        -14    1    5    5    0    0 -0.22760944224E+03 -0.54262165680E+02  0.16082331534E+03  0.28392706736E+03  0.00000000000E+00 0.  1.
          2    1    6    6  502    0 -0.35800196009E+02  0.10288660381E+03 -0.11458815247E+03  0.15810677393E+03  0.00000000000E+00 0. -1.
         -1    1    6    6    0  502  0.24715917962E+02  0.46135571980E+01 -0.13798618458E+02  0.28680365794E+02  0.00000000000E+00 0.  1.
<mgrwt>
<rscale>  0 0.59612493E+03</rscale>
<asrwt>0</asrwt>
<pdfrwt beam="1">  1        1 0.19929090E+00 0.59612493E+03</pdfrwt>
<pdfrwt beam="2">  1       -2 0.59192437E-01 0.59612493E+03</pdfrwt>
<totfact> 0.22324867E+01</totfact>
</mgrwt>
</event>
<event>
12    3  0.2212098E-007  0.4288085E+03  0.7818608E-02  0.1034237E+00
         -2   -1    0    0    0  501 -0.00000000000E+00  0.00000000000E+00  0.18406278995E+03  0.18406278995E+03  0.00000000000E+00 0.  1.
          1   -1    0    0  501    0  0.00000000000E+00 -0.00000000000E+00 -0.16004186887E+04  0.16004186887E+04  0.00000000000E+00 0. -1.
        -24    2    1    2    0    0  0.16400926568E+03  0.16712023811E+03 -0.96950872907E+03  0.10005062753E+04  0.78977325901E+02 0.  0.
    5000000    2    1    2    0    0 -0.16400926568E+03 -0.16712023811E+03 -0.44684716973E+03  0.78397520338E+03  0.60009708648E+03 0.  0.
        -24    2    4    4    0    0 -0.36754620495E+02 -0.37521109573E+03 -0.23975204524E+03  0.45403132128E+03  0.80803026061E+02 0.  0.
         24    2    4    4    0    0 -0.12725464519E+03  0.20809085762E+03 -0.20709512449E+03  0.32994388209E+03  0.80492390919E+02 0.  0.
         11    1    5    5    0    0 -0.36393748557E+01 -0.17369175431E+03 -0.15534331988E+03  0.23305282147E+03  0.00000000000E+00 0. -1.
        -12    1    5    5    0    0 -0.33115245639E+02 -0.20151934143E+03 -0.84408725354E+02  0.22097849981E+03  0.00000000000E+00 0.  1.
         13    1    3    3    0    0  0.13394889982E+03  0.12940583741E+03 -0.61064886719E+03  0.63842009486E+03  0.00000000000E+00 0. -1.
        -14    1    3    3    0    0  0.30060365860E+02  0.37714400698E+02 -0.35885986188E+03  0.36208618046E+03  0.00000000000E+00 0.  1.
          2    1    6    6  502    0 -0.75376117661E+02  0.99360200156E+02 -0.15432797966E+03  0.19842160617E+03  0.00000000000E+00 0. -1.
         -1    1    6    6    0  502 -0.51878527527E+02  0.10873065747E+03 -0.52767144833E+02  0.13152227593E+03  0.00000000000E+00 0.  1.
<mgrwt>
<rscale>  0 0.42880846E+03</rscale>
<asrwt>0</asrwt>
<pdfrwt beam="1">  1        1 0.24621826E+00 0.42880846E+03</pdfrwt>
<pdfrwt beam="2">  1       -2 0.28317352E-01 0.42880846E+03</pdfrwt>
<totfact> 0.59842871E+01</totfact>
</mgrwt>
</event>
<event>
12    3  0.2212098E-007  0.4567031E+03  0.7818608E-02  0.1025742E+00
         -2   -1    0    0    0  501 -0.00000000000E+00  0.00000000000E+00  0.23226230720E+03  0.23226230720E+03  0.00000000000E+00 0.  1.
          1   -1    0    0  501    0  0.00000000000E+00 -0.00000000000E+00 -0.18488952182E+04  0.18488952182E+04  0.00000000000E+00 0. -1.
        -24    2    1    2    0    0  0.24852679958E+03  0.31272282726E+03 -0.12777203992E+03  0.42699174693E+03  0.80219205679E+02 0.  0.
    5000000    2    1    2    0    0 -0.24852679958E+03 -0.31272282726E+03 -0.14888608710E+04  0.16541657784E+04  0.59999716034E+03 0.  0.
        -24    2    4    4    0    0  0.17259562733E+02  0.30361056057E+02  0.11286647281E+02  0.90493186997E+02  0.82716033847E+02 0.  0.
         24    2    4    4    0    0 -0.26578636231E+03 -0.34308388332E+03 -0.15001475183E+04  0.15636725914E+04  0.79249322351E+02 0.  0.
         11    1    3    3    0    0  0.17811350639E+03  0.24621315298E+03 -0.12898680111E+03  0.33012563172E+03  0.00000000000E+00 0. -1.
        -12    1    3    3    0    0  0.70413293189E+02  0.66509674282E+02  0.12147611844E+01  0.96866115208E+02  0.00000000000E+00 0.  1.
         13    1    5    5    0    0  0.40706625378E+02  0.63006230978E+01 -0.18906927077E+02  0.45323273189E+02  0.00000000000E+00 0. -1.
        -14    1    5    5    0    0 -0.23447062645E+02  0.24060432960E+02  0.30193574358E+02  0.45169913808E+02  0.00000000000E+00 0.  1.
          2    1    6    6  502    0 -0.11527618573E+03 -0.19627968877E+03 -0.87464949588E+03  0.90378429720E+03  0.00000000000E+00 0. -1.
         -1    1    6    6    0  502 -0.15051017658E+03 -0.14680419456E+03 -0.62549802245E+03  0.65988829425E+03  0.00000000000E+00 0.  1.
<mgrwt>
<rscale>  0 0.45670310E+03</rscale>
<asrwt>0</asrwt>
<pdfrwt beam="1">  1        1 0.28444542E+00 0.45670310E+03</pdfrwt>
<pdfrwt beam="2">  1       -2 0.35732663E-01 0.45670310E+03</pdfrwt>
<totfact> 0.26442551E+01</totfact>
</mgrwt>
</event>
<event>
12    3  0.2212098E-007  0.8367817E+03  0.7818608E-02  0.9508252E-01
          1   -1    0    0  501    0  0.00000000000E+00  0.00000000000E+00  0.17767673269E+04  0.17767673269E+04  0.00000000000E+00 0. -1.
         -2   -1    0    0    0  501 -0.00000000000E+00 -0.00000000000E+00 -0.52355824005E+03  0.52355824005E+03  0.00000000000E+00 0.  1.
        -24    2    1    2    0    0 -0.10837565991E+03 -0.79482664854E+03  0.96548646613E+03  0.12579118166E+04  0.81751679453E+02 0.  0.
    5000000    2    1    2    0    0  0.10837565991E+03  0.79482664854E+03  0.28772262068E+03  0.10424137503E+04  0.60028945980E+03 0.  0.
        -24    2    4    4    0    0 -0.10246085042E+03  0.39472503850E+03 -0.11675139506E+03  0.43023522898E+03  0.71870592862E+02 0.  0.
         24    2    4    4    0    0  0.21083651033E+03  0.40010161005E+03  0.40447401574E+03  0.61217852136E+03  0.81424690105E+02 0.  0.
         11    1    5    5    0    0 -0.42872082332E+02  0.57983140142E+02 -0.19446497837E+02  0.74687524141E+02  0.00000000000E+00 0. -1.
        -12    1    5    5    0    0 -0.59588768091E+02  0.33674189836E+03 -0.97304897226E+02  0.35554770484E+03  0.00000000000E+00 0.  1.
         13    1    3    3    0    0 -0.44558715566E+02 -0.28923612452E+03  0.41441730484E+03  0.50733097423E+03  0.00000000000E+00 0. -1.
        -14    1    3    3    0    0 -0.63816944340E+02 -0.50559052402E+03  0.55106916128E+03  0.75058084234E+03  0.00000000000E+00 0.  1.
          2    1    6    6  502    0  0.82961547936E+02  0.93335236625E+02  0.84108916231E+02  0.15056026907E+03  0.00000000000E+00 0. -1.
         -1    1    6    6    0  502  0.12787496239E+03  0.30676637342E+03  0.32036509951E+03  0.46161825230E+03  0.00000000000E+00 0.  1.
<mgrwt>
<rscale>  0 0.83678170E+03</rscale>
<asrwt>0</asrwt>
<pdfrwt beam="1">  1        1 0.27334882E+00 0.83678170E+03</pdfrwt>
<pdfrwt beam="2">  1       -2 0.80547422E-01 0.83678170E+03</pdfrwt>
<totfact> 0.51768662E+00</totfact>
</mgrwt>
</event>
<event>
12    3  0.2212098E-007  0.1905167E+04  0.7818608E-02  0.8652289E-01
         -2   -1    0    0    0  501 -0.00000000000E+00  0.00000000000E+00  0.29508345951E+04  0.29508345951E+04  0.00000000000E+00 0.  1.
          1   -1    0    0  501    0  0.00000000000E+00 -0.00000000000E+00 -0.12857418660E+04  0.12857418660E+04  0.00000000000E+00 0. -1.
        -24    2    1    2    0    0 -0.13671326784E+04 -0.13174165418E+04  0.90798573760E+03  0.21063596860E+04  0.87606633119E+02 0.  0.
    5000000    2    1    2    0    0  0.13671326784E+04  0.13174165418E+04  0.75710699144E+03  0.21302167751E+04  0.59997867253E+03 0.  0.
        -24    2    4    4    0    0  0.14612294762E+03  0.10712319716E+03  0.28185478237E+03  0.34475219399E+03  0.81145928590E+02 0.  0.
         24    2    4    4    0    0  0.12210097308E+04  0.12102933447E+04  0.47525220907E+03  0.17854645811E+04  0.79651524924E+02 0.  0.
         13    1    3    3    0    0 -0.45060923895E+03 -0.46964444038E+03  0.34772412437E+03  0.73792049252E+03  0.00000000000E+00 0. -1.
        -14    1    3    3    0    0 -0.91652343942E+03 -0.84777210144E+03  0.56026161324E+03  0.13684391935E+04  0.00000000000E+00 0.  1.
         13    1    5    5    0    0  0.12845729786E+03  0.11323705576E+03  0.27662841135E+03  0.32534164525E+03  0.00000000000E+00 0. -1.
        -14    1    5    5    0    0  0.17665649756E+02 -0.61138586015E+01  0.52263710247E+01  0.19410548740E+02  0.00000000000E+00 0.  1.
          4    1    6    6  502    0  0.71089556161E+03  0.75944423319E+03  0.28894962391E+03  0.10796387952E+04  0.00000000000E+00 0. -1.
         -3    1    6    6    0  502  0.51011416915E+03  0.45084911148E+03  0.18630258515E+03  0.70582578596E+03  0.00000000000E+00 0.  1.
<mgrwt>
<rscale>  0 0.19051667E+04</rscale>
<asrwt>0</asrwt>
<pdfrwt beam="1">  1        1 0.19780644E+00 0.19051667E+04</pdfrwt>
<pdfrwt beam="2">  1       -2 0.45397455E+00 0.19051667E+04</pdfrwt>
<totfact> 0.23924044E-02</totfact>
</mgrwt>
</event>
<event>
12    3  0.2212098E-007  0.9264597E+03  0.7818608E-02  0.9393097E-01
          1   -1    0    0  501    0  0.00000000000E+00  0.00000000000E+00  0.14659091709E+04  0.14659091709E+04  0.00000000000E+00 0. -1.
         -2   -1    0    0    0  501 -0.00000000000E+00 -0.00000000000E+00 -0.73966592922E+03  0.73966592922E+03  0.00000000000E+00 0.  1.
        -24    2    1    2    0    0  0.88423223621E+03 -0.23083839183E+03  0.45917407258E+02  0.91797321910E+03  0.73575892778E+02 0.  0.
    5000000    2    1    2    0    0 -0.88423223621E+03  0.23083839183E+03  0.68032583447E+03  0.12876018811E+04  0.59993529017E+03 0.  0.
        -24    2    4    4    0    0 -0.76116781704E+03  0.27216203438E+03  0.76251520907E+03  0.11141881710E+04  0.80853062299E+02 0.  0.
         24    2    4    4    0    0 -0.12306441917E+03 -0.41323642546E+02 -0.82189374608E+02  0.17341371006E+03  0.80403525053E+02 0.  0.
         13    1    3    3    0    0  0.59144531197E+03 -0.14523111544E+03  0.64142125599E+02  0.61238374098E+03  0.00000000000E+00 0. -1.
        -14    1    3    3    0    0  0.29278692424E+03 -0.85607276393E+02 -0.18224718341E+02  0.30558947812E+03  0.00000000000E+00 0.  1.
         13    1    5    5    0    0 -0.59183039719E+03  0.21701302570E+03  0.54695492178E+03  0.83457627502E+03  0.00000000000E+00 0. -1.
        -14    1    5    5    0    0 -0.16933741985E+03  0.55149008676E+02  0.21556028729E+03  0.27961189599E+03  0.00000000000E+00 0.  1.
          2    1    6    6  502    0 -0.10231432270E+03 -0.29322868295E+02 -0.22077773219E+02  0.10869903083E+03  0.00000000000E+00 0. -1.
         -1    1    6    6    0  502 -0.20750096472E+02 -0.12000774252E+02 -0.60111601389E+02  0.64714679230E+02  0.00000000000E+00 0.  1.
<mgrwt>
<rscale>  0 0.92645972E+03</rscale>
<asrwt>0</asrwt>
<pdfrwt beam="1">  1        1 0.22552449E+00 0.92645972E+03</pdfrwt>
<pdfrwt beam="2">  1       -2 0.11379476E+00 0.92645972E+03</pdfrwt>
<totfact> 0.36973533E+00</totfact>
</mgrwt>
</event>
<event>
12    3  0.2212098E-007  0.3408967E+03  0.7818608E-02  0.1066415E+00
          1   -1    0    0  501    0  0.00000000000E+00  0.00000000000E+00  0.17288494224E+04  0.17288494224E+04  0.00000000000E+00 0. -1.
         -2   -1    0    0    0  501 -0.00000000000E+00 -0.00000000000E+00 -0.87547079476E+02  0.87547079476E+02  0.00000000000E+00 0.  1.
        -24    2    1    2    0    0 -0.12336504325E+02  0.13728169830E+03  0.39922170504E+03  0.43017570428E+03  0.81698915239E+02 0.  0.
    5000000    2    1    2    0    0  0.12336504325E+02 -0.13728169830E+03  0.12420806379E+04  0.13862207976E+04  0.59987109837E+03 0.  0.
        -24    2    4    4    0    0  0.19218793558E+03 -0.25174570780E+03  0.10061161292E+04  0.10578302403E+04  0.80143919761E+02 0.  0.
         24    2    4    4    0    0 -0.17985143125E+03  0.11446400950E+03  0.23596450865E+03  0.32839055726E+03  0.81930226202E+02 0.  0.
         13    1    5    5    0    0  0.15366445031E+03 -0.18977067573E+03  0.65087929451E+03  0.69517589765E+03  0.00000000000E+00 0. -1.
        -14    1    5    5    0    0  0.38523485267E+02 -0.61975032066E+02  0.35523683473E+03  0.36265434268E+03  0.00000000000E+00 0.  1.
         13    1    3    3    0    0 -0.37449125189E+02  0.88633411690E+02  0.31789855450E+03  0.33214124947E+03  0.00000000000E+00 0. -1.
        -14    1    3    3    0    0  0.25112620864E+02  0.48648286609E+02  0.81323150546E+02  0.98034454818E+02  0.00000000000E+00 0.  1.
          2    1    6    6  502    0 -0.55155204842E+02  0.43087586262E+02  0.27479379402E+02  0.75191442355E+02  0.00000000000E+00 0. -1.
         -1    1    6    6    0  502 -0.12469622641E+03  0.71376423234E+02  0.20848512924E+03  0.25319911491E+03  0.00000000000E+00 0.  1.
<mgrwt>
<rscale>  0 0.34089668E+03</rscale>
<asrwt>0</asrwt>
<pdfrwt beam="1">  1        1 0.26597681E+00 0.34089668E+03</pdfrwt>
<pdfrwt beam="2">  1       -2 0.13468783E-01 0.34089668E+03</pdfrwt>
<totfact> 0.18038568E+02</totfact>
</mgrwt>
</event>
<event>
12    3  0.2212098E-007  0.4597190E+03  0.7818608E-02  0.1024863E+00
         -2   -1    0    0    0  501 -0.00000000000E+00  0.00000000000E+00  0.31276441235E+03  0.31276441235E+03  0.00000000000E+00 0.  1.
          1   -1    0    0  501    0  0.00000000000E+00 -0.00000000000E+00 -0.87579270466E+03  0.87579270466E+03  0.00000000000E+00 0. -1.
        -24    2    1    2    0    0  0.17875849220E+03  0.20867836647E+03  0.46269594821E+02  0.29029466010E+03  0.81417781320E+02 0.  0.
    5000000    2    1    2    0    0 -0.17875849220E+03 -0.20867836647E+03 -0.60929788712E+03  0.89826245691E+03  0.60010854607E+03 0.  0.
        -24    2    4    4    0    0  0.32919940272E+02 -0.37125391504E+03 -0.38223941049E+03  0.53972735532E+03  0.79280888323E+02 0.  0.
         24    2    4    4    0    0 -0.21167843247E+03  0.16257554857E+03 -0.22705847663E+03  0.35853510159E+03  0.75850507527E+02 0.  0.
         13    1    3    3    0    0  0.13315116336E+03  0.17852060168E+03  0.65815596714E+02  0.23222947767E+03  0.00000000000E+00 0. -1.
        -14    1    3    3    0    0  0.45607328843E+02  0.30157764784E+02 -0.19546001893E+02  0.58065182433E+02  0.00000000000E+00 0.  1.
         13    1    5    5    0    0  0.23606595076E+01 -0.21505932207E+03 -0.26894585531E+03  0.34436602302E+03  0.00000000000E+00 0. -1.
        -14    1    5    5    0    0  0.30559280765E+02 -0.15619459297E+03 -0.11329355517E+03  0.19536133230E+03  0.00000000000E+00 0.  1.
          2    1    6    6  502    0 -0.71607793414E+01  0.11546714716E+02 -0.41818344628E+02  0.43970186819E+02  0.00000000000E+00 0. -1.
         -1    1    6    6    0  502 -0.20451765313E+03  0.15102883385E+03 -0.18524013201E+03  0.31456491477E+03  0.00000000000E+00 0.  1.
<mgrwt>
<rscale>  0 0.45971901E+03</rscale>
<asrwt>0</asrwt>
<pdfrwt beam="1">  1        1 0.13473734E+00 0.45971901E+03</pdfrwt>
<pdfrwt beam="2">  1       -2 0.48117603E-01 0.45971901E+03</pdfrwt>
<totfact> 0.71607746E+01</totfact>
</mgrwt>
</event>
<event>
12    3  0.2212098E-007  0.8564724E+03  0.7818608E-02  0.9481691E-01
          1   -1    0    0  501    0  0.00000000000E+00  0.00000000000E+00  0.14731603099E+04  0.14731603099E+04  0.00000000000E+00 0. -1.
         -2   -1    0    0    0  501 -0.00000000000E+00 -0.00000000000E+00 -0.61384306551E+03  0.61384306551E+03  0.00000000000E+00 0.  1.
        -24    2    1    2    0    0 -0.14750246111E+03 -0.82908945990E+03  0.22919851157E+03  0.87615430759E+03  0.77253507658E+02 0.  0.
    5000000    2    1    2    0    0  0.14750246111E+03  0.82908945990E+03  0.63011873282E+03  0.12108490678E+04  0.59996628159E+03 0.  0.
        -24    2    4    4    0    0 -0.16276833910E+02  0.26232632526E+03 -0.77047942924E+02  0.28609585345E+03  0.82670524411E+02 0.  0.
         24    2    4    4    0    0  0.16377929502E+03  0.56676313465E+03  0.70716667575E+03  0.92475321438E+03  0.83902872072E+02 0.  0.
         11    1    5    5    0    0 -0.48016372089E+02  0.19332397052E+03 -0.49051476191E+02  0.20514818274E+03  0.00000000000E+00 0. -1.
        -12    1    5    5    0    0  0.31739538179E+02  0.69002354737E+02 -0.27996466733E+02  0.80947670705E+02  0.00000000000E+00 0.  1.
         13    1    3    3    0    0 -0.46974679632E+02 -0.38218547236E+03  0.13834913407E+03  0.40916114027E+03  0.00000000000E+00 0. -1.
        -14    1    3    3    0    0 -0.10052778148E+03 -0.44690398754E+03  0.90849377505E+02  0.46699316732E+03  0.00000000000E+00 0.  1.
          2    1    6    6  502    0  0.85576258890E+02  0.41721759562E+03  0.47910224361E+03  0.64104038720E+03  0.00000000000E+00 0. -1.
         -1    1    6    6    0  502  0.78203036131E+02  0.14954553903E+03  0.22806443214E+03  0.28371282718E+03  0.00000000000E+00 0.  1.
<mgrwt>
<rscale>  0 0.85647238E+03</rscale>
<asrwt>0</asrwt>
<pdfrwt beam="1">  1        1 0.22664005E+00 0.85647238E+03</pdfrwt>
<pdfrwt beam="2">  1       -2 0.94437395E-01 0.85647238E+03</pdfrwt>
<totfact> 0.57627546E+00</totfact>
</mgrwt>
</event>
<event>
12    3  0.2212098E-007  0.8501379E+03  0.7818608E-02  0.9490152E-01
         -2   -1    0    0    0  501 -0.00000000000E+00  0.00000000000E+00  0.11067163432E+04  0.11067163432E+04  0.00000000000E+00 0.  1.
          1   -1    0    0  501    0  0.00000000000E+00 -0.00000000000E+00 -0.82749929839E+03  0.82749929839E+03  0.00000000000E+00 0. -1.
        -24    2    1    2    0    0 -0.75208746986E+03 -0.10936909075E+03 -0.28309228063E+03  0.81448612513E+03  0.75161481757E+02 0.  0.
    5000000    2    1    2    0    0  0.75208746986E+03  0.10936909075E+03  0.56230932541E+03  0.11197295164E+04  0.60000437680E+03 0.  0.
        -24    2    4    4    0    0 -0.49440758026E+02  0.11054233053E+03  0.13256750412E+02  0.14467418680E+03  0.78044112537E+02 0.  0.
         24    2    4    4    0    0  0.80152822789E+03 -0.11732397745E+01  0.54905257500E+03  0.97505532962E+03  0.82615308074E+02 0.  0.
         11    1    3    3    0    0 -0.27280329900E+03 -0.92134396554E+01 -0.80400296442E+02  0.28455357155E+03  0.00000000000E+00 0. -1.
        -12    1    3    3    0    0 -0.47928417086E+03 -0.10015565110E+03 -0.20269198419E+03  0.52993255358E+03  0.00000000000E+00 0.  1.
         13    1    5    5    0    0 -0.45641031264E+02  0.28556548682E+02 -0.18121871057E+02  0.56806534995E+02  0.00000000000E+00 0. -1.
        -14    1    5    5    0    0 -0.37997267625E+01  0.81985781846E+02  0.31378621469E+02  0.87867651805E+02  0.00000000000E+00 0.  1.
          4    1    6    6  502    0  0.68140220456E+03  0.59847039711E+01  0.42988143272E+03  0.80569400349E+03  0.00000000000E+00 0. -1.
         -3    1    6    6    0  502  0.12012602333E+03 -0.71579437456E+01  0.11917114228E+03  0.16936132614E+03  0.00000000000E+00 0.  1.
<mgrwt>
<rscale>  0 0.85013787E+03</rscale>
<asrwt>0</asrwt>
<pdfrwt beam="1">  1        1 0.12730758E+00 0.85013787E+03</pdfrwt>
<pdfrwt beam="2">  1       -2 0.17026405E+00 0.85013787E+03</pdfrwt>
<totfact> 0.39405147E+00</totfact>
</mgrwt>
</event>
<event>
12    3  0.2212098E-007  0.1414549E+04  0.7818608E-02  0.8943354E-01
         -2   -1    0    0    0  501 -0.00000000000E+00  0.00000000000E+00  0.58255903338E+03  0.58255903338E+03  0.00000000000E+00 0.  1.
          1   -1    0    0  501    0  0.00000000000E+00 -0.00000000000E+00 -0.38747455111E+04  0.38747455111E+04  0.00000000000E+00 0. -1.
        -24    2    1    2    0    0 -0.92937496349E+02 -0.14021487495E+04 -0.20562749393E+04  0.24920604409E+04  0.86256138061E+02 0.  0.
    5000000    2    1    2    0    0  0.92937496349E+02  0.14021487495E+04 -0.12359115384E+04  0.19652441035E+04  0.60004046678E+03 0.  0.
        -24    2    4    4    0    0  0.23632704009E+02  0.22521779351E+03 -0.54681690015E+03  0.59726904797E+03  0.80249823472E+02 0.  0.
         24    2    4    4    0    0  0.69304792341E+02  0.11769309560E+04 -0.68909463822E+03  0.13679750555E+04  0.80837508375E+02 0.  0.
         11    1    3    3    0    0  0.14562332980E+02 -0.32673428470E+03 -0.48541947481E+03  0.58531993035E+03  0.00000000000E+00 0. -1.
        -12    1    3    3    0    0 -0.10749982933E+03 -0.10754144648E+04 -0.15708554645E+04  0.19067405106E+04  0.00000000000E+00 0.  1.
         11    1    5    5    0    0  0.52165739561E+02  0.11969296869E+03 -0.28100651886E+03  0.30985857222E+03  0.00000000000E+00 0. -1.
        -12    1    5    5    0    0 -0.28533035552E+02  0.10552482482E+03 -0.26581038129E+03  0.28741047575E+03  0.00000000000E+00 0.  1.
          2    1    6    6  502    0  0.33901440079E+02  0.14755805022E+03 -0.99659858462E+02  0.18125885692E+03  0.00000000000E+00 0. -1.
         -1    1    6    6    0  502  0.35403352261E+02  0.10293729058E+04 -0.58943477976E+03  0.11867161986E+04  0.00000000000E+00 0.  1.
<mgrwt>
<rscale>  0 0.14145488E+04</rscale>
<asrwt>0</asrwt>
<pdfrwt beam="1">  1        1 0.59611467E+00 0.14145488E+04</pdfrwt>
<pdfrwt beam="2">  1       -2 0.89624470E-01 0.14145488E+04</pdfrwt>
<totfact> 0.11295187E-01</totfact>
</mgrwt>
</event>
<event>
12    3  0.2212098E-007  0.5990077E+03  0.7818608E-02  0.9907467E-01
         -4   -1    0    0    0  501 -0.00000000000E+00  0.00000000000E+00  0.68973067457E+03  0.68973067457E+03  0.00000000000E+00 0.  1.
          3   -1    0    0  501    0  0.00000000000E+00 -0.00000000000E+00 -0.70527903600E+03  0.70527903600E+03  0.00000000000E+00 0. -1.
        -24    2    1    2    0    0  0.38174605444E+03  0.38395214888E+03 -0.16632351897E+03  0.57288569354E+03  0.85937199145E+02 0.  0.
    5000000    2    1    2    0    0 -0.38174605444E+03 -0.38395214888E+03  0.15077515754E+03  0.82212401703E+03  0.60000454043E+03 0.  0.
        -24    2    4    4    0    0 -0.40146768425E+03 -0.38490065765E+03 -0.86176484670E+02  0.56861574780E+03  0.81071970403E+02 0.  0.
         24    2    4    4    0    0  0.19721629807E+02  0.94850877594E+00  0.23695164221E+03  0.25350826923E+03  0.87923372704E+02 0.  0.
         13    1    5    5    0    0 -0.14985383017E+03 -0.19417453552E+03 -0.20533293998E+02  0.24613316888E+03  0.00000000000E+00 0. -1.
        -14    1    5    5    0    0 -0.25161385408E+03 -0.19072612213E+03 -0.65643190672E+02  0.32248257892E+03  0.00000000000E+00 0.  1.
         13    1    3    3    0    0  0.19146853619E+03  0.25259057717E+03 -0.92955000068E+02  0.33030717834E+03  0.00000000000E+00 0. -1.
        -14    1    3    3    0    0  0.19027751825E+03  0.13136157171E+03 -0.73368518904E+02  0.24257851520E+03  0.00000000000E+00 0.  1.
          2    1    6    6  502    0  0.54132935263E+02 -0.28872998980E+01  0.16462952154E+03  0.17332510073E+03  0.00000000000E+00 0. -1.
         -1    1    6    6    0  502 -0.34411305456E+02  0.38358086739E+01  0.72322120677E+02  0.80183168500E+02  0.00000000000E+00 0.  1.
<mgrwt>
<rscale>  0 0.59900766E+03</rscale>
<asrwt>0</asrwt>
<pdfrwt beam="1">  1        3 0.10850447E+00 0.59900766E+03</pdfrwt>
<pdfrwt beam="2">  1       -4 0.10611241E+00 0.59900766E+03</pdfrwt>
<totfact> 0.11670767E+00</totfact>
</mgrwt>
</event>
<event>
12    3  0.2212098E-007  0.4732153E+03  0.7818608E-02  0.1021017E+00
         -2   -1    0    0    0  501 -0.00000000000E+00  0.00000000000E+00  0.42791053443E+03  0.42791053443E+03  0.00000000000E+00 0.  1.
          1   -1    0    0  501    0  0.00000000000E+00 -0.00000000000E+00 -0.13171198796E+04  0.13171198796E+04  0.00000000000E+00 0. -1.
        -24    2    1    2    0    0 -0.73522288690E+02 -0.32169802842E+03  0.24598067496E+03  0.41931969084E+03  0.80170831636E+02 0.  0.
    5000000    2    1    2    0    0  0.73522288690E+02  0.32169802842E+03 -0.11351900201E+04  0.13257107232E+04  0.59996449176E+03 0.  0.
        -24    2    4    4    0    0  0.25223195896E+03  0.24186030405E+02 -0.77471460379E+03  0.81888959751E+03  0.78686278327E+02 0.  0.
         24    2    4    4    0    0 -0.17870967027E+03  0.29751199802E+03 -0.36047541632E+03  0.50682112567E+03  0.80464852207E+02 0.  0.
         11    1    5    5    0    0  0.19165370817E+03  0.19631959596E+01 -0.66007131610E+03  0.68733480948E+03  0.00000000000E+00 0. -1.
        -12    1    5    5    0    0  0.60578250793E+02  0.22222834445E+02 -0.11464328769E+03  0.13155478803E+03  0.00000000000E+00 0.  1.
         11    1    3    3    0    0 -0.38275438851E+00 -0.12459045952E+03  0.12625834530E+03  0.17738122466E+03  0.00000000000E+00 0. -1.
        -12    1    3    3    0    0 -0.73139534302E+02 -0.19710756890E+03  0.11972232966E+03  0.24193846618E+03  0.00000000000E+00 0.  1.
          4    1    6    6  502    0 -0.80508508929E+02  0.66604020192E+02 -0.12233251529E+03  0.16088181940E+03  0.00000000000E+00 0. -1.
         -3    1    6    6    0  502 -0.98201161346E+02  0.23090797783E+03 -0.23814290103E+03  0.34593930627E+03  0.00000000000E+00 0.  1.
<mgrwt>
<rscale>  0 0.47321527E+03</rscale>
<asrwt>0</asrwt>
<pdfrwt beam="1">  1        1 0.20263383E+00 0.47321527E+03</pdfrwt>
<pdfrwt beam="2">  1       -2 0.65832391E-01 0.47321527E+03</pdfrwt>
<totfact> 0.17563127E+01</totfact>
</mgrwt>
</event>
<event>
12    3  0.2212098E-007  0.7457856E+03  0.7818608E-02  0.9641985E-01
          1   -1    0    0  501    0  0.00000000000E+00  0.00000000000E+00  0.18245727472E+04  0.18245727472E+04  0.00000000000E+00 0. -1.
         -2   -1    0    0    0  501 -0.00000000000E+00 -0.00000000000E+00 -0.31229561903E+03  0.31229561903E+03  0.00000000000E+00 0.  1.
        -24    2    1    2    0    0  0.60224693009E+03  0.16853357292E+03  0.77506268564E+03  0.99892324845E+03  0.77592265244E+02 0.  0.
    5000000    2    1    2    0    0 -0.60224693009E+03 -0.16853357292E+03  0.73721444256E+03  0.11379451178E+04  0.60027412638E+03 0.  0.
        -24    2    4    4    0    0 -0.56541467949E+03 -0.34513444788E+03  0.53845316770E+03  0.85742232882E+03  0.80185343136E+02 0.  0.
         24    2    4    4    0    0 -0.36832250601E+02  0.17660087496E+03  0.19876127487E+03  0.28052278899E+03  0.81501576865E+02 0.  0.
         11    1    3    3    0    0  0.69200076691E+02  0.88082807646E+00  0.11365590630E+03  0.13306799581E+03  0.00000000000E+00 0. -1.
        -12    1    3    3    0    0  0.53304685340E+03  0.16765274484E+03  0.66140677933E+03  0.86585525264E+03  0.00000000000E+00 0.  1.
         11    1    5    5    0    0 -0.34903064617E+03 -0.25328291943E+03  0.32647357727E+03  0.54088781267E+03  0.00000000000E+00 0. -1.
        -12    1    5    5    0    0 -0.21638403331E+03 -0.91851528457E+02  0.21197959043E+03  0.31653451614E+03  0.00000000000E+00 0.  1.
          4    1    6    6  502    0 -0.49178776094E+02  0.50277267596E+02  0.59766049327E+02  0.92294833589E+02  0.00000000000E+00 0. -1.
         -3    1    6    6    0  502  0.12346525493E+02  0.12632360737E+03  0.13899522554E+03  0.18822795540E+03  0.00000000000E+00 0.  1.
<mgrwt>
<rscale>  0 0.74578561E+03</rscale>
<asrwt>0</asrwt>
<pdfrwt beam="1">  1        1 0.28070349E+00 0.74578561E+03</pdfrwt>
<pdfrwt beam="2">  1       -2 0.48045481E-01 0.74578561E+03</pdfrwt>
<totfact> 0.14653428E+01</totfact>
</mgrwt>
</event>
<event>
12    3  0.2212098E-007  0.6789519E+03  0.7818608E-02  0.9753920E-01
          1   -1    0    0  501    0  0.00000000000E+00  0.00000000000E+00  0.44750673834E+03  0.44750673834E+03  0.00000000000E+00 0. -1.
         -2   -1    0    0    0  501 -0.00000000000E+00 -0.00000000000E+00 -0.10661436995E+04  0.10661436995E+04  0.00000000000E+00 0.  1.
        -24    2    1    2    0    0 -0.55659393646E+02 -0.54283245453E+03 -0.12772961489E+03  0.56564537999E+03  0.76647241271E+02 0.  0.
    5000000    2    1    2    0    0  0.55659393646E+02  0.54283245453E+03 -0.49090734628E+03  0.94800505786E+03  0.59996543677E+03 0.  0.
        -24    2    4    4    0    0 -0.25842762942E+03  0.18048023236E+03 -0.20292940746E+03  0.38319611860E+03  0.79378630445E+02 0.  0.
         24    2    4    4    0    0  0.31408702307E+03  0.36235222217E+03 -0.28797793882E+03  0.56480893927E+03  0.78281885899E+02 0.  0.
         11    1    3    3    0    0 -0.45426274139E+01 -0.32074316673E+03 -0.48788490078E+02  0.32446437591E+03  0.00000000000E+00 0. -1.
        -12    1    3    3    0    0 -0.51116766232E+02 -0.22208928780E+03 -0.78941124810E+02  0.24118100408E+03  0.00000000000E+00 0.  1.
         11    1    5    5    0    0 -0.64811194659E+02  0.88037730557E+02 -0.84155578224E+02  0.13796120578E+03  0.00000000000E+00 0. -1.
        -12    1    5    5    0    0 -0.19361643477E+03  0.92442501806E+02 -0.11877382924E+03  0.24523491282E+03  0.00000000000E+00 0.  1.
          2    1    6    6  502    0  0.22100106922E+03  0.30272713024E+03 -0.23318276835E+03  0.44142880676E+03  0.00000000000E+00 0. -1.
         -3    1    6    6    0  502  0.93085953851E+02  0.59625091925E+02 -0.54795170470E+02  0.12338013251E+03  0.00000000000E+00 0.  1.
<mgrwt>
<rscale>  0 0.67895187E+03</rscale>
<asrwt>0</asrwt>
<pdfrwt beam="1">  1        1 0.68847191E-01 0.67895187E+03</pdfrwt>
<pdfrwt beam="2">  1       -2 0.16402211E+00 0.67895187E+03</pdfrwt>
<totfact> 0.10912843E+01</totfact>
</mgrwt>
</event>
<event>
12    3  0.2212098E-007  0.5651609E+03  0.7818608E-02  0.9980444E-01
         -2   -1    0    0    0  501 -0.00000000000E+00  0.00000000000E+00  0.20338223940E+03  0.20338223940E+03  0.00000000000E+00 0.  1.
          1   -1    0    0  501    0  0.00000000000E+00 -0.00000000000E+00 -0.20550633294E+04  0.20550633294E+04  0.00000000000E+00 0. -1.
        -24    2    1    2    0    0  0.19743310935E+03 -0.36650059402E+03 -0.23560985902E+03  0.48502312375E+03  0.80205403893E+02 0.  0.
    5000000    2    1    2    0    0 -0.19743310935E+03  0.36650059402E+03 -0.16160712309E+04  0.17734224450E+04  0.60003202162E+03 0.  0.
        -24    2    4    4    0    0 -0.13905848341E+03 -0.13287915060E+03 -0.31959173164E+03  0.38056217960E+03  0.75462355713E+02 0.  0.
         24    2    4    4    0    0 -0.58374625939E+02  0.49937974462E+03 -0.12964794993E+04  0.13928602654E+04  0.80080588354E+02 0.  0.
         11    1    5    5    0    0 -0.12873593507E+03 -0.90218935806E+02 -0.20855863096E+03  0.26116871923E+03  0.00000000000E+00 0. -1.
        -12    1    5    5    0    0 -0.10322548342E+02 -0.42660214797E+02 -0.11103310068E+03  0.11939346037E+03  0.00000000000E+00 0.  1.
         13    1    3    3    0    0  0.13439796013E+03 -0.16657240695E+03 -0.12801685585E+03  0.24939425379E+03  0.00000000000E+00 0. -1.
        -14    1    3    3    0    0  0.63035149220E+02 -0.19992818707E+03 -0.10759300318E+03  0.23562886995E+03  0.00000000000E+00 0.  1.
          2    1    6    6  502    0 -0.26636374178E+01  0.25111594873E+03 -0.56196497144E+03  0.61552493353E+03  0.00000000000E+00 0. -1.
         -1    1    6    6    0  502 -0.55710988522E+02  0.24826379590E+03 -0.73451452786E+03  0.77733533190E+03  0.00000000000E+00 0.  1.
<mgrwt>
<rscale>  0 0.56516088E+03</rscale>
<asrwt>0</asrwt>
<pdfrwt beam="1">  1        1 0.31616359E+00 0.56516088E+03</pdfrwt>
<pdfrwt beam="2">  1       -2 0.31289576E-01 0.56516088E+03</pdfrwt>
<totfact> 0.24275849E+01</totfact>
</mgrwt>
</event>
<event>
12    3  0.2212098E-007  0.5464026E+03  0.7818608E-02  0.1002330E+00
          1   -1    0    0  501    0  0.00000000000E+00  0.00000000000E+00  0.70656382121E+03  0.70656382121E+03  0.00000000000E+00 0. -1.
         -2   -1    0    0    0  501 -0.00000000000E+00 -0.00000000000E+00 -0.52647381458E+03  0.52647381458E+03  0.00000000000E+00 0.  1.
        -24    2    1    2    0    0 -0.33365566234E+02  0.38981055278E+03  0.31026108776E+03  0.50539906677E+03  0.78107272694E+02 0.  0.
    5000000    2    1    2    0    0  0.33365566234E+02 -0.38981055278E+03 -0.13017108113E+03  0.72763856902E+03  0.59953969735E+03 0.  0.
        -24    2    4    4    0    0 -0.13759616927E+03 -0.47685278842E+03 -0.49538913926E+02  0.50529597137E+03  0.80923587828E+02 0.  0.
         24    2    4    4    0    0  0.17096173551E+03  0.87042235647E+02 -0.80632167207E+02  0.22234259765E+03  0.78296989384E+02 0.  0.
         11    1    3    3    0    0  0.24829428282E+02  0.88236754038E+02  0.77313135365E+02  0.11991474543E+03  0.00000000000E+00 0. -1.
        -12    1    3    3    0    0 -0.58194994517E+02  0.30157379874E+03  0.23294795239E+03  0.38548432134E+03  0.00000000000E+00 0.  1.
         11    1    5    5    0    0  0.74268052260E+01 -0.66789010213E+02 -0.15822742162E+02  0.69038311759E+02  0.00000000000E+00 0. -1.
        -12    1    5    5    0    0 -0.14502297450E+03 -0.41006377821E+03 -0.33716171764E+02  0.43625765961E+03  0.00000000000E+00 0.  1.
          4    1    6    6  502    0  0.77207480426E+02  0.40175587776E+02 -0.78957851693E+02  0.11751346830E+03  0.00000000000E+00 0. -1.
         -3    1    6    6    0  502  0.93754255082E+02  0.46866647871E+02 -0.16743155142E+01  0.10482912935E+03  0.00000000000E+00 0.  1.
<mgrwt>
<rscale>  0 0.54640263E+03</rscale>
<asrwt>0</asrwt>
<pdfrwt beam="1">  1        1 0.10870213E+00 0.54640263E+03</pdfrwt>
<pdfrwt beam="2">  1       -2 0.80995972E-01 0.54640263E+03</pdfrwt>
<totfact> 0.32897594E+01</totfact>
</mgrwt>
</event>
<event>
12    3  0.2212098E-007  0.9119379E+03  0.7818608E-02  0.9410780E-01
          1   -1    0    0  501    0  0.00000000000E+00  0.00000000000E+00  0.81139379628E+03  0.81139379628E+03  0.00000000000E+00 0. -1.
         -2   -1    0    0    0  501 -0.00000000000E+00 -0.00000000000E+00 -0.10720392822E+04  0.10720392822E+04  0.00000000000E+00 0.  1.
        -24    2    1    2    0    0 -0.80077133075E+03  0.17826986388E+03 -0.26887954768E+03  0.86702440106E+03  0.80126352448E+02 0.  0.
    5000000    2    1    2    0    0  0.80077133075E+03 -0.17826986388E+03  0.82340617485E+01  0.10164086774E+04  0.60000327605E+03 0.  0.
        -24    2    4    4    0    0  0.73539385550E+03 -0.34110242307E+03  0.60481549067E+02  0.81668767056E+03  0.78522275379E+02 0.  0.
         24    2    4    4    0    0  0.65377475246E+02  0.16283255919E+03 -0.52247487319E+02  0.19972100687E+03  0.79812430450E+02 0.  0.
         13    1    5    5    0    0  0.38014886491E+03 -0.17959481128E+03  0.70586682698E+02  0.42632139931E+03  0.00000000000E+00 0. -1.
        -14    1    5    5    0    0  0.35524499059E+03 -0.16150761178E+03 -0.10105133630E+02  0.39036627125E+03  0.00000000000E+00 0.  1.
         13    1    3    3    0    0 -0.60858470510E+03  0.12836787898E+03 -0.16777791823E+03  0.64420733113E+03  0.00000000000E+00 0. -1.
        -14    1    3    3    0    0 -0.19218662565E+03  0.49901984902E+02 -0.10110162945E+03  0.22281706994E+03  0.00000000000E+00 0.  1.
          4    1    6    6  502    0 -0.10855021324E+02  0.77445473024E+02 -0.24336789163E+02  0.81901844220E+02  0.00000000000E+00 0. -1.
         -3    1    6    6    0  502  0.76232496570E+02  0.85387086163E+02 -0.27910698156E+02  0.11781916265E+03  0.00000000000E+00 0.  1.
<mgrwt>
<rscale>  0 0.91193793E+03</rscale>
<asrwt>0</asrwt>
<pdfrwt beam="1">  1        1 0.12482982E+00 0.91193793E+03</pdfrwt>
<pdfrwt beam="2">  1       -2 0.16492912E+00 0.91193793E+03</pdfrwt>
<totfact> 0.44114273E+00</totfact>
</mgrwt>
</event>
<event>
12    3  0.2212098E-007  0.5042176E+03  0.7818608E-02  0.1012684E+00
          1   -1    0    0  501    0  0.00000000000E+00  0.00000000000E+00  0.11926411442E+04  0.11926411442E+04  0.00000000000E+00 0. -1.
         -2   -1    0    0    0  501 -0.00000000000E+00 -0.00000000000E+00 -0.72726050217E+03  0.72726050217E+03  0.00000000000E+00 0.  1.
        -24    2    1    2    0    0  0.36944824866E+03 -0.19482863695E+03  0.95123088719E+03  0.10420191489E+04  0.80706256060E+02 0.  0.
    5000000    2    1    2    0    0 -0.36944824866E+03  0.19482863695E+03 -0.48585024521E+03  0.87788249741E+03  0.60014749210E+03 0.  0.
        -24    2    4    4    0    0  0.11711339711E+02  0.19163399950E+03 -0.43858376218E+03  0.48538990480E+03  0.79918070508E+02 0.  0.
         24    2    4    4    0    0 -0.38115958837E+03  0.31946374590E+01 -0.47266483023E+02  0.39249259260E+03  0.80768046385E+02 0.  0.
         11    1    5    5    0    0  0.43756369622E+02  0.88971255054E+02 -0.18379330913E+03  0.20883123471E+03  0.00000000000E+00 0. -1.
        -12    1    5    5    0    0 -0.32045029912E+02  0.10266274444E+03 -0.25479045305E+03  0.27655867009E+03  0.00000000000E+00 0.  1.
         13    1    3    3    0    0  0.33019940816E+03 -0.16260055302E+03  0.88555383399E+03  0.95899748794E+03  0.00000000000E+00 0. -1.
        -14    1    3    3    0    0  0.39248840500E+02 -0.32228083937E+02  0.65677053199E+02  0.83021660979E+02  0.00000000000E+00 0.  1.
          2    1    6    6  502    0 -0.24674338980E+03  0.19378174079E+02  0.45063010830E+01  0.24754417947E+03  0.00000000000E+00 0. -1.
         -1    1    6    6    0  502 -0.13441619856E+03 -0.16183536620E+02 -0.51772784106E+02  0.14494841313E+03  0.00000000000E+00 0.  1.
<mgrwt>
<rscale>  0 0.50421755E+03</rscale>
<asrwt>0</asrwt>
<pdfrwt beam="1">  1        1 0.18348325E+00 0.50421755E+03</pdfrwt>
<pdfrwt beam="2">  1       -2 0.11188623E+00 0.50421755E+03</pdfrwt>
<totfact> 0.64007238E+00</totfact>
</mgrwt>
</event>
<event>
12    3  0.2212098E-007  0.3421361E+03  0.7818608E-02  0.1065890E+00
         -2   -1    0    0    0  501 -0.00000000000E+00  0.00000000000E+00  0.29386726700E+03  0.29386726700E+03  0.00000000000E+00 0.  1.
          1   -1    0    0  501    0  0.00000000000E+00 -0.00000000000E+00 -0.64550342066E+03  0.64550342066E+03  0.00000000000E+00 0. -1.
        -24    2    1    2    0    0 -0.12422293858E+03  0.16927137303E+03 -0.16236558136E+02  0.22065360361E+03  0.65880579600E+02 0.  0.
    5000000    2    1    2    0    0  0.12422293858E+03 -0.16927137303E+03 -0.33539959553E+03  0.71871708406E+03  0.59998101806E+03 0.  0.
        -24    2    4    4    0    0  0.52710421860E+02 -0.29911184310E+03 -0.42465172947E+03  0.52805891589E+03  0.79188661166E+02 0.  0.
         24    2    4    4    0    0  0.71512516724E+02  0.12984047007E+03  0.89252133941E+02  0.19065816816E+03  0.80075002074E+02 0.  0.
         11    1    5    5    0    0  0.36559085982E+02 -0.10957154873E+03 -0.22110638136E+03  0.24946046368E+03  0.00000000000E+00 0. -1.
        -12    1    5    5    0    0  0.16151335877E+02 -0.18954029437E+03 -0.20354534811E+03  0.27859845221E+03  0.00000000000E+00 0.  1.
         13    1    3    3    0    0 -0.89255157550E+02  0.11166309561E+03 -0.41228871170E+02  0.14877819023E+03  0.00000000000E+00 0. -1.
        -14    1    3    3    0    0 -0.34967781034E+02  0.57608277418E+02  0.24992313034E+02  0.71875413379E+02  0.00000000000E+00 0.  1.
          4    1    6    6  502    0 -0.33523872659E+01  0.75770484892E+02  0.34757717636E+02  0.83429633923E+02  0.00000000000E+00 0. -1.
         -3    1    6    6    0  502  0.74864903990E+02  0.54069985181E+02  0.54494416304E+02  0.10722853424E+03  0.00000000000E+00 0.  1.
<mgrwt>
<rscale>  0 0.34213612E+03</rscale>
<asrwt>0</asrwt>
<pdfrwt beam="1">  1        1 0.99308219E-01 0.34213612E+03</pdfrwt>
<pdfrwt beam="2">  1       -2 0.45210349E-01 0.34213612E+03</pdfrwt>
<totfact> 0.13106731E+02</totfact>
</mgrwt>
</event>
<event>
12    3  0.2212098E-007  0.4796767E+03  0.7818608E-02  0.1019224E+00
         -2   -1    0    0    0  501 -0.00000000000E+00  0.00000000000E+00  0.24404316629E+03  0.24404316629E+03  0.00000000000E+00 0.  1.
          1   -1    0    0  501    0  0.00000000000E+00 -0.00000000000E+00 -0.10942595097E+04  0.10942595097E+04  0.00000000000E+00 0. -1.
        -24    2    1    2    0    0 -0.26748124645E+03  0.12964729575E+03 -0.80993299000E+02  0.31841543328E+03  0.80460146499E+02 0.  0.
    5000000    2    1    2    0    0  0.26748124645E+03 -0.12964729575E+03 -0.76922304445E+03  0.10198872427E+04  0.60009270726E+03 0.  0.
        -24    2    4    4    0    0  0.15274529070E+03  0.22050086676E+03 -0.23014469057E+03  0.36238382550E+03  0.80023136097E+02 0.  0.
         24    2    4    4    0    0  0.11473595575E+03 -0.35014816252E+03 -0.53907835388E+03  0.65750341724E+03  0.77053207672E+02 0.  0.
         11    1    3    3    0    0 -0.11921262689E+03  0.10112879882E+03 -0.51352073329E+02  0.16454701394E+03  0.00000000000E+00 0. -1.
        -12    1    3    3    0    0 -0.14826861956E+03  0.28518496931E+02 -0.29641225671E+02  0.15386841935E+03  0.00000000000E+00 0.  1.
         11    1    5    5    0    0  0.59209295050E+02  0.14275017166E+03 -0.15776257299E+03  0.22084470011E+03  0.00000000000E+00 0. -1.
        -12    1    5    5    0    0  0.93535995646E+02  0.77750695101E+02 -0.72382117584E+02  0.14153912539E+03  0.00000000000E+00 0.  1.
          4    1    6    6  502    0 -0.92437924579E+01 -0.54420295776E+02 -0.92603950187E+02  0.10780773572E+03  0.00000000000E+00 0. -1.
         -3    1    6    6    0  502  0.12397974821E+03 -0.29572786674E+03 -0.44647440369E+03  0.54969568152E+03  0.00000000000E+00 0.  1.
<mgrwt>
<rscale>  0 0.47967670E+03</rscale>
<asrwt>0</asrwt>
<pdfrwt beam="1">  1        1 0.16834761E+00 0.47967670E+03</pdfrwt>
<pdfrwt beam="2">  1       -2 0.37545103E-01 0.47967670E+03</pdfrwt>
<totfact> 0.78769691E+01</totfact>
</mgrwt>
</event>
<event>
12    3  0.2212098E-007  0.8672518E+03  0.7818608E-02  0.9467470E-01
         -2   -1    0    0    0  501 -0.00000000000E+00  0.00000000000E+00  0.39518890024E+03  0.39518890024E+03  0.00000000000E+00 0.  1.
          1   -1    0    0  501    0  0.00000000000E+00 -0.00000000000E+00 -0.24326680805E+04  0.24326680805E+04  0.00000000000E+00 0. -1.
        -24    2    1    2    0    0 -0.26091756961E+03 -0.80019964402E+03 -0.52259594493E+03  0.99394367562E+03  0.80125278374E+02 0.  0.
    5000000    2    1    2    0    0  0.26091756961E+03  0.80019964402E+03 -0.15148832353E+04  0.18339133051E+04  0.59997445411E+03 0.  0.
        -24    2    4    4    0    0  0.53292457289E+02  0.42435358273E+02  0.13495990553E+02  0.11359706857E+03  0.89896087744E+02 0.  0.
         24    2    4    4    0    0  0.20762511232E+03  0.75776428574E+03 -0.15283792258E+04  0.17203162365E+04  0.78930321185E+02 0.  0.
         11    1    3    3    0    0 -0.16132526316E+03 -0.36958702826E+03 -0.26084196019E+03  0.48026965362E+03  0.00000000000E+00 0. -1.
        -12    1    3    3    0    0 -0.99592306448E+02 -0.43061261575E+03 -0.26175398474E+03  0.51367402200E+03  0.00000000000E+00 0.  1.
         13    1    5    5    0    0  0.35432562589E+02  0.63095471583E+02  0.33502958689E+02  0.79743045257E+02  0.00000000000E+00 0. -1.
        -14    1    5    5    0    0  0.17859894700E+02 -0.20660113310E+02 -0.20006968136E+02  0.33854023316E+02  0.00000000000E+00 0.  1.
          4    1    6    6  502    0  0.17356717142E+02  0.18999889377E+03 -0.37845123762E+03  0.42382328219E+03  0.00000000000E+00 0. -1.
         -3    1    6    6    0  502  0.19026839517E+03  0.56776539197E+03 -0.11499279882E+04  0.12964929543E+04  0.00000000000E+00 0.  1.
<mgrwt>
<rscale>  0 0.86725176E+03</rscale>
<asrwt>0</asrwt>
<pdfrwt beam="1">  1        1 0.37425662E+00 0.86725176E+03</pdfrwt>
<pdfrwt beam="2">  1       -2 0.60798294E-01 0.86725176E+03</pdfrwt>
<totfact> 0.34486630E+00</totfact>
</mgrwt>
</event>
<event>
12    3  0.2212098E-007  0.9219237E+03  0.7818608E-02  0.9398583E-01
          1   -1    0    0  501    0  0.00000000000E+00  0.00000000000E+00  0.12225262196E+04  0.12225262196E+04  0.00000000000E+00 0. -1.
         -2   -1    0    0    0  501 -0.00000000000E+00 -0.00000000000E+00 -0.13928576599E+04  0.13928576599E+04  0.00000000000E+00 0.  1.
        -24    2    1    2    0    0  0.83366289304E+03  0.10370120264E+03 -0.98735411144E+03  0.12988245970E+04  0.79557738014E+02 0.  0.
    5000000    2    1    2    0    0 -0.83366289304E+03 -0.10370120264E+03  0.81702267110E+03  0.13165592825E+04  0.60004544884E+03 0.  0.
        -24    2    4    4    0    0 -0.13112266362E+03  0.19461248742E+03  0.99899468334E+02  0.26644165895E+03  0.77097864285E+02 0.  0.
         24    2    4    4    0    0 -0.70254022942E+03 -0.29831369006E+03  0.71712320277E+03  0.10501176236E+04  0.76990283684E+02 0.  0.
         11    1    5    5    0    0 -0.99267756767E+02  0.11928348925E+03  0.10007226094E+03  0.18465398927E+03  0.00000000000E+00 0. -1.
        -12    1    5    5    0    0 -0.31854906854E+02  0.75328998166E+02 -0.17279260791E+00  0.81787669686E+02  0.00000000000E+00 0.  1.
         13    1    3    3    0    0  0.53639298573E+03  0.30411203703E+02 -0.64852880182E+03  0.84215906053E+03  0.00000000000E+00 0. -1.
        -14    1    3    3    0    0  0.29726990731E+03  0.73289998934E+02 -0.33882530962E+03  0.45666553644E+03  0.00000000000E+00 0.  1.
          2    1    6    6  502    0 -0.60228663755E+03 -0.26226056442E+03  0.65034515470E+03  0.92438012617E+03  0.00000000000E+00 0. -1.
         -1    1    6    6    0  502 -0.10025359187E+03 -0.36053125640E+02  0.66778048067E+02  0.12573749741E+03  0.00000000000E+00 0.  1.
<mgrwt>
<rscale>  0 0.92192372E+03</rscale>
<asrwt>0</asrwt>
<pdfrwt beam="1">  1        1 0.18808096E+00 0.92192372E+03</pdfrwt>
<pdfrwt beam="2">  1       -2 0.21428579E+00 0.92192372E+03</pdfrwt>
<totfact> 0.97887351E-01</totfact>
</mgrwt>
</event>
<event>
12    3  0.2212098E-007  0.5217814E+03  0.7818608E-02  0.1008245E+00
          1   -1    0    0  501    0  0.00000000000E+00  0.00000000000E+00  0.13791272524E+04  0.13791272524E+04  0.00000000000E+00 0. -1.
         -2   -1    0    0    0  501 -0.00000000000E+00 -0.00000000000E+00 -0.24802310522E+03  0.24802310522E+03  0.00000000000E+00 0.  1.
        -24    2    1    2    0    0 -0.30876266917E+03 -0.29068173179E+03  0.47840242477E+03  0.64431749331E+03  0.80286344291E+02 0.  0.
    5000000    2    1    2    0    0  0.30876266917E+03  0.29068173179E+03  0.65270172237E+03  0.98283286427E+03  0.60009219761E+03 0.  0.
        -24    2    4    4    0    0 -0.17453062871E+02  0.27081026644E+03  0.56960018820E+03  0.63602276331E+03  0.80235722977E+02 0.  0.
         24    2    4    4    0    0  0.32621573204E+03  0.19871465351E+02  0.83101534175E+02  0.34681010096E+03  0.80992605703E+02 0.  0.
         13    1    3    3    0    0 -0.14157535359E+03 -0.14185848727E+03  0.16733661912E+03  0.26109185214E+03  0.00000000000E+00 0. -1.
        -14    1    3    3    0    0 -0.16718731558E+03 -0.14882324452E+03  0.31106580565E+03  0.38322564116E+03  0.00000000000E+00 0.  1.
         13    1    5    5    0    0  0.25611817150E+01  0.26009587719E+03  0.51749757936E+03  0.57918923473E+03  0.00000000000E+00 0. -1.
        -14    1    5    5    0    0 -0.20014244586E+02  0.10714389251E+02  0.52102608835E+02  0.56833528580E+02  0.00000000000E+00 0.  1.
          2    1    6    6  502    0  0.14734898047E+03  0.48996843136E+02  0.32357364275E+02  0.15861718604E+03  0.00000000000E+00 0. -1.
         -1    1    6    6    0  502  0.17886675157E+03 -0.29125377785E+02  0.50744169900E+02  0.18819291492E+03  0.00000000000E+00 0.  1.
<mgrwt>
<rscale>  0 0.52178137E+03</rscale>
<asrwt>0</asrwt>
<pdfrwt beam="1">  1        1 0.21217342E+00 0.52178137E+03</pdfrwt>
<pdfrwt beam="2">  1       -2 0.38157402E-01 0.52178137E+03</pdfrwt>
<totfact> 0.47646455E+01</totfact>
</mgrwt>
</event>
<event>
12    3  0.2212098E-007  0.5464602E+03  0.7818608E-02  0.1002317E+00
          1   -1    0    0  501    0  0.00000000000E+00  0.00000000000E+00  0.99038377377E+03  0.99038377377E+03  0.00000000000E+00 0. -1.
         -2   -1    0    0    0  501 -0.00000000000E+00 -0.00000000000E+00 -0.36050238618E+03  0.36050238618E+03  0.00000000000E+00 0.  1.
        -24    2    1    2    0    0 -0.38861704816E+03 -0.69336642321E+01  0.47669640121E+03  0.62013334045E+03  0.79086125095E+02 0.  0.
    5000000    2    1    2    0    0  0.38861704816E+03  0.69336642321E+01  0.15318498638E+03  0.73075281950E+03  0.59955213062E+03 0.  0.
        -24    2    4    4    0    0  0.47724673263E+03  0.16608946643E+03  0.75194876825E+02  0.51701945756E+03  0.79402111601E+02 0.  0.
         24    2    4    4    0    0 -0.88629684463E+02 -0.15915580220E+03  0.77990109560E+02  0.21373336195E+03  0.80085594702E+02 0.  0.
         11    1    5    5    0    0  0.33573406710E+03  0.79487192316E+02  0.62449756285E+02  0.35062166164E+03  0.00000000000E+00 0. -1.
        -12    1    5    5    0    0  0.14151266553E+03  0.86602274116E+02  0.12745120540E+02  0.16639779591E+03  0.00000000000E+00 0.  1.
         13    1    3    3    0    0 -0.19914455537E+03 -0.22882612322E+02  0.29836310094E+03  0.35944778185E+03  0.00000000000E+00 0. -1.
        -14    1    3    3    0    0 -0.18947249280E+03  0.15948948090E+02  0.17833330027E+03  0.26068555859E+03  0.00000000000E+00 0.  1.
          2    1    6    6  502    0 -0.27966696744E+02 -0.10946773289E+03  0.16707810521E+02  0.11421239689E+03  0.00000000000E+00 0. -1.
         -1    1    6    6    0  502 -0.60662987719E+02 -0.49688069309E+02  0.61282299039E+02  0.99520965058E+02  0.00000000000E+00 0.  1.
<mgrwt>
<rscale>  0 0.54646021E+03</rscale>
<asrwt>0</asrwt>
<pdfrwt beam="1">  1        1 0.15236673E+00 0.54646021E+03</pdfrwt>
<pdfrwt beam="2">  1       -2 0.55461906E-01 0.54646021E+03</pdfrwt>
<totfact> 0.43053333E+01</totfact>
</mgrwt>
</event>
<event>
12    3  0.2212098E-007  0.1165160E+04  0.7818608E-02  0.9143911E-01
         -2   -1    0    0    0  501 -0.00000000000E+00  0.00000000000E+00  0.97907995309E+03  0.97907995309E+03  0.00000000000E+00 0.  1.
          1   -1    0    0  501    0  0.00000000000E+00 -0.00000000000E+00 -0.15985370170E+04  0.15985370170E+04  0.00000000000E+00 0. -1.
        -24    2    1    2    0    0 -0.22217520737E+03 -0.10875558745E+04 -0.69763978375E+03  0.13134020087E+04  0.78638194875E+02 0.  0.
    5000000    2    1    2    0    0  0.22217520737E+03  0.10875558745E+04  0.78182719817E+02  0.12642149614E+04  0.59998943978E+03 0.  0.
        -24    2    4    4    0    0  0.26407233730E+03  0.20468824231E+03  0.14840605168E+03  0.37410716843E+03  0.79374690077E+02 0.  0.
         24    2    4    4    0    0 -0.41897129925E+02  0.88286763223E+03 -0.70223331866E+02  0.89010779294E+03  0.78421560702E+02 0.  0.
         11    1    3    3    0    0 -0.76907214794E+02 -0.28496244937E+03 -0.22081599892E+03  0.36861636238E+03  0.00000000000E+00 0. -1.
        -12    1    3    3    0    0 -0.14526799258E+03 -0.80259342517E+03 -0.47682378483E+03  0.94478564636E+03  0.00000000000E+00 0.  1.
         13    1    5    5    0    0  0.75065233295E+02  0.75780739988E+02  0.10992816985E+02  0.10723036803E+03  0.00000000000E+00 0. -1.
        -14    1    5    5    0    0  0.18900710401E+03  0.12890750232E+03  0.13741323470E+03  0.26687680040E+03  0.00000000000E+00 0.  1.
          2    1    6    6  502    0 -0.24650414337E+02  0.69110028631E+03 -0.23304830101E+02  0.69193234045E+03  0.00000000000E+00 0. -1.
         -1    1    6    6    0  502 -0.17246715588E+02  0.19176734592E+03 -0.46918501765E+02  0.19817545249E+03  0.00000000000E+00 0.  1.
<mgrwt>
<rscale>  0 0.11651600E+04</rscale>
<asrwt>0</asrwt>
<pdfrwt beam="1">  1        1 0.24592877E+00 0.11651600E+04</pdfrwt>
<pdfrwt beam="2">  1       -2 0.15062769E+00 0.11651600E+04</pdfrwt>
<totfact> 0.14240613E+00</totfact>
</mgrwt>
</event>
<event>
12    3  0.2212098E-007  0.9645751E+03  0.7818608E-02  0.9348275E-01
          1   -1    0    0  501    0  0.00000000000E+00  0.00000000000E+00  0.64676627643E+03  0.64676627643E+03  0.00000000000E+00 0. -1.
         -2   -1    0    0    0  501 -0.00000000000E+00 -0.00000000000E+00 -0.15342771699E+04  0.15342771699E+04  0.00000000000E+00 0.  1.
        -24    2    1    2    0    0  0.82098083348E+03 -0.30636509088E+03 -0.64748774383E+03  0.10926180685E+04  0.81882643296E+02 0.  0.
    5000000    2    1    2    0    0 -0.82098083348E+03  0.30636509088E+03 -0.24002314964E+03  0.10884253779E+04  0.59932428031E+03 0.  0.
        -24    2    4    4    0    0 -0.49918096911E+03 -0.11908619998E+03 -0.15840346555E+03  0.54285713018E+03  0.78987612560E+02 0.  0.
         24    2    4    4    0    0 -0.32179986437E+03  0.42545129086E+03 -0.81619684085E+02  0.54556824769E+03  0.80118577437E+02 0.  0.
         11    1    5    5    0    0 -0.15818397219E+03 -0.26272647417E+02 -0.13557574744E+02  0.16092305270E+03  0.00000000000E+00 0. -1.
        -12    1    5    5    0    0 -0.34099699693E+03 -0.92813552562E+02 -0.14484589081E+03  0.38193407748E+03  0.00000000000E+00 0.  1.
         13    1    3    3    0    0  0.45649150743E+03 -0.15843285627E+03 -0.40528331272E+03  0.63066633798E+03  0.00000000000E+00 0. -1.
        -14    1    3    3    0    0  0.36448932606E+03 -0.14793223461E+03 -0.24220443111E+03  0.46195173048E+03  0.00000000000E+00 0.  1.
          4    1    6    6  502    0 -0.17962776787E+03  0.17467476948E+03 -0.50794212686E+02  0.25565105540E+03  0.00000000000E+00 0. -1.
         -3    1    6    6    0  502 -0.14217209650E+03  0.25077652138E+03 -0.30825471399E+02  0.28991719229E+03  0.00000000000E+00 0.  1.
<mgrwt>
<rscale>  0 0.96457511E+03</rscale>
<asrwt>0</asrwt>
<pdfrwt beam="1">  1        1 0.99502507E-01 0.96457511E+03</pdfrwt>
<pdfrwt beam="2">  1       -2 0.23604264E+00 0.96457511E+03</pdfrwt>
<totfact> 0.21166032E+00</totfact>
</mgrwt>
</event>
<event>
12    3  0.2212098E-007  0.9959714E+03  0.7818608E-02  0.9312974E-01
         -2   -1    0    0    0  501 -0.00000000000E+00  0.00000000000E+00  0.38960243228E+03  0.38960243228E+03  0.00000000000E+00 0.  1.
          1   -1    0    0  501    0  0.00000000000E+00 -0.00000000000E+00 -0.31791307139E+04  0.31791307139E+04  0.00000000000E+00 0. -1.
        -24    2    1    2    0    0  0.79793367270E+03  0.44747822200E+03 -0.53503338691E+03  0.10628118362E+04  0.79833381882E+02 0.  0.
    5000000    2    1    2    0    0 -0.79793367270E+03 -0.44747822200E+03 -0.22544948947E+04  0.25059213100E+04  0.59996622939E+03 0.  0.
        -24    2    4    4    0    0 -0.68289236456E+03 -0.57139564314E+03 -0.19961579807E+04  0.21873078031E+04  0.82666673538E+02 0.  0.
         24    2    4    4    0    0 -0.11504130814E+03  0.12391742114E+03 -0.25833691400E+03  0.31861350691E+03  0.78654788836E+02 0.  0.
         11    1    3    3    0    0  0.11919504082E+03  0.55022012427E+02 -0.47779299777E+02  0.13970590930E+03  0.00000000000E+00 0. -1.
        -12    1    3    3    0    0  0.67873863188E+03  0.39245620957E+03 -0.48725408714E+03  0.92310592690E+03  0.00000000000E+00 0.  1.
         13    1    5    5    0    0 -0.97653704639E+02 -0.11249602814E+03 -0.28705907971E+03  0.32341075681E+03  0.00000000000E+00 0. -1.
        -14    1    5    5    0    0 -0.58523865992E+03 -0.45889961501E+03 -0.17090989010E+04  0.18638970463E+04  0.00000000000E+00 0.  1.
          4    1    6    6  502    0 -0.10485619179E+03  0.63281560479E+02 -0.14613556003E+03  0.19066981607E+03  0.00000000000E+00 0. -1.
         -3    1    6    6    0  502 -0.10185116354E+02  0.60635860663E+02 -0.11220135397E+03  0.12794369084E+03  0.00000000000E+00 0.  1.
<mgrwt>
<rscale>  0 0.99597145E+03</rscale>
<asrwt>0</asrwt>
<pdfrwt beam="1">  1        1 0.48909707E+00 0.99597145E+03</pdfrwt>
<pdfrwt beam="2">  1       -2 0.59938831E-01 0.99597145E+03</pdfrwt>
<totfact> 0.10344573E+00</totfact>
</mgrwt>
</event>
<event>
12    3  0.2212098E-007  0.6501497E+03  0.7818608E-02  0.9806498E-01
          3   -1    0    0  501    0  0.00000000000E+00  0.00000000000E+00  0.16758982688E+04  0.16758982688E+04  0.00000000000E+00 0. -1.
         -4   -1    0    0    0  501 -0.00000000000E+00 -0.00000000000E+00 -0.33614156661E+03  0.33614156661E+03  0.00000000000E+00 0.  1.
        -24    2    1    2    0    0 -0.19592673328E+03 -0.54707786958E+03  0.24590851168E+03  0.63574689878E+03  0.77599246087E+02 0.  0.
    5000000    2    1    2    0    0  0.19592673328E+03  0.54707786958E+03  0.10938481905E+04  0.13762929366E+04  0.59999741944E+03 0.  0.
        -24    2    4    4    0    0  0.31647547668E+03  0.43756059212E+03  0.45153309550E+03  0.70900522306E+03  0.84795465035E+02 0.  0.
         24    2    4    4    0    0 -0.12054874340E+03  0.10951727746E+03  0.64231509498E+03  0.66728771354E+03  0.78601385507E+02 0.  0.
         11    1    5    5    0    0  0.24544621102E+03  0.38615061590E+03  0.39677664776E+03  0.60563012547E+03  0.00000000000E+00 0. -1.
        -12    1    5    5    0    0  0.71029265657E+02  0.51409976212E+02  0.54756447734E+02  0.10337509759E+03  0.00000000000E+00 0.  1.
         13    1    3    3    0    0 -0.84161695984E+02 -0.18683991265E+03  0.50933759945E+02  0.21115537391E+03  0.00000000000E+00 0. -1.
        -14    1    3    3    0    0 -0.11176503730E+03 -0.36023795693E+03  0.19497475173E+03  0.42459152486E+03  0.00000000000E+00 0.  1.
          2    1    6    6  502    0 -0.48367322444E+02  0.83004419160E+02  0.45057605020E+03  0.46070371010E+03  0.00000000000E+00 0. -1.
         -1    1    6    6    0  502 -0.72181420954E+02  0.26512858304E+02  0.19173904478E+03  0.20658400344E+03  0.00000000000E+00 0.  1.
<mgrwt>
<rscale>  0 0.65014966E+03</rscale>
<asrwt>0</asrwt>
<pdfrwt beam="1">  1        3 0.25783050E+00 0.65014966E+03</pdfrwt>
<pdfrwt beam="2">  1       -4 0.51714088E-01 0.65014966E+03</pdfrwt>
<totfact> 0.55204088E-01</totfact>
</mgrwt>
</event>
<event>
12    3  0.2212098E-007  0.8544628E+03  0.7818608E-02  0.9484367E-01
          1   -1    0    0  501    0  0.00000000000E+00  0.00000000000E+00  0.18575126250E+04  0.18575126250E+04  0.00000000000E+00 0. -1.
         -2   -1    0    0    0  501 -0.00000000000E+00 -0.00000000000E+00 -0.40617431096E+03  0.40617431096E+03  0.00000000000E+00 0.  1.
        -24    2    1    2    0    0 -0.23844700339E+03  0.72013058979E+03  0.73891362049E+03  0.10622167965E+04  0.82862201629E+02 0.  0.
    5000000    2    1    2    0    0  0.23844700339E+03 -0.72013058979E+03  0.71242469353E+03  0.12014701394E+04  0.60044692704E+03 0.  0.
        -24    2    4    4    0    0  0.18089549030E+03  0.29957506797E+02  0.76758757892E+02  0.21337448241E+03  0.77563729971E+02 0.  0.
         24    2    4    4    0    0  0.57551513092E+02 -0.75008809659E+03  0.63566593564E+03  0.98809565702E+03  0.79482805519E+02 0.  0.
         11    1    5    5    0    0  0.15683367983E+03  0.29715750328E+01  0.40143959351E+02  0.16191717284E+03  0.00000000000E+00 0. -1.
        -12    1    5    5    0    0  0.24061810465E+02  0.26985931764E+02  0.36614798541E+02  0.51457309571E+02  0.00000000000E+00 0.  1.
         11    1    3    3    0    0 -0.45864818807E+02  0.64647169315E+02  0.90606053463E+02  0.12038394839E+03  0.00000000000E+00 0. -1.
        -12    1    3    3    0    0 -0.19258218458E+03  0.65548342048E+03  0.64830756702E+03  0.94183284812E+03  0.00000000000E+00 0.  1.
          4    1    6    6  502    0  0.53925325753E+02 -0.43276700780E+03  0.41112097521E+03  0.59934604366E+03  0.00000000000E+00 0. -1.
         -3    1    6    6    0  502  0.36261873390E+01 -0.31732108880E+03  0.22454496043E+03  0.38874961335E+03  0.00000000000E+00 0.  1.
<mgrwt>
<rscale>  0 0.85446278E+03</rscale>
<asrwt>0</asrwt>
<pdfrwt beam="1">  1        1 0.28577117E+00 0.85446278E+03</pdfrwt>
<pdfrwt beam="2">  1       -2 0.62488357E-01 0.85446278E+03</pdfrwt>
<totfact> 0.79552369E+00</totfact>
</mgrwt>
</event>
<event>
12    3  0.2212098E-007  0.1276993E+04  0.7818608E-02  0.9048012E-01
         -2   -1    0    0    0  501 -0.00000000000E+00  0.00000000000E+00  0.15045095328E+04  0.15045095328E+04  0.00000000000E+00 0.  1.
          1   -1    0    0  501    0  0.00000000000E+00 -0.00000000000E+00 -0.13435802337E+04  0.13435802337E+04  0.00000000000E+00 0. -1.
        -24    2    1    2    0    0  0.93196827498E+03  0.84971331802E+03  0.57950788274E+03  0.13900758421E+04  0.76836660188E+02 0.  0.
    5000000    2    1    2    0    0 -0.93196827498E+03 -0.84971331802E+03 -0.41857858366E+03  0.14580139243E+04  0.60001582007E+03 0.  0.
        -24    2    4    4    0    0 -0.39022888262E+03 -0.21383932070E+03 -0.42166971466E+03  0.61835995409E+03  0.80980544899E+02 0.  0.
         24    2    4    4    0    0 -0.54173939237E+03 -0.63587399733E+03  0.30911309938E+01  0.83965397021E+03  0.84805217297E+02 0.  0.
         11    1    5    5    0    0 -0.54748912912E+02 -0.65290390100E+02 -0.72703559097E+02  0.11200931216E+03  0.00000000000E+00 0. -1.
        -12    1    5    5    0    0 -0.33547996970E+03 -0.14854893060E+03 -0.34896615556E+03  0.50635064193E+03  0.00000000000E+00 0.  1.
         13    1    3    3    0    0  0.13994326699E+03  0.10341693578E+03  0.10183642095E+03  0.20161804784E+03  0.00000000000E+00 0. -1.
        -14    1    3    3    0    0  0.79202500799E+03  0.74629638224E+03  0.47767146179E+03  0.11884577943E+04  0.00000000000E+00 0.  1.
          2    1    6    6  502    0 -0.25641516719E+03 -0.36610910132E+03 -0.78349405268E+00  0.44697340625E+03  0.00000000000E+00 0. -1.
         -1    1    6    6    0  502 -0.28532422518E+03 -0.26976489601E+03  0.38746250465E+01  0.39268056396E+03  0.00000000000E+00 0.  1.
<mgrwt>
<rscale>  0 0.12769929E+04</rscale>
<asrwt>0</asrwt>
<pdfrwt beam="1">  1        1 0.20670465E+00 0.12769929E+04</pdfrwt>
<pdfrwt beam="2">  1       -2 0.23146301E+00 0.12769929E+04</pdfrwt>
<totfact> 0.59719329E-01</totfact>
</mgrwt>
</event>
<event>
12    3  0.2212098E-007  0.3796939E+03  0.7818608E-02  0.1051047E+00
          1   -1    0    0  501    0  0.00000000000E+00  0.00000000000E+00  0.24281565647E+04  0.24281565647E+04  0.00000000000E+00 0. -1.
         -2   -1    0    0    0  501 -0.00000000000E+00 -0.00000000000E+00 -0.11159142011E+03  0.11159142011E+03  0.00000000000E+00 0.  1.
        -24    2    1    2    0    0  0.21298670070E+03  0.69077319052E+02  0.14113277531E+04  0.14312337836E+04  0.80306325265E+02 0.  0.
    5000000    2    1    2    0    0 -0.21298670070E+03 -0.69077319052E+02  0.90523739150E+03  0.11085142013E+04  0.59934463269E+03 0.  0.
        -24    2    4    4    0    0 -0.17985172616E+03  0.19282896366E+03  0.73478642207E+03  0.78468206635E+03  0.79279294664E+02 0.  0.
         24    2    4    4    0    0 -0.33134974535E+02 -0.26190628271E+03  0.17045096944E+03  0.32383213491E+03  0.78236124384E+02 0.  0.
         11    1    5    5    0    0 -0.10855411551E+03  0.10814605829E+03  0.31133695288E+03  0.34700182153E+03  0.00000000000E+00 0. -1.
        -12    1    5    5    0    0 -0.71297610649E+02  0.84682905374E+02  0.42344946918E+03  0.43768024481E+03  0.00000000000E+00 0.  1.
         13    1    3    3    0    0  0.11447585880E+03  0.39362274308E+02  0.99692771368E+03  0.10042504554E+04  0.00000000000E+00 0. -1.
        -14    1    3    3    0    0  0.98510841892E+02  0.29715044744E+02  0.41440003942E+03  0.42698332816E+03  0.00000000000E+00 0.  1.
          2    1    6    6  502    0 -0.51602988784E+02 -0.16585243817E+03  0.13427236845E+03  0.21954263510E+03  0.00000000000E+00 0. -1.
         -1    1    6    6    0  502  0.18468014248E+02 -0.96053844542E+02  0.36178600989E+02  0.10428949981E+03  0.00000000000E+00 0.  1.
<mgrwt>
<rscale>  0 0.37969388E+03</rscale>
<asrwt>0</asrwt>
<pdfrwt beam="1">  1        1 0.37356251E+00 0.37969388E+03</pdfrwt>
<pdfrwt beam="2">  1       -2 0.17167913E-01 0.37969388E+03</pdfrwt>
<totfact> 0.41318470E+01</totfact>
</mgrwt>
</event>
<event>
12    3  0.2212098E-007  0.3325057E+03  0.7818608E-02  0.1070034E+00
          1   -1    0    0  501    0  0.00000000000E+00  0.00000000000E+00  0.83966208994E+03  0.83966208994E+03  0.00000000000E+00 0. -1.
         -2   -1    0    0    0  501 -0.00000000000E+00 -0.00000000000E+00 -0.25672436828E+03  0.25672436828E+03  0.00000000000E+00 0.  1.
        -24    2    1    2    0    0 -0.13685675929E+03 -0.38174758816E+02  0.43194502172E+03  0.46153660108E+03  0.79072419797E+02 0.  0.
    5000000    2    1    2    0    0  0.13685675929E+03  0.38174758816E+02  0.15099269994E+03  0.63484985715E+03  0.60004038274E+03 0.  0.
        -24    2    4    4    0    0  0.31245722610E+03  0.10833352945E+02 -0.80461810945E+02  0.33270878195E+03  0.80462108395E+02 0.  0.
         24    2    4    4    0    0 -0.17560046681E+03  0.27341405871E+02  0.23145451089E+03  0.30214107521E+03  0.78326000140E+02 0.  0.
         13    1    3    3    0    0 -0.13325353875E+03 -0.15751694814E+02  0.31469786977E+03  0.34211017336E+03  0.00000000000E+00 0. -1.
        -14    1    3    3    0    0 -0.36032205424E+01 -0.22423064002E+02  0.11724715194E+03  0.11942642771E+03  0.00000000000E+00 0.  1.
         13    1    5    5    0    0  0.14446977377E+03  0.19057049478E+02 -0.76255449245E+02  0.16446756582E+03  0.00000000000E+00 0. -1.
        -14    1    5    5    0    0  0.16798745233E+03 -0.82236965336E+01 -0.42063616993E+01  0.16824121612E+03  0.00000000000E+00 0.  1.
          4    1    6    6  502    0 -0.17396722616E+03  0.73195040638E+01  0.20790597263E+03  0.27118824527E+03  0.00000000000E+00 0. -1.
         -3    1    6    6    0  502 -0.16332406501E+01  0.20021901807E+02  0.23548538256E+02  0.30952829935E+02  0.00000000000E+00 0.  1.
<mgrwt>
<rscale>  0 0.33250573E+03</rscale>
<asrwt>0</asrwt>
<pdfrwt beam="1">  1        1 0.12917878E+00 0.33250573E+03</pdfrwt>
<pdfrwt beam="2">  1       -2 0.39496057E-01 0.33250573E+03</pdfrwt>
<totfact> 0.11482887E+02</totfact>
</mgrwt>
</event>
<event>
12    3  0.2212098E-007  0.3726951E+03  0.7818608E-02  0.1053667E+00
          1   -1    0    0  501    0  0.00000000000E+00  0.00000000000E+00  0.10699665134E+03  0.10699665134E+03  0.00000000000E+00 0. -1.
         -2   -1    0    0    0  501 -0.00000000000E+00 -0.00000000000E+00 -0.16076481474E+04  0.16076481474E+04  0.00000000000E+00 0.  1.
        -24    2    1    2    0    0 -0.12417241518E+03  0.13272130345E+03 -0.43269256107E+03  0.47629314170E+03  0.81231590822E+02 0.  0.
    5000000    2    1    2    0    0  0.12417241518E+03 -0.13272130345E+03 -0.10679589350E+04  0.12383516571E+04  0.59995400372E+03 0.  0.
        -24    2    4    4    0    0 -0.15115254798E+03  0.10004683144E+03 -0.14776483049E+03  0.24702176818E+03  0.79554054445E+02 0.  0.
         24    2    4    4    0    0  0.27532496316E+03 -0.23276813489E+03 -0.92019410453E+03  0.99132988889E+03  0.77413943400E+02 0.  0.
         13    1    5    5    0    0 -0.32678347890E+01  0.30618826196E+02 -0.43205955693E+02  0.53056063454E+02  0.00000000000E+00 0. -1.
        -14    1    5    5    0    0 -0.14788471319E+03  0.69428005248E+02 -0.10455887480E+03  0.19396570472E+03  0.00000000000E+00 0.  1.
         13    1    3    3    0    0 -0.11482224064E+03  0.87952321092E+02 -0.25867043821E+03  0.29636152472E+03  0.00000000000E+00 0. -1.
        -14    1    3    3    0    0 -0.93501745398E+01  0.44768982356E+02 -0.17402212286E+03  0.17993161699E+03  0.00000000000E+00 0.  1.
          2    1    6    6  502    0  0.10152090735E+03 -0.95524661528E+02 -0.45937215038E+03  0.48005648432E+03  0.00000000000E+00 0. -1.
         -1    1    6    6    0  502  0.17380405581E+03 -0.13724347336E+03 -0.46082195415E+03  0.51127340457E+03  0.00000000000E+00 0.  1.
<mgrwt>
<rscale>  0 0.37269509E+03</rscale>
<asrwt>0</asrwt>
<pdfrwt beam="1">  1        1 0.16461025E-01 0.37269509E+03</pdfrwt>
<pdfrwt beam="2">  1       -2 0.24733046E+00 0.37269509E+03</pdfrwt>
<totfact> 0.21192192E+01</totfact>
</mgrwt>
</event>
<event>
12    3  0.2212098E-007  0.5104903E+03  0.7818608E-02  0.1011076E+00
         -2   -1    0    0    0  501 -0.00000000000E+00  0.00000000000E+00  0.12203340350E+04  0.12203340350E+04  0.00000000000E+00 0.  1.
          1   -1    0    0  501    0  0.00000000000E+00 -0.00000000000E+00 -0.26085833341E+03  0.26085833341E+03  0.00000000000E+00 0. -1.
        -24    2    1    2    0    0 -0.95492903965E+02  0.37546813352E+03  0.21714447923E+03  0.45107538245E+03  0.78880046890E+02 0.  0.
    5000000    2    1    2    0    0  0.95492903965E+02 -0.37546813352E+03  0.74233122236E+03  0.10301169860E+04  0.59999178916E+03 0.  0.
        -24    2    4    4    0    0 -0.19413594993E+03 -0.13541535022E+03  0.76492046867E+02  0.26097207804E+03  0.78925966282E+02 0.  0.
         24    2    4    4    0    0  0.28962885390E+03 -0.24005278330E+03  0.66583917549E+03  0.76914490791E+03  0.82047973527E+02 0.  0.
         11    1    5    5    0    0 -0.12503622978E+03 -0.40144334729E+02  0.48542504214E+02  0.14000714655E+03  0.00000000000E+00 0. -1.
        -12    1    5    5    0    0 -0.69099720149E+02 -0.95271015491E+02  0.27949542653E+02  0.12096493150E+03  0.00000000000E+00 0.  1.
         13    1    3    3    0    0 -0.76932748104E+02  0.14723663379E+03  0.83238261254E+02  0.18581141568E+03  0.00000000000E+00 0. -1.
        -14    1    3    3    0    0 -0.18560155862E+02  0.22823149973E+03  0.13390621798E+03  0.26526396677E+03  0.00000000000E+00 0.  1.
          2    1    6    6  502    0  0.13064786049E+03 -0.93763388655E+02  0.20820794534E+03  0.26307980730E+03  0.00000000000E+00 0. -1.
         -1    1    6    6    0  502  0.15898099341E+03 -0.14628939465E+03  0.45763123015E+03  0.50606510061E+03  0.00000000000E+00 0.  1.
<mgrwt>
<rscale>  0 0.51049027E+03</rscale>
<asrwt>0</asrwt>
<pdfrwt beam="1">  1        1 0.40132052E-01 0.51049027E+03</pdfrwt>
<pdfrwt beam="2">  1       -2 0.18774369E+00 0.51049027E+03</pdfrwt>
<totfact> 0.15412975E+01</totfact>
</mgrwt>
</event>
<event>
12    3  0.3152194E-007  0.1166394E+04  0.7818608E-02  0.9142791E-01
         -2   -1    0    0    0  501 -0.00000000000E+00  0.00000000000E+00  0.17968039011E+04  0.17968039011E+04  0.00000000000E+00 0.  1.
          1   -1    0    0  501    0  0.00000000000E+00 -0.00000000000E+00 -0.91422316603E+03  0.91422316603E+03  0.00000000000E+00 0. -1.
        -24    2    1    2    0    0 -0.68994640975E+03  0.87140657679E+03  0.92373327040E+03  0.14473817951E+04  0.79091311714E+02 0.  0.
    5000000    2    1    2    0    0  0.68994640975E+03 -0.87140657679E+03 -0.41152535335E+02  0.12636452720E+04  0.59977526784E+03 0.  0.
        -24    2    4    4    0    0  0.11300324559E+03 -0.53863129569E+03 -0.16845697073E+03  0.58103151263E+03  0.79539056270E+02 0.  0.
         24    2    4    4    0    0  0.57694316417E+03 -0.33277528110E+03  0.12730443539E+03  0.68261375938E+03  0.78436744162E+02 0.  0.
         13    1    5    5    0    0  0.57506962274E+02 -0.34773228233E+03 -0.70626505652E+02  0.35946195096E+03  0.00000000000E+00 0. -1.
        -14    1    5    5    0    0  0.55496283312E+02 -0.19089901336E+03 -0.97830465076E+02  0.22156956167E+03  0.00000000000E+00 0.  1.
         13    1    3    3    0    0 -0.32835078653E+03  0.44515431781E+03  0.50458234045E+03  0.74871886845E+03  0.00000000000E+00 0. -1.
        -14    1    3    3    0    0 -0.36159562323E+03  0.42625225898E+03  0.41915092994E+03  0.69866292666E+03  0.00000000000E+00 0.  1.
          4    1    6    6  502    0  0.41718799243E+03 -0.27433884543E+03  0.11279266811E+03  0.51188847331E+03  0.00000000000E+00 0. -1.
         -3    1    6    6    0  502  0.15975517174E+03 -0.58436435672E+02  0.14511767288E+02  0.17072528607E+03  0.00000000000E+00 0.  1.
<mgrwt>
<rscale>  0 0.11663945E+04</rscale>
<asrwt>0</asrwt>
<pdfrwt beam="1">  1        1 0.14064972E+00 0.11663945E+04</pdfrwt>
<pdfrwt beam="2">  1       -2 0.27643137E+00 0.11663945E+04</pdfrwt>
<totfact> 0.67634508E-01</totfact>
</mgrwt>
</event>
<event>
12    3  0.2212098E-007  0.9984840E+03  0.7818608E-02  0.9310209E-01
         -2   -1    0    0    0  501 -0.00000000000E+00  0.00000000000E+00  0.14160208035E+04  0.14160208035E+04  0.00000000000E+00 0.  1.
          1   -1    0    0  501    0  0.00000000000E+00 -0.00000000000E+00 -0.10855204449E+04  0.10855204449E+04  0.00000000000E+00 0. -1.
        -24    2    1    2    0    0  0.78611006166E+03 -0.45931685038E+03  0.88991115871E+03  0.12760298802E+04  0.85845131634E+02 0.  0.
    5000000    2    1    2    0    0 -0.78611006166E+03  0.45931685038E+03 -0.55941080008E+03  0.12255113683E+04  0.59999722699E+03 0.  0.
        -24    2    4    4    0    0 -0.38282597657E+03  0.54208132384E+03 -0.38267839495E+03  0.77028112884E+03  0.80513188300E+02 0.  0.
         24    2    4    4    0    0 -0.40328408509E+03 -0.82764473461E+02 -0.17673240513E+03  0.45523023942E+03  0.80698305444E+02 0.  0.
         11    1    3    3    0    0  0.45180869979E+03 -0.31085037535E+03  0.54976080355E+03  0.77652816960E+03  0.00000000000E+00 0. -1.
        -12    1    3    3    0    0  0.33430136187E+03 -0.14846647503E+03  0.34015035516E+03  0.49950171058E+03  0.00000000000E+00 0.  1.
         13    1    5    5    0    0 -0.16528600123E+03  0.24969009968E+03 -0.21784292537E+03  0.37029737808E+03  0.00000000000E+00 0. -1.
        -14    1    5    5    0    0 -0.21753997534E+03  0.29239122416E+03 -0.16483546958E+03  0.39998375076E+03  0.00000000000E+00 0.  1.
          2    1    6    6  502    0 -0.27831796828E+03 -0.19978192069E+02 -0.12947101129E+03  0.30760813122E+03  0.00000000000E+00 0. -1.
         -3    1    6    6    0  502 -0.12496611681E+03 -0.62786281392E+02 -0.47261393839E+02  0.14762210820E+03  0.00000000000E+00 0.  1.
<mgrwt>
<rscale>  0 0.99848396E+03</rscale>
<asrwt>0</asrwt>
<pdfrwt beam="1">  1        1 0.16700315E+00 0.99848396E+03</pdfrwt>
<pdfrwt beam="2">  1       -2 0.21784935E+00 0.99848396E+03</pdfrwt>
<totfact> 0.11609811E+00</totfact>
</mgrwt>
</event>
<event>
12    3  0.2212098E-007  0.3700790E+03  0.7818608E-02  0.1054663E+00
         -2   -1    0    0    0  501 -0.00000000000E+00  0.00000000000E+00  0.11657936199E+03  0.11657936199E+03  0.00000000000E+00 0.  1.
          1   -1    0    0  501    0  0.00000000000E+00 -0.00000000000E+00 -0.16807715961E+04  0.16807715961E+04  0.00000000000E+00 0. -1.
        -24    2    1    2    0    0  0.38181029208E+02 -0.17693518870E+03 -0.71516407648E+03  0.74205851385E+03  0.80170628603E+02 0.  0.
    5000000    2    1    2    0    0 -0.38181029208E+02  0.17693518870E+03 -0.84902815763E+03  0.10552924442E+04  0.60002456485E+03 0.  0.
        -24    2    4    4    0    0  0.43374555871E+02 -0.16719336343E+03 -0.56118128617E+03  0.59234672884E+03  0.78199989403E+02 0.  0.
         24    2    4    4    0    0 -0.81555585079E+02  0.34412855214E+03 -0.28784687145E+03  0.46294571540E+03  0.79919585483E+02 0.  0.
         11    1    3    3    0    0  0.17752221502E+01 -0.12796476824E+03 -0.57695686182E+03  0.59097999435E+03  0.00000000000E+00 0. -1.
        -12    1    3    3    0    0  0.36405807058E+02 -0.48970420468E+02 -0.13820721466E+03  0.15107851950E+03  0.00000000000E+00 0.  1.
         13    1    5    5    0    0  0.56762663851E+02 -0.64971410517E+02 -0.27044350447E+03  0.28387140275E+03  0.00000000000E+00 0. -1.
        -14    1    5    5    0    0 -0.13388107980E+02 -0.10222195292E+03 -0.29073778171E+03  0.30847532609E+03  0.00000000000E+00 0.  1.
          2    1    6    6  502    0 -0.92627702688E+02  0.24295505562E+03 -0.22031308648E+03  0.34080039089E+03  0.00000000000E+00 0. -1.
         -1    1    6    6    0  502  0.11072117609E+02  0.10117349651E+03 -0.67533784980E+02  0.12214532451E+03  0.00000000000E+00 0.  1.
<mgrwt>
<rscale>  0 0.37007898E+03</rscale>
<asrwt>0</asrwt>
<pdfrwt beam="1">  1        1 0.25858022E+00 0.37007898E+03</pdfrwt>
<pdfrwt beam="2">  1       -2 0.17935288E-01 0.37007898E+03</pdfrwt>
<totfact> 0.11948463E+02</totfact>
</mgrwt>
</event>
<event>
12    3  0.2413800E-007  0.1456568E+04  0.7818608E-02  0.8913860E-01
          1   -1    0    0  501    0  0.00000000000E+00  0.00000000000E+00  0.13051015223E+04  0.13051015223E+04  0.00000000000E+00 0. -1.
         -2   -1    0    0    0  501 -0.00000000000E+00 -0.00000000000E+00 -0.19295485133E+04  0.19295485133E+04  0.00000000000E+00 0.  1.
        -24    2    1    2    0    0 -0.12201785672E+04 -0.70297392455E+03  0.30589376015E+03  0.14431935142E+04  0.78920544005E+02 0.  0.
    5000000    2    1    2    0    0  0.12201785672E+04  0.70297392455E+03 -0.93034075115E+03  0.17914565214E+04  0.60064505342E+03 0.  0.
        -24    2    4    4    0    0  0.89664627740E+03  0.75706646120E+03 -0.83020997827E+03  0.14394153725E+04  0.74456920565E+02 0.  0.
         24    2    4    4    0    0  0.32353228984E+03 -0.54092536647E+02 -0.10013077287E+03  0.35204114891E+03  0.79420738873E+02 0.  0.
         11    1    3    3    0    0 -0.58401839573E+03 -0.35612556394E+03  0.18495995435E+03  0.70859938509E+03  0.00000000000E+00 0. -1.
        -12    1    3    3    0    0 -0.63616017150E+03 -0.34684836061E+03  0.12093380580E+03  0.73459412906E+03  0.00000000000E+00 0.  1.
         11    1    5    5    0    0  0.30465205323E+03  0.23447033073E+03 -0.30937432319E+03  0.49345889532E+03  0.00000000000E+00 0. -1.
        -12    1    5    5    0    0  0.59199422417E+03  0.52259613047E+03 -0.52083565508E+03  0.94595647714E+03  0.00000000000E+00 0.  1.
          2    1    6    6  502    0  0.13569260277E+03 -0.42697088930E+02 -0.78885891879E+02  0.16266071372E+03  0.00000000000E+00 0. -1.
         -1    1    6    6    0  502  0.18783968707E+03 -0.11395447717E+02 -0.21244880994E+02  0.18938043519E+03  0.00000000000E+00 0.  1.
<mgrwt>
<rscale>  0 0.14565682E+04</rscale>
<asrwt>0</asrwt>
<pdfrwt beam="1">  1        1 0.20078485E+00 0.14565682E+04</pdfrwt>
<pdfrwt beam="2">  1       -2 0.29685362E+00 0.14565682E+04</pdfrwt>
<totfact> 0.24801151E-01</totfact>
</mgrwt>
</event>
<event>
12    3  0.2212098E-007  0.7158485E+03  0.7818608E-02  0.9690506E-01
          1   -1    0    0  501    0  0.00000000000E+00  0.00000000000E+00  0.18945371813E+04  0.18945371813E+04  0.00000000000E+00 0. -1.
         -2   -1    0    0    0  501 -0.00000000000E+00 -0.00000000000E+00 -0.34918332298E+03  0.34918332298E+03  0.00000000000E+00 0.  1.
        -24    2    1    2    0    0  0.49637629912E+03 -0.46978545582E+03  0.46034503164E+03  0.82800783248E+03  0.81188777904E+02 0.  0.
    5000000    2    1    2    0    0 -0.49637629912E+03  0.46978545582E+03  0.10850088267E+04  0.14157126718E+04  0.59992533726E+03 0.  0.
        -24    2    4    4    0    0 -0.30541499419E+03  0.10367645108E+03  0.10690504059E+03  0.35105801970E+03  0.88237862083E+02 0.  0.
         24    2    4    4    0    0 -0.19096130493E+03  0.36610900474E+03  0.97810378611E+03  0.10646546521E+04  0.79375616743E+02 0.  0.
         11    1    5    5    0    0 -0.11517731316E+03  0.53799296499E+02 -0.18774588896E+00  0.12712282651E+03  0.00000000000E+00 0. -1.
        -12    1    5    5    0    0 -0.19023768103E+03  0.49877154581E+02  0.10709278648E+03  0.22393519319E+03  0.00000000000E+00 0.  1.
         13    1    3    3    0    0  0.46861473213E+03 -0.41477262365E+03  0.43016603257E+03  0.75939377932E+03  0.00000000000E+00 0. -1.
        -14    1    3    3    0    0  0.27761566995E+02 -0.55012832172E+02  0.30178999067E+02  0.68614053154E+02  0.00000000000E+00 0.  1.
          4    1    6    6  502    0 -0.17635066205E+03  0.26497842245E+03  0.73935240421E+03  0.80495658143E+03  0.00000000000E+00 0. -1.
         -3    1    6    6    0  502 -0.14610642875E+02  0.10113058229E+03  0.23875138190E+03  0.25969807069E+03  0.00000000000E+00 0.  1.
<mgrwt>
<rscale>  0 0.71584853E+03</rscale>
<asrwt>0</asrwt>
<pdfrwt beam="1">  1        1 0.29146725E+00 0.71584853E+03</pdfrwt>
<pdfrwt beam="2">  1       -2 0.53720512E-01 0.71584853E+03</pdfrwt>
<totfact> 0.10520446E+01</totfact>
</mgrwt>
</event>
<event>
12    3  0.2212098E-007  0.2148564E+04  0.7818608E-02  0.8540147E-01
          1   -1    0    0  501    0  0.00000000000E+00  0.00000000000E+00  0.15166423940E+04  0.15166423940E+04  0.00000000000E+00 0. -1.
         -2   -1    0    0    0  501 -0.00000000000E+00 -0.00000000000E+00 -0.30876520073E+04  0.30876520073E+04  0.00000000000E+00 0.  1.
        -24    2    1    2    0    0  0.64561625347E+03 -0.20098212269E+04 -0.99644381588E+03  0.23356873564E+04  0.79582898724E+02 0.  0.
    5000000    2    1    2    0    0 -0.64561625347E+03  0.20098212269E+04 -0.57456579737E+03  0.22686070449E+04  0.60020859526E+03 0.  0.
        -24    2    4    4    0    0 -0.94152880389E+01  0.92837451767E+03 -0.32478756837E+03  0.98685978011E+03  0.80233212176E+02 0.  0.
         24    2    4    4    0    0 -0.63620096543E+03  0.10814467092E+04 -0.24977822901E+03  0.12817472648E+04  0.78792345974E+02 0.  0.
         11    1    3    3    0    0  0.24551211577E+03 -0.86439339354E+03 -0.39669232970E+03  0.98225095684E+03  0.00000000000E+00 0. -1.
        -12    1    3    3    0    0  0.40010413770E+03 -0.11454278334E+04 -0.59975148618E+03  0.13534363995E+04  0.00000000000E+00 0.  1.
         11    1    5    5    0    0 -0.16326888268E+02  0.73149264053E+03 -0.22176054219E+03  0.76454286244E+03  0.00000000000E+00 0. -1.
        -12    1    5    5    0    0  0.69116002289E+01  0.19688187714E+03 -0.10302702617E+03  0.22231691768E+03  0.00000000000E+00 0.  1.
          4    1    6    6  502    0 -0.49951028751E+03  0.90095844816E+03 -0.18943255584E+03  0.10474356046E+04  0.00000000000E+00 0. -1.
         -3    1    6    6    0  502 -0.13669067791E+03  0.18048826106E+03 -0.60345673166E+02  0.23431166014E+03  0.00000000000E+00 0.  1.
<mgrwt>
<rscale>  0 0.21485644E+04</rscale>
<asrwt>0</asrwt>
<pdfrwt beam="1">  1        1 0.23332960E+00 0.21485644E+04</pdfrwt>
<pdfrwt beam="2">  1       -2 0.47502338E+00 0.21485644E+04</pdfrwt>
<totfact> 0.11611313E-02</totfact>
</mgrwt>
</event>
<event>
12    3  0.2212098E-007  0.6678872E+03  0.7818608E-02  0.9773782E-01
          1   -1    0    0  501    0  0.00000000000E+00  0.00000000000E+00  0.12952322137E+04  0.12952322137E+04  0.00000000000E+00 0. -1.
         -2   -1    0    0    0  501 -0.00000000000E+00 -0.00000000000E+00 -0.47372481755E+03  0.47372481755E+03  0.00000000000E+00 0.  1.
        -24    2    1    2    0    0  0.29277782395E+03  0.58989400393E+03  0.46074140396E+03  0.80789542910E+03  0.81967023693E+02 0.  0.
    5000000    2    1    2    0    0 -0.29277782395E+03 -0.58989400393E+03  0.36076599223E+03  0.96106160219E+03  0.59982790196E+03 0.  0.
        -24    2    4    4    0    0 -0.19855343904E+03 -0.32924049095E+03 -0.11058257524E+03  0.40848980671E+03  0.82538761819E+02 0.  0.
         24    2    4    4    0    0 -0.94224384912E+02 -0.26065351298E+03  0.47134856747E+03  0.55257179548E+03  0.79672006110E+02 0.  0.
         11    1    3    3    0    0  0.17881555708E+03  0.36078668319E+03  0.32958987328E+03  0.52035710698E+03  0.00000000000E+00 0. -1.
        -12    1    3    3    0    0  0.11396226686E+03  0.22910732074E+03  0.13115153068E+03  0.28753832212E+03  0.00000000000E+00 0.  1.
         11    1    5    5    0    0 -0.20012960946E+03 -0.33296036609E+03 -0.10664742628E+03  0.40285002111E+03  0.00000000000E+00 0. -1.
        -12    1    5    5    0    0  0.15761704265E+01  0.37198751428E+01 -0.39351489607E+01  0.56397856018E+01  0.00000000000E+00 0.  1.
          2    1    6    6  502    0 -0.72068479753E+02 -0.24988228542E+03  0.40019927929E+03  0.47727820554E+03  0.00000000000E+00 0. -1.
         -1    1    6    6    0  502 -0.22155905159E+02 -0.10771227561E+02  0.71149288184E+02  0.75293589937E+02  0.00000000000E+00 0.  1.
<mgrwt>
<rscale>  0 0.66788718E+03</rscale>
<asrwt>0</asrwt>
<pdfrwt beam="1">  1        1 0.19926649E+00 0.66788718E+03</pdfrwt>
<pdfrwt beam="2">  1       -2 0.72880742E-01 0.66788718E+03</pdfrwt>
<totfact> 0.14140918E+01</totfact>
</mgrwt>
</event>
<event>
12    3  0.2212098E-007  0.3408802E+03  0.7818608E-02  0.1066422E+00
         -2   -1    0    0    0  501 -0.00000000000E+00  0.00000000000E+00  0.21686472843E+03  0.21686472843E+03  0.00000000000E+00 0.  1.
          1   -1    0    0  501    0  0.00000000000E+00 -0.00000000000E+00 -0.97560837031E+03  0.97560837031E+03  0.00000000000E+00 0. -1.
        -24    2    1    2    0    0 -0.10848590766E+03  0.12651463747E+03  0.34423485744E+02  0.18393964912E+03  0.69811693104E+02 0.  0.
    5000000    2    1    2    0    0  0.10848590766E+03 -0.12651463747E+03 -0.79316712763E+03  0.10085334496E+04  0.60020869788E+03 0.  0.
        -24    2    4    4    0    0  0.13912600033E+00 -0.30194716128E+03 -0.18916975926E+03  0.36499231140E+03  0.79133317931E+02 0.  0.
         24    2    4    4    0    0  0.10834678166E+03  0.17543252381E+03 -0.60399736837E+03  0.64354113822E+03  0.82563794026E+02 0.  0.
         11    1    3    3    0    0 -0.51043062337E+02  0.36224101624E+02 -0.17504002117E+02  0.64992075220E+02  0.00000000000E+00 0. -1.
        -12    1    3    3    0    0 -0.57442845319E+02  0.90290535845E+02  0.51927487861E+02  0.11894757390E+03  0.00000000000E+00 0.  1.
         11    1    5    5    0    0  0.76555465504E+01 -0.16662747599E+03 -0.14893480985E+03  0.22361775585E+03  0.00000000000E+00 0. -1.
        -12    1    5    5    0    0 -0.75164205501E+01 -0.13531968528E+03 -0.40234949415E+02  0.14137455555E+03  0.00000000000E+00 0.  1.
          4    1    6    6  502    0  0.74994674855E+02  0.84562318509E+02 -0.42809218005E+03  0.44276167584E+03  0.00000000000E+00 0. -1.
         -3    1    6    6    0  502  0.33352106801E+02  0.90870205298E+02 -0.17590518831E+03  0.20077946238E+03  0.00000000000E+00 0.  1.
<mgrwt>
<rscale>  0 0.34088020E+03</rscale>
<asrwt>0</asrwt>
<pdfrwt beam="1">  1        1 0.15009360E+00 0.34088020E+03</pdfrwt>
<pdfrwt beam="2">  1       -2 0.33363804E-01 0.34088020E+03</pdfrwt>
<totfact> 0.12316845E+02</totfact>
</mgrwt>
</event>
<event>
12    3  0.2212098E-007  0.1066838E+04  0.7818608E-02  0.9238131E-01
         -2   -1    0    0    0  501 -0.00000000000E+00  0.00000000000E+00  0.52043457669E+03  0.52043457669E+03  0.00000000000E+00 0.  1.
          1   -1    0    0  501    0  0.00000000000E+00 -0.00000000000E+00 -0.26339053933E+04  0.26339053933E+04  0.00000000000E+00 0. -1.
        -24    2    1    2    0    0  0.17446042130E+03 -0.10241996413E+04 -0.14428193044E+04  0.17797858688E+04  0.80553397509E+02 0.  0.
    5000000    2    1    2    0    0 -0.17446042130E+03  0.10241996413E+04 -0.67065151224E+03  0.13745541012E+04  0.60017012773E+03 0.  0.
        -24    2    4    4    0    0  0.34113331458E+02  0.71043119166E+03 -0.15728000429E+03  0.73271874628E+03  0.79142680900E+02 0.  0.
         24    2    4    4    0    0 -0.20857375276E+03  0.31376844969E+03 -0.51337150795E+03  0.64183535488E+03  0.80303594209E+02 0.  0.
         11    1    5    5    0    0  0.38974232823E+02  0.15443929958E+03 -0.25596953763E+02  0.16132480318E+03  0.00000000000E+00 0. -1.
        -12    1    5    5    0    0 -0.48609013649E+01  0.55599189208E+03 -0.13168305053E+03  0.57139394310E+03  0.00000000000E+00 0.  1.
         13    1    3    3    0    0  0.93689092806E+02 -0.72465236090E+03 -0.10502376106E+04  0.12794130408E+04  0.00000000000E+00 0. -1.
        -14    1    3    3    0    0  0.80771328493E+02 -0.29954728045E+03 -0.39258169378E+03  0.50037282803E+03  0.00000000000E+00 0.  1.
          2    1    6    6  502    0 -0.53154391271E+01  0.16512150952E+02 -0.62200942718E+02  0.64574470940E+02  0.00000000000E+00 0. -1.
         -1    1    6    6    0  502 -0.20325831363E+03  0.29725629874E+03 -0.45117056523E+03  0.57726088394E+03  0.00000000000E+00 0.  1.
<mgrwt>
<rscale>  0 0.10668376E+04</rscale>
<asrwt>0</asrwt>
<pdfrwt beam="1">  1        1 0.40521621E+00 0.10668376E+04</pdfrwt>
<pdfrwt beam="2">  1       -2 0.80066858E-01 0.10668376E+04</pdfrwt>
<totfact> 0.13331861E+00</totfact>
</mgrwt>
</event>
<event>
12    3  0.3227355E-007  0.6934140E+03  0.7818608E-02  0.9728562E-01
         -2   -1    0    0    0  501 -0.00000000000E+00  0.00000000000E+00  0.24937325266E+03  0.24937325266E+03  0.00000000000E+00 0.  1.
          1   -1    0    0  501    0  0.00000000000E+00 -0.00000000000E+00 -0.20628196391E+04  0.20628196391E+04  0.00000000000E+00 0. -1.
        -24    2    1    2    0    0 -0.58602941988E+03  0.41908075214E+02 -0.80787193158E+03  0.10021377802E+04  0.80226584978E+02 0.  0.
    5000000    2    1    2    0    0  0.58602941988E+03 -0.41908075214E+02 -0.10055744549E+04  0.13100551116E+04  0.59989802745E+03 0.  0.
        -24    2    4    4    0    0 -0.59363162528E+02 -0.12729976925E+03 -0.95760940424E+02  0.18850332882E+03  0.81450174633E+02 0.  0.
         24    2    4    4    0    0  0.64539258241E+03  0.85391694034E+02 -0.90981351443E+03  0.11215517827E+04  0.79337528928E+02 0.  0.
         11    1    5    5    0    0  0.19539364895E+01 -0.11894115280E+02  0.13546027578E+02  0.18132366345E+02  0.00000000000E+00 0. -1.
        -12    1    5    5    0    0 -0.61317099017E+02 -0.11540565397E+03 -0.10930696800E+03  0.17037096247E+03  0.00000000000E+00 0.  1.
         11    1    3    3    0    0 -0.41385459932E+03  0.82964745788E+01 -0.51483886371E+03  0.66060844413E+03  0.00000000000E+00 0. -1.
        -12    1    3    3    0    0 -0.17217482056E+03  0.33611600635E+02 -0.29303306787E+03  0.34152933607E+03  0.00000000000E+00 0.  1.
          4    1    6    6  502    0  0.22722843578E+03  0.63761565707E+02 -0.29712236034E+03  0.37944696112E+03  0.00000000000E+00 0. -1.
         -3    1    6    6    0  502  0.41816414663E+03  0.21630128327E+02 -0.61269115409E+03  0.74210482163E+03  0.00000000000E+00 0.  1.
<mgrwt>
<rscale>  0 0.69341404E+03</rscale>
<asrwt>0</asrwt>
<pdfrwt beam="1">  1        1 0.31735685E+00 0.69341404E+03</pdfrwt>
<pdfrwt beam="2">  1       -2 0.38365118E-01 0.69341404E+03</pdfrwt>
<totfact> 0.15962357E+01</totfact>
</mgrwt>
</event>
<event>
12    3  0.2212098E-007  0.7293472E+03  0.7818608E-02  0.9668320E-01
         -2   -1    0    0    0  501 -0.00000000000E+00  0.00000000000E+00  0.21452207561E+04  0.21452207561E+04  0.00000000000E+00 0.  1.
          1   -1    0    0  501    0  0.00000000000E+00 -0.00000000000E+00 -0.30583712569E+03  0.30583712569E+03  0.00000000000E+00 0. -1.
        -24    2    1    2    0    0 -0.95813495299E+02 -0.67127010805E+03  0.10345380015E+04  0.12395871966E+04  0.80769781628E+02 0.  0.
    5000000    2    1    2    0    0  0.95813495299E+02  0.67127010805E+03  0.80484562890E+03  0.12114706852E+04  0.60008411979E+03 0.  0.
        -24    2    4    4    0    0  0.23349795357E+03  0.51867240384E+03  0.80769957174E+03  0.99107395083E+03  0.79414236687E+02 0.  0.
         24    2    4    4    0    0 -0.13768445828E+03  0.15259770421E+03 -0.28539428460E+01  0.22039673434E+03  0.79520476212E+02 0.  0.
         11    1    5    5    0    0  0.15500167399E+03  0.37487152975E+03  0.51421954565E+03  0.65496253625E+03  0.00000000000E+00 0. -1.
        -12    1    5    5    0    0  0.78496279585E+02  0.14380087409E+03  0.29348002609E+03  0.33611141458E+03  0.00000000000E+00 0.  1.
         13    1    3    3    0    0 -0.53336080414E+02 -0.13947372378E+03  0.21990264113E+03  0.26580976031E+03  0.00000000000E+00 0. -1.
        -14    1    3    3    0    0 -0.42477414885E+02 -0.53179638427E+03  0.81463536038E+03  0.97377743632E+03  0.00000000000E+00 0.  1.
          4    1    6    6  502    0 -0.75848332654E+02  0.69966688363E+02  0.37198828617E+02  0.10969074664E+03  0.00000000000E+00 0. -1.
         -3    1    6    6    0  502 -0.61836125621E+02  0.82631015843E+02 -0.40052771463E+02  0.11070598770E+03  0.00000000000E+00 0.  1.
<mgrwt>
<rscale>  0 0.72934719E+03</rscale>
<asrwt>0</asrwt>
<pdfrwt beam="1">  1        1 0.47051867E-01 0.72934719E+03</pdfrwt>
<pdfrwt beam="2">  1       -2 0.33003395E+00 0.72934719E+03</pdfrwt>
<totfact> 0.16359127E+00</totfact>
</mgrwt>
</event>
<event>
12    3  0.2212098E-007  0.3767947E+03  0.7818608E-02  0.1052125E+00
          1   -1    0    0  501    0  0.00000000000E+00  0.00000000000E+00  0.37692755382E+04  0.37692755382E+04  0.00000000000E+00 0. -1.
         -2   -1    0    0    0  501 -0.00000000000E+00 -0.00000000000E+00 -0.61687833303E+02  0.61687833303E+02  0.00000000000E+00 0.  1.
        -24    2    1    2    0    0  0.61852138372E+02 -0.28165515333E+03  0.11627885588E+04  0.12005515230E+04  0.78047513215E+02 0.  0.
    5000000    2    1    2    0    0 -0.61852138372E+02  0.28165515333E+03  0.25447991460E+04  0.26304118485E+04  0.59992373408E+03 0.  0.
        -24    2    4    4    0    0 -0.20040038946E+03  0.15531408504E+03  0.22802023325E+04  0.22957182412E+04  0.81955992010E+02 0.  0.
         24    2    4    4    0    0  0.13854825109E+03  0.12634106828E+03  0.26459681350E+03  0.33469360730E+03  0.82768675472E+02 0.  0.
         11    1    5    5    0    0 -0.32492981485E+02  0.54526018703E+02  0.35973333221E+03  0.36529022827E+03  0.00000000000E+00 0. -1.
        -12    1    5    5    0    0 -0.16790740798E+03  0.10078806634E+03  0.19204690003E+04  0.19304280130E+04  0.00000000000E+00 0.  1.
         11    1    3    3    0    0  0.78222242087E+02 -0.22850682646E+03  0.89261908696E+03  0.92471775332E+03  0.00000000000E+00 0. -1.
        -12    1    3    3    0    0 -0.16370103715E+02 -0.53148326861E+02  0.27016947187E+03  0.27583376964E+03  0.00000000000E+00 0.  1.
          2    1    6    6  502    0  0.65563853686E+02  0.99950627943E+02  0.20313094310E+03  0.23569244150E+03  0.00000000000E+00 0. -1.
         -1    1    6    6    0  502  0.72984397403E+02  0.26390440338E+02  0.61465870401E+02  0.99001165800E+02  0.00000000000E+00 0.  1.
<mgrwt>
<rscale>  0 0.37679469E+03</rscale>
<asrwt>0</asrwt>
<pdfrwt beam="1">  1        1 0.57988836E+00 0.37679469E+03</pdfrwt>
<pdfrwt beam="2">  1       -2 0.94904388E-02 0.37679469E+03</pdfrwt>
<totfact> 0.11794867E+01</totfact>
</mgrwt>
</event>
<event>
12    3  0.2212098E-007  0.1225286E+04  0.7818608E-02  0.9091007E-01
          1   -1    0    0  501    0  0.00000000000E+00  0.00000000000E+00  0.29430868566E+04  0.29430868566E+04  0.00000000000E+00 0. -1.
         -2   -1    0    0    0  501 -0.00000000000E+00 -0.00000000000E+00 -0.56146255015E+03  0.56146255015E+03  0.00000000000E+00 0.  1.
        -24    2    1    2    0    0  0.11165250195E+04  0.31033506465E+03  0.63354037921E+03  0.13231061710E+04  0.79376043552E+02 0.  0.
    5000000    2    1    2    0    0 -0.11165250195E+04 -0.31033506465E+03  0.17480839273E+04  0.21814432357E+04  0.59996766797E+03 0.  0.
        -24    2    4    4    0    0 -0.77647785921E+03  0.63989086760E+02  0.93080612309E+03  0.12170276133E+04  0.87998316486E+02 0.  0.
         24    2    4    4    0    0 -0.34004716025E+03 -0.37432415141E+03  0.81727780416E+03  0.96441562244E+03  0.80024009500E+02 0.  0.
         11    1    5    5    0    0 -0.15376457170E+03 -0.20638599238E+02  0.20166386169E+03  0.25443625607E+03  0.00000000000E+00 0. -1.
        -12    1    5    5    0    0 -0.62271328751E+03  0.84627685998E+02  0.72914226139E+03  0.96259135724E+03  0.00000000000E+00 0.  1.
         13    1    3    3    0    0  0.88150023797E+03  0.26953987793E+03  0.47819989939E+03  0.10384457420E+04  0.00000000000E+00 0. -1.
        -14    1    3    3    0    0  0.23502478149E+03  0.40795186720E+02  0.15534047982E+03  0.28466042901E+03  0.00000000000E+00 0.  1.
          2    1    6    6  502    0 -0.20366081012E+03 -0.24638870394E+03  0.44628115558E+03  0.54895536143E+03  0.00000000000E+00 0. -1.
         -1    1    6    6    0  502 -0.13638635013E+03 -0.12793544747E+03  0.37099664858E+03  0.41546026101E+03  0.00000000000E+00 0.  1.
<mgrwt>
<rscale>  0 0.12252860E+04</rscale>
<asrwt>0</asrwt>
<pdfrwt beam="1">  1        1 0.45278258E+00 0.12252860E+04</pdfrwt>
<pdfrwt beam="2">  1       -2 0.86378856E-01 0.12252860E+04</pdfrwt>
<totfact> 0.66389721E-01</totfact>
</mgrwt>
</event>
<event>
12    3  0.2212098E-007  0.1451798E+04  0.7818608E-02  0.8917155E-01
         -2   -1    0    0    0  501 -0.00000000000E+00  0.00000000000E+00  0.17709868447E+04  0.17709868447E+04  0.00000000000E+00 0.  1.
          1   -1    0    0  501    0  0.00000000000E+00 -0.00000000000E+00 -0.15726105620E+04  0.15726105620E+04  0.00000000000E+00 0. -1.
        -24    2    1    2    0    0 -0.71588621505E+03  0.12170344829E+04 -0.68714188733E+03  0.15721861163E+04  0.77066241187E+02 0.  0.
    5000000    2    1    2    0    0  0.71588621505E+03 -0.12170344829E+04  0.88551817008E+03  0.17714112904E+04  0.60007459925E+03 0.  0.
        -24    2    4    4    0    0  0.34529780740E+03 -0.19604061618E+03  0.70504023788E+02  0.41115546557E+03  0.80096819625E+02 0.  0.
         24    2    4    4    0    0  0.37058840765E+03 -0.10209938668E+04  0.81501414629E+03  0.13602558248E+04  0.79269202633E+02 0.  0.
         13    1    5    5    0    0  0.19548672680E+03 -0.15164686993E+03  0.26490102387E+02  0.24882435379E+03  0.00000000000E+00 0. -1.
        -14    1    5    5    0    0  0.14981108060E+03 -0.44393746255E+02  0.44013921401E+02  0.16233111179E+03  0.00000000000E+00 0.  1.
         13    1    3    3    0    0 -0.59411754476E+03  0.95345278829E+03 -0.55934305764E+03  0.12549551915E+04  0.00000000000E+00 0. -1.
        -14    1    3    3    0    0 -0.12176867029E+03  0.26358169466E+03 -0.12779882969E+03  0.31723092487E+03  0.00000000000E+00 0.  1.
          4    1    6    6  502    0  0.31125599921E+03 -0.85310794782E+03  0.64327219944E+03  0.11128668340E+04  0.00000000000E+00 0. -1.
         -3    1    6    6    0  502  0.59332408439E+02 -0.16788591895E+03  0.17174194684E+03  0.24738899082E+03  0.00000000000E+00 0.  1.
<mgrwt>
<rscale>  0 0.14517982E+04</rscale>
<asrwt>0</asrwt>
<pdfrwt beam="1">  1        1 0.24194009E+00 0.14517982E+04</pdfrwt>
<pdfrwt beam="2">  1       -2 0.27245951E+00 0.14517982E+04</pdfrwt>
<totfact> 0.22655826E-01</totfact>
</mgrwt>
</event>
<event>
12    3  0.2212098E-007  0.6379337E+03  0.7818608E-02  0.9829688E-01
          1   -1    0    0  501    0  0.00000000000E+00  0.00000000000E+00  0.25932191955E+03  0.25932191955E+03  0.00000000000E+00 0. -1.
         -2   -1    0    0    0  501 -0.00000000000E+00 -0.00000000000E+00 -0.19463468271E+04  0.19463468271E+04  0.00000000000E+00 0.  1.
        -24    2    1    2    0    0  0.48796975767E+03  0.12167320631E+03 -0.24317126722E+03  0.56321583523E+03  0.71839810129E+02 0.  0.
    5000000    2    1    2    0    0 -0.48796975767E+03 -0.12167320631E+03 -0.14438536403E+04  0.16424529114E+04  0.60001614810E+03 0.  0.
        -24    2    4    4    0    0 -0.19922738623E+03  0.22827861170E+03 -0.70980102079E+03  0.77579169914E+03  0.78946788157E+02 0.  0.
         24    2    4    4    0    0 -0.28874237145E+03 -0.34995181800E+03 -0.73405261953E+03  0.86666121226E+03  0.80187134940E+02 0.  0.
         11    1    3    3    0    0  0.36921534576E+03  0.60620205329E+02 -0.17023567567E+03  0.41106564696E+03  0.00000000000E+00 0. -1.
        -12    1    3    3    0    0  0.11875441191E+03  0.61053000977E+02 -0.72935591548E+02  0.15215018827E+03  0.00000000000E+00 0.  1.
         13    1    5    5    0    0 -0.18066214306E+01  0.34967056145E+02 -0.10933773472E+03  0.11480722595E+03  0.00000000000E+00 0. -1.
        -14    1    5    5    0    0 -0.19742076480E+03  0.19331155555E+03 -0.60046328607E+03  0.66098447319E+03  0.00000000000E+00 0.  1.
          2    1    6    6  502    0 -0.78266305333E+02 -0.13483004258E+03 -0.19927310338E+03  0.25301091807E+03  0.00000000000E+00 0. -1.
         -1    1    6    6    0  502 -0.21047606611E+03 -0.21512177543E+03 -0.53477951615E+03  0.61365029419E+03  0.00000000000E+00 0.  1.
<mgrwt>
<rscale>  0 0.63793370E+03</rscale>
<asrwt>0</asrwt>
<pdfrwt beam="1">  1        1 0.39895679E-01 0.63793370E+03</pdfrwt>
<pdfrwt beam="2">  1       -2 0.29943798E+00 0.63793370E+03</pdfrwt>
<totfact> 0.31466239E+00</totfact>
</mgrwt>
</event>
<event>
12    3  0.3391733E-007  0.6200045E+03  0.7818608E-02  0.9864751E-01
          1   -1    0    0  501    0  0.00000000000E+00  0.00000000000E+00  0.13678769350E+04  0.13678769350E+04  0.00000000000E+00 0. -1.
         -4   -1    0    0    0  501 -0.00000000000E+00 -0.00000000000E+00 -0.45746889930E+03  0.45746889930E+03  0.00000000000E+00 0.  1.
        -24    2    1    2    0    0 -0.12905604163E+03  0.46692639569E+03  0.93266326828E+03  0.10538911175E+04  0.78421901563E+02 0.  0.
    5000000    2    1    2    0    0  0.12905604163E+03 -0.46692639569E+03 -0.22255232548E+02  0.77145471686E+03  0.59997613612E+03 0.  0.
        -24    2    4    4    0    0  0.25885976563E+03 -0.52255170220E+03 -0.74435547492E+02  0.59412804325E+03  0.85900065832E+02 0.  0.
         24    2    4    4    0    0 -0.12980372400E+03  0.55625306510E+02  0.52180314945E+02  0.17732667361E+03  0.93695156851E+02 0.  0.
         13    1    5    5    0    0  0.41806956119E+02 -0.17306622032E+03 -0.22374756242E+02  0.17944460959E+03  0.00000000000E+00 0. -1.
        -14    1    5    5    0    0  0.21705280951E+03 -0.34948548188E+03 -0.52060791251E+02  0.41468343365E+03  0.00000000000E+00 0.  1.
         13    1    3    3    0    0 -0.52312508071E+02  0.12160957656E+03  0.19362056701E+03  0.23455151157E+03  0.00000000000E+00 0. -1.
        -14    1    3    3    0    0 -0.76743533558E+02  0.34531681912E+03  0.73904270128E+03  0.81933960592E+03  0.00000000000E+00 0.  1.
          4    1    6    6  502    0 -0.92991801977E+02 -0.54215336913E+01  0.80755968466E+01  0.93499109766E+02  0.00000000000E+00 0. -1.
         -3    1    6    6    0  502 -0.36811922022E+02  0.61046840201E+02  0.44104718098E+02  0.83827563844E+02  0.00000000000E+00 0.  1.
<mgrwt>
<rscale>  0 0.62000455E+03</rscale>
<asrwt>0</asrwt>
<pdfrwt beam="1">  1        1 0.21044260E+00 0.62000455E+03</pdfrwt>
<pdfrwt beam="2">  1       -4 0.70379831E-01 0.62000455E+03</pdfrwt>
<totfact> 0.74402893E+00</totfact>
</mgrwt>
</event>
<event>
12    3  0.2212098E-007  0.7523760E+03  0.7818608E-02  0.9631630E-01
          1   -1    0    0  501    0  0.00000000000E+00  0.00000000000E+00  0.14252301660E+04  0.14252301660E+04  0.00000000000E+00 0. -1.
         -2   -1    0    0    0  501 -0.00000000000E+00 -0.00000000000E+00 -0.55849072320E+03  0.55849072320E+03  0.00000000000E+00 0.  1.
        -24    2    1    2    0    0 -0.68337343477E+03 -0.25640268923E+03  0.52923321256E+02  0.73667003637E+03  0.84500142968E+02 0.  0.
    5000000    2    1    2    0    0  0.68337343477E+03  0.25640268923E+03  0.81381612159E+03  0.12470508529E+04  0.60008129408E+03 0.  0.
        -24    2    4    4    0    0  0.37034242796E+03  0.24972432314E+03  0.10150191440E+03  0.46482802643E+03  0.79036093058E+02 0.  0.
         24    2    4    4    0    0  0.31303100681E+03  0.66783660817E+01  0.71231420718E+03  0.78222282645E+03  0.80299493516E+02 0.  0.
         11    1    3    3    0    0 -0.18402887034E+03 -0.29956685928E+02  0.10807178918E+02  0.18676408452E+03  0.00000000000E+00 0. -1.
        -12    1    3    3    0    0 -0.49934456443E+03 -0.22644600330E+03  0.42116142339E+02  0.54990595185E+03  0.00000000000E+00 0.  1.
         13    1    5    5    0    0  0.14439632825E+03  0.11493882276E+03  0.79060754390E+02  0.20077807518E+03  0.00000000000E+00 0. -1.
        -14    1    5    5    0    0  0.22594609971E+03  0.13478550038E+03  0.22441160014E+02  0.26404995124E+03  0.00000000000E+00 0.  1.
          2    1    6    6  502    0  0.10688648701E+03  0.38831516519E+02  0.22434176542E+03  0.25151905592E+03  0.00000000000E+00 0. -1.
         -3    1    6    6    0  502  0.20614451980E+03 -0.32153150437E+02  0.48797244176E+03  0.53070377052E+03  0.00000000000E+00 0.  1.
<mgrwt>
<rscale>  0 0.75237599E+03</rscale>
<asrwt>0</asrwt>
<pdfrwt beam="1">  1        1 0.21926618E+00 0.75237599E+03</pdfrwt>
<pdfrwt beam="2">  1       -2 0.85921650E-01 0.75237599E+03</pdfrwt>
<totfact> 0.78428534E+00</totfact>
</mgrwt>
</event>
<event>
12    3  0.2212098E-007  0.8599557E+03  0.7818608E-02  0.9477071E-01
         -2   -1    0    0    0  501 -0.00000000000E+00  0.00000000000E+00  0.12724321662E+04  0.12724321662E+04  0.00000000000E+00 0.  1.
          1   -1    0    0  501    0  0.00000000000E+00 -0.00000000000E+00 -0.74407217572E+03  0.74407217572E+03  0.00000000000E+00 0. -1.
        -24    2    1    2    0    0  0.76924703618E+03  0.34632361373E+03  0.49357355189E+03  0.98074649972E+03  0.81041948917E+02 0.  0.
    5000000    2    1    2    0    0 -0.76924703618E+03 -0.34632361373E+03  0.34786438624E+02  0.10357578422E+04  0.59991929735E+03 0.  0.
        -24    2    4    4    0    0 -0.56987597324E+03 -0.17928037797E+03 -0.24054796738E+03  0.64884699950E+03  0.78987501155E+02 0.  0.
         24    2    4    4    0    0 -0.19937106294E+03 -0.16704323576E+03  0.27533440601E+03  0.38691084274E+03  0.78985452752E+02 0.  0.
         13    1    5    5    0    0 -0.32545331410E+03 -0.70039601702E+02 -0.15937729170E+03  0.36908877872E+03  0.00000000000E+00 0. -1.
        -14    1    5    5    0    0 -0.24442265915E+03 -0.10924077627E+03 -0.81170675678E+02  0.27975822078E+03  0.00000000000E+00 0.  1.
         13    1    3    3    0    0  0.42728235522E+03  0.14813251970E+03  0.26655140843E+03  0.52494105175E+03  0.00000000000E+00 0. -1.
        -14    1    3    3    0    0  0.34196468096E+03  0.19819109403E+03  0.22702214345E+03  0.45580544797E+03  0.00000000000E+00 0.  1.
          2    1    6    6  502    0 -0.53521521218E+02 -0.95218241396E+02  0.10815181902E+03  0.15371363858E+03  0.00000000000E+00 0. -1.
         -1    1    6    6    0  502 -0.14584954172E+03 -0.71824994362E+02  0.16718258699E+03  0.23319720416E+03  0.00000000000E+00 0.  1.
<mgrwt>
<rscale>  0 0.85995567E+03</rscale>
<asrwt>0</asrwt>
<pdfrwt beam="1">  1        1 0.11447264E+00 0.85995567E+03</pdfrwt>
<pdfrwt beam="2">  1       -2 0.19575879E+00 0.85995567E+03</pdfrwt>
<totfact> 0.31214544E+00</totfact>
</mgrwt>
</event>
<event>
12    3  0.2212098E-007  0.6486606E+03  0.7818608E-02  0.9809296E-01
          1   -1    0    0  501    0  0.00000000000E+00  0.00000000000E+00  0.67709753063E+03  0.67709753063E+03  0.00000000000E+00 0. -1.
         -2   -1    0    0    0  501 -0.00000000000E+00 -0.00000000000E+00 -0.83865477038E+03  0.83865477038E+03  0.00000000000E+00 0.  1.
        -24    2    1    2    0    0  0.56780732192E+03 -0.27482775955E+03 -0.46028099297E+02  0.63751460863E+03  0.79817529641E+02 0.  0.
    5000000    2    1    2    0    0 -0.56780732192E+03  0.27482775955E+03 -0.11552914046E+03  0.87823769238E+03  0.60001584127E+03 0.  0.
        -24    2    4    4    0    0 -0.77590623733E+02  0.32284178043E+02 -0.27915641474E+03  0.30173594564E+03  0.77805552219E+02 0.  0.
         24    2    4    4    0    0 -0.49021669819E+03  0.24254358151E+03  0.16362727428E+03  0.57650174674E+03  0.80253217983E+02 0.  0.
         11    1    3    3    0    0  0.29901314810E+03 -0.17575692839E+03 -0.53515757621E+02  0.35094628781E+03  0.00000000000E+00 0. -1.
        -12    1    3    3    0    0  0.26879417382E+03 -0.99070831157E+02  0.74876583247E+01  0.28656832081E+03  0.00000000000E+00 0.  1.
         13    1    5    5    0    0 -0.10683175290E+02  0.43315036745E+02 -0.83645356932E+02  0.94799094821E+02  0.00000000000E+00 0. -1.
        -14    1    5    5    0    0 -0.66907448442E+02 -0.11030858702E+02 -0.19551105781E+03  0.20693685081E+03  0.00000000000E+00 0.  1.
          4    1    6    6  502    0 -0.82069851170E+02  0.72232502824E+02  0.17442403185E+02  0.11071238578E+03  0.00000000000E+00 0. -1.
         -3    1    6    6    0  502 -0.40814684702E+03  0.17031107868E+03  0.14618487109E+03  0.46578936097E+03  0.00000000000E+00 0.  1.
<mgrwt>
<rscale>  0 0.64866059E+03</rscale>
<asrwt>0</asrwt>
<pdfrwt beam="1">  1        1 0.10416885E+00 0.64866059E+03</pdfrwt>
<pdfrwt beam="2">  1       -2 0.12902381E+00 0.64866059E+03</pdfrwt>
<totfact> 0.11465421E+01</totfact>
</mgrwt>
</event>
<event>
12    3  0.2212098E-007  0.8880817E+03  0.7818608E-02  0.9440604E-01
         -2   -1    0    0    0  501 -0.00000000000E+00  0.00000000000E+00  0.12078383325E+04  0.12078383325E+04  0.00000000000E+00 0.  1.
          1   -1    0    0  501    0  0.00000000000E+00 -0.00000000000E+00 -0.85995357815E+03  0.85995357815E+03  0.00000000000E+00 0. -1.
        -24    2    1    2    0    0  0.65722630740E+03 -0.59192623306E+03 -0.12899035641E+03  0.89746067592E+03  0.80461594886E+02 0.  0.
    5000000    2    1    2    0    0 -0.65722630740E+03  0.59192623306E+03  0.47687511074E+03  0.11703312347E+04  0.59995186738E+03 0.  0.
        -24    2    4    4    0    0 -0.44470920350E+03  0.42843738217E+03  0.60047540852E+03  0.86496873014E+03  0.79216928561E+02 0.  0.
         24    2    4    4    0    0 -0.21251710390E+03  0.16348885090E+03 -0.12360029777E+03  0.30536250457E+03  0.77955768051E+02 0.  0.
         11    1    5    5    0    0 -0.25102080699E+03  0.23665137909E+03  0.38928610582E+03  0.52015285537E+03  0.00000000000E+00 0. -1.
        -12    1    5    5    0    0 -0.19368839651E+03  0.19178600307E+03  0.21118930270E+03  0.34481587477E+03  0.00000000000E+00 0.  1.
         11    1    3    3    0    0  0.80956840786E+02 -0.73680253484E+02 -0.43273638981E+02  0.11770895316E+03  0.00000000000E+00 0. -1.
        -12    1    3    3    0    0  0.57626946661E+03 -0.51824597958E+03 -0.85716717425E+02  0.77975172276E+03  0.00000000000E+00 0.  1.
          2    1    6    6  502    0 -0.13316337228E+03  0.66650510878E+02 -0.95948959142E+02  0.17714676705E+03  0.00000000000E+00 0. -1.
         -1    1    6    6    0  502 -0.79353731617E+02  0.96838340019E+02 -0.27651338632E+02  0.12821573752E+03  0.00000000000E+00 0.  1.
<mgrwt>
<rscale>  0 0.88808168E+03</rscale>
<asrwt>0</asrwt>
<pdfrwt beam="1">  1        1 0.13230055E+00 0.88808168E+03</pdfrwt>
<pdfrwt beam="2">  1       -2 0.18582128E+00 0.88808168E+03</pdfrwt>
<totfact> 0.28734845E+00</totfact>
</mgrwt>
</event>
<event>
12    3  0.2212098E-007  0.5876071E+03  0.7818608E-02  0.9931456E-01
          3   -1    0    0  501    0  0.00000000000E+00  0.00000000000E+00  0.71584207478E+03  0.71584207478E+03  0.00000000000E+00 0. -1.
         -2   -1    0    0    0  501 -0.00000000000E+00 -0.00000000000E+00 -0.76725538307E+03  0.76725538307E+03  0.00000000000E+00 0.  1.
        -24    2    1    2    0    0  0.15835815119E+03 -0.55672956510E+03 -0.23451913518E+03  0.62947395746E+03  0.78823382603E+02 0.  0.
    5000000    2    1    2    0    0 -0.15835815119E+03  0.55672956510E+03  0.18310582689E+03  0.85362350040E+03  0.60010017820E+03 0.  0.
        -24    2    4    4    0    0 -0.12870195433E+03  0.41698771684E+03 -0.16138420862E+03  0.47196796547E+03  0.79157745044E+02 0.  0.
         24    2    4    4    0    0 -0.29656196855E+02  0.13974184827E+03  0.34449003551E+03  0.38165553492E+03  0.81118978086E+02 0.  0.
         11    1    5    5    0    0  0.68686695057E+01  0.13287763856E+02  0.34048556035E+01  0.15340675694E+02  0.00000000000E+00 0. -1.
        -12    1    5    5    0    0 -0.13557062384E+03  0.40369995298E+03 -0.16478906422E+03  0.45662728978E+03  0.00000000000E+00 0.  1.
         13    1    3    3    0    0  0.14014957520E+03 -0.48769478973E+03 -0.23221006604E+03  0.55804088213E+03  0.00000000000E+00 0. -1.
        -14    1    3    3    0    0  0.18208575989E+02 -0.69034775373E+02 -0.23090691364E+01  0.71433075326E+02  0.00000000000E+00 0.  1.
          4    1    6    6  502    0  0.19078338222E+02  0.30861059939E+02  0.36925156352E+02  0.51767317697E+02  0.00000000000E+00 0. -1.
         -3    1    6    6    0  502 -0.48734535077E+02  0.10888078833E+03  0.30756487915E+03  0.32988821723E+03  0.00000000000E+00 0.  1.
<mgrwt>
<rscale>  0 0.58760714E+03</rscale>
<asrwt>0</asrwt>
<pdfrwt beam="1">  1        3 0.11012955E+00 0.58760714E+03</pdfrwt>
<pdfrwt beam="2">  1       -2 0.11803929E+00 0.58760714E+03</pdfrwt>
<totfact> 0.16254141E+00</totfact>
</mgrwt>
</event>
<event>
12    3  0.2735217E-007  0.8364513E+03  0.7818608E-02  0.9508704E-01
         -2   -1    0    0    0  501 -0.00000000000E+00  0.00000000000E+00  0.87319430112E+03  0.87319430112E+03  0.00000000000E+00 0.  1.
          1   -1    0    0  501    0  0.00000000000E+00 -0.00000000000E+00 -0.12382543907E+04  0.12382543907E+04  0.00000000000E+00 0. -1.
        -24    2    1    2    0    0  0.37607164068E+03  0.74344604581E+03  0.29885403927E+03  0.88878402887E+03  0.80507212240E+02 0.  0.
    5000000    2    1    2    0    0 -0.37607164068E+03 -0.74344604581E+03 -0.66391412884E+03  0.12226646630E+04  0.59998750453E+03 0.  0.
        -24    2    4    4    0    0 -0.29700763902E+03 -0.56690260321E+03 -0.75638507505E+03  0.99385507443E+03  0.77700888386E+02 0.  0.
         24    2    4    4    0    0 -0.79064001660E+02 -0.17654344261E+03  0.92470946208E+02  0.22880958852E+03  0.79901491976E+02 0.  0.
         11    1    3    3    0    0  0.21329639540E+03  0.35643232879E+03  0.11948441896E+03  0.43222203053E+03  0.00000000000E+00 0. -1.
        -12    1    3    3    0    0  0.16277524528E+03  0.38701371703E+03  0.17936962031E+03  0.45656199834E+03  0.00000000000E+00 0.  1.
         13    1    5    5    0    0 -0.16094580320E+03 -0.27236625923E+03 -0.42793692554E+03  0.53218130649E+03  0.00000000000E+00 0. -1.
        -14    1    5    5    0    0 -0.13606183582E+03 -0.29453634398E+03 -0.32844814951E+03  0.46167376794E+03  0.00000000000E+00 0.  1.
          4    1    6    6  502    0 -0.21120457305E+02 -0.16966564476E+02  0.45001552854E+02  0.52526924392E+02  0.00000000000E+00 0. -1.
         -3    1    6    6    0  502 -0.57943544355E+02 -0.15957687813E+03  0.47469393354E+02  0.17628266413E+03  0.00000000000E+00 0.  1.
<mgrwt>
<rscale>  0 0.83645134E+03</rscale>
<asrwt>0</asrwt>
<pdfrwt beam="1">  1        1 0.19050067E+00 0.83645134E+03</pdfrwt>
<pdfrwt beam="2">  1       -2 0.13433759E+00 0.83645134E+03</pdfrwt>
<totfact> 0.35703244E+00</totfact>
</mgrwt>
</event>
<event>
12    3  0.2212098E-007  0.1054864E+04  0.7818608E-02  0.9250336E-01
         -4   -1    0    0    0  501 -0.00000000000E+00  0.00000000000E+00  0.17922397818E+04  0.17922397818E+04  0.00000000000E+00 0.  1.
          1   -1    0    0  501    0  0.00000000000E+00 -0.00000000000E+00 -0.71597534218E+03  0.71597534218E+03  0.00000000000E+00 0. -1.
        -24    2    1    2    0    0 -0.33441532781E+03 -0.93264805577E+03  0.88956846078E+03  0.13349482489E+04  0.95335059329E+02 0.  0.
    5000000    2    1    2    0    0  0.33441532781E+03  0.93264805577E+03  0.18669597879E+03  0.11732668750E+04  0.60002813603E+03 0.  0.
        -24    2    4    4    0    0  0.23509385089E+03  0.87713347179E+02  0.17980503334E+03  0.31880752319E+03  0.79659505582E+02 0.  0.
         24    2    4    4    0    0  0.99321476925E+02  0.84493470859E+03  0.68909454511E+01  0.85445935179E+03  0.79207835297E+02 0.  0.
         13    1    3    3    0    0 -0.17201748774E+03 -0.61426722052E+03  0.56297622378E+03  0.85079754515E+03  0.00000000000E+00 0. -1.
        -14    1    3    3    0    0 -0.16239784007E+03 -0.31838083526E+03  0.32659223701E+03  0.48415070380E+03  0.00000000000E+00 0.  1.
         13    1    5    5    0    0  0.14393146846E+03  0.11784927984E+02  0.92351488992E+02  0.17141747186E+03  0.00000000000E+00 0. -1.
        -14    1    5    5    0    0  0.91162382427E+02  0.75928419194E+02  0.87453544351E+02  0.14739005133E+03  0.00000000000E+00 0.  1.
          2    1    6    6  502    0  0.46554868820E+02  0.26672554182E+03 -0.31475030821E+02  0.27258126868E+03  0.00000000000E+00 0. -1.
         -1    1    6    6    0  502  0.52766608105E+02  0.57820916677E+03  0.38365976272E+02  0.58187808311E+03  0.00000000000E+00 0.  1.
<mgrwt>
<rscale>  0 0.10548644E+04</rscale>
<asrwt>0</asrwt>
<pdfrwt beam="1">  1        1 0.11015005E+00 0.10548644E+04</pdfrwt>
<pdfrwt beam="2">  1       -4 0.27572920E+00 0.10548644E+04</pdfrwt>
<totfact> 0.54369156E-01</totfact>
</mgrwt>
</event>
<event>
12    3  0.2212098E-007  0.8283709E+03  0.7818608E-02  0.9519836E-01
          1   -1    0    0  501    0  0.00000000000E+00  0.00000000000E+00  0.43836860939E+03  0.43836860939E+03  0.00000000000E+00 0. -1.
         -2   -1    0    0    0  501 -0.00000000000E+00 -0.00000000000E+00 -0.17005035564E+04  0.17005035564E+04  0.00000000000E+00 0.  1.
        -24    2    1    2    0    0  0.66304703766E+02 -0.74658919601E+03 -0.68509358601E+03  0.10185876830E+04  0.79849264604E+02 0.  0.
    5000000    2    1    2    0    0 -0.66304703766E+02  0.74658919601E+03 -0.57704136104E+03  0.11202844828E+04  0.60022399883E+03 0.  0.
        -24    2    4    4    0    0  0.29790551284E+02  0.78651837433E+03 -0.59256785617E+03  0.98846197557E+03  0.80136027383E+02 0.  0.
         24    2    4    4    0    0 -0.96095255050E+02 -0.39929178316E+02  0.15526495133E+02  0.13182250725E+03  0.79419544468E+02 0.  0.
         13    1    3    3    0    0 -0.18499603119E+02 -0.16359752438E+03 -0.15045794887E+03  0.22303358420E+03  0.00000000000E+00 0. -1.
        -14    1    3    3    0    0  0.84804306884E+02 -0.58299167163E+03 -0.53463563714E+03  0.79555409882E+03  0.00000000000E+00 0.  1.
         13    1    5    5    0    0  0.54469356410E+02  0.65620147134E+03 -0.48864266386E+03  0.81996276423E+03  0.00000000000E+00 0. -1.
        -14    1    5    5    0    0 -0.24678805126E+02  0.13031690298E+03 -0.10392519232E+03  0.16849921134E+03  0.00000000000E+00 0.  1.
          2    1    6    6  502    0 -0.80488924576E+02 -0.48606079994E+02  0.39452198768E+02  0.10196810275E+03  0.00000000000E+00 0. -1.
         -1    1    6    6    0  502 -0.15606330474E+02  0.86769016773E+01 -0.23925703635E+02  0.29854404500E+02  0.00000000000E+00 0.  1.
<mgrwt>
<rscale>  0 0.82837093E+03</rscale>
<asrwt>0</asrwt>
<pdfrwt beam="1">  1        1 0.67441324E-01 0.82837093E+03</pdfrwt>
<pdfrwt beam="2">  1       -2 0.26161593E+00 0.82837093E+03</pdfrwt>
<totfact> 0.25965968E+00</totfact>
</mgrwt>
</event>
<event>
12    3  0.2212098E-007  0.7891509E+03  0.7818608E-02  0.9575855E-01
         -2   -1    0    0    0  501 -0.00000000000E+00  0.00000000000E+00  0.26676372952E+03  0.26676372952E+03  0.00000000000E+00 0.  1.
          1   -1    0    0  501    0  0.00000000000E+00 -0.00000000000E+00 -0.33308842796E+04  0.33308842796E+04  0.00000000000E+00 0. -1.
        -24    2    1    2    0    0  0.43639040200E+03 -0.55761628101E+03 -0.50078385394E+03  0.87139953056E+03  0.84735905507E+02 0.  0.
    5000000    2    1    2    0    0 -0.43639040200E+03  0.55761628101E+03 -0.25633366961E+04  0.27262484785E+04  0.60030263142E+03 0.  0.
        -24    2    4    4    0    0 -0.13587064216E+03 -0.80899134582E+02 -0.90975022358E+03  0.92666073843E+03  0.77776303986E+02 0.  0.
         24    2    4    4    0    0 -0.30051975983E+03  0.63851541559E+03 -0.16535864725E+04  0.17995877401E+04  0.78445842531E+02 0.  0.
         11    1    5    5    0    0 -0.35336506208E+02 -0.34526297133E+01 -0.83699363211E+02  0.90918494955E+02  0.00000000000E+00 0. -1.
        -12    1    5    5    0    0 -0.10053413595E+03 -0.77446504869E+02 -0.82605086037E+03  0.83574224347E+03  0.00000000000E+00 0.  1.
         13    1    3    3    0    0  0.20070375752E+03 -0.23195120884E+03 -0.16927459941E+03  0.35033876687E+03  0.00000000000E+00 0. -1.
        -14    1    3    3    0    0  0.23568664448E+03 -0.32566507217E+03 -0.33150925453E+03  0.52106076369E+03  0.00000000000E+00 0.  1.
          4    1    6    6  502    0 -0.14808083511E+03  0.36752118292E+03 -0.84522173997E+03  0.93348783780E+03  0.00000000000E+00 0. -1.
         -3    1    6    6    0  502 -0.15243892472E+03  0.27099423268E+03 -0.80836473256E+03  0.86609990230E+03  0.00000000000E+00 0.  1.
<mgrwt>
<rscale>  0 0.78915092E+03</rscale>
<asrwt>0</asrwt>
<pdfrwt beam="1">  1        1 0.51244372E+00 0.78915092E+03</pdfrwt>
<pdfrwt beam="2">  1       -2 0.41040575E-01 0.78915092E+03</pdfrwt>
<totfact> 0.17885349E+00</totfact>
</mgrwt>
</event>
<event>
12    3  0.2212098E-007  0.4392283E+03  0.7818608E-02  0.1030984E+00
         -2   -1    0    0    0  501 -0.00000000000E+00  0.00000000000E+00  0.92349765773E+02  0.92349765773E+02  0.00000000000E+00 0.  1.
          1   -1    0    0  501    0  0.00000000000E+00 -0.00000000000E+00 -0.25815787659E+04  0.25815787659E+04  0.00000000000E+00 0. -1.
        -24    2    1    2    0    0 -0.28912940044E+03 -0.63134501165E+02 -0.71259628463E+03  0.77562120969E+03  0.78822716324E+02 0.  0.
    5000000    2    1    2    0    0  0.28912940044E+03  0.63134501165E+02 -0.17766327155E+04  0.18983073220E+04  0.59963748007E+03 0.  0.
        -24    2    4    4    0    0  0.41363074041E+03  0.11682263086E+03 -0.16091243331E+04  0.16677890114E+04  0.86609183869E+02 0.  0.
         24    2    4    4    0    0 -0.12450133996E+03 -0.53688129695E+02 -0.16750838245E+03  0.23051831062E+03  0.81832966575E+02 0.  0.
         13    1    5    5    0    0  0.18047463631E+03  0.64916836724E+02 -0.87533306650E+03  0.89609891605E+03  0.00000000000E+00 0. -1.
        -14    1    5    5    0    0  0.23315610409E+03  0.51905794135E+02 -0.73379126658E+03  0.77169009534E+03  0.00000000000E+00 0.  1.
         13    1    3    3    0    0 -0.12740632646E+03 -0.65225118585E+02 -0.37160422150E+03  0.39821650588E+03  0.00000000000E+00 0. -1.
        -14    1    3    3    0    0 -0.16172307398E+03  0.20906174203E+01 -0.34099206314E+03  0.37740470381E+03  0.00000000000E+00 0.  1.
          2    1    6    6  502    0 -0.30009247868E+02 -0.35877657642E+02 -0.10734224524E+03  0.11709021688E+03  0.00000000000E+00 0. -1.
         -1    1    6    6    0  502 -0.94492092096E+02 -0.17810472053E+02 -0.60166137206E+02  0.11342809374E+03  0.00000000000E+00 0.  1.
<mgrwt>
<rscale>  0 0.43922831E+03</rscale>
<asrwt>0</asrwt>
<pdfrwt beam="1">  1        1 0.39716590E+00 0.43922831E+03</pdfrwt>
<pdfrwt beam="2">  1       -2 0.14207659E-01 0.43922831E+03</pdfrwt>
<totfact> 0.44152673E+01</totfact>
</mgrwt>
</event>
<event>
12    3  0.2212098E-007  0.4416973E+03  0.7818608E-02  0.1030227E+00
         -2   -1    0    0    0  501 -0.00000000000E+00  0.00000000000E+00  0.20246073794E+03  0.20246073794E+03  0.00000000000E+00 0.  1.
          1   -1    0    0  501    0  0.00000000000E+00 -0.00000000000E+00 -0.11268382006E+04  0.11268382006E+04  0.00000000000E+00 0. -1.
        -24    2    1    2    0    0  0.18697771880E+03 -0.15258946611E+03 -0.48444621032E+03  0.54698114679E+03  0.79095080487E+02 0.  0.
    5000000    2    1    2    0    0 -0.18697771880E+03  0.15258946611E+03 -0.43993125231E+03  0.78231779171E+03  0.60019780737E+03 0.  0.
        -24    2    4    4    0    0 -0.86329025542E+02  0.37584445960E+03 -0.29151145521E+03  0.48988179302E+03  0.79331482669E+02 0.  0.
         24    2    4    4    0    0 -0.10064869325E+03 -0.22325499349E+03 -0.14841979709E+03  0.29243599869E+03  0.59307888094E+02 0.  0.
         13    1    3    3    0    0  0.63988210327E+02 -0.30570009684E+02 -0.21726814755E+03  0.22854860422E+03  0.00000000000E+00 0. -1.
        -14    1    3    3    0    0  0.12298950847E+03 -0.12201945643E+03 -0.26717806277E+03  0.31843254257E+03  0.00000000000E+00 0.  1.
         13    1    5    5    0    0 -0.90155425234E+02  0.21962557280E+03 -0.17882836018E+03  0.29722546212E+03  0.00000000000E+00 0. -1.
        -14    1    5    5    0    0  0.38263996917E+01  0.15621888680E+03 -0.11268309503E+03  0.19265633090E+03  0.00000000000E+00 0.  1.
          2    1    6    6  502    0 -0.63875955359E+02 -0.11990826499E+03 -0.49105717762E+02  0.14446280214E+03  0.00000000000E+00 0. -1.
         -1    1    6    6    0  502 -0.36772737895E+02 -0.10334672851E+03 -0.99314079332E+02  0.14797319655E+03  0.00000000000E+00 0.  1.
<mgrwt>
<rscale>  0 0.44169732E+03</rscale>
<asrwt>0</asrwt>
<pdfrwt beam="1">  1        1 0.17335972E+00 0.44169732E+03</pdfrwt>
<pdfrwt beam="2">  1       -2 0.31147806E-01 0.44169732E+03</pdfrwt>
<totfact> 0.10648237E+02</totfact>
</mgrwt>
</event>
<event>
12    3  0.2827894E-007  0.1735038E+04  0.7818608E-02  0.8741630E-01
          1   -1    0    0  501    0  0.00000000000E+00  0.00000000000E+00  0.17727218531E+04  0.17727218531E+04  0.00000000000E+00 0. -1.
         -2   -1    0    0    0  501 -0.00000000000E+00 -0.00000000000E+00 -0.17958666862E+04  0.17958666862E+04  0.00000000000E+00 0.  1.
        -24    2    1    2    0    0  0.16573303312E+04 -0.50452545325E+03 -0.51156266918E+02  0.17350083034E+04  0.79668624001E+02 0.  0.
    5000000    2    1    2    0    0 -0.16573303312E+04  0.50452545325E+03  0.28011433851E+02  0.18335802358E+04  0.59995173233E+03 0.  0.
        -24    2    4    4    0    0 -0.56328048101E+03  0.13433886917E+03 -0.26132477672E+03  0.64028625734E+03  0.79649358738E+02 0.  0.
         24    2    4    4    0    0 -0.10940498502E+04  0.37018658408E+03  0.28933621057E+03  0.11932939785E+04  0.79068923409E+02 0.  0.
         11    1    3    3    0    0  0.53523883163E+03 -0.15116048342E+03 -0.51906349069E+02  0.55859141392E+03  0.00000000000E+00 0. -1.
        -12    1    3    3    0    0  0.11220914996E+04 -0.35336496983E+03  0.75008215174E+00  0.11764168895E+04  0.00000000000E+00 0.  1.
         13    1    5    5    0    0 -0.41722549218E+03  0.71501058665E+02 -0.16463597293E+03  0.45419656130E+03  0.00000000000E+00 0. -1.
        -14    1    5    5    0    0 -0.14605498883E+03  0.62837810508E+02 -0.96688803792E+02  0.18608969603E+03  0.00000000000E+00 0.  1.
          2    1    6    6  502    0 -0.65420236465E+03  0.21034050005E+03  0.13345994000E+03  0.70002529630E+03  0.00000000000E+00 0. -1.
         -1    1    6    6    0  502 -0.43984748555E+03  0.15984608403E+03  0.15587627056E+03  0.49326868221E+03  0.00000000000E+00 0.  1.
<mgrwt>
<rscale>  0 0.17350377E+04</rscale>
<asrwt>0</asrwt>
<pdfrwt beam="1">  1        1 0.27272644E+00 0.17350377E+04</pdfrwt>
<pdfrwt beam="2">  1       -2 0.27628718E+00 0.17350377E+04</pdfrwt>
<totfact> 0.15176000E-01</totfact>
</mgrwt>
</event>
<event>
12    3  0.2212098E-007  0.1134887E+04  0.7818608E-02  0.9171841E-01
          1   -1    0    0  501    0  0.00000000000E+00  0.00000000000E+00  0.22611081507E+04  0.22611081507E+04  0.00000000000E+00 0. -1.
         -2   -1    0    0    0  501 -0.00000000000E+00 -0.00000000000E+00 -0.58591808290E+03  0.58591808290E+03  0.00000000000E+00 0.  1.
        -24    2    1    2    0    0  0.53580938850E+03 -0.91793782005E+03  0.61518341913E+03  0.12305200242E+04  0.77636000260E+02 0.  0.
    5000000    2    1    2    0    0 -0.53580938850E+03  0.91793782005E+03  0.10600066486E+04  0.16165062094E+04  0.59981387733E+03 0.  0.
        -24    2    4    4    0    0  0.11584947541E+03  0.12431358104E+03  0.12393676120E+03  0.22459922031E+03  0.78800517788E+02 0.  0.
         24    2    4    4    0    0 -0.65165886391E+03  0.79362423901E+03  0.93606988744E+03  0.13919069890E+04  0.81728356870E+02 0.  0.
         11    1    5    5    0    0  0.30424525572E+02  0.11182067154E+02  0.61868940743E+02  0.69845946273E+02  0.00000000000E+00 0. -1.
        -12    1    5    5    0    0  0.85424949838E+02  0.11313151388E+03  0.62067820452E+02  0.15475327403E+03  0.00000000000E+00 0.  1.
         13    1    3    3    0    0  0.19226577463E+03 -0.26151368841E+03  0.19929830441E+03  0.38088758376E+03  0.00000000000E+00 0. -1.
        -14    1    3    3    0    0  0.34354361387E+03 -0.65642413164E+03  0.41588511471E+03  0.84963244046E+03  0.00000000000E+00 0.  1.
          2    1    6    6  502    0 -0.24212940104E+03  0.23457006359E+03  0.30343097009E+03  0.45356379396E+03  0.00000000000E+00 0. -1.
         -1    1    6    6    0  502 -0.40952946287E+03  0.55905417542E+03  0.63263891735E+03  0.93834319508E+03  0.00000000000E+00 0.  1.
<mgrwt>
<rscale>  0 0.11348866E+04</rscale>
<asrwt>0</asrwt>
<pdfrwt beam="1">  1        1 0.34786279E+00 0.11348866E+04</pdfrwt>
<pdfrwt beam="2">  1       -2 0.90141245E-01 0.11348866E+04</pdfrwt>
<totfact> 0.18166080E+00</totfact>
</mgrwt>
</event>
<event>
12    3  0.2212098E-007  0.7642416E+03  0.7818608E-02  0.9613269E-01
         -2   -1    0    0    0  501 -0.00000000000E+00  0.00000000000E+00  0.66676820988E+03  0.66676820988E+03  0.00000000000E+00 0.  1.
          1   -1    0    0  501    0  0.00000000000E+00 -0.00000000000E+00 -0.13160448961E+04  0.13160448961E+04  0.00000000000E+00 0. -1.
        -24    2    1    2    0    0  0.60138126930E+03  0.26400151907E+03 -0.84378902116E+03  0.10721915598E+04  0.79111286408E+02 0.  0.
    5000000    2    1    2    0    0 -0.60138126930E+03 -0.26400151907E+03  0.19451233493E+03  0.91062154615E+03  0.60003359799E+03 0.  0.
        -24    2    4    4    0    0 -0.19217165607E+03 -0.38333650117E+03  0.21958796674E+01  0.43639294119E+03  0.80976284862E+02 0.  0.
         24    2    4    4    0    0 -0.40920961324E+03  0.11933498210E+03  0.19231645526E+03  0.47422860495E+03  0.78827693559E+02 0.  0.
         13    1    3    3    0    0  0.54574398972E+03  0.26185219271E+03 -0.76016810204E+03  0.97172970342E+03  0.00000000000E+00 0. -1.
        -14    1    3    3    0    0  0.55637279587E+02  0.21493263633E+01 -0.83620919117E+02  0.10046185643E+03  0.00000000000E+00 0.  1.
         13    1    5    5    0    0 -0.94963400309E+02 -0.11772544975E+03  0.22074503682E+02  0.15285487441E+03  0.00000000000E+00 0. -1.
        -14    1    5    5    0    0 -0.97208255757E+02 -0.26561105142E+03 -0.19878624014E+02  0.28353806678E+03  0.00000000000E+00 0.  1.
          2    1    6    6  502    0 -0.27516785076E+03  0.41167236004E+02  0.11899175525E+03  0.30260721279E+03  0.00000000000E+00 0. -1.
         -1    1    6    6    0  502 -0.13404176248E+03  0.78167746094E+02  0.73324700009E+02  0.17162139217E+03  0.00000000000E+00 0.  1.
<mgrwt>
<rscale>  0 0.76424162E+03</rscale>
<asrwt>0</asrwt>
<pdfrwt beam="1">  1        1 0.20246845E+00 0.76424162E+03</pdfrwt>
<pdfrwt beam="2">  1       -2 0.10257972E+00 0.76424162E+03</pdfrwt>
<totfact> 0.61728556E+00</totfact>
</mgrwt>
</event>
<event>
12    3  0.2212098E-007  0.6491082E+03  0.7818608E-02  0.9808454E-01
         -2   -1    0    0    0  501 -0.00000000000E+00  0.00000000000E+00  0.22726258192E+04  0.22726258192E+04  0.00000000000E+00 0.  1.
          1   -1    0    0  501    0  0.00000000000E+00 -0.00000000000E+00 -0.31503873465E+03  0.31503873465E+03  0.00000000000E+00 0. -1.
        -24    2    1    2    0    0 -0.31063084417E+03  0.44982855736E+03  0.16147216008E+04  0.17065710289E+04  0.78876969901E+02 0.  0.
    5000000    2    1    2    0    0  0.31063084417E+03 -0.44982855736E+03  0.34286548374E+03  0.88109352489E+03  0.59994317006E+03 0.  0.
        -24    2    4    4    0    0 -0.11633429627E+03 -0.25006237268E+03  0.27433225624E+03  0.39709566287E+03  0.79761644492E+02 0.  0.
         24    2    4    4    0    0  0.42696514044E+03 -0.19976618468E+03  0.68533227497E+02  0.48399786202E+03  0.85740115948E+02 0.  0.
         11    1    3    3    0    0 -0.92735422187E+02  0.98257035001E+02  0.31897594995E+03  0.34641010393E+03  0.00000000000E+00 0. -1.
        -12    1    3    3    0    0 -0.21789542198E+03  0.35157152236E+03  0.12957456508E+04  0.13601609250E+04  0.00000000000E+00 0.  1.
         13    1    5    5    0    0 -0.78409877766E+02 -0.12770370428E+03  0.97657833585E+02  0.17886698264E+03  0.00000000000E+00 0. -1.
        -14    1    5    5    0    0 -0.37924418504E+02 -0.12235866840E+03  0.17667442266E+03  0.21822868023E+03  0.00000000000E+00 0.  1.
          2    1    6    6  502    0  0.32885173463E+03 -0.15926846559E+03  0.16437375655E+02  0.36575961344E+03  0.00000000000E+00 0. -1.
         -1    1    6    6    0  502  0.98113405803E+02 -0.40497719088E+02  0.52095851842E+02  0.11823824859E+03  0.00000000000E+00 0.  1.
<mgrwt>
<rscale>  0 0.64910816E+03</rscale>
<asrwt>0</asrwt>
<pdfrwt beam="1">  1        1 0.48467499E-01 0.64910816E+03</pdfrwt>
<pdfrwt beam="2">  1       -2 0.34963473E+00 0.64910816E+03</pdfrwt>
<totfact> 0.12099332E+00</totfact>
</mgrwt>
</event>
<event>
12    3  0.2212098E-007  0.6335375E+03  0.7818608E-02  0.9838170E-01
          1   -1    0    0  501    0  0.00000000000E+00  0.00000000000E+00  0.77109112157E+03  0.77109112157E+03  0.00000000000E+00 0. -1.
         -2   -1    0    0    0  501 -0.00000000000E+00 -0.00000000000E+00 -0.63975765200E+03  0.63975765200E+03  0.00000000000E+00 0.  1.
        -24    2    1    2    0    0  0.47459760472E+03 -0.20763406871E+03 -0.18696870870E+03  0.55665126105E+03  0.80923022102E+02 0.  0.
    5000000    2    1    2    0    0 -0.47459760472E+03  0.20763406871E+03  0.31830217827E+03  0.85419751252E+03  0.59998526716E+03 0.  0.
        -24    2    4    4    0    0 -0.13758890769E+03  0.34887357103E+03  0.34874190472E+02  0.38512943107E+03  0.80405182832E+02 0.  0.
         24    2    4    4    0    0 -0.33700869702E+03 -0.14123950232E+03  0.28342798780E+03  0.46906808145E+03  0.78549232223E+02 0.  0.
         13    1    5    5    0    0 -0.64011668607E+02  0.23912921775E+03 -0.33966709082E+01  0.24757183578E+03  0.00000000000E+00 0. -1.
        -14    1    5    5    0    0 -0.73577239088E+02  0.10974435328E+03  0.38270861380E+02  0.13755759528E+03  0.00000000000E+00 0.  1.
         13    1    3    3    0    0  0.21258290289E+03 -0.59217003445E+02 -0.10606374616E+03  0.24484211718E+03  0.00000000000E+00 0. -1.
        -14    1    3    3    0    0  0.26201470183E+03 -0.14841706527E+03 -0.80904962536E+02  0.31180914387E+03  0.00000000000E+00 0.  1.
          2    1    6    6  502    0 -0.15615290919E+03 -0.71730178413E+02  0.84922524041E+02  0.19167885807E+03  0.00000000000E+00 0. -1.
         -1    1    6    6    0  502 -0.18085578783E+03 -0.69509323909E+02  0.19850546376E+03  0.27738922338E+03  0.00000000000E+00 0.  1.
<mgrwt>
<rscale>  0 0.63353750E+03</rscale>
<asrwt>0</asrwt>
<pdfrwt beam="1">  1        1 0.11862940E+00 0.63353750E+03</pdfrwt>
<pdfrwt beam="2">  1       -2 0.98424254E-01 0.63353750E+03</pdfrwt>
<totfact> 0.18209384E+01</totfact>
</mgrwt>
</event>
<event>
12    3  0.2212098E-007  0.1213208E+04  0.7818608E-02  0.9101373E-01
         -2   -1    0    0    0  501 -0.00000000000E+00  0.00000000000E+00  0.16505460921E+04  0.16505460921E+04  0.00000000000E+00 0.  1.
          1   -1    0    0  501    0  0.00000000000E+00 -0.00000000000E+00 -0.12446360443E+04  0.12446360443E+04  0.00000000000E+00 0. -1.
        -24    2    1    2    0    0 -0.11293820173E+04  0.30123799416E+03  0.91471537557E+03  0.14862518215E+04  0.77409227193E+02 0.  0.
    5000000    2    1    2    0    0  0.11293820173E+04 -0.30123799416E+03 -0.50880532774E+03  0.14089303149E+04  0.59996141598E+03 0.  0.
        -24    2    4    4    0    0  0.10488204340E+04 -0.38093342689E+03 -0.57252590060E+03  0.12566520403E+04  0.79081382040E+02 0.  0.
         24    2    4    4    0    0  0.80561583255E+02  0.79695432731E+02  0.63720572863E+02  0.15227827461E+03  0.79289537882E+02 0.  0.
         11    1    5    5    0    0  0.30560094019E+03 -0.14646275416E+03 -0.15736981105E+03  0.37364224926E+03  0.00000000000E+00 0. -1.
        -12    1    5    5    0    0  0.74321949385E+03 -0.23447067273E+03 -0.41515608955E+03  0.88300979106E+03  0.00000000000E+00 0.  1.
         11    1    3    3    0    0 -0.28402863131E+03  0.52569976319E+02  0.19498359788E+03  0.34850318400E+03  0.00000000000E+00 0. -1.
        -12    1    3    3    0    0 -0.84535338599E+03  0.24866801784E+03  0.71973177769E+03  0.11377486375E+04  0.00000000000E+00 0.  1.
          2    1    6    6  502    0  0.32024638852E+02  0.83564616845E+02  0.38176991881E+02  0.97293912405E+02  0.00000000000E+00 0. -1.
         -1    1    6    6    0  502  0.48536944403E+02 -0.38691841138E+01  0.25543580982E+02  0.54984362205E+02  0.00000000000E+00 0.  1.
<mgrwt>
<rscale>  0 0.12132081E+04</rscale>
<asrwt>0</asrwt>
<pdfrwt beam="1">  1        1 0.19148247E+00 0.12132081E+04</pdfrwt>
<pdfrwt beam="2">  1       -2 0.25393017E+00 0.12132081E+04</pdfrwt>
<totfact> 0.51502841E-01</totfact>
</mgrwt>
</event>
<event>
12    3  0.2212098E-007  0.8934575E+03  0.7818608E-02  0.9433797E-01
          1   -1    0    0  501    0  0.00000000000E+00  0.00000000000E+00  0.46331582670E+03  0.46331582670E+03  0.00000000000E+00 0. -1.
         -2   -1    0    0    0  501 -0.00000000000E+00 -0.00000000000E+00 -0.18226033847E+04  0.18226033847E+04  0.00000000000E+00 0.  1.
        -24    2    1    2    0    0 -0.77985001441E+03 -0.17112674799E+03 -0.83401797780E+03  0.11573741814E+04  0.80489748327E+02 0.  0.
    5000000    2    1    2    0    0  0.77985001441E+03  0.17112674799E+03 -0.52526958021E+03  0.11285450300E+04  0.60021274898E+03 0.  0.
        -24    2    4    4    0    0  0.16379722072E+03  0.31244186737E+03 -0.19499239537E+03  0.41093333212E+03  0.79966988144E+02 0.  0.
         24    2    4    4    0    0  0.61605279369E+03 -0.14131511938E+03 -0.33027718485E+03  0.71761169790E+03  0.79953252340E+02 0.  0.
         11    1    3    3    0    0 -0.30269538441E+03 -0.78181372972E+02 -0.27306980577E+03  0.41509509952E+03  0.00000000000E+00 0. -1.
        -12    1    3    3    0    0 -0.47715463000E+03 -0.92945375021E+02 -0.56094817202E+03  0.74227908186E+03  0.00000000000E+00 0.  1.
         13    1    5    5    0    0  0.49498616307E+02  0.14177071461E+03 -0.12014809044E+03  0.19231383771E+03  0.00000000000E+00 0. -1.
        -14    1    5    5    0    0  0.11429860442E+03  0.17067115276E+03 -0.74844304922E+02  0.21861949441E+03  0.00000000000E+00 0.  1.
          4    1    6    6  502    0  0.48309873264E+03 -0.99732225534E+02 -0.29163590813E+03  0.57304659950E+03  0.00000000000E+00 0. -1.
         -3    1    6    6    0  502  0.13295406105E+03 -0.41582893848E+02 -0.38641276720E+02  0.14456509840E+03  0.00000000000E+00 0.  1.
<mgrwt>
<rscale>  0 0.89345747E+03</rscale>
<asrwt>0</asrwt>
<pdfrwt beam="1">  1        1 0.71279358E-01 0.89345747E+03</pdfrwt>
<pdfrwt beam="2">  1       -2 0.28040052E+00 0.89345747E+03</pdfrwt>
<totfact> 0.18410379E+00</totfact>
</mgrwt>
</event>
<event>
12    3  0.2212098E-007  0.7060493E+03  0.7818608E-02  0.9706943E-01
         -2   -1    0    0    0  501 -0.00000000000E+00  0.00000000000E+00  0.27277466272E+03  0.27277466272E+03  0.00000000000E+00 0.  1.
          1   -1    0    0  501    0  0.00000000000E+00 -0.00000000000E+00 -0.25036865794E+04  0.25036865794E+04  0.00000000000E+00 0. -1.
        -24    2    1    2    0    0 -0.87802120089E+02 -0.69439025837E+03 -0.72577299298E+03  0.10114529083E+04  0.80021904719E+02 0.  0.
    5000000    2    1    2    0    0  0.87802120089E+02  0.69439025837E+03 -0.15051389237E+04  0.17650083337E+04  0.59993682625E+03 0.  0.
        -24    2    4    4    0    0  0.75717253354E+02  0.43998200140E+03 -0.33215819252E+03  0.56200944590E+03  0.78792692617E+02 0.  0.
         24    2    4    4    0    0  0.12084866735E+02  0.25440825696E+03 -0.11729807311E+04  0.12029988878E+04  0.80330089850E+02 0.  0.
         13    1    3    3    0    0 -0.49012306464E+02 -0.16437051710E+03 -0.14935156115E+03  0.22743298331E+03  0.00000000000E+00 0. -1.
        -14    1    3    3    0    0 -0.38789813625E+02 -0.53001974126E+03 -0.57642143183E+03  0.78401992503E+03  0.00000000000E+00 0.  1.
         13    1    5    5    0    0 -0.45460032440E+00  0.22962456607E+03 -0.16856608866E+03  0.28485465461E+03  0.00000000000E+00 0. -1.
        -14    1    5    5    0    0  0.76171853679E+02  0.21035743533E+03 -0.16359210386E+03  0.27715479129E+03  0.00000000000E+00 0.  1.
          4    1    6    6  502    0 -0.58735298285E+01  0.12546687422E+03 -0.40396780105E+03  0.42304422838E+03  0.00000000000E+00 0. -1.
         -3    1    6    6    0  502  0.17958396563E+02  0.12894138274E+03 -0.76901293008E+03  0.77995465947E+03  0.00000000000E+00 0.  1.
<mgrwt>
<rscale>  0 0.70604935E+03</rscale>
<asrwt>0</asrwt>
<pdfrwt beam="1">  1        1 0.38518257E+00 0.70604935E+03</pdfrwt>
<pdfrwt beam="2">  1       -2 0.41965331E-01 0.70604935E+03</pdfrwt>
<totfact> 0.67515951E+00</totfact>
</mgrwt>
</event>
<event>
12    3  0.2212098E-007  0.3521446E+03  0.7818608E-02  0.1061738E+00
         -2   -1    0    0    0  501 -0.00000000000E+00  0.00000000000E+00  0.11325573128E+04  0.11325573128E+04  0.00000000000E+00 0.  1.
          1   -1    0    0  501    0  0.00000000000E+00 -0.00000000000E+00 -0.18596417252E+03  0.18596417252E+03  0.00000000000E+00 0. -1.
        -24    2    1    2    0    0  0.21923879268E+03  0.11817176919E+03  0.34623123175E+03  0.43394202880E+03  0.79996270348E+02 0.  0.
    5000000    2    1    2    0    0 -0.21923879268E+03 -0.11817176919E+03  0.60036190857E+03  0.88457945657E+03  0.60001348191E+03 0.  0.
        -24    2    4    4    0    0 -0.30887062140E+03 -0.92429533846E+02  0.69604896534E+02  0.33962623578E+03  0.80974433738E+02 0.  0.
         24    2    4    4    0    0  0.89631828716E+02 -0.25742235347E+02  0.53075701204E+03  0.54495322079E+03  0.81083164846E+02 0.  0.
         11    1    3    3    0    0  0.62066091366E+02  0.25946450412E+02  0.41993949803E+02  0.79302646907E+02  0.00000000000E+00 0. -1.
        -12    1    3    3    0    0  0.15717270131E+03  0.92225318781E+02  0.30423728195E+03  0.35463938189E+03  0.00000000000E+00 0.  1.
         11    1    5    5    0    0 -0.28264058990E+03 -0.58769300806E+02  0.51373393460E+02  0.29322134870E+03  0.00000000000E+00 0. -1.
        -12    1    5    5    0    0 -0.26230031492E+02 -0.33660233040E+02  0.18231503074E+02  0.46404887078E+02  0.00000000000E+00 0.  1.
          2    1    6    6  502    0  0.59926773177E+02  0.24755853758E+02  0.26538278779E+03  0.27318875250E+03  0.00000000000E+00 0. -1.
         -1    1    6    6    0  502  0.29705055539E+02 -0.50498089105E+02  0.26537422425E+03  0.27176446829E+03  0.00000000000E+00 0.  1.
<mgrwt>
<rscale>  0 0.35214460E+03</rscale>
<asrwt>0</asrwt>
<pdfrwt beam="1">  1        1 0.28609873E-01 0.35214460E+03</pdfrwt>
<pdfrwt beam="2">  1       -2 0.17423958E+00 0.35214460E+03</pdfrwt>
<totfact> 0.29935649E+01</totfact>
</mgrwt>
</event>
<event>
12    3  0.2212098E-007  0.1090799E+04  0.7818608E-02  0.9214207E-01
         -2   -1    0    0    0  501 -0.00000000000E+00  0.00000000000E+00  0.11925781657E+04  0.11925781657E+04  0.00000000000E+00 0.  1.
          1   -1    0    0  501    0  0.00000000000E+00 -0.00000000000E+00 -0.13272884818E+04  0.13272884818E+04  0.00000000000E+00 0. -1.
        -24    2    1    2    0    0  0.72370405855E+03 -0.77899373427E+03  0.46062801849E+03  0.11615213130E+04  0.79842261166E+02 0.  0.
    5000000    2    1    2    0    0 -0.72370405855E+03  0.77899373427E+03 -0.59533833459E+03  0.13583453344E+04  0.60007958853E+03 0.  0.
        -24    2    4    4    0    0 -0.69682299337E+03  0.60521205604E+03 -0.67836499580E+03  0.11482277244E+04  0.80024513566E+02 0.  0.
         24    2    4    4    0    0 -0.26881065179E+02  0.17378167824E+03  0.83026661214E+02  0.21011761000E+03  0.79582160099E+02 0.  0.
         11    1    3    3    0    0  0.34046977006E+03 -0.42285655887E+03  0.24654712637E+03  0.59624895742E+03  0.00000000000E+00 0. -1.
        -12    1    3    3    0    0  0.38323428849E+03 -0.35613717541E+03  0.21408089212E+03  0.56527235555E+03  0.00000000000E+00 0.  1.
         11    1    5    5    0    0 -0.38346221714E+03  0.37004822584E+03 -0.42543942112E+03  0.68189270598E+03  0.00000000000E+00 0. -1.
        -12    1    5    5    0    0 -0.31336077623E+03  0.23516383020E+03 -0.25292557468E+03  0.46633501846E+03  0.00000000000E+00 0.  1.
          2    1    6    6  502    0  0.24495215197E+02  0.33759715515E+02  0.56490418484E+01  0.42090921029E+02  0.00000000000E+00 0. -1.
         -1    1    6    6    0  502 -0.51376280376E+02  0.14002196272E+03  0.77377619365E+02  0.16802668898E+03  0.00000000000E+00 0.  1.
<mgrwt>
<rscale>  0 0.10907986E+04</rscale>
<asrwt>0</asrwt>
<pdfrwt beam="1">  1        1 0.20419823E+00 0.10907986E+04</pdfrwt>
<pdfrwt beam="2">  1       -2 0.18347356E+00 0.10907986E+04</pdfrwt>
<totfact> 0.12837990E+00</totfact>
</mgrwt>
</event>
<event>
12    3  0.2212098E-007  0.3048111E+03  0.7818608E-02  0.1082860E+00
         -2   -1    0    0    0  501 -0.00000000000E+00  0.00000000000E+00  0.68658415595E+02  0.68658415595E+02  0.00000000000E+00 0.  1.
          1   -1    0    0  501    0  0.00000000000E+00 -0.00000000000E+00 -0.30908590945E+04  0.30908590945E+04  0.00000000000E+00 0. -1.
        -24    2    1    2    0    0 -0.11859300294E+03  0.22391391724E+03 -0.74063283548E+03  0.78682861512E+03  0.79752930313E+02 0.  0.
    5000000    2    1    2    0    0  0.11859300294E+03 -0.22391391724E+03 -0.22815678434E+04  0.23726888950E+04  0.59991584870E+03 0.  0.
        -24    2    4    4    0    0  0.79599247285E+02  0.59520837772E+01 -0.44140296631E+02  0.12168592651E+03  0.80545834493E+02 0.  0.
         24    2    4    4    0    0  0.38993755659E+02 -0.22986600102E+03 -0.22374275468E+04  0.22510029684E+04  0.81076787656E+02 0.  0.
         11    1    3    3    0    0 -0.35325245399E+01  0.21703142059E+02 -0.20560121473E+02  0.30103549622E+02  0.00000000000E+00 0. -1.
        -12    1    3    3    0    0 -0.11506047840E+03  0.20221077518E+03 -0.72007271401E+03  0.75672506550E+03  0.00000000000E+00 0.  1.
         11    1    5    5    0    0  0.34539189747E+02 -0.37145059625E+02 -0.15240846527E+02  0.52962198649E+02  0.00000000000E+00 0. -1.
        -12    1    5    5    0    0  0.45060057538E+02  0.43097143402E+02 -0.28899450104E+02  0.68723727860E+02  0.00000000000E+00 0.  1.
          4    1    6    6  502    0 -0.14571464908E+02 -0.10539763278E+03 -0.76697806948E+03  0.77432315453E+03  0.00000000000E+00 0. -1.
         -3    1    6    6    0  502  0.53565220567E+02 -0.12446836824E+03 -0.14704494773E+04  0.14766798139E+04  0.00000000000E+00 0.  1.
<mgrwt>
<rscale>  0 0.30481114E+03</rscale>
<asrwt>0</asrwt>
<pdfrwt beam="1">  1        1 0.47551666E+00 0.30481114E+03</pdfrwt>
<pdfrwt beam="2">  1       -2 0.10562836E-01 0.30481114E+03</pdfrwt>
<totfact> 0.33021905E+01</totfact>
</mgrwt>
</event>
<event>
12    3  0.2212098E-007  0.1329537E+04  0.7818608E-02  0.9006464E-01
         -2   -1    0    0    0  501 -0.00000000000E+00  0.00000000000E+00  0.15712264345E+04  0.15712264345E+04  0.00000000000E+00 0.  1.
          1   -1    0    0  501    0  0.00000000000E+00 -0.00000000000E+00 -0.13244289037E+04  0.13244289037E+04  0.00000000000E+00 0. -1.
        -24    2    1    2    0    0 -0.12547685605E+04  0.14815355830E+03  0.67254188177E+03  0.14336022920E+04  0.80680429508E+02 0.  0.
    5000000    2    1    2    0    0  0.12547685605E+04 -0.14815355830E+03 -0.42574435101E+03  0.14620530462E+04  0.59995603197E+03 0.  0.
        -24    2    4    4    0    0  0.37196894702E+03 -0.31672163457E+03 -0.18121407261E+03  0.52733697817E+03  0.81069458356E+02 0.  0.
         24    2    4    4    0    0  0.88279961348E+03  0.16856807628E+03 -0.24453027839E+03  0.93471606805E+03  0.78413754671E+02 0.  0.
         11    1    5    5    0    0  0.24703658793E+03 -0.17679444671E+03 -0.79773351500E+02  0.31408142220E+03  0.00000000000E+00 0. -1.
        -12    1    5    5    0    0  0.12493235909E+03 -0.13992718786E+03 -0.10144072111E+03  0.21325555597E+03  0.00000000000E+00 0.  1.
         13    1    3    3    0    0 -0.94794500669E+03  0.80229086573E+02  0.48850999521E+03  0.10694290334E+04  0.00000000000E+00 0. -1.
        -14    1    3    3    0    0 -0.30682355381E+03  0.67924471726E+02  0.18403188657E+03  0.36417325863E+03  0.00000000000E+00 0.  1.
          4    1    6    6  502    0  0.10804151225E+03  0.47256612707E+02 -0.34981853121E+02  0.12300360101E+03  0.00000000000E+00 0. -1.
         -3    1    6    6    0  502  0.77475810123E+03  0.12131146357E+03 -0.20954842527E+03  0.81171246704E+03  0.00000000000E+00 0.  1.
<mgrwt>
<rscale>  0 0.13295371E+04</rscale>
<asrwt>0</asrwt>
<pdfrwt beam="1">  1        1 0.20375829E+00 0.13295371E+04</pdfrwt>
<pdfrwt beam="2">  1       -2 0.24172715E+00 0.13295371E+04</pdfrwt>
<totfact> 0.52909404E-01</totfact>
</mgrwt>
</event>
<event>
12    3  0.2212098E-007  0.3727744E+03  0.7818608E-02  0.1053637E+00
          1   -1    0    0  501    0  0.00000000000E+00  0.00000000000E+00  0.17513433966E+04  0.17513433966E+04  0.00000000000E+00 0. -1.
         -2   -1    0    0    0  501 -0.00000000000E+00 -0.00000000000E+00 -0.22008706286E+03  0.22008706286E+03  0.00000000000E+00 0.  1.
        -24    2    1    2    0    0  0.31597533614E+03 -0.14789256661E+03  0.10932843176E+04  0.11504296321E+04  0.80654294032E+02 0.  0.
    5000000    2    1    2    0    0 -0.31597533614E+03  0.14789256661E+03  0.43797201613E+03  0.82100082728E+03  0.60042505543E+03 0.  0.
        -24    2    4    4    0    0 -0.23851125236E+03  0.35062620401E+02  0.56414960410E+03  0.61860012785E+03  0.79273813582E+02 0.  0.
         24    2    4    4    0    0 -0.77464083779E+02  0.11282994621E+03 -0.12617758797E+03  0.20240069943E+03  0.79460546096E+02 0.  0.
         11    1    3    3    0    0  0.15518479929E+03 -0.30326568098E+02  0.52148956012E+03  0.54493429326E+03  0.00000000000E+00 0. -1.
        -12    1    3    3    0    0  0.16079053685E+03 -0.11756599851E+03  0.57179475746E+03  0.60549533888E+03  0.00000000000E+00 0.  1.
         13    1    5    5    0    0 -0.12834545039E+03 -0.13754198750E+02  0.34744202494E+03  0.37064496937E+03  0.00000000000E+00 0. -1.
        -14    1    5    5    0    0 -0.11016580198E+03  0.48816819151E+02  0.21670757916E+03  0.24795515849E+03  0.00000000000E+00 0.  1.
          4    1    6    6  502    0 -0.18572484745E+02  0.45891216435E+02 -0.96457434239E+02  0.10842037426E+03  0.00000000000E+00 0. -1.
         -3    1    6    6    0  502 -0.58891599034E+02  0.66938729773E+02 -0.29720153736E+02  0.93980325167E+02  0.00000000000E+00 0.  1.
<mgrwt>
<rscale>  0 0.37277441E+03</rscale>
<asrwt>0</asrwt>
<pdfrwt beam="1">  1        1 0.26943744E+00 0.37277441E+03</pdfrwt>
<pdfrwt beam="2">  1       -2 0.33859549E-01 0.37277441E+03</pdfrwt>
<totfact> 0.34579315E+01</totfact>
</mgrwt>
</event>
<event>
12    3  0.2212098E-007  0.7116592E+03  0.7818608E-02  0.9697499E-01
         -4   -1    0    0    0  501 -0.00000000000E+00  0.00000000000E+00  0.82939386558E+03  0.82939386558E+03  0.00000000000E+00 0.  1.
          3   -1    0    0  501    0  0.00000000000E+00 -0.00000000000E+00 -0.78531560419E+03  0.78531560419E+03  0.00000000000E+00 0. -1.
        -24    2    1    2    0    0  0.67435167774E+03 -0.15695488247E+03 -0.14275137558E+02  0.69670383461E+03  0.76206516826E+02 0.  0.
    5000000    2    1    2    0    0 -0.67435167774E+03  0.15695488247E+03  0.58353398949E+02  0.91800563515E+03  0.59995350369E+03 0.  0.
        -24    2    4    4    0    0 -0.16191320402E+03 -0.29356146769E+02  0.27109921922E+03  0.32732560774E+03  0.81053055658E+02 0.  0.
         24    2    4    4    0    0 -0.51243847372E+03  0.18631102924E+03 -0.21274582027E+03  0.59068002741E+03  0.79606041070E+02 0.  0.
         11    1    5    5    0    0 -0.16169152028E+03 -0.41461616459E+02  0.22809274123E+03  0.28264732790E+03  0.00000000000E+00 0. -1.
        -12    1    5    5    0    0 -0.22168374191E+00  0.12105469690E+02  0.43006477986E+02  0.44678279834E+02  0.00000000000E+00 0.  1.
         13    1    3    3    0    0  0.54449942227E+03 -0.10602038988E+03 -0.34323089652E+02  0.55578594657E+03  0.00000000000E+00 0. -1.
        -14    1    3    3    0    0  0.12985225547E+03 -0.50934492596E+02  0.20047952094E+02  0.14091788804E+03  0.00000000000E+00 0.  1.
          4    1    6    6  502    0 -0.19817004178E+03  0.34831062329E+02 -0.61139968072E+02  0.21029185448E+03  0.00000000000E+00 0. -1.
         -3    1    6    6    0  502 -0.31426843194E+03  0.15147996692E+03 -0.15160585220E+03  0.38038817294E+03  0.00000000000E+00 0.  1.
<mgrwt>
<rscale>  0 0.71165923E+03</rscale>
<asrwt>0</asrwt>
<pdfrwt beam="1">  1        3 0.12081778E+00 0.71165923E+03</pdfrwt>
<pdfrwt beam="2">  1       -4 0.12759906E+00 0.71165923E+03</pdfrwt>
<totfact> 0.56903907E-01</totfact>
</mgrwt>
</event>
<event>
12    3  0.2212098E-007  0.7678025E+03  0.7818608E-02  0.9607828E-01
         -2   -1    0    0    0  501 -0.00000000000E+00  0.00000000000E+00  0.93775764069E+03  0.93775764069E+03  0.00000000000E+00 0.  1.
          1   -1    0    0  501    0  0.00000000000E+00 -0.00000000000E+00 -0.14847330442E+04  0.14847330442E+04  0.00000000000E+00 0. -1.
        -24    2    1    2    0    0 -0.33216577354E+03  0.66110744676E+03  0.58266046503E+03  0.94482909511E+03  0.76234140527E+02 0.  0.
    5000000    2    1    2    0    0  0.33216577354E+03 -0.66110744676E+03 -0.11296358685E+04  0.14776615898E+04  0.60000785089E+03 0.  0.
        -24    2    4    4    0    0  0.10685592513E+03 -0.50618012686E+03 -0.10637808830E+04  0.11857433194E+04  0.81981357213E+02 0.  0.
         24    2    4    4    0    0  0.22530984841E+03 -0.15492731990E+03 -0.65854985534E+02  0.29191827036E+03  0.78181808667E+02 0.  0.
         11    1    3    3    0    0 -0.25548965359E+03  0.53317295702E+03  0.42740135686E+03  0.72953429326E+03  0.00000000000E+00 0. -1.
        -12    1    3    3    0    0 -0.76676119952E+02  0.12793448974E+03  0.15525910817E+03  0.21529480185E+03  0.00000000000E+00 0.  1.
         13    1    5    5    0    0  0.88653417096E+02 -0.27859315109E+03 -0.53241901920E+03  0.60740726387E+03  0.00000000000E+00 0. -1.
        -14    1    5    5    0    0  0.18202508037E+02 -0.22758697578E+03 -0.53136186379E+03  0.57833605554E+03  0.00000000000E+00 0.  1.
          2    1    6    6  502    0  0.12678046561E+03 -0.10193690400E+03 -0.76054523361E+02  0.17957925655E+03  0.00000000000E+00 0. -1.
         -1    1    6    6    0  502  0.98529382802E+02 -0.52990415894E+02  0.10199537827E+02  0.11233901381E+03  0.00000000000E+00 0.  1.
<mgrwt>
<rscale>  0 0.76780246E+03</rscale>
<asrwt>0</asrwt>
<pdfrwt beam="1">  1        1 0.22842047E+00 0.76780246E+03</pdfrwt>
<pdfrwt beam="2">  1       -2 0.14427041E+00 0.76780246E+03</pdfrwt>
<totfact> 0.20142668E+00</totfact>
</mgrwt>
</event>
<event>
12    3  0.2212098E-007  0.6555393E+03  0.7818608E-02  0.9796440E-01
         -2   -1    0    0    0  501 -0.00000000000E+00  0.00000000000E+00  0.38391262413E+03  0.38391262413E+03  0.00000000000E+00 0.  1.
          1   -1    0    0  501    0  0.00000000000E+00 -0.00000000000E+00 -0.14106621352E+04  0.14106621352E+04  0.00000000000E+00 0. -1.
        -24    2    1    2    0    0 -0.52132773827E+03  0.31788935712E+03 -0.42626046369E+03  0.74892515668E+03  0.79716079555E+02 0.  0.
    5000000    2    1    2    0    0  0.52132773827E+03 -0.31788935712E+03 -0.60048904741E+03  0.10456496027E+04  0.59996645031E+03 0.  0.
        -24    2    4    4    0    0  0.29555904383E+03  0.57316644919E+01  0.18511593455E+02  0.30719360138E+03  0.81469192147E+02 0.  0.
         24    2    4    4    0    0  0.22576869444E+03 -0.32362102161E+03 -0.61900064086E+03  0.73845600131E+03  0.80333078308E+02 0.  0.
         13    1    5    5    0    0  0.53255581225E+02  0.16451501525E+02 -0.24470932510E+02  0.60873930150E+02  0.00000000000E+00 0. -1.
        -14    1    5    5    0    0  0.24230346260E+03 -0.10719837033E+02  0.42982525965E+02  0.24631967123E+03  0.00000000000E+00 0.  1.
         13    1    3    3    0    0 -0.23359883509E+03  0.11514387973E+03 -0.22027165838E+03  0.34109548851E+03  0.00000000000E+00 0. -1.
        -14    1    3    3    0    0 -0.28772890318E+03  0.20274547738E+03 -0.20598880531E+03  0.40782966817E+03  0.00000000000E+00 0.  1.
          4    1    6    6  502    0  0.11385799762E+03 -0.10549023517E+03 -0.20229741649E+03  0.25498250540E+03  0.00000000000E+00 0. -1.
         -3    1    6    6    0  502  0.11191069682E+03 -0.21813078644E+03 -0.41670322437E+03  0.48347349592E+03  0.00000000000E+00 0.  1.
<mgrwt>
<rscale>  0 0.65553927E+03</rscale>
<asrwt>0</asrwt>
<pdfrwt beam="1">  1        1 0.21702495E+00 0.65553927E+03</pdfrwt>
<pdfrwt beam="2">  1       -2 0.59063480E-01 0.65553927E+03</pdfrwt>
<totfact> 0.18487583E+01</totfact>
</mgrwt>
</event>
<event>
12    3  0.2212098E-007  0.4121644E+03  0.7818608E-02  0.1039647E+00
         -2   -1    0    0    0  501 -0.00000000000E+00  0.00000000000E+00  0.30872881119E+03  0.30872881119E+03  0.00000000000E+00 0.  1.
          1   -1    0    0  501    0  0.00000000000E+00 -0.00000000000E+00 -0.85287465682E+03  0.85287465682E+03  0.00000000000E+00 0. -1.
        -24    2    1    2    0    0 -0.23938179645E+03  0.22196362127E+03 -0.24327457330E+03  0.41520181996E+03  0.81477233918E+02 0.  0.
    5000000    2    1    2    0    0  0.23938179645E+03 -0.22196362127E+03 -0.30087127234E+03  0.74640164805E+03  0.60001700314E+03 0.  0.
        -24    2    4    4    0    0 -0.11029475803E+02  0.86460606678E+02 -0.32006657439E+03  0.34117483124E+03  0.79753166588E+02 0.  0.
         24    2    4    4    0    0  0.25041127225E+03 -0.30842422795E+03  0.19195302055E+02  0.40522681681E+03  0.77517764332E+02 0.  0.
         11    1    5    5    0    0 -0.13505406770E+02  0.66690438207E+02 -0.31256356332E+03  0.31988434109E+03  0.00000000000E+00 0. -1.
        -12    1    5    5    0    0  0.24759309671E+01  0.19770168471E+02 -0.75030110789E+01  0.21290490149E+02  0.00000000000E+00 0.  1.
         11    1    3    3    0    0 -0.19400409759E+03  0.21649740316E+03 -0.20756365374E+03  0.35719936423E+03  0.00000000000E+00 0. -1.
        -12    1    3    3    0    0 -0.45377698862E+02  0.54662181070E+01 -0.35710919562E+02  0.58002455727E+02  0.00000000000E+00 0.  1.
          4    1    6    6  502    0  0.89124688885E+02 -0.14598410106E+03 -0.22617437633E+02  0.17252859594E+03  0.00000000000E+00 0. -1.
         -3    1    6    6    0  502  0.16128658337E+03 -0.16244012688E+03  0.41812739689E+02  0.23269822087E+03  0.00000000000E+00 0.  1.
<mgrwt>
<rscale>  0 0.41216441E+03</rscale>
<asrwt>0</asrwt>
<pdfrwt beam="1">  1        1 0.13121149E+00 0.41216441E+03</pdfrwt>
<pdfrwt beam="2">  1       -2 0.47496740E-01 0.41216441E+03</pdfrwt>
<totfact> 0.77199322E+01</totfact>
</mgrwt>
</event>
<event>
12    3  0.2212098E-007  0.3257446E+03  0.7818608E-02  0.1073035E+00
         -4   -1    0    0    0  501 -0.00000000000E+00  0.00000000000E+00  0.75819860667E+02  0.75819860667E+02  0.00000000000E+00 0.  1.
          1   -1    0    0  501    0  0.00000000000E+00 -0.00000000000E+00 -0.27661383183E+04  0.27661383183E+04  0.00000000000E+00 0. -1.
        -24    2    1    2    0    0 -0.22655050087E+03  0.11257603423E+03 -0.79560664835E+03  0.83847793029E+03  0.77825495492E+02 0.  0.
    5000000    2    1    2    0    0  0.22655050087E+03 -0.11257603423E+03 -0.18947118093E+04  0.20034802487E+04  0.60000147809E+03 0.  0.
        -24    2    4    4    0    0 -0.46639033028E+02 -0.71510679633E+02 -0.35725750872E+02  0.12236746185E+03  0.80053043293E+02 0.  0.
         24    2    4    4    0    0  0.27318953389E+03 -0.41065354600E+02 -0.18589860585E+04  0.18811127869E+04  0.80232578480E+02 0.  0.
         11    1    5    5    0    0  0.22149632020E+02 -0.15106638415E+02 -0.16093732583E+02  0.31270192696E+02  0.00000000000E+00 0. -1.
        -12    1    5    5    0    0 -0.68788665048E+02 -0.56404041218E+02 -0.19632018289E+02  0.91097269152E+02  0.00000000000E+00 0.  1.
         13    1    3    3    0    0 -0.14520597589E+03  0.10160391387E+03 -0.61633632912E+03  0.64131006646E+03  0.00000000000E+00 0. -1.
        -14    1    3    3    0    0 -0.81344524974E+02  0.10972120358E+02 -0.17927031923E+03  0.19716786383E+03  0.00000000000E+00 0.  1.
          2    1    6    6  502    0  0.41604731085E+02 -0.28695266584E+01 -0.13707759111E+03  0.14328103090E+03  0.00000000000E+00 0. -1.
         -1    1    6    6    0  502  0.23158480281E+03 -0.38195827942E+02 -0.17219084673E+04  0.17378317560E+04  0.00000000000E+00 0.  1.
<mgrwt>
<rscale>  0 0.32574457E+03</rscale>
<asrwt>0</asrwt>
<pdfrwt beam="1">  1        1 0.42555968E+00 0.32574457E+03</pdfrwt>
<pdfrwt beam="2">  1       -4 0.11664596E-01 0.32574457E+03</pdfrwt>
<totfact> 0.29159352E+01</totfact>
</mgrwt>
</event>
<event>
12    3  0.2212098E-007  0.5628115E+03  0.7818608E-02  0.9985713E-01
          1   -1    0    0  501    0  0.00000000000E+00  0.00000000000E+00  0.45708926650E+03  0.45708926650E+03  0.00000000000E+00 0. -1.
         -2   -1    0    0    0  501 -0.00000000000E+00 -0.00000000000E+00 -0.72830605295E+03  0.72830605295E+03  0.00000000000E+00 0.  1.
        -24    2    1    2    0    0 -0.33945302849E+03  0.24077229016E+03 -0.10077462807E+03  0.43572128066E+03  0.80609270543E+02 0.  0.
    5000000    2    1    2    0    0  0.33945302849E+03 -0.24077229016E+03 -0.17044215839E+03  0.74967403880E+03  0.59980078429E+03 0.  0.
        -24    2    4    4    0    0  0.48010399971E+03 -0.27438148910E+03 -0.74115233449E+02  0.56339591894E+03  0.78337995606E+02 0.  0.
         24    2    4    4    0    0 -0.14065097122E+03  0.33609198945E+02 -0.96326924939E+02  0.18627811985E+03  0.67144527029E+02 0.  0.
         11    1    5    5    0    0  0.18973993028E+03 -0.15288418265E+03 -0.36819646631E+02  0.24643559164E+03  0.00000000000E+00 0. -1.
        -12    1    5    5    0    0  0.29036406943E+03 -0.12149730645E+03 -0.37295586818E+02  0.31696032730E+03  0.00000000000E+00 0.  1.
         13    1    3    3    0    0 -0.79278300760E+02  0.24960011765E+02 -0.40116660819E+02  0.92289748260E+02  0.00000000000E+00 0. -1.
        -14    1    3    3    0    0 -0.26017472773E+03  0.21581227839E+03 -0.60657967250E+02  0.34343153240E+03  0.00000000000E+00 0.  1.
          2    1    6    6  502    0 -0.63476354443E+02  0.47490153041E+01 -0.58745301988E+01  0.63924258500E+02  0.00000000000E+00 0. -1.
         -1    1    6    6    0  502 -0.77174616776E+02  0.28860183641E+02 -0.90452394740E+02  0.12235386136E+03  0.00000000000E+00 0.  1.
<mgrwt>
<rscale>  0 0.56281152E+03</rscale>
<asrwt>0</asrwt>
<pdfrwt beam="1">  1        1 0.70321427E-01 0.56281152E+03</pdfrwt>
<pdfrwt beam="2">  1       -2 0.11204708E+00 0.56281152E+03</pdfrwt>
<totfact> 0.28491987E+01</totfact>
</mgrwt>
</event>
<event>
12    3  0.2212098E-007  0.1250660E+04  0.7818608E-02  0.9069634E-01
         -2   -1    0    0    0  501 -0.00000000000E+00  0.00000000000E+00  0.50216373823E+03  0.50216373823E+03  0.00000000000E+00 0.  1.
          1   -1    0    0  501    0  0.00000000000E+00 -0.00000000000E+00 -0.32319364958E+04  0.32319364958E+04  0.00000000000E+00 0. -1.
        -24    2    1    2    0    0  0.59400400348E+03 -0.10403168026E+04 -0.11451670827E+04  0.16589951308E+04  0.75877473749E+02 0.  0.
    5000000    2    1    2    0    0 -0.59400400348E+03  0.10403168026E+04 -0.15846056749E+04  0.20751051032E+04  0.59998853205E+03 0.  0.
        -24    2    4    4    0    0  0.69343505538E+02  0.27072773938E+03 -0.55372580948E+03  0.62550489347E+03  0.80883057837E+02 0.  0.
         24    2    4    4    0    0 -0.66334750901E+03  0.76958906319E+03 -0.10308798655E+04  0.14496002098E+04  0.79562725227E+02 0.  0.
         13    1    3    3    0    0  0.15105240220E+03 -0.24814483293E+03 -0.32231795660E+03  0.43391422132E+03  0.00000000000E+00 0. -1.
        -14    1    3    3    0    0  0.44295160128E+03 -0.79217196964E+03 -0.82284912608E+03  0.12250809095E+04  0.00000000000E+00 0.  1.
         13    1    5    5    0    0  0.62595276494E+02  0.12468904339E+03 -0.32960505922E+03  0.35791761796E+03  0.00000000000E+00 0. -1.
        -14    1    5    5    0    0  0.67482290434E+01  0.14603869598E+03 -0.22412075027E+03  0.26758727552E+03  0.00000000000E+00 0.  1.
          4    1    6    6  502    0 -0.12924504187E+02  0.29566552904E+02 -0.48759832311E+02  0.58470035968E+02  0.00000000000E+00 0. -1.
         -3    1    6    6    0  502 -0.65042300483E+03  0.74002251029E+03 -0.98212003314E+03  0.13911301738E+04  0.00000000000E+00 0.  1.
<mgrwt>
<rscale>  0 0.12506605E+04</rscale>
<asrwt>0</asrwt>
<pdfrwt beam="1">  1        1 0.49722098E+00 0.12506605E+04</pdfrwt>
<pdfrwt beam="2">  1       -2 0.77255963E-01 0.12506605E+04</pdfrwt>
<totfact> 0.52375414E-01</totfact>
</mgrwt>
</event>
<event>
12    3  0.2212098E-007  0.7296697E+03  0.7818608E-02  0.9667796E-01
         -2   -1    0    0    0  501 -0.00000000000E+00  0.00000000000E+00  0.49141239186E+03  0.49141239186E+03  0.00000000000E+00 0.  1.
          1   -1    0    0  501    0  0.00000000000E+00 -0.00000000000E+00 -0.11426396594E+04  0.11426396594E+04  0.00000000000E+00 0. -1.
        -24    2    1    2    0    0  0.25617869090E+03 -0.56107326810E+03 -0.15577222848E+03  0.64115537360E+03  0.79903016701E+02 0.  0.
    5000000    2    1    2    0    0 -0.25617869090E+03  0.56107326810E+03 -0.49545503911E+03  0.99289667770E+03  0.59994781687E+03 0.  0.
        -24    2    4    4    0    0  0.11422213965E+03 -0.28031246129E+02 -0.16707777225E+03  0.21913351988E+03  0.79196398982E+02 0.  0.
         24    2    4    4    0    0 -0.37040083055E+03  0.58910451423E+03 -0.32837726685E+03  0.77376315782E+03  0.81467116370E+02 0.  0.
         13    1    3    3    0    0  0.37324715306E+02 -0.11505977603E+03 -0.16148883507E+01  0.12097311394E+03  0.00000000000E+00 0. -1.
        -14    1    3    3    0    0  0.21885397560E+03 -0.44601349207E+03 -0.15415734013E+03  0.52018225966E+03  0.00000000000E+00 0.  1.
         13    1    5    5    0    0  0.66060673499E+02 -0.54947708946E+02 -0.11212235769E+03  0.14126105760E+03  0.00000000000E+00 0. -1.
        -14    1    5    5    0    0  0.48161466146E+02  0.26916462817E+02 -0.54955414562E+02  0.77872462280E+02  0.00000000000E+00 0.  1.
          2    1    6    6  502    0 -0.11292394423E+03  0.11633879609E+03 -0.69006225106E+02  0.17620553839E+03  0.00000000000E+00 0. -1.
         -1    1    6    6    0  502 -0.25747688632E+03  0.47276571814E+03 -0.25937104175E+03  0.59755761943E+03  0.00000000000E+00 0.  1.
<mgrwt>
<rscale>  0 0.72966974E+03</rscale>
<asrwt>0</asrwt>
<pdfrwt beam="1">  1        1 0.17579071E+00 0.72966974E+03</pdfrwt>
<pdfrwt beam="2">  1       -2 0.75601908E-01 0.72966974E+03</pdfrwt>
<totfact> 0.16660302E+01</totfact>
</mgrwt>
</event>
<event>
12    3  0.2212098E-007  0.5840000E+03  0.7818608E-02  0.9939168E-01
         -4   -1    0    0    0  501 -0.00000000000E+00  0.00000000000E+00  0.14568214167E+04  0.14568214167E+04  0.00000000000E+00 0.  1.
          3   -1    0    0  501    0  0.00000000000E+00 -0.00000000000E+00 -0.48437604641E+03  0.48437604641E+03  0.00000000000E+00 0. -1.
        -24    2    1    2    0    0 -0.78329122981E+01  0.44475420295E+03  0.10945576382E+04  0.11843586653E+04  0.82349068801E+02 0.  0.
    5000000    2    1    2    0    0  0.78329122981E+01 -0.44475420295E+03 -0.12211226791E+03  0.75683879782E+03  0.60002158657E+03 0.  0.
        -24    2    4    4    0    0 -0.18382197318E+03  0.43141977779E+02 -0.93182268592E+02  0.22580756839E+03  0.81574350704E+02 0.  0.
         24    2    4    4    0    0  0.19165488547E+03 -0.48789618073E+03 -0.28929999322E+02  0.53103122943E+03  0.79893325558E+02 0.  0.
         13    1    5    5    0    0 -0.45812700380E+02  0.15801866565E+02  0.12261253770E+02  0.49988407127E+02  0.00000000000E+00 0. -1.
        -14    1    5    5    0    0 -0.13800927280E+03  0.27340111214E+02 -0.10544352236E+03  0.17581916126E+03  0.00000000000E+00 0.  1.
         13    1    3    3    0    0 -0.16083937580E+02  0.32436138146E+02  0.13837163060E+03  0.14302973209E+03  0.00000000000E+00 0. -1.
        -14    1    3    3    0    0  0.82510252820E+01  0.41231806481E+03  0.95618600761E+03  0.10413289332E+04  0.00000000000E+00 0.  1.
          2    1    6    6  502    0  0.25350200241E+02 -0.16599336990E+03 -0.95611803450E+01  0.16818991549E+03  0.00000000000E+00 0. -1.
         -1    1    6    6    0  502  0.16630468523E+03 -0.32190281083E+03 -0.19368818977E+02  0.36284131394E+03  0.00000000000E+00 0.  1.
<mgrwt>
<rscale>  0 0.58400005E+03</rscale>
<asrwt>0</asrwt>
<pdfrwt beam="1">  1        3 0.74519392E-01 0.58400005E+03</pdfrwt>
<pdfrwt beam="2">  1       -4 0.22412637E+00 0.58400005E+03</pdfrwt>
<totfact> 0.35968271E-01</totfact>
</mgrwt>
</event>
<event>
12    3  0.2212098E-007  0.5766216E+03  0.7818608E-02  0.9955132E-01
          1   -1    0    0  501    0  0.00000000000E+00  0.00000000000E+00  0.27416917567E+04  0.27416917567E+04  0.00000000000E+00 0. -1.
         -2   -1    0    0    0  501 -0.00000000000E+00 -0.00000000000E+00 -0.14149279580E+03  0.14149279580E+03  0.00000000000E+00 0.  1.
        -24    2    1    2    0    0  0.14778463549E+03 -0.40333132731E+03  0.53949297388E+03  0.69435467446E+03  0.80989425238E+02 0.  0.
    5000000    2    1    2    0    0 -0.14778463549E+03  0.40333132731E+03  0.20607059871E+04  0.21888298781E+04  0.59995884188E+03 0.  0.
        -24    2    4    4    0    0 -0.26233060845E+03  0.49770392605E+03  0.16120896712E+04  0.17093613355E+04  0.80972347954E+02 0.  0.
         24    2    4    4    0    0  0.11454597296E+03 -0.94372598739E+02  0.44861631585E+03  0.47946854257E+03  0.81280484462E+02 0.  0.
         11    1    3    3    0    0  0.92754537495E+02 -0.15819002553E+03  0.19146425494E+03  0.26511516238E+03  0.00000000000E+00 0. -1.
        -12    1    3    3    0    0  0.55030097992E+02 -0.24514130178E+03  0.34802871894E+03  0.42923951208E+03  0.00000000000E+00 0.  1.
         11    1    5    5    0    0 -0.13724441421E+03  0.21679181034E+03  0.62965696687E+03  0.67992838902E+03  0.00000000000E+00 0. -1.
        -12    1    5    5    0    0 -0.12508619424E+03  0.28091211571E+03  0.98243270434E+03  0.10294329465E+04  0.00000000000E+00 0.  1.
          4    1    6    6  502    0  0.11542816246E+03 -0.80710910067E+02  0.31381084731E+03  0.34396970736E+03  0.00000000000E+00 0. -1.
         -3    1    6    6    0  502 -0.88218949127E+00 -0.13661688672E+02  0.13480546854E+03  0.13549883521E+03  0.00000000000E+00 0.  1.
<mgrwt>
<rscale>  0 0.57662160E+03</rscale>
<asrwt>0</asrwt>
<pdfrwt beam="1">  1        1 0.42179869E+00 0.57662160E+03</pdfrwt>
<pdfrwt beam="2">  1       -2 0.21768124E-01 0.57662160E+03</pdfrwt>
<totfact> 0.16058519E+01</totfact>
</mgrwt>
</event>
<event>
12    3  0.2212098E-007  0.1619961E+04  0.7818608E-02  0.8808378E-01
          1   -1    0    0  501    0  0.00000000000E+00  0.00000000000E+00  0.11909551305E+04  0.11909551305E+04  0.00000000000E+00 0. -1.
         -2   -1    0    0    0  501 -0.00000000000E+00 -0.00000000000E+00 -0.24733813062E+04  0.24733813062E+04  0.00000000000E+00 0.  1.
        -24    2    1    2    0    0 -0.40665597894E+03 -0.15275143312E+04 -0.11730397887E+04  0.19700501830E+04  0.80039118757E+02 0.  0.
    5000000    2    1    2    0    0  0.40665597894E+03  0.15275143312E+04 -0.10938638700E+03  0.16942862537E+04  0.59997617494E+03 0.  0.
        -24    2    4    4    0    0  0.50372110320E+03  0.13678074144E+04 -0.19808156417E+03  0.14731717963E+04  0.79791996496E+02 0.  0.
         24    2    4    4    0    0 -0.97065124260E+02  0.15970691680E+03  0.88695177173E+02  0.22111445735E+03  0.78082207809E+02 0.  0.
         11    1    3    3    0    0 -0.63236298234E+02 -0.35544835100E+03 -0.24987129510E+03  0.43906494253E+03  0.00000000000E+00 0. -1.
        -12    1    3    3    0    0 -0.34341968071E+03 -0.11720659802E+04 -0.92316849357E+03  0.15309852405E+04  0.00000000000E+00 0.  1.
         13    1    5    5    0    0  0.41911673172E+03  0.12080680924E+04 -0.16322928711E+03  0.12890815145E+04  0.00000000000E+00 0. -1.
        -14    1    5    5    0    0  0.84604371478E+02  0.15973932194E+03 -0.34852277062E+02  0.18409028183E+03  0.00000000000E+00 0.  1.
          4    1    6    6  502    0 -0.24145336000E+01  0.62012973798E+02  0.70285101786E+01  0.62456695775E+02  0.00000000000E+00 0. -1.
         -3    1    6    6    0  502 -0.94650590660E+02  0.97693942998E+02  0.81666666994E+02  0.15865776158E+03  0.00000000000E+00 0.  1.
<mgrwt>
<rscale>  0 0.16199614E+04</rscale>
<asrwt>0</asrwt>
<pdfrwt beam="1">  1        1 0.18322387E+00 0.16199614E+04</pdfrwt>
<pdfrwt beam="2">  1       -2 0.38052020E+00 0.16199614E+04</pdfrwt>
<totfact> 0.88365060E-02</totfact>
</mgrwt>
</event>
<event>
12    3  0.2212098E-007  0.7085106E+03  0.7818608E-02  0.9702788E-01
          1   -1    0    0  501    0  0.00000000000E+00  0.00000000000E+00  0.15314086570E+04  0.15314086570E+04  0.00000000000E+00 0. -1.
         -2   -1    0    0    0  501 -0.00000000000E+00 -0.00000000000E+00 -0.44699357222E+03  0.44699357222E+03  0.00000000000E+00 0.  1.
        -24    2    1    2    0    0  0.21702605562E+03 -0.62646390186E+03  0.79586075332E+03  0.10389142509E+04  0.79944686866E+02 0.  0.
    5000000    2    1    2    0    0 -0.21702605562E+03  0.62646390186E+03  0.28855433147E+03  0.93948797831E+03  0.59984725558E+03 0.  0.
        -24    2    4    4    0    0  0.88234257473E+02  0.14715219697E+03  0.31260065308E+03  0.36540428960E+03  0.79762605824E+02 0.  0.
         24    2    4    4    0    0 -0.30526031309E+03  0.47931170489E+03 -0.24046321615E+02  0.57408368871E+03  0.77912045673E+02 0.  0.
         13    1    5    5    0    0  0.53662007049E+02  0.13306716178E+03  0.28465775915E+03  0.31877346249E+03  0.00000000000E+00 0. -1.
        -14    1    5    5    0    0  0.34572250425E+02  0.14085035189E+02  0.27942893931E+02  0.46630827110E+02  0.00000000000E+00 0.  1.
         13    1    3    3    0    0  0.48648516139E+02 -0.25958862959E+03  0.31112584960E+03  0.40810810948E+03  0.00000000000E+00 0. -1.
        -14    1    3    3    0    0  0.16837753948E+03 -0.36687527227E+03  0.48473490372E+03  0.63080614144E+03  0.00000000000E+00 0.  1.
          2    1    6    6  502    0 -0.18411461726E+03  0.27634461824E+03  0.23816700519E+02  0.33291406631E+03  0.00000000000E+00 0. -1.
         -1    1    6    6    0  502 -0.12114569583E+03  0.20296708665E+03 -0.47863022134E+02  0.24116962240E+03  0.00000000000E+00 0.  1.
<mgrwt>
<rscale>  0 0.70851063E+03</rscale>
<asrwt>0</asrwt>
<pdfrwt beam="1">  1        1 0.23560133E+00 0.70851063E+03</pdfrwt>
<pdfrwt beam="2">  1       -2 0.68768243E-01 0.70851063E+03</pdfrwt>
<totfact> 0.10957684E+01</totfact>
</mgrwt>
</event>
<event>
12    3  0.2212098E-007  0.4878603E+03  0.7818608E-02  0.1016997E+00
         -4   -1    0    0    0  501 -0.00000000000E+00  0.00000000000E+00  0.87242224546E+03  0.87242224546E+03  0.00000000000E+00 0.  1.
          1   -1    0    0  501    0  0.00000000000E+00 -0.00000000000E+00 -0.36449544507E+03  0.36449544507E+03  0.00000000000E+00 0. -1.
        -24    2    1    2    0    0  0.29101842186E+03  0.80975267244E+02  0.46871459701E+03  0.56356167345E+03  0.81606804706E+02 0.  0.
    5000000    2    1    2    0    0 -0.29101842186E+03 -0.80975267244E+02  0.39212203385E+02  0.67335601708E+03  0.60051812052E+03 0.  0.
        -24    2    4    4    0    0 -0.26565260768E+03 -0.31610101199E+03  0.33995189068E+02  0.42358409478E+03  0.88185343028E+02 0.  0.
         24    2    4    4    0    0 -0.25365814172E+02  0.23512574474E+03  0.52170143175E+01  0.24977192229E+03  0.80195109316E+02 0.  0.
         11    1    5    5    0    0 -0.22540573678E+03 -0.24473478387E+03  0.59021077921E+02  0.33791470558E+03  0.00000000000E+00 0. -1.
        -12    1    5    5    0    0 -0.40246870904E+02 -0.71366228123E+02 -0.25025888853E+02  0.85669389206E+02  0.00000000000E+00 0.  1.
         13    1    3    3    0    0  0.64232524025E+02 -0.15431739993E+02  0.87575271499E+02  0.10969678172E+03  0.00000000000E+00 0. -1.
        -14    1    3    3    0    0  0.22678589783E+03  0.96407007237E+02  0.38113932551E+03  0.45386489173E+03  0.00000000000E+00 0.  1.
          2    1    6    6  502    0 -0.51917570017E+02  0.12612573303E+03  0.14706954694E+02  0.13718392444E+03  0.00000000000E+00 0. -1.
         -1    1    6    6    0  502  0.26551755845E+02  0.10900001171E+03 -0.94899403770E+01  0.11258799785E+03  0.00000000000E+00 0.  1.
<mgrwt>
<rscale>  0 0.48786032E+03</rscale>
<asrwt>0</asrwt>
<pdfrwt beam="1">  1        1 0.56076223E-01 0.48786032E+03</pdfrwt>
<pdfrwt beam="2">  1       -4 0.13421881E+00 0.48786032E+03</pdfrwt>
<totfact> 0.13108681E+01</totfact>
</mgrwt>
</event>
<event>
12    3  0.2212098E-007  0.4069423E+03  0.7818608E-02  0.1041402E+00
          3   -1    0    0  501    0  0.00000000000E+00  0.00000000000E+00  0.10289089186E+04  0.10289089186E+04  0.00000000000E+00 0. -1.
         -4   -1    0    0    0  501 -0.00000000000E+00 -0.00000000000E+00 -0.32695094075E+03  0.32695094075E+03  0.00000000000E+00 0.  1.
        -24    2    1    2    0    0 -0.15060393457E+03 -0.20876728103E+03  0.64658474988E+03  0.70057606809E+03  0.80434231877E+02 0.  0.
    5000000    2    1    2    0    0  0.15060393457E+03  0.20876728103E+03  0.55373227969E+02  0.65528379127E+03  0.60005443918E+03 0.  0.
        -24    2    4    4    0    0 -0.34669100842E+02  0.31897024585E+03  0.19750707784E+03  0.38502787072E+03  0.79331274688E+02 0.  0.
         24    2    4    4    0    0  0.18527303541E+03 -0.11020296482E+03 -0.14213384987E+03  0.27025592054E+03  0.79783708890E+02 0.  0.
         13    1    5    5    0    0 -0.28875647292E+02  0.41604330083E+02  0.14503165754E+02  0.52678886710E+02  0.00000000000E+00 0. -1.
        -14    1    5    5    0    0 -0.57934535500E+01  0.27736591577E+03  0.18300391209E+03  0.33234898401E+03  0.00000000000E+00 0.  1.
         13    1    3    3    0    0 -0.41470534078E+02 -0.44685916616E+02  0.25520417052E+03  0.26238484139E+03  0.00000000000E+00 0. -1.
        -14    1    3    3    0    0 -0.10913340049E+03 -0.16408136442E+03  0.39138057936E+03  0.43819122670E+03  0.00000000000E+00 0.  1.
          2    1    6    6  502    0  0.14147642757E+03 -0.11684965518E+03 -0.99311865195E+02  0.20864387852E+03  0.00000000000E+00 0. -1.
         -1    1    6    6    0  502  0.43796607837E+02  0.66466903614E+01 -0.42821984677E+02  0.61612042025E+02  0.00000000000E+00 0.  1.
<mgrwt>
<rscale>  0 0.40694225E+03</rscale>
<asrwt>0</asrwt>
<pdfrwt beam="1">  1        3 0.15829368E+00 0.40694225E+03</pdfrwt>
<pdfrwt beam="2">  1       -4 0.50300145E-01 0.40694225E+03</pdfrwt>
<totfact> 0.24295136E+00</totfact>
</mgrwt>
</event>
<event>
12    3  0.2212098E-007  0.8759051E+03  0.7818608E-02  0.9456213E-01
          1   -1    0    0  501    0  0.00000000000E+00  0.00000000000E+00  0.36244667321E+04  0.36244667321E+04  0.00000000000E+00 0. -1.
         -2   -1    0    0    0  501 -0.00000000000E+00 -0.00000000000E+00 -0.23324126054E+03  0.23324126054E+03  0.00000000000E+00 0.  1.
        -24    2    1    2    0    0  0.64019297278E+03  0.44855193482E+03  0.10028831397E+04  0.12740466659E+04  0.79840054402E+02 0.  0.
    5000000    2    1    2    0    0 -0.64019297278E+03 -0.44855193482E+03  0.23883423318E+04  0.25836613268E+04  0.60006739348E+03 0.  0.
        -24    2    4    4    0    0 -0.63927584025E+03 -0.14268611390E+03  0.14395319512E+04  0.15835633547E+04  0.79923293659E+02 0.  0.
         24    2    4    4    0    0 -0.91713253371E+00 -0.30586582092E+03  0.94881038069E+03  0.10000979721E+04  0.80000460780E+02 0.  0.
         13    1    3    3    0    0  0.25656334685E+03  0.22737294121E+03  0.42650596586E+03  0.54720247099E+03  0.00000000000E+00 0. -1.
        -14    1    3    3    0    0  0.38362962594E+03  0.22117899361E+03  0.57637717387E+03  0.72684419491E+03  0.00000000000E+00 0.  1.
         13    1    5    5    0    0 -0.37861517083E+03 -0.78310015596E+02  0.94092868250E+03  0.10172653005E+04  0.00000000000E+00 0. -1.
        -14    1    5    5    0    0 -0.26066066942E+03 -0.64376098305E+02  0.49860326866E+03  0.56629805415E+03  0.00000000000E+00 0.  1.
          4    1    6    6  502    0 -0.25411249323E+02 -0.22825793313E+03  0.77237785370E+03  0.80580082187E+03  0.00000000000E+00 0. -1.
         -3    1    6    6    0  502  0.24494116789E+02 -0.77607887786E+02  0.17643252698E+03  0.19429715022E+03  0.00000000000E+00 0.  1.
<mgrwt>
<rscale>  0 0.87590509E+03</rscale>
<asrwt>0</asrwt>
<pdfrwt beam="1">  1        1 0.55761023E+00 0.87590509E+03</pdfrwt>
<pdfrwt beam="2">  1       -2 0.35883273E-01 0.87590509E+03</pdfrwt>
<totfact> 0.13541909E+00</totfact>
</mgrwt>
</event>
<event>
12    3  0.2212098E-007  0.5131984E+03  0.7818608E-02  0.1010390E+00
         -4   -1    0    0    0  501 -0.00000000000E+00  0.00000000000E+00  0.13173790139E+04  0.13173790139E+04  0.00000000000E+00 0.  1.
          3   -1    0    0  501    0  0.00000000000E+00 -0.00000000000E+00 -0.28908872321E+03  0.28908872321E+03  0.00000000000E+00 0. -1.
        -24    2    1    2    0    0 -0.10804682500E+03  0.44489622527E+03  0.27730049884E+03  0.54176614755E+03  0.83715137966E+02 0.  0.
    5000000    2    1    2    0    0  0.10804682500E+03 -0.44489622527E+03  0.75098979184E+03  0.10647015895E+04  0.59999753307E+03 0.  0.
        -24    2    4    4    0    0 -0.60324623450E+02 -0.11307661751E+02  0.53689276645E+03  0.54653940564E+03  0.81759133054E+02 0.  0.
         24    2    4    4    0    0  0.16837144845E+03 -0.43358856352E+03  0.21409702539E+03  0.51816218391E+03  0.79413635405E+02 0.  0.
         11    1    5    5    0    0 -0.34521254365E+02 -0.42002426353E+02  0.40650821933E+03  0.41012784982E+03  0.00000000000E+00 0. -1.
        -12    1    5    5    0    0 -0.25803369085E+02  0.30694764601E+02  0.13038454713E+03  0.13641155582E+03  0.00000000000E+00 0.  1.
         13    1    3    3    0    0 -0.99559448651E+01  0.21779986837E+03  0.13218284000E+03  0.25496706982E+03  0.00000000000E+00 0. -1.
        -14    1    3    3    0    0 -0.98090880137E+02  0.22709635690E+03  0.14511765884E+03  0.28679907773E+03  0.00000000000E+00 0.  1.
          2    1    6    6  502    0  0.34209304494E+02 -0.13348555611E+03  0.99756031655E+02  0.17011741844E+03  0.00000000000E+00 0. -1.
         -1    1    6    6    0  502  0.13416214396E+03 -0.30010300740E+03  0.11434099373E+03  0.34804476547E+03  0.00000000000E+00 0.  1.
<mgrwt>
<rscale>  0 0.51319844E+03</rscale>
<asrwt>0</asrwt>
<pdfrwt beam="1">  1        3 0.44475189E-01 0.51319844E+03</pdfrwt>
<pdfrwt beam="2">  1       -4 0.20267369E+00 0.51319844E+03</pdfrwt>
<totfact> 0.14599822E+00</totfact>
</mgrwt>
</event>
<event>
12    3  0.2212098E-007  0.7213096E+03  0.7818608E-02  0.9681468E-01
          3   -1    0    0  501    0  0.00000000000E+00  0.00000000000E+00  0.86804031293E+03  0.86804031293E+03  0.00000000000E+00 0. -1.
         -4   -1    0    0    0  501 -0.00000000000E+00 -0.00000000000E+00 -0.10147038591E+04  0.10147038591E+04  0.00000000000E+00 0.  1.
        -24    2    1    2    0    0  0.34637486375E+03  0.62456415736E+03  0.37843723634E+03  0.81230713698E+03  0.81069168378E+02 0.  0.
    5000000    2    1    2    0    0 -0.34637486375E+03 -0.62456415736E+03 -0.52510078249E+03  0.10704370350E+04  0.60004056637E+03 0.  0.
        -24    2    4    4    0    0 -0.18856985090E+03 -0.37802689761E+03 -0.61872755106E+03  0.75331838613E+03  0.78752044150E+02 0.  0.
         24    2    4    4    0    0 -0.15780501285E+03 -0.24653725974E+03  0.93626768570E+02  0.31711864889E+03  0.78199892335E+02 0.  0.
         11    1    5    5    0    0 -0.37946964782E+02 -0.14386469699E+03 -0.17776054670E+03  0.23180991165E+03  0.00000000000E+00 0. -1.
        -12    1    5    5    0    0 -0.15062288612E+03 -0.23416220062E+03 -0.44096700436E+03  0.52150847448E+03  0.00000000000E+00 0.  1.
         11    1    3    3    0    0  0.16528849632E+03  0.31680698094E+03  0.23392433246E+03  0.42709196141E+03  0.00000000000E+00 0. -1.
        -12    1    3    3    0    0  0.18108636742E+03  0.30775717642E+03  0.14451290388E+03  0.38521517557E+03  0.00000000000E+00 0.  1.
          2    1    6    6  502    0 -0.33470367343E+02 -0.12027577839E+02  0.23334413637E+02  0.42537312780E+02  0.00000000000E+00 0. -1.
         -1    1    6    6    0  502 -0.12433464550E+03 -0.23450968190E+03  0.70292354933E+02  0.27458133611E+03  0.00000000000E+00 0.  1.
<mgrwt>
<rscale>  0 0.72130959E+03</rscale>
<asrwt>0</asrwt>
<pdfrwt beam="1">  1        3 0.13354466E+00 0.72130959E+03</pdfrwt>
<pdfrwt beam="2">  1       -4 0.15610829E+00 0.72130959E+03</pdfrwt>
<totfact> 0.26192162E-01</totfact>
</mgrwt>
</event>
<event>
12    3  0.2212098E-007  0.6375580E+03  0.7818608E-02  0.9830410E-01
         -2   -1    0    0    0  501 -0.00000000000E+00  0.00000000000E+00  0.15623821580E+04  0.15623821580E+04  0.00000000000E+00 0.  1.
          1   -1    0    0  501    0  0.00000000000E+00 -0.00000000000E+00 -0.31511941655E+03  0.31511941655E+03  0.00000000000E+00 0. -1.
        -24    2    1    2    0    0 -0.50133349569E+03  0.32392350236E+02  0.87191176539E+03  0.10095205896E+04  0.80728903527E+02 0.  0.
    5000000    2    1    2    0    0  0.50133349569E+03 -0.32392350236E+02  0.37535097604E+03  0.86798098497E+03  0.60009840593E+03 0.  0.
        -24    2    4    4    0    0  0.10714669540E+03  0.25414410156E+03  0.17032620165E+03  0.33351218234E+03  0.78420163917E+02 0.  0.
         24    2    4    4    0    0  0.39418680029E+03 -0.28653645180E+03  0.20502477438E+03  0.53446880262E+03  0.78328609965E+02 0.  0.
         11    1    5    5    0    0  0.94172464441E+02  0.17709381988E+03  0.85078861800E+02  0.21787401595E+03  0.00000000000E+00 0. -1.
        -12    1    5    5    0    0  0.12974230961E+02  0.77050281675E+02  0.85247339853E+02  0.11563816639E+03  0.00000000000E+00 0.  1.
         13    1    3    3    0    0 -0.35397370933E+03  0.43702095243E+02  0.55318562878E+03  0.65819571551E+03  0.00000000000E+00 0. -1.
        -14    1    3    3    0    0 -0.14735978635E+03 -0.11309745006E+02  0.31872613661E+03  0.35132487404E+03  0.00000000000E+00 0.  1.
          2    1    6    6  502    0  0.17705574563E+03 -0.87927252708E+02  0.61241365641E+02  0.20695517316E+03  0.00000000000E+00 0. -1.
         -1    1    6    6    0  502  0.21713105465E+03 -0.19860919909E+03  0.14378340874E+03  0.32751362947E+03  0.00000000000E+00 0.  1.
<mgrwt>
<rscale>  0 0.63755804E+03</rscale>
<asrwt>0</asrwt>
<pdfrwt beam="1">  1        1 0.48479911E-01 0.63755804E+03</pdfrwt>
<pdfrwt beam="2">  1       -2 0.24036648E+00 0.63755804E+03</pdfrwt>
<totfact> 0.55319370E+00</totfact>
</mgrwt>
</event>
<event>
12    3  0.2212098E-007  0.5165232E+03  0.7818608E-02  0.1009554E+00
          1   -1    0    0  501    0  0.00000000000E+00  0.00000000000E+00  0.20953703078E+04  0.20953703078E+04  0.00000000000E+00 0. -1.
         -2   -1    0    0    0  501 -0.00000000000E+00 -0.00000000000E+00 -0.19923810246E+03  0.19923810246E+03  0.00000000000E+00 0.  1.
        -24    2    1    2    0    0  0.40420661815E+03 -0.31367594514E+02  0.21916465736E+03  0.46797691549E+03  0.81254724469E+02 0.  0.
    5000000    2    1    2    0    0 -0.40420661815E+03  0.31367594514E+02  0.16769675480E+04  0.18266314948E+04  0.59999628715E+03 0.  0.
        -24    2    4    4    0    0 -0.58644868429E+02 -0.18898786394E+03  0.10638846676E+04  0.10850596531E+04  0.79675789128E+02 0.  0.
         24    2    4    4    0    0 -0.34556174972E+03  0.22035545846E+03  0.61308288038E+03  0.74157184175E+03  0.78030297378E+02 0.  0.
         11    1    5    5    0    0 -0.35540866815E+02 -0.18467738246E+02  0.15967820759E+03  0.16462484791E+03  0.00000000000E+00 0. -1.
        -12    1    5    5    0    0 -0.23104001614E+02 -0.17052012570E+03  0.90420646005E+03  0.92043480516E+03  0.00000000000E+00 0.  1.
         13    1    3    3    0    0  0.56185086403E+02 -0.28427149162E+02  0.15939896475E+02  0.64953422105E+02  0.00000000000E+00 0. -1.
        -14    1    3    3    0    0  0.34802153175E+03 -0.29404453522E+01  0.20322476088E+03  0.40302349338E+03  0.00000000000E+00 0.  1.
          2    1    6    6  502    0 -0.91810942278E+02  0.54500725066E+02  0.22565537943E+03  0.24963959706E+03  0.00000000000E+00 0. -1.
         -1    1    6    6    0  502 -0.25375080745E+03  0.16585473339E+03  0.38742750095E+03  0.49193224469E+03  0.00000000000E+00 0.  1.
<mgrwt>
<rscale>  0 0.51652318E+03</rscale>
<asrwt>0</asrwt>
<pdfrwt beam="1">  1        1 0.32236465E+00 0.51652318E+03</pdfrwt>
<pdfrwt beam="2">  1       -2 0.30652017E-01 0.51652318E+03</pdfrwt>
<totfact> 0.23928619E+01</totfact>
</mgrwt>
</event>
<event>
12    3  0.2212098E-007  0.9213883E+03  0.7818608E-02  0.9399233E-01
         -2   -1    0    0    0  501 -0.00000000000E+00  0.00000000000E+00  0.39620191076E+03  0.39620191076E+03  0.00000000000E+00 0.  1.
          1   -1    0    0  501    0  0.00000000000E+00 -0.00000000000E+00 -0.22050008162E+04  0.22050008162E+04  0.00000000000E+00 0. -1.
        -24    2    1    2    0    0  0.71255569097E+03 -0.43706411572E+03 -0.84694579428E+03  0.11926760401E+04  0.79989400135E+02 0.  0.
    5000000    2    1    2    0    0 -0.71255569097E+03  0.43706411572E+03 -0.96185311116E+03  0.14085266869E+04  0.60002113815E+03 0.  0.
        -24    2    4    4    0    0 -0.56559260659E+02  0.32897079899E+03 -0.45247816943E+03  0.56707810621E+03  0.73623013950E+02 0.  0.
         24    2    4    4    0    0 -0.65599643031E+03  0.10809331673E+03 -0.50937494173E+03  0.84144858067E+03  0.80977780548E+02 0.  0.
         11    1    3    3    0    0  0.39075605297E+03 -0.21228441762E+03 -0.49568047878E+03  0.66592349707E+03  0.00000000000E+00 0. -1.
        -12    1    3    3    0    0  0.32179963800E+03 -0.22477969810E+03 -0.35126531550E+03  0.52675254301E+03  0.00000000000E+00 0.  1.
         13    1    5    5    0    0 -0.59801037468E+02  0.19938822692E+03 -0.23533747711E+03  0.31419032011E+03  0.00000000000E+00 0. -1.
        -14    1    5    5    0    0  0.32417768099E+01  0.12958257206E+03 -0.21714069231E+03  0.25288778610E+03  0.00000000000E+00 0.  1.
          4    1    6    6  502    0 -0.54349613178E+03  0.65328263032E+02 -0.44158544925E+03  0.70331609978E+03  0.00000000000E+00 0. -1.
         -3    1    6    6    0  502 -0.11250029853E+03  0.42765053695E+02 -0.67789492475E+02  0.13813248089E+03  0.00000000000E+00 0.  1.
<mgrwt>
<rscale>  0 0.92138832E+03</rscale>
<asrwt>0</asrwt>
<pdfrwt beam="1">  1        1 0.33923090E+00 0.92138832E+03</pdfrwt>
<pdfrwt beam="2">  1       -2 0.60954140E-01 0.92138832E+03</pdfrwt>
<totfact> 0.48567097E+00</totfact>
</mgrwt>
</event>
<event>
12    3  0.2212098E-007  0.1290286E+04  0.7818608E-02  0.9037304E-01
         -2   -1    0    0    0  501 -0.00000000000E+00  0.00000000000E+00  0.88835238423E+03  0.88835238423E+03  0.00000000000E+00 0.  1.
          1   -1    0    0  501    0  0.00000000000E+00 -0.00000000000E+00 -0.23121100713E+04  0.23121100713E+04  0.00000000000E+00 0. -1.
        -24    2    1    2    0    0 -0.92780798233E+03 -0.80250095510E+03 -0.13602259053E+04  0.18334246839E+04  0.79975765141E+02 0.  0.
    5000000    2    1    2    0    0  0.92780798233E+03  0.80250095510E+03 -0.63531781713E+02  0.13670377716E+04  0.59993378527E+03 0.  0.
        -24    2    4    4    0    0 -0.37370964230E+02  0.18439807526E+03 -0.76904697026E+02  0.21808762285E+03  0.79048337671E+02 0.  0.
         24    2    4    4    0    0  0.96517894655E+03  0.61810287984E+03  0.13372915313E+02  0.11489501488E+04  0.79284554155E+02 0.  0.
         11    1    3    3    0    0 -0.61116546949E+03 -0.57773552338E+03 -0.92874838207E+03  0.12529465764E+04  0.00000000000E+00 0. -1.
        -12    1    3    3    0    0 -0.31664251283E+03 -0.22476543172E+03 -0.43147752328E+03  0.58047810753E+03  0.00000000000E+00 0.  1.
         13    1    5    5    0    0 -0.59564596561E+02  0.97655492082E+02 -0.38931524834E+02  0.12083128702E+03  0.00000000000E+00 0. -1.
        -14    1    5    5    0    0  0.22193632332E+02  0.86742583180E+02 -0.37973172192E+02  0.97256335830E+02  0.00000000000E+00 0.  1.
          4    1    6    6  502    0  0.87057500817E+03  0.53825701056E+03 -0.65936566207E+01  0.10235550452E+04  0.00000000000E+00 0. -1.
         -3    1    6    6    0  502  0.94603938383E+02  0.79845869278E+02  0.19966571934E+02  0.12539510354E+03  0.00000000000E+00 0.  1.
<mgrwt>
<rscale>  0 0.12902861E+04</rscale>
<asrwt>0</asrwt>
<pdfrwt beam="1">  1        1 0.35570924E+00 0.12902861E+04</pdfrwt>
<pdfrwt beam="2">  1       -2 0.13666960E+00 0.12902861E+04</pdfrwt>
<totfact> 0.59406009E-01</totfact>
</mgrwt>
</event>
<event>
12    3  0.2212098E-007  0.5121424E+03  0.7818608E-02  0.1010657E+00
          1   -1    0    0  501    0  0.00000000000E+00  0.00000000000E+00  0.18584108276E+04  0.18584108276E+04  0.00000000000E+00 0. -1.
         -2   -1    0    0    0  501 -0.00000000000E+00 -0.00000000000E+00 -0.46072119987E+03  0.46072119987E+03  0.00000000000E+00 0.  1.
        -24    2    1    2    0    0  0.41063541289E+03  0.95807065924E+02  0.15167828982E+04  0.15762881818E+04  0.79079932122E+02 0.  0.
    5000000    2    1    2    0    0 -0.41063541289E+03 -0.95807065924E+02 -0.11909327047E+03  0.74284384565E+03  0.59986109704E+03 0.  0.
        -24    2    4    4    0    0 -0.80151327085E+02  0.15056426898E+03 -0.23938523184E+03  0.30607659154E+03  0.85344925676E+02 0.  0.
         24    2    4    4    0    0 -0.33048408581E+03 -0.24637133490E+03  0.12029196136E+03  0.43676725411E+03  0.79855573772E+02 0.  0.
         13    1    5    5    0    0 -0.11023019699E+02  0.10380586917E+03 -0.10628392601E+03  0.14897462322E+03  0.00000000000E+00 0. -1.
        -14    1    5    5    0    0 -0.69128307386E+02  0.46758399815E+02 -0.13310130583E+03  0.15710196831E+03  0.00000000000E+00 0.  1.
         13    1    3    3    0    0  0.30326081679E+03  0.69759515996E+02  0.97873842954E+03  0.10270162737E+04  0.00000000000E+00 0. -1.
        -14    1    3    3    0    0  0.10737459610E+03  0.26047549928E+02  0.53804446869E+03  0.54927190810E+03  0.00000000000E+00 0.  1.
          2    1    6    6  502    0 -0.15909818193E+03 -0.90132106377E+02  0.86928530010E+02  0.20246628713E+03  0.00000000000E+00 0. -1.
         -1    1    6    6    0  502 -0.17138590388E+03 -0.15623922853E+03  0.33363431352E+02  0.23430096699E+03  0.00000000000E+00 0.  1.
<mgrwt>
<rscale>  0 0.51214238E+03</rscale>
<asrwt>0</asrwt>
<pdfrwt beam="1">  1        1 0.28590935E+00 0.51214238E+03</pdfrwt>
<pdfrwt beam="2">  1       -2 0.70880186E-01 0.51214238E+03</pdfrwt>
<totfact> 0.64179230E+00</totfact>
</mgrwt>
</event>
<event>
12    3  0.2212098E-007  0.1209406E+04  0.7818608E-02  0.9104663E-01
          1   -1    0    0  501    0  0.00000000000E+00  0.00000000000E+00  0.32566261556E+04  0.32566261556E+04  0.00000000000E+00 0. -1.
         -2   -1    0    0    0  501 -0.00000000000E+00 -0.00000000000E+00 -0.45359826349E+03  0.45359826349E+03  0.00000000000E+00 0.  1.
        -24    2    1    2    0    0 -0.88694006882E+03  0.71429362480E+03  0.12433285250E+04  0.16879809079E+04  0.80843405933E+02 0.  0.
    5000000    2    1    2    0    0  0.88694006882E+03 -0.71429362480E+03  0.15596993671E+04  0.20222435112E+04  0.59994052595E+03 0.  0.
        -24    2    4    4    0    0  0.77535360530E+03 -0.27815456414E+03  0.10633659133E+04  0.13474243770E+04  0.79134134623E+02 0.  0.
         24    2    4    4    0    0  0.11158646352E+03 -0.43613906066E+03  0.49633345382E+03  0.67481913424E+03  0.79781874324E+02 0.  0.
         11    1    3    3    0    0 -0.27694390658E+03  0.21495886262E+03  0.32948525699E+03  0.48110890096E+03  0.00000000000E+00 0. -1.
        -12    1    3    3    0    0 -0.60999616224E+03  0.49933476218E+03  0.91384326801E+03  0.12068720070E+04  0.00000000000E+00 0.  1.
         13    1    5    5    0    0  0.21941815943E+03 -0.42101137428E+02  0.27644405555E+03  0.35544078313E+03  0.00000000000E+00 0. -1.
        -14    1    5    5    0    0  0.55593544587E+03 -0.23605342671E+03  0.78692185776E+03  0.99198359385E+03  0.00000000000E+00 0.  1.
          4    1    6    6  502    0  0.36025003426E+02 -0.23345857178E+03  0.30693820185E+03  0.38731352334E+03  0.00000000000E+00 0. -1.
         -3    1    6    6    0  502  0.75561460098E+02 -0.20268048888E+03  0.18939525198E+03  0.28750561090E+03  0.00000000000E+00 0.  1.
<mgrwt>
<rscale>  0 0.12094059E+04</rscale>
<asrwt>0</asrwt>
<pdfrwt beam="1">  1        1 0.50101939E+00 0.12094059E+04</pdfrwt>
<pdfrwt beam="2">  1       -2 0.69784351E-01 0.12094059E+04</pdfrwt>
<totfact> 0.63263173E-01</totfact>
</mgrwt>
</event>
<event>
12    3  0.2212098E-007  0.1171169E+04  0.7818608E-02  0.9138473E-01
         -2   -1    0    0    0  501 -0.00000000000E+00  0.00000000000E+00  0.12254459774E+04  0.12254459774E+04  0.00000000000E+00 0.  1.
          1   -1    0    0  501    0  0.00000000000E+00 -0.00000000000E+00 -0.11902036974E+04  0.11902036974E+04  0.00000000000E+00 0. -1.
        -24    2    1    2    0    0  0.11057588682E+04  0.19317233241E+03 -0.12729534830E+03  0.11324719004E+04  0.79185067833E+02 0.  0.
    5000000    2    1    2    0    0 -0.11057588682E+04 -0.19317233241E+03  0.16253762822E+03  0.12831777744E+04  0.60009040602E+03 0.  0.
        -24    2    4    4    0    0 -0.24421643260E+03  0.14742875735E+03 -0.10714631763E+03  0.31477919024E+03  0.78922118474E+02 0.  0.
         24    2    4    4    0    0 -0.86154243560E+03 -0.34060108976E+03  0.26968394585E+03  0.96839858411E+03  0.82473731421E+02 0.  0.
         11    1    3    3    0    0  0.90873834843E+03  0.17153841398E+03 -0.77009696765E+02  0.92798777296E+03  0.00000000000E+00 0. -1.
        -12    1    3    3    0    0  0.19702051978E+03  0.21633918432E+02 -0.50285651539E+02  0.20448412748E+03  0.00000000000E+00 0.  1.
         13    1    5    5    0    0 -0.98823271448E+02  0.26558767392E+02 -0.11748058145E+02  0.10300205811E+03  0.00000000000E+00 0. -1.
        -14    1    5    5    0    0 -0.14539316115E+03  0.12086998995E+03 -0.95398259485E+02  0.21177713213E+03  0.00000000000E+00 0.  1.
          4    1    6    6  502    0 -0.46230946061E+03 -0.15428174390E+03  0.10877989444E+03  0.49936555679E+03  0.00000000000E+00 0. -1.
         -3    1    6    6    0  502 -0.39923297499E+03 -0.18631934586E+03  0.16090405141E+03  0.46903302733E+03  0.00000000000E+00 0.  1.
<mgrwt>
<rscale>  0 0.11711691E+04</rscale>
<asrwt>0</asrwt>
<pdfrwt beam="1">  1        1 0.18310826E+00 0.11711691E+04</pdfrwt>
<pdfrwt beam="2">  1       -2 0.18853015E+00 0.11711691E+04</pdfrwt>
<totfact> 0.14765848E+00</totfact>
</mgrwt>
</event>
<event>
12    3  0.2212098E-007  0.5833578E+03  0.7818608E-02  0.9940548E-01
         -2   -1    0    0    0  501 -0.00000000000E+00  0.00000000000E+00  0.11899051421E+03  0.11899051421E+03  0.00000000000E+00 0.  1.
          1   -1    0    0  501    0  0.00000000000E+00 -0.00000000000E+00 -0.32086958108E+04  0.32086958108E+04  0.00000000000E+00 0. -1.
        -24    2    1    2    0    0  0.32808000688E+03  0.29838758601E+03 -0.15900043384E+04  0.16526139455E+04  0.79670660708E+02 0.  0.
    5000000    2    1    2    0    0 -0.32808000688E+03 -0.29838758601E+03 -0.14997009581E+04  0.16750723795E+04  0.60007738697E+03 0.  0.
        -24    2    4    4    0    0 -0.32667938996E+03  0.68625500689E+02 -0.49450676331E+03  0.60195532685E+03  0.79902399124E+02 0.  0.
         24    2    4    4    0    0 -0.14006169200E+01 -0.36701308670E+03 -0.10051941948E+04  0.10731170527E+04  0.80400695679E+02 0.  0.
         11    1    3    3    0    0  0.24619446545E+03  0.17937380235E+03 -0.10135601862E+04  0.10583434824E+04  0.00000000000E+00 0. -1.
        -12    1    3    3    0    0  0.81885541433E+02  0.11901378366E+03 -0.57644415225E+03  0.59427046305E+03  0.00000000000E+00 0.  1.
         13    1    5    5    0    0 -0.22692518304E+03  0.10525318994E+02 -0.31036007573E+03  0.38461564925E+03  0.00000000000E+00 0. -1.
        -14    1    5    5    0    0 -0.99754206919E+02  0.58100181695E+02 -0.18414668758E+03  0.21733967760E+03  0.00000000000E+00 0.  1.
          4    1    6    6  502    0 -0.38294456422E+02 -0.14475770718E+03 -0.36998050087E+03  0.39913259727E+03  0.00000000000E+00 0. -1.
         -3    1    6    6    0  502  0.36893839502E+02 -0.22225537951E+03 -0.63521369397E+03  0.67398445540E+03  0.00000000000E+00 0.  1.
<mgrwt>
<rscale>  0 0.58335785E+03</rscale>
<asrwt>0</asrwt>
<pdfrwt beam="1">  1        1 0.49364546E+00 0.58335785E+03</pdfrwt>
<pdfrwt beam="2">  1       -2 0.18306235E-01 0.58335785E+03</pdfrwt>
<totfact> 0.10087884E+01</totfact>
</mgrwt>
</event>
<event>
12    3  0.2212098E-007  0.1405838E+04  0.7818608E-02  0.8949604E-01
          1   -1    0    0  501    0  0.00000000000E+00  0.00000000000E+00  0.39242964274E+04  0.39242964274E+04  0.00000000000E+00 0. -1.
         -2   -1    0    0    0  501 -0.00000000000E+00 -0.00000000000E+00 -0.53591834386E+03  0.53591834386E+03  0.00000000000E+00 0.  1.
        -24    2    1    2    0    0 -0.82229325852E+03 -0.10943466137E+04  0.19668808378E+04  0.23975947507E+04  0.77972076209E+02 0.  0.
    5000000    2    1    2    0    0  0.82229325852E+03  0.10943466137E+04  0.14214972458E+04  0.20626200206E+04  0.59998851285E+03 0.  0.
        -24    2    4    4    0    0  0.54945539561E+02  0.39392377892E+03  0.65018813812E+03  0.76617464792E+03  0.78000129780E+02 0.  0.
         24    2    4    4    0    0  0.76734771895E+03  0.70042283479E+03  0.77130910764E+03  0.12964453726E+04  0.80238366267E+02 0.  0.
         11    1    5    5    0    0  0.41915891858E+02  0.37417266730E+03  0.57460061845E+03  0.68697015777E+03  0.00000000000E+00 0. -1.
        -12    1    5    5    0    0  0.13029647703E+02  0.19751111615E+02  0.75587519673E+02  0.79204490148E+02  0.00000000000E+00 0.  1.
         13    1    3    3    0    0 -0.24459117488E+03 -0.38588913865E+03  0.64513726423E+03  0.79052979695E+03  0.00000000000E+00 0. -1.
        -14    1    3    3    0    0 -0.57770208363E+03 -0.70845747506E+03  0.13217435736E+04  0.16070649538E+04  0.00000000000E+00 0.  1.
          4    1    6    6  502    0  0.73026589562E+03  0.68145571127E+03  0.72537162023E+03  0.12344367753E+04  0.00000000000E+00 0. -1.
         -3    1    6    6    0  502  0.37081823331E+02  0.18967123519E+02  0.45937487414E+02  0.62008597355E+02  0.00000000000E+00 0.  1.
<mgrwt>
<rscale>  0 0.14058379E+04</rscale>
<asrwt>0</asrwt>
<pdfrwt beam="1">  1        1 0.60373790E+00 0.14058379E+04</pdfrwt>
<pdfrwt beam="2">  1       -2 0.82448978E-01 0.14058379E+04</pdfrwt>
<totfact> 0.12436425E-01</totfact>
</mgrwt>
</event>
<event>
12    3  0.2212098E-007  0.4326518E+03  0.7818608E-02  0.1033026E+00
         -2   -1    0    0    0  501 -0.00000000000E+00  0.00000000000E+00  0.15096956260E+03  0.15096956260E+03  0.00000000000E+00 0.  1.
          1   -1    0    0  501    0  0.00000000000E+00 -0.00000000000E+00 -0.17969437912E+04  0.17969437912E+04  0.00000000000E+00 0. -1.
        -24    2    1    2    0    0 -0.23832704684E+03 -0.12231651706E+03 -0.15732155919E+03  0.32081157122E+03  0.80055478540E+02 0.  0.
    5000000    2    1    2    0    0  0.23832704684E+03  0.12231651706E+03 -0.14886526694E+04  0.16271017826E+04  0.59967685390E+03 0.  0.
        -24    2    4    4    0    0  0.17779335600E+03  0.32068279470E+03 -0.12302975860E+04  0.12863906306E+04  0.81980315238E+02 0.  0.
         24    2    4    4    0    0  0.60533690840E+02 -0.19836627763E+03 -0.25835508343E+03  0.34071115201E+03  0.79518753373E+02 0.  0.
         11    1    5    5    0    0  0.23048926107E+02  0.11189666313E+03 -0.43236283236E+03  0.44720211876E+03  0.00000000000E+00 0. -1.
        -12    1    5    5    0    0  0.15474442989E+03  0.20878613157E+03 -0.79793475363E+03  0.83918851182E+03  0.00000000000E+00 0.  1.
         13    1    3    3    0    0 -0.20348489333E+03 -0.93194926900E+02 -0.16031390103E+03  0.27530336554E+03  0.00000000000E+00 0. -1.
        -14    1    3    3    0    0 -0.34842153502E+02 -0.29121590164E+02  0.29923418453E+01  0.45508205678E+02  0.00000000000E+00 0.  1.
          2    1    6    6  502    0 -0.18808731284E+02 -0.24888267153E+02 -0.40964788950E+02  0.51490854995E+02  0.00000000000E+00 0. -1.
         -1    1    6    6    0  502  0.79342422124E+02 -0.17347801048E+03 -0.21739029448E+03  0.28922029701E+03  0.00000000000E+00 0.  1.
<mgrwt>
<rscale>  0 0.43265184E+03</rscale>
<asrwt>0</asrwt>
<pdfrwt beam="1">  1        1 0.27645288E+00 0.43265184E+03</pdfrwt>
<pdfrwt beam="2">  1       -2 0.23226088E-01 0.43265184E+03</pdfrwt>
<totfact> 0.63221850E+01</totfact>
</mgrwt>
</event>
<event>
12    3  0.2212098E-007  0.6383016E+03  0.7818608E-02  0.9828981E-01
          1   -1    0    0  501    0  0.00000000000E+00  0.00000000000E+00  0.16996650245E+04  0.16996650245E+04  0.00000000000E+00 0. -1.
         -2   -1    0    0    0  501 -0.00000000000E+00 -0.00000000000E+00 -0.25708318768E+03  0.25708318768E+03  0.00000000000E+00 0.  1.
        -24    2    1    2    0    0  0.51234151867E+03  0.14669170458E+02  0.43455396923E+03  0.67648855506E+03  0.78042274728E+02 0.  0.
    5000000    2    1    2    0    0 -0.51234151867E+03 -0.14669170458E+02  0.10080278676E+04  0.12802596571E+04  0.60019629412E+03 0.  0.
        -24    2    4    4    0    0 -0.33755571534E+03  0.25965558566E+03  0.41788769846E+03  0.60170074036E+03  0.77773827877E+02 0.  0.
         24    2    4    4    0    0 -0.17478580332E+03 -0.27432475611E+03  0.59014016909E+03  0.67855891672E+03  0.79828788212E+02 0.  0.
         13    1    3    3    0    0  0.28578539732E+03  0.17150139942E+02  0.19283426269E+03  0.34518469475E+03  0.00000000000E+00 0. -1.
        -14    1    3    3    0    0  0.22655612135E+03 -0.24809694842E+01  0.24171970654E+03  0.33130386032E+03  0.00000000000E+00 0.  1.
         13    1    5    5    0    0 -0.84111293552E+02  0.25772046435E+02  0.89374695980E+02  0.12540631707E+03  0.00000000000E+00 0. -1.
        -14    1    5    5    0    0 -0.25344442179E+03  0.23388353922E+03  0.32851300248E+03  0.47629442329E+03  0.00000000000E+00 0.  1.
          4    1    6    6  502    0 -0.17967411809E+03 -0.26255094226E+03  0.53932192336E+03  0.62616605067E+03  0.00000000000E+00 0. -1.
         -3    1    6    6    0  502  0.48883147690E+01 -0.11773813852E+02  0.50818245735E+02  0.52392866055E+02  0.00000000000E+00 0.  1.
<mgrwt>
<rscale>  0 0.63830162E+03</rscale>
<asrwt>0</asrwt>
<pdfrwt beam="1">  1        1 0.26148692E+00 0.63830162E+03</pdfrwt>
<pdfrwt beam="2">  1       -2 0.39551261E-01 0.63830162E+03</pdfrwt>
<totfact> 0.26507624E+01</totfact>
</mgrwt>
</event>
<event>
12    3  0.2212098E-007  0.9040765E+03  0.7818608E-02  0.9420500E-01
         -2   -1    0    0    0  501 -0.00000000000E+00  0.00000000000E+00  0.77088723437E+03  0.77088723437E+03  0.00000000000E+00 0.  1.
          1   -1    0    0  501    0  0.00000000000E+00 -0.00000000000E+00 -0.11453197441E+04  0.11453197441E+04  0.00000000000E+00 0. -1.
        -24    2    1    2    0    0  0.74318318118E+03  0.32636808937E+03 -0.39615474997E+03  0.90653607381E+03  0.77663998371E+02 0.  0.
    5000000    2    1    2    0    0 -0.74318318118E+03 -0.32636808937E+03  0.21722240285E+02  0.10096709046E+04  0.60010508192E+03 0.  0.
        -24    2    4    4    0    0  0.68576568014E+02  0.25392565568E+02 -0.44476602876E+02  0.11885764096E+03  0.82470858762E+02 0.  0.
         24    2    4    4    0    0 -0.81175974920E+03 -0.35176065494E+03  0.66198843161E+02  0.89081326365E+03  0.80476922680E+02 0.  0.
         11    1    3    3    0    0  0.51976613089E+03  0.22866570694E+03 -0.23680961581E+03  0.61524274111E+03  0.00000000000E+00 0. -1.
        -12    1    3    3    0    0  0.22341705030E+03  0.97702382435E+02 -0.15934513416E+03  0.29129333270E+03  0.00000000000E+00 0.  1.
         13    1    5    5    0    0  0.64652365886E+01  0.44439910628E+02 -0.22846296442E+02  0.50385099007E+02  0.00000000000E+00 0. -1.
        -14    1    5    5    0    0  0.62111331426E+02 -0.19047345061E+02 -0.21630306434E+02  0.68472541955E+02  0.00000000000E+00 0.  1.
          4    1    6    6  502    0 -0.53453039787E+03 -0.20142165480E+03  0.15780188182E+02  0.57143892378E+03  0.00000000000E+00 0. -1.
         -3    1    6    6    0  502 -0.27722935133E+03 -0.15033900014E+03  0.50418654979E+02  0.31937433988E+03  0.00000000000E+00 0.  1.
<mgrwt>
<rscale>  0 0.90407646E+03</rscale>
<asrwt>0</asrwt>
<pdfrwt beam="1">  1        1 0.17620304E+00 0.90407646E+03</pdfrwt>
<pdfrwt beam="2">  1       -2 0.11859804E+00 0.90407646E+03</pdfrwt>
<totfact> 0.56652629E+00</totfact>
</mgrwt>
</event>
<event>
12    3  0.2212098E-007  0.8857269E+03  0.7818608E-02  0.9443601E-01
         -2   -1    0    0    0  501 -0.00000000000E+00  0.00000000000E+00  0.57349302524E+03  0.57349302524E+03  0.00000000000E+00 0.  1.
          1   -1    0    0  501    0  0.00000000000E+00 -0.00000000000E+00 -0.16226413116E+04  0.16226413116E+04  0.00000000000E+00 0. -1.
        -24    2    1    2    0    0  0.70319718024E+03 -0.37867667362E+03 -0.86538737724E+03  0.11804563786E+04  0.81851399577E+02 0.  0.
    5000000    2    1    2    0    0 -0.70319718024E+03  0.37867667362E+03 -0.18376090913E+03  0.10156779583E+04  0.59995945343E+03 0.  0.
        -24    2    4    4    0    0 -0.36390970069E+03  0.48381607883E+03 -0.22176839227E+03  0.64967495608E+03  0.79925342385E+02 0.  0.
         24    2    4    4    0    0 -0.33928747956E+03 -0.10513940520E+03  0.38007483137E+02  0.36600300220E+03  0.79645091098E+02 0.  0.
         11    1    3    3    0    0  0.56908715533E+03 -0.26987178142E+03 -0.69283689749E+03  0.93633003545E+03  0.00000000000E+00 0. -1.
        -12    1    3    3    0    0  0.13411002491E+03 -0.10880489221E+03 -0.17255047974E+03  0.24412634313E+03  0.00000000000E+00 0.  1.
         11    1    5    5    0    0 -0.18154270796E+03  0.20724351363E+03 -0.64537740977E+02  0.28297128612E+03  0.00000000000E+00 0. -1.
        -12    1    5    5    0    0 -0.18236699273E+03  0.27657256520E+03 -0.15723065129E+03  0.36670366996E+03  0.00000000000E+00 0.  1.
          4    1    6    6  502    0 -0.59749980182E+01  0.81319388925E+01  0.76499281232E+01  0.12662955096E+02  0.00000000000E+00 0. -1.
         -3    1    6    6    0  502 -0.33331248154E+03 -0.11327134410E+03  0.30357555014E+02  0.35334004710E+03  0.00000000000E+00 0.  1.
<mgrwt>
<rscale>  0 0.88572692E+03</rscale>
<asrwt>0</asrwt>
<pdfrwt beam="1">  1        1 0.24963712E+00 0.88572692E+03</pdfrwt>
<pdfrwt beam="2">  1       -2 0.88229697E-01 0.88572692E+03</pdfrwt>
<totfact> 0.53122468E+00</totfact>
</mgrwt>
</event>
<event>
12    3  0.2212098E-007  0.9345689E+03  0.7818608E-02  0.9383371E-01
         -2   -1    0    0    0  501 -0.00000000000E+00  0.00000000000E+00  0.79301239421E+03  0.79301239421E+03  0.00000000000E+00 0.  1.
          1   -1    0    0  501    0  0.00000000000E+00 -0.00000000000E+00 -0.17135043605E+04  0.17135043605E+04  0.00000000000E+00 0. -1.
        -24    2    1    2    0    0 -0.74829666785E+03  0.40894781509E+03  0.29397326228E+03  0.90586829432E+03  0.83611417521E+02 0.  0.
    5000000    2    1    2    0    0  0.74829666785E+03 -0.40894781509E+03 -0.12144652285E+04  0.16006484604E+04  0.59996956902E+03 0.  0.
        -24    2    4    4    0    0  0.42211971841E+03  0.67689157778E+02 -0.69232520177E+03  0.81785122358E+03  0.82459445458E+02 0.  0.
         24    2    4    4    0    0  0.32617694944E+03 -0.47663697287E+03 -0.52214002675E+03  0.78279723677E+03  0.81037646265E+02 0.  0.
         11    1    5    5    0    0  0.29593629061E+01  0.11916038390E+02 -0.15225789516E+02  0.19559510886E+02  0.00000000000E+00 0. -1.
        -12    1    5    5    0    0  0.41916035551E+03  0.55773119388E+02 -0.67709941226E+03  0.79829171269E+03  0.00000000000E+00 0.  1.
         11    1    3    3    0    0 -0.21448148445E+03  0.15605669303E+03  0.71954319799E+02  0.27483344547E+03  0.00000000000E+00 0. -1.
        -12    1    3    3    0    0 -0.53381518340E+03  0.25289112206E+03  0.22201894248E+03  0.63103484886E+03  0.00000000000E+00 0.  1.
          2    1    6    6  502    0  0.90524850948E+02 -0.15211367144E+03 -0.11376305254E+03  0.21041708533E+03  0.00000000000E+00 0. -1.
         -1    1    6    6    0  502  0.23565209849E+03 -0.32452330143E+03 -0.40837697421E+03  0.57238015144E+03  0.00000000000E+00 0.  1.
<mgrwt>
<rscale>  0 0.93456892E+03</rscale>
<asrwt>0</asrwt>
<pdfrwt beam="1">  1        1 0.26361605E+00 0.93456892E+03</pdfrwt>
<pdfrwt beam="2">  1       -2 0.12200191E+00 0.93456892E+03</pdfrwt>
<totfact> 0.21066555E+00</totfact>
</mgrwt>
</event>
<event>
12    3  0.2212098E-007  0.5029242E+03  0.7818608E-02  0.1013018E+00
          1   -1    0    0  501    0  0.00000000000E+00  0.00000000000E+00  0.63562534632E+03  0.63562534632E+03  0.00000000000E+00 0. -1.
         -2   -1    0    0    0  501 -0.00000000000E+00 -0.00000000000E+00 -0.58453703277E+03  0.58453703277E+03  0.00000000000E+00 0.  1.
        -24    2    1    2    0    0 -0.23422051769E+03 -0.39192495606E+03  0.52552805993E+02  0.46642675584E+03  0.79546835661E+02 0.  0.
    5000000    2    1    2    0    0  0.23422051769E+03  0.39192495606E+03 -0.14644924398E+01  0.75373562324E+03  0.59970894851E+03 0.  0.
        -24    2    4    4    0    0 -0.58681944802E+02  0.12254219719E+03 -0.23866569548E+03  0.28600798956E+03  0.79869237852E+02 0.  0.
         24    2    4    4    0    0  0.29290246249E+03  0.26938275887E+03  0.23720120304E+03  0.46772763368E+03  0.64387928069E+02 0.  0.
         11    1    3    3    0    0 -0.20998528799E+03 -0.33093521188E+03  0.18211699444E+02  0.39235647265E+03  0.00000000000E+00 0. -1.
        -12    1    3    3    0    0 -0.24235229694E+02 -0.60989744181E+02  0.34341106549E+02  0.74070283195E+02  0.00000000000E+00 0.  1.
         13    1    5    5    0    0  0.68126090350E+01  0.36034647804E+02 -0.11877654735E+03  0.12430919388E+03  0.00000000000E+00 0. -1.
        -14    1    5    5    0    0 -0.65494553837E+02  0.86507549385E+02 -0.11988914813E+03  0.16169879567E+03  0.00000000000E+00 0.  1.
          2    1    6    6  502    0  0.84063574450E+02  0.11926994623E+03  0.87391849199E+02  0.17008627202E+03  0.00000000000E+00 0. -1.
         -1    1    6    6    0  502  0.20883888804E+03  0.15011281264E+03  0.14980935384E+03  0.29764136166E+03  0.00000000000E+00 0.  1.
<mgrwt>
<rscale>  0 0.50292418E+03</rscale>
<asrwt>0</asrwt>
<pdfrwt beam="1">  1        1 0.97788515E-01 0.50292418E+03</pdfrwt>
<pdfrwt beam="2">  1       -2 0.89928774E-01 0.50292418E+03</pdfrwt>
<totfact> 0.30488219E+01</totfact>
</mgrwt>
</event>
<event>
12    3  0.2212098E-007  0.6373755E+03  0.7818608E-02  0.9830761E-01
          1   -1    0    0  501    0  0.00000000000E+00  0.00000000000E+00  0.69435705469E+03  0.69435705469E+03  0.00000000000E+00 0. -1.
         -2   -1    0    0    0  501 -0.00000000000E+00 -0.00000000000E+00 -0.59199241357E+03  0.59199241357E+03  0.00000000000E+00 0.  1.
        -24    2    1    2    0    0  0.44674679279E+03  0.21633669807E+03  0.15568342589E+02  0.50300501052E+03  0.79921233222E+02 0.  0.
    5000000    2    1    2    0    0 -0.44674679279E+03 -0.21633669807E+03  0.86796298535E+02  0.78334445773E+03  0.59975885006E+03 0.  0.
        -24    2    4    4    0    0 -0.36466927538E+03  0.14377169233E+03  0.59333647984E+02  0.40438886687E+03  0.79723860568E+02 0.  0.
         24    2    4    4    0    0 -0.82077517413E+02 -0.36010839040E+03  0.27462650551E+02  0.37895559087E+03  0.80239460215E+02 0.  0.
         13    1    5    5    0    0 -0.19870244435E+03  0.11334637921E+03  0.11677647327E+02  0.22905551841E+03  0.00000000000E+00 0. -1.
        -14    1    5    5    0    0 -0.16596683103E+03  0.30425313118E+02  0.47656000657E+02  0.17533334845E+03  0.00000000000E+00 0.  1.
         13    1    3    3    0    0  0.18815866550E+03  0.13157170517E+03  0.23240043477E+02  0.23077022473E+03  0.00000000000E+00 0. -1.
        -14    1    3    3    0    0  0.25858812729E+03  0.84764992896E+02 -0.76717008884E+01  0.27223478579E+03  0.00000000000E+00 0.  1.
          2    1    6    6  502    0 -0.45572971252E+02 -0.72585928912E+02  0.24387550043E+02  0.89108727866E+02  0.00000000000E+00 0. -1.
         -1    1    6    6    0  502 -0.36504546161E+02 -0.28752246148E+03  0.30751005074E+01  0.28984686300E+03  0.00000000000E+00 0.  1.
<mgrwt>
<rscale>  0 0.63737552E+03</rscale>
<asrwt>0</asrwt>
<pdfrwt beam="1">  1        1 0.10682416E+00 0.63737552E+03</pdfrwt>
<pdfrwt beam="2">  1       -2 0.91075756E-01 0.63737552E+03</pdfrwt>
<totfact> 0.25601995E+01</totfact>
</mgrwt>
</event>
<event>
12    3  0.2212098E-007  0.5449861E+03  0.7818608E-02  0.1002661E+00
          1   -1    0    0  501    0  0.00000000000E+00  0.00000000000E+00  0.68385336121E+03  0.68385336121E+03  0.00000000000E+00 0. -1.
         -2   -1    0    0    0  501 -0.00000000000E+00 -0.00000000000E+00 -0.52477472803E+03  0.52477472803E+03  0.00000000000E+00 0.  1.
        -24    2    1    2    0    0  0.19720725139E+03  0.36479517144E+03 -0.10080388730E+03  0.43434706222E+03  0.80806742671E+02 0.  0.
    5000000    2    1    2    0    0 -0.19720725139E+03 -0.36479517144E+03  0.25988252048E+03  0.77428102701E+03  0.60000497267E+03 0.  0.
        -24    2    4    4    0    0 -0.31851057807E+02  0.13503895439E+03 -0.36974247361E+02  0.16443241244E+03  0.80130607175E+02 0.  0.
         24    2    4    4    0    0 -0.16535619359E+03 -0.49983412583E+03  0.29685676784E+03  0.60984861457E+03  0.81329994361E+02 0.  0.
         13    1    3    3    0    0  0.13041280884E+03  0.30474275473E+03 -0.65777434177E+02  0.33793833478E+03  0.00000000000E+00 0. -1.
        -14    1    3    3    0    0  0.66794442551E+02  0.60052416714E+02 -0.35026453125E+02  0.96408727444E+02  0.00000000000E+00 0.  1.
         13    1    5    5    0    0 -0.13362556870E+02  0.71023123047E+02 -0.60004082781E+02  0.93932592234E+02  0.00000000000E+00 0. -1.
        -14    1    5    5    0    0 -0.18488500937E+02  0.64015831340E+02  0.23029835420E+02  0.70499820202E+02  0.00000000000E+00 0.  1.
          4    1    6    6  502    0 -0.55113957681E+02 -0.91461702937E+02  0.86584599307E+02  0.13747612255E+03  0.00000000000E+00 0. -1.
         -3    1    6    6    0  502 -0.11024223591E+03 -0.40837242289E+03  0.21027216854E+03  0.47237249202E+03  0.00000000000E+00 0.  1.
<mgrwt>
<rscale>  0 0.54498607E+03</rscale>
<asrwt>0</asrwt>
<pdfrwt beam="1">  1        1 0.10520821E+00 0.54498607E+03</pdfrwt>
<pdfrwt beam="2">  1       -2 0.80734573E-01 0.54498607E+03</pdfrwt>
<totfact> 0.34800815E+01</totfact>
</mgrwt>
</event>
<event>
12    3  0.2212098E-007  0.4328686E+03  0.7818608E-02  0.1032958E+00
          1   -1    0    0  501    0  0.00000000000E+00  0.00000000000E+00  0.10732926845E+04  0.10732926845E+04  0.00000000000E+00 0. -1.
         -2   -1    0    0    0  501 -0.00000000000E+00 -0.00000000000E+00 -0.18973824675E+03  0.18973824675E+03  0.00000000000E+00 0.  1.
        -24    2    1    2    0    0  0.24221517018E+03 -0.74659514134E+01  0.24155005003E+03  0.35138378766E+03  0.80001315425E+02 0.  0.
    5000000    2    1    2    0    0 -0.24221517018E+03  0.74659514134E+01  0.64200438771E+03  0.91164714358E+03  0.60017243477E+03 0.  0.
        -24    2    4    4    0    0 -0.83485209772E+02  0.28203998580E+03  0.40461642257E+03  0.50723638016E+03  0.84011678402E+02 0.  0.
         24    2    4    4    0    0 -0.15872996040E+03 -0.27457403439E+03  0.23738796514E+03  0.40441076341E+03  0.81295257448E+02 0.  0.
         13    1    3    3    0    0  0.10297987170E+03 -0.23093126730E+02  0.15219366416E+03  0.18520544778E+03  0.00000000000E+00 0. -1.
        -14    1    3    3    0    0  0.13923529848E+03  0.15627175317E+02  0.89356385867E+02  0.16617833988E+03  0.00000000000E+00 0.  1.
         13    1    5    5    0    0 -0.47936621237E+02  0.87368789893E+02  0.19486042868E+03  0.21886482533E+03  0.00000000000E+00 0. -1.
        -14    1    5    5    0    0 -0.35548588535E+02  0.19467119591E+03  0.20975599389E+03  0.28837155483E+03  0.00000000000E+00 0.  1.
          4    1    6    6  502    0 -0.10783245097E+03 -0.12790301755E+03  0.15768932381E+03  0.22989767773E+03  0.00000000000E+00 0. -1.
         -3    1    6    6    0  502 -0.50897509430E+02 -0.14667101683E+03  0.79698641326E+02  0.17451308568E+03  0.00000000000E+00 0.  1.
<mgrwt>
<rscale>  0 0.43286861E+03</rscale>
<asrwt>0</asrwt>
<pdfrwt beam="1">  1        1 0.16512195E+00 0.43286861E+03</pdfrwt>
<pdfrwt beam="2">  1       -2 0.29190500E-01 0.43286861E+03</pdfrwt>
<totfact> 0.13150787E+02</totfact>
</mgrwt>
</event>
<event>
12    3  0.2212098E-007  0.3642570E+03  0.7818608E-02  0.1056911E+00
         -2   -1    0    0    0  501 -0.00000000000E+00  0.00000000000E+00  0.38575363341E+03  0.38575363341E+03  0.00000000000E+00 0.  1.
          1   -1    0    0  501    0  0.00000000000E+00 -0.00000000000E+00 -0.16543180049E+04  0.16543180049E+04  0.00000000000E+00 0. -1.
        -24    2    1    2    0    0 -0.66924800129E+02  0.31273997673E+03 -0.13178033083E+04  0.13583514243E+04  0.78916478244E+02 0.  0.
    5000000    2    1    2    0    0  0.66924800129E+02 -0.31273997673E+03  0.49238936784E+02  0.68172021407E+03  0.60002729559E+03 0.  0.
        -24    2    4    4    0    0  0.10714587568E+03 -0.31511447289E+03  0.27452552536E+03  0.43871638218E+03  0.79564000744E+02 0.  0.
         24    2    4    4    0    0 -0.40221075548E+02  0.23744961662E+01 -0.22528658858E+03  0.24300383189E+03  0.81691138866E+02 0.  0.
         11    1    3    3    0    0 -0.37471473965E+02  0.17577617583E+03 -0.57433908414E+03  0.60180292366E+03  0.00000000000E+00 0. -1.
        -12    1    3    3    0    0 -0.29453326164E+02  0.13696380090E+03 -0.74346422414E+03  0.75654850060E+03  0.00000000000E+00 0.  1.
         11    1    5    5    0    0  0.39145973439E+02 -0.83077382767E+02  0.34754922666E+02  0.98194518245E+02  0.00000000000E+00 0. -1.
        -12    1    5    5    0    0  0.67999902238E+02 -0.23203709013E+03  0.23977060270E+03  0.34052186393E+03  0.00000000000E+00 0.  1.
          2    1    6    6  502    0 -0.15416173779E+02 -0.30323488676E+02 -0.17411445408E+03  0.17740635699E+03  0.00000000000E+00 0. -1.
         -1    1    6    6    0  502 -0.24804901769E+02  0.32697984843E+02 -0.51172134498E+02  0.65597474903E+02  0.00000000000E+00 0.  1.
<mgrwt>
<rscale>  0 0.36425696E+03</rscale>
<asrwt>0</asrwt>
<pdfrwt beam="1">  1        1 0.25451047E+00 0.36425696E+03</pdfrwt>
<pdfrwt beam="2">  1       -2 0.59346711E-01 0.36425696E+03</pdfrwt>
<totfact> 0.13274088E+01</totfact>
</mgrwt>
</event>
<event>
12    3  0.2212098E-007  0.9281369E+03  0.7818608E-02  0.9391077E-01
         -2   -1    0    0    0  501 -0.00000000000E+00  0.00000000000E+00  0.52647731139E+03  0.52647731139E+03  0.00000000000E+00 0.  1.
          1   -1    0    0  501    0  0.00000000000E+00 -0.00000000000E+00 -0.20447948926E+04  0.20447948926E+04  0.00000000000E+00 0. -1.
        -24    2    1    2    0    0 -0.91356975385E+03 -0.26791609088E+02 -0.38001438142E+03  0.99296136659E+03  0.78954797124E+02 0.  0.
    5000000    2    1    2    0    0  0.91356975385E+03  0.26791609088E+02 -0.11383031998E+04  0.15783108374E+04  0.60000286609E+03 0.  0.
        -24    2    4    4    0    0  0.18176611399E+03  0.42581959490E+02  0.12843616946E+02  0.21185757548E+03  0.99330409860E+02 0.  0.
         24    2    4    4    0    0  0.73180363986E+03 -0.15790350402E+02 -0.11511468167E+04  0.13664532619E+04  0.79180937352E+02 0.  0.
         11    1    5    5    0    0  0.17185702224E+03  0.10208611093E+02  0.28592087840E+02  0.17451807734E+03  0.00000000000E+00 0. -1.
        -12    1    5    5    0    0  0.99090917574E+01  0.32373348397E+02 -0.15748470894E+02  0.37339498140E+02  0.00000000000E+00 0.  1.
         13    1    3    3    0    0 -0.66174262594E+03 -0.47829728264E+02 -0.25234010903E+03  0.70983555597E+03  0.00000000000E+00 0. -1.
        -14    1    3    3    0    0 -0.25182712791E+03  0.21038119177E+02 -0.12767427240E+03  0.28312581062E+03  0.00000000000E+00 0.  1.
          2    1    6    6  502    0  0.55707729903E+03 -0.35742219688E+02 -0.82892684497E+03  0.99936596783E+03  0.00000000000E+00 0. -1.
         -1    1    6    6    0  502  0.17472634083E+03  0.19951869286E+02 -0.32221997176E+03  0.36708729407E+03  0.00000000000E+00 0.  1.
<mgrwt>
<rscale>  0 0.92813685E+03</rscale>
<asrwt>0</asrwt>
<pdfrwt beam="1">  1        1 0.31458384E+00 0.92813685E+03</pdfrwt>
<pdfrwt beam="2">  1       -2 0.80996507E-01 0.92813685E+03</pdfrwt>
<totfact> 0.33357492E+00</totfact>
</mgrwt>
</event>
<event>
12    3  0.2212098E-007  0.9284717E+03  0.7818608E-02  0.9390674E-01
         -2   -1    0    0    0  501 -0.00000000000E+00  0.00000000000E+00  0.67922753893E+03  0.67922753893E+03  0.00000000000E+00 0.  1.
          1   -1    0    0  501    0  0.00000000000E+00 -0.00000000000E+00 -0.16915510596E+04  0.16915510596E+04  0.00000000000E+00 0. -1.
        -24    2    1    2    0    0 -0.18703080311E+02 -0.83272342100E+03  0.11675715748E+03  0.84477310108E+03  0.78938313814E+02 0.  0.
    5000000    2    1    2    0    0  0.18703080311E+02  0.83272342100E+03 -0.11290806781E+04  0.15260054974E+04  0.60007624460E+03 0.  0.
        -24    2    4    4    0    0 -0.84333423502E+02  0.87992975322E+03 -0.98650649908E+03  0.13269770928E+04  0.79275690644E+02 0.  0.
         24    2    4    4    0    0  0.10303650381E+03 -0.47206332215E+02 -0.14257417902E+03  0.19902840461E+03  0.80249301564E+02 0.  0.
         11    1    5    5    0    0 -0.18462700598E+02  0.26647859914E+03 -0.24612229526E+03  0.36321880367E+03  0.00000000000E+00 0. -1.
        -12    1    5    5    0    0 -0.65870722904E+02  0.61345115408E+03 -0.74038420382E+03  0.96375828912E+03  0.00000000000E+00 0.  1.
         13    1    3    3    0    0 -0.44863598716E+02 -0.38495721891E+03  0.69718641985E+02  0.39378355974E+03  0.00000000000E+00 0. -1.
        -14    1    3    3    0    0  0.26160518405E+02 -0.44776620210E+03  0.47038515495E+02  0.45098954135E+03  0.00000000000E+00 0.  1.
          4    1    6    6  502    0  0.10515347024E+03 -0.17051564066E+02 -0.12431079112E+03  0.16371066224E+03  0.00000000000E+00 0. -1.
         -3    1    6    6    0  502 -0.21169664316E+01 -0.30154768149E+02 -0.18263387894E+02  0.35317742374E+02  0.00000000000E+00 0.  1.
<mgrwt>
<rscale>  0 0.92847168E+03</rscale>
<asrwt>0</asrwt>
<pdfrwt beam="1">  1        1 0.26023862E+00 0.92847168E+03</pdfrwt>
<pdfrwt beam="2">  1       -2 0.10449655E+00 0.92847168E+03</pdfrwt>
<totfact> 0.31866343E+00</totfact>
</mgrwt>
</event>
<event>
12    3  0.2212098E-007  0.1246135E+04  0.7818608E-02  0.9073406E-01
         -2   -1    0    0    0  501 -0.00000000000E+00  0.00000000000E+00  0.94262727405E+03  0.94262727405E+03  0.00000000000E+00 0.  1.
          1   -1    0    0  501    0  0.00000000000E+00 -0.00000000000E+00 -0.18509412242E+04  0.18509412242E+04  0.00000000000E+00 0. -1.
        -24    2    1    2    0    0 -0.10094504946E+04 -0.72611109656E+03 -0.28116616110E+03  0.12772962077E+04  0.78762721608E+02 0.  0.
    5000000    2    1    2    0    0  0.10094504946E+04  0.72611109656E+03 -0.62714778901E+03  0.15162722906E+04  0.59961628085E+03 0.  0.
        -24    2    4    4    0    0  0.18481814444E+03  0.16876807990E+03 -0.42168836644E+03  0.49680684577E+03  0.79721717884E+02 0.  0.
         24    2    4    4    0    0  0.82463235016E+03  0.55734301667E+03 -0.20545942257E+03  0.10194654448E+04  0.80289897557E+02 0.  0.
         11    1    5    5    0    0  0.98228782226E+02  0.64250447824E+02 -0.26292476014E+03  0.28793478984E+03  0.00000000000E+00 0. -1.
        -12    1    5    5    0    0  0.86589362218E+02  0.10451763207E+03 -0.15876360630E+03  0.20887205593E+03  0.00000000000E+00 0.  1.
         13    1    3    3    0    0 -0.58031367540E+03 -0.42632040468E+03 -0.20189522352E+03  0.74784672934E+03  0.00000000000E+00 0. -1.
        -14    1    3    3    0    0 -0.42913681921E+03 -0.29979069189E+03 -0.79270937579E+02  0.52944947832E+03  0.00000000000E+00 0.  1.
          2    1    6    6  502    0  0.12302028011E+03  0.93739993939E+02 -0.39506636325E+01  0.15471516902E+03  0.00000000000E+00 0. -1.
         -1    1    6    6    0  502  0.70161207005E+03  0.46360302273E+03 -0.20150875894E+03  0.86475027577E+03  0.00000000000E+00 0.  1.
<mgrwt>
<rscale>  0 0.12461354E+04</rscale>
<asrwt>0</asrwt>
<pdfrwt beam="1">  1        1 0.28476019E+00 0.12461354E+04</pdfrwt>
<pdfrwt beam="2">  1       -2 0.14501958E+00 0.12461354E+04</pdfrwt>
<totfact> 0.10507270E+00</totfact>
</mgrwt>
</event>
<event>
12    3  0.2212098E-007  0.5829418E+03  0.7818608E-02  0.9941442E-01
          1   -1    0    0  501    0  0.00000000000E+00  0.00000000000E+00  0.25214129885E+04  0.25214129885E+04  0.00000000000E+00 0. -1.
         -2   -1    0    0    0  501 -0.00000000000E+00 -0.00000000000E+00 -0.18699500083E+03  0.18699500083E+03  0.00000000000E+00 0.  1.
        -24    2    1    2    0    0  0.13649200105E+03  0.51834334136E+03  0.12092126555E+04  0.13251543810E+04  0.80802236975E+02 0.  0.
    5000000    2    1    2    0    0 -0.13649200105E+03 -0.51834334136E+03  0.11252053322E+04  0.13832536083E+04  0.59999468281E+03 0.  0.
        -24    2    4    4    0    0 -0.22536199343E+03 -0.39991081351E+03  0.33182681681E+03  0.57238083057E+03  0.82426282273E+02 0.  0.
         24    2    4    4    0    0  0.88869992378E+02 -0.11843252786E+03  0.79337851539E+03  0.81087277774E+03  0.78364875991E+02 0.  0.
         11    1    5    5    0    0 -0.11660686464E+03 -0.17360266134E+03  0.19738635242E+03  0.28756984721E+03  0.00000000000E+00 0. -1.
        -12    1    5    5    0    0 -0.10875512879E+03 -0.22630815217E+03  0.13444046439E+03  0.28481098336E+03  0.00000000000E+00 0.  1.
         11    1    3    3    0    0  0.11028526395E+03  0.32112012325E+03  0.68692067777E+03  0.76625125810E+03  0.00000000000E+00 0. -1.
        -12    1    3    3    0    0  0.26206737097E+02  0.19722321812E+03  0.52229197773E+03  0.55890312294E+03  0.00000000000E+00 0.  1.
          4    1    6    6  502    0  0.50801324807E+02 -0.11869940749E+03  0.59004915158E+03  0.60401020291E+03  0.00000000000E+00 0. -1.
         -3    1    6    6    0  502  0.38068667571E+02  0.26687963161E+00  0.20332936381E+03  0.20686257482E+03  0.00000000000E+00 0.  1.
<mgrwt>
<rscale>  0 0.58294175E+03</rscale>
<asrwt>0</asrwt>
<pdfrwt beam="1">  1        1 0.38790967E+00 0.58294175E+03</pdfrwt>
<pdfrwt beam="2">  1       -2 0.28768464E-01 0.58294175E+03</pdfrwt>
<totfact> 0.13758700E+01</totfact>
</mgrwt>
</event>
<event>
12    3  0.2212098E-007  0.4857515E+03  0.7818608E-02  0.1017566E+00
         -2   -1    0    0    0  501 -0.00000000000E+00  0.00000000000E+00  0.56162722420E+03  0.56162722420E+03  0.00000000000E+00 0.  1.
          1   -1    0    0  501    0  0.00000000000E+00 -0.00000000000E+00 -0.70425979648E+03  0.70425979648E+03  0.00000000000E+00 0. -1.
        -24    2    1    2    0    0  0.55763075793E+02  0.45400546184E+03  0.96628836128E+02  0.47433940340E+03  0.80188887324E+02 0.  0.
    5000000    2    1    2    0    0 -0.55763075793E+02 -0.45400546184E+03 -0.23926140841E+03  0.79154761728E+03  0.60005927113E+03 0.  0.
        -24    2    4    4    0    0  0.15144708351E+02 -0.35263409876E+03  0.13706513109E+03  0.38741268625E+03  0.81985178595E+02 0.  0.
         24    2    4    4    0    0 -0.70907784144E+02 -0.10137136308E+03 -0.37632653950E+03  0.40413493103E+03  0.79995693879E+02 0.  0.
         11    1    5    5    0    0 -0.30318505488E+02 -0.87935386129E+02  0.24387172816E+02  0.96159129087E+02  0.00000000000E+00 0. -1.
        -12    1    5    5    0    0  0.45463213839E+02 -0.26469871263E+03  0.11267795828E+03  0.29125355716E+03  0.00000000000E+00 0.  1.
         11    1    3    3    0    0  0.33984535270E+02  0.55023746849E+02  0.17580807714E+02  0.67019744513E+02  0.00000000000E+00 0. -1.
        -12    1    3    3    0    0  0.21778540523E+02  0.39898171499E+03  0.79048028414E+02  0.40731965889E+03  0.00000000000E+00 0.  1.
          2    1    6    6  502    0 -0.52456595533E+01  0.12869728920E+02 -0.21184943935E+02  0.25336706892E+02  0.00000000000E+00 0. -1.
         -1    1    6    6    0  502 -0.65662124591E+02 -0.11424109200E+03 -0.35514159557E+03  0.37879822414E+03  0.00000000000E+00 0.  1.
<mgrwt>
<rscale>  0 0.48575150E+03</rscale>
<asrwt>0</asrwt>
<pdfrwt beam="1">  1        1 0.10834766E+00 0.48575150E+03</pdfrwt>
<pdfrwt beam="2">  1       -2 0.86404188E-01 0.48575150E+03</pdfrwt>
<totfact> 0.28788616E+01</totfact>
</mgrwt>
</event>
<event>
12    3  0.2212098E-007  0.5398769E+03  0.7818608E-02  0.1003865E+00
         -2   -1    0    0    0  501 -0.00000000000E+00  0.00000000000E+00  0.20508398850E+03  0.20508398850E+03  0.00000000000E+00 0.  1.
          1   -1    0    0  501    0  0.00000000000E+00 -0.00000000000E+00 -0.15929009394E+04  0.15929009394E+04  0.00000000000E+00 0. -1.
        -24    2    1    2    0    0  0.33641404819E+03 -0.16610306929E+03 -0.76315130212E+03  0.85395734130E+03  0.77965308800E+02 0.  0.
    5000000    2    1    2    0    0 -0.33641404819E+03  0.16610306929E+03 -0.62466564874E+03  0.94402758656E+03  0.60018019796E+03 0.  0.
        -24    2    4    4    0    0 -0.39854345299E+03  0.32098832537E+03 -0.41118069335E+03  0.66153279569E+03  0.81766058019E+02 0.  0.
         24    2    4    4    0    0  0.62129404803E+02 -0.15488525608E+03 -0.21348495539E+03  0.28249479087E+03  0.79862226348E+02 0.  0.
         11    1    3    3    0    0  0.45131207275E+02 -0.55542676565E+02 -0.13606322155E+03  0.15373683700E+03  0.00000000000E+00 0. -1.
        -12    1    3    3    0    0  0.29128284091E+03 -0.11056039272E+03 -0.62708808057E+03  0.70022050430E+03  0.00000000000E+00 0.  1.
         11    1    5    5    0    0 -0.34092312410E+03  0.24838820211E+03 -0.36580140547E+03  0.55833318344E+03  0.00000000000E+00 0. -1.
        -12    1    5    5    0    0 -0.57620328890E+02  0.72600123262E+02 -0.45379287885E+02  0.10319961225E+03  0.00000000000E+00 0.  1.
          4    1    6    6  502    0 -0.55700007876E+01 -0.83723216461E+02 -0.73870516143E+02  0.11179201688E+03  0.00000000000E+00 0. -1.
         -3    1    6    6    0  502  0.67699405590E+02 -0.71162039621E+02 -0.13961443925E+03  0.17070277399E+03  0.00000000000E+00 0.  1.
<mgrwt>
<rscale>  0 0.53987695E+03</rscale>
<asrwt>0</asrwt>
<pdfrwt beam="1">  1        1 0.24506168E+00 0.53987695E+03</pdfrwt>
<pdfrwt beam="2">  1       -2 0.31551383E-01 0.53987695E+03</pdfrwt>
<totfact> 0.48721911E+01</totfact>
</mgrwt>
</event>
<event>
12    3  0.2212098E-007  0.1229897E+04  0.7818608E-02  0.9087083E-01
          1   -1    0    0  501    0  0.00000000000E+00  0.00000000000E+00  0.20520865657E+04  0.20520865657E+04  0.00000000000E+00 0. -1.
         -2   -1    0    0    0  501 -0.00000000000E+00 -0.00000000000E+00 -0.83652256814E+03  0.83652256814E+03  0.00000000000E+00 0.  1.
        -24    2    1    2    0    0 -0.32283027990E+02  0.11580313811E+04  0.88600507296E+02  0.11646100703E+04  0.79923040207E+02 0.  0.
    5000000    2    1    2    0    0  0.32283027990E+02 -0.11580313811E+04  0.11269634902E+04  0.17239990635E+04  0.60003932306E+03 0.  0.
        -24    2    4    4    0    0  0.24616433528E+03 -0.96865321620E+03  0.80189974089E+03  0.12839018963E+04  0.80467083882E+02 0.  0.
         24    2    4    4    0    0 -0.21388130729E+03 -0.18937816490E+03  0.32506374932E+03  0.44009716725E+03  0.80061055106E+02 0.  0.
         11    1    5    5    0    0  0.18800453850E+03 -0.58600387442E+03  0.50502316143E+03  0.79611220371E+03  0.00000000000E+00 0. -1.
        -12    1    5    5    0    0  0.58159796781E+02 -0.38264934178E+03  0.29687657947E+03  0.48778969256E+03  0.00000000000E+00 0.  1.
         13    1    3    3    0    0 -0.49880821795E+02  0.52122190079E+03  0.21674742947E+02  0.52405167754E+03  0.00000000000E+00 0. -1.
        -14    1    3    3    0    0  0.17597793805E+02  0.63680948031E+03  0.66925764349E+02  0.64055839273E+03  0.00000000000E+00 0.  1.
          2    1    6    6  502    0 -0.63154780759E+02 -0.12672253980E+02  0.69158041344E+02  0.94508978601E+02  0.00000000000E+00 0. -1.
         -1    1    6    6    0  502 -0.15072652653E+03 -0.17670591092E+03  0.25590570798E+03  0.34558818865E+03  0.00000000000E+00 0.  1.
<mgrwt>
<rscale>  0 0.12298972E+04</rscale>
<asrwt>0</asrwt>
<pdfrwt beam="1">  1        1 0.31570562E+00 0.12298972E+04</pdfrwt>
<pdfrwt beam="2">  1       -2 0.12869578E+00 0.12298972E+04</pdfrwt>
<totfact> 0.10482847E+00</totfact>
</mgrwt>
</event>
<event>
12    3  0.2212098E-007  0.1560413E+04  0.7818608E-02  0.8845244E-01
         -2   -1    0    0    0  501 -0.00000000000E+00  0.00000000000E+00  0.24953599213E+04  0.24953599213E+04  0.00000000000E+00 0.  1.
          1   -1    0    0  501    0  0.00000000000E+00 -0.00000000000E+00 -0.11747770916E+04  0.11747770916E+04  0.00000000000E+00 0. -1.
        -24    2    1    2    0    0  0.14421977930E+04  0.57367718297E+03  0.13503029922E+02  0.15540638517E+04  0.76760270554E+02 0.  0.
    5000000    2    1    2    0    0 -0.14421977930E+04 -0.57367718297E+03  0.13070797998E+04  0.21160731611E+04  0.60022332179E+03 0.  0.
        -24    2    4    4    0    0 -0.13805565937E+04 -0.50634685778E+03  0.13389890578E+04  0.19902817337E+04  0.77498604166E+02 0.  0.
         24    2    4    4    0    0 -0.61641199259E+02 -0.67330325190E+02 -0.31909258015E+02  0.12579142748E+03  0.80450434083E+02 0.  0.
         11    1    3    3    0    0  0.12577869110E+04  0.47251767085E+03  0.16180283828E+02  0.13437122700E+04  0.00000000000E+00 0. -1.
        -12    1    3    3    0    0  0.18441088192E+03  0.10115951212E+03 -0.26772539052E+01  0.21035158177E+03  0.00000000000E+00 0.  1.
         11    1    5    5    0    0 -0.77610056039E+03 -0.24746985481E+03  0.76291674476E+03  0.11160713993E+04  0.00000000000E+00 0. -1.
        -12    1    5    5    0    0 -0.60445603332E+03 -0.25887700297E+03  0.57607231304E+03  0.87421033438E+03  0.00000000000E+00 0.  1.
          2    1    6    6  502    0 -0.22712905118E+02 -0.86619894292E+01 -0.47787220897E+02  0.53614593170E+02  0.00000000000E+00 0. -1.
         -1    1    6    6    0  502 -0.38928294142E+02 -0.58668335760E+02  0.15877962882E+02  0.72176834310E+02  0.00000000000E+00 0.  1.
<mgrwt>
<rscale>  0 0.15604131E+04</rscale>
<asrwt>0</asrwt>
<pdfrwt beam="1">  1        1 0.18073494E+00 0.15604131E+04</pdfrwt>
<pdfrwt beam="2">  1       -2 0.38390153E+00 0.15604131E+04</pdfrwt>
<totfact> 0.86957048E-02</totfact>
</mgrwt>
</event>
<event>
12    3  0.2212098E-007  0.7602023E+03  0.7818608E-02  0.9619479E-01
          1   -1    0    0  501    0  0.00000000000E+00  0.00000000000E+00  0.79197027249E+03  0.79197027249E+03  0.00000000000E+00 0. -1.
         -2   -1    0    0    0  501 -0.00000000000E+00 -0.00000000000E+00 -0.77430770188E+03  0.77430770188E+03  0.00000000000E+00 0.  1.
        -24    2    1    2    0    0  0.61452441423E+03 -0.25531052051E+03  0.95563194232E+01  0.67022108236E+03  0.79254390557E+02 0.  0.
    5000000    2    1    2    0    0 -0.61452441423E+03  0.25531052051E+03  0.81062511831E+01  0.89605689201E+03  0.60002377023E+03 0.  0.
        -24    2    4    4    0    0  0.75683028232E+02  0.13133394998E+03 -0.72198356542E+02  0.18574721674E+03  0.79453751706E+02 0.  0.
         24    2    4    4    0    0 -0.69020744246E+03  0.12397657053E+03  0.80304607725E+02  0.71030967527E+03  0.79589579010E+02 0.  0.
         13    1    5    5    0    0  0.42454398665E+02  0.56743865812E+02  0.79702708009E+01  0.71314567166E+02  0.00000000000E+00 0. -1.
        -14    1    5    5    0    0  0.33228629566E+02  0.74590084171E+02 -0.80168627343E+02  0.11443264958E+03  0.00000000000E+00 0.  1.
         13    1    3    3    0    0  0.41678173830E+03 -0.15627295416E+03 -0.27570221867E+02  0.44596902439E+03  0.00000000000E+00 0. -1.
        -14    1    3    3    0    0  0.19774267593E+03 -0.99037566350E+02  0.37126541290E+02  0.22425205796E+03  0.00000000000E+00 0.  1.
          4    1    6    6  502    0 -0.32831883340E+03  0.70270333142E+02  0.76868463958E+02  0.34444148536E+03  0.00000000000E+00 0. -1.
         -3    1    6    6    0  502 -0.36188860906E+03  0.53706237387E+02  0.34361437667E+01  0.36586818991E+03  0.00000000000E+00 0.  1.
<mgrwt>
<rscale>  0 0.76020231E+03</rscale>
<asrwt>0</asrwt>
<pdfrwt beam="1">  1        1 0.12184158E+00 0.76020231E+03</pdfrwt>
<pdfrwt beam="2">  1       -2 0.11912426E+00 0.76020231E+03</pdfrwt>
<totfact> 0.10863160E+01</totfact>
</mgrwt>
</event>
<event>
12    3  0.2212098E-007  0.6880152E+03  0.7818608E-02  0.9737950E-01
         -2   -1    0    0    0  501 -0.00000000000E+00  0.00000000000E+00  0.40180385563E+03  0.40180385563E+03  0.00000000000E+00 0.  1.
          1   -1    0    0  501    0  0.00000000000E+00 -0.00000000000E+00 -0.12919078063E+04  0.12919078063E+04  0.00000000000E+00 0. -1.
        -24    2    1    2    0    0 -0.18518617692E+03  0.55446815965E+03 -0.25656217169E+03  0.64343377742E+03  0.80336901835E+02 0.  0.
    5000000    2    1    2    0    0  0.18518617692E+03 -0.55446815965E+03 -0.63354177901E+03  0.10502778845E+04  0.59998299045E+03 0.  0.
        -24    2    4    4    0    0 -0.15233516569E+03 -0.32677557582E+02 -0.19081714424E+02  0.17263161615E+03  0.71859151076E+02 0.  0.
         24    2    4    4    0    0  0.33752134261E+03 -0.52179060207E+03 -0.61446006458E+03  0.87764626839E+03  0.80719962392E+02 0.  0.
         11    1    5    5    0    0 -0.15510450043E+03 -0.38710099513E+02 -0.84340791777E+01  0.16008438883E+03  0.00000000000E+00 0. -1.
        -12    1    5    5    0    0  0.27693347329E+01  0.60325419311E+01 -0.10647635246E+02  0.12547227317E+02  0.00000000000E+00 0.  1.
         13    1    3    3    0    0 -0.66021303414E+02  0.13310038853E+03 -0.96698312424E+02  0.17727123161E+03  0.00000000000E+00 0. -1.
        -14    1    3    3    0    0 -0.11916487351E+03  0.42136777112E+03 -0.15986385926E+03  0.46616254581E+03  0.00000000000E+00 0.  1.
          2    1    6    6  502    0  0.23906852229E+03 -0.40514254564E+03 -0.50259959327E+03  0.68840438101E+03  0.00000000000E+00 0. -1.
         -1    1    6    6    0  502  0.98452820322E+02 -0.11664805642E+03 -0.11186047132E+03  0.18924188738E+03  0.00000000000E+00 0.  1.
<mgrwt>
<rscale>  0 0.68801523E+03</rscale>
<asrwt>0</asrwt>
<pdfrwt beam="1">  1        1 0.19875505E+00 0.68801523E+03</pdfrwt>
<pdfrwt beam="2">  1       -2 0.61815978E-01 0.68801523E+03</pdfrwt>
<totfact> 0.20237228E+01</totfact>
</mgrwt>
</event>
<event>
12    3  0.2212098E-007  0.1370519E+04  0.7818608E-02  0.8975440E-01
         -2   -1    0    0    0  501 -0.00000000000E+00  0.00000000000E+00  0.64184460224E+03  0.64184460224E+03  0.00000000000E+00 0.  1.
          1   -1    0    0  501    0  0.00000000000E+00 -0.00000000000E+00 -0.31876489112E+04  0.31876489112E+04  0.00000000000E+00 0. -1.
        -24    2    1    2    0    0 -0.12800002389E+04 -0.29933342368E+03 -0.71905298994E+03  0.15003463170E+04  0.77464562487E+02 0.  0.
    5000000    2    1    2    0    0  0.12800002389E+04  0.29933342368E+03 -0.18267513190E+04  0.23291471965E+04  0.59992097064E+03 0.  0.
        -24    2    4    4    0    0  0.21105274390E+03  0.27567649217E+03 -0.61883449782E+03  0.71397157900E+03  0.79110624321E+02 0.  0.
         24    2    4    4    0    0  0.10689474950E+04  0.23656931503E+02 -0.12079168212E+04  0.16151756175E+04  0.80751660989E+02 0.  0.
         11    1    3    3    0    0 -0.35281248593E+03 -0.95718400838E+02 -0.23713386360E+03  0.43574204726E+03  0.00000000000E+00 0. -1.
        -12    1    3    3    0    0 -0.92718775298E+03 -0.20361502284E+03 -0.48191912635E+03  0.10646042697E+04  0.00000000000E+00 0.  1.
         13    1    5    5    0    0  0.17034128919E+03  0.16100652335E+03 -0.40422597720E+03  0.46726640796E+03  0.00000000000E+00 0. -1.
        -14    1    5    5    0    0  0.40711454713E+02  0.11466996883E+03 -0.21460852062E+03  0.24670517104E+03  0.00000000000E+00 0.  1.
          4    1    6    6  502    0  0.74857743741E+03  0.36735285935E+02 -0.79829456527E+03  0.10949848739E+04  0.00000000000E+00 0. -1.
         -3    1    6    6    0  502  0.32037005760E+03 -0.13078354432E+02 -0.40962225596E+03  0.52019074361E+03  0.00000000000E+00 0.  1.
<mgrwt>
<rscale>  0 0.13705185E+04</rscale>
<asrwt>0</asrwt>
<pdfrwt beam="1">  1        1 0.49040752E+00 0.13705185E+04</pdfrwt>
<pdfrwt beam="2">  1       -2 0.98745324E-01 0.13705185E+04</pdfrwt>
<totfact> 0.31573266E-01</totfact>
</mgrwt>
</event>
<event>
12    3  0.2212098E-007  0.1582672E+04  0.7818608E-02  0.8831264E-01
          1   -1    0    0  501    0  0.00000000000E+00  0.00000000000E+00  0.14420992715E+04  0.14420992715E+04  0.00000000000E+00 0. -1.
         -2   -1    0    0    0  501 -0.00000000000E+00 -0.00000000000E+00 -0.28116432761E+04  0.28116432761E+04  0.00000000000E+00 0.  1.
        -24    2    1    2    0    0 -0.10337042236E+04  0.11293366540E+04  0.63646579087E+03  0.16599166494E+04  0.79302457695E+02 0.  0.
    5000000    2    1    2    0    0  0.10337042236E+04 -0.11293366540E+04 -0.20060097956E+04  0.25938258983E+04  0.59992648761E+03 0.  0.
        -24    2    4    4    0    0  0.65326689867E+02 -0.43915241587E+03 -0.59600612606E+03  0.74761858621E+03  0.81165432107E+02 0.  0.
         24    2    4    4    0    0  0.96837753375E+03 -0.69018423816E+03 -0.14100036695E+04  0.18462073120E+04  0.79131287034E+02 0.  0.
         11    1    5    5    0    0  0.37265273352E+02 -0.16150503727E+03 -0.28560809769E+03  0.33021896240E+03  0.00000000000E+00 0. -1.
        -12    1    5    5    0    0  0.28061416515E+02 -0.27764737860E+03 -0.31039802837E+03  0.41739962381E+03  0.00000000000E+00 0.  1.
         13    1    3    3    0    0 -0.78696815663E+03  0.83844939614E+03  0.44386380467E+03  0.12326115960E+04  0.00000000000E+00 0. -1.
        -14    1    3    3    0    0 -0.24673606698E+03  0.29088725790E+03  0.19260198620E+03  0.42730505338E+03  0.00000000000E+00 0.  1.
          4    1    6    6  502    0  0.42081903043E+03 -0.29646895564E+03 -0.67135180784E+03  0.84598803060E+03  0.00000000000E+00 0. -1.
         -3    1    6    6    0  502  0.54755850332E+03 -0.39371528252E+03 -0.73865186165E+03  0.10002192814E+04  0.00000000000E+00 0.  1.
<mgrwt>
<rscale>  0 0.15826721E+04</rscale>
<asrwt>0</asrwt>
<pdfrwt beam="1">  1        1 0.22186143E+00 0.15826721E+04</pdfrwt>
<pdfrwt beam="2">  1       -2 0.43256050E+00 0.15826721E+04</pdfrwt>
<totfact> 0.26625151E-02</totfact>
</mgrwt>
</event>
<event>
12    3  0.2212098E-007  0.1572941E+04  0.7818608E-02  0.8837346E-01
          3   -1    0    0  501    0  0.00000000000E+00  0.00000000000E+00  0.34907511774E+04  0.34907511774E+04  0.00000000000E+00 0. -1.
         -4   -1    0    0    0  501 -0.00000000000E+00 -0.00000000000E+00 -0.73053582255E+03  0.73053582255E+03  0.00000000000E+00 0.  1.
        -24    2    1    2    0    0  0.92801209975E+03 -0.12283800374E+04  0.13383935339E+04  0.20414452523E+04  0.77958275626E+02 0.  0.
    5000000    2    1    2    0    0 -0.92801209975E+03  0.12283800374E+04  0.14218218209E+04  0.21798417477E+04  0.60000731756E+03 0.  0.
        -24    2    4    4    0    0 -0.51014443312E+03  0.99165152802E+03  0.12147558391E+04  0.16509211970E+04  0.79302927431E+02 0.  0.
         24    2    4    4    0    0 -0.41786766664E+03  0.23672850935E+03  0.20706598178E+03  0.52892055072E+03  0.78910418841E+02 0.  0.
         11    1    5    5    0    0 -0.28851752570E+03  0.64407790499E+03  0.77223959685E+03  0.10461513778E+04  0.00000000000E+00 0. -1.
        -12    1    5    5    0    0 -0.22162690742E+03  0.34757362302E+03  0.44251624227E+03  0.60476981918E+03  0.00000000000E+00 0.  1.
         11    1    3    3    0    0  0.47522158966E+03 -0.69163236093E+03  0.74074806907E+03  0.11193295242E+04  0.00000000000E+00 0. -1.
        -12    1    3    3    0    0  0.45279051009E+03 -0.53674767644E+03  0.59764546488E+03  0.92211572803E+03  0.00000000000E+00 0.  1.
          4    1    6    6  502    0 -0.23801098982E+03  0.17840774458E+03  0.13348014426E+03  0.32602991199E+03  0.00000000000E+00 0. -1.
         -1    1    6    6    0  502 -0.17985667682E+03  0.58320764767E+02  0.73585837524E+02  0.20289063873E+03  0.00000000000E+00 0.  1.
<mgrwt>
<rscale>  0 0.15729405E+04</rscale>
<asrwt>0</asrwt>
<pdfrwt beam="1">  1        3 0.53703863E+00 0.15729405E+04</pdfrwt>
<pdfrwt beam="2">  1       -4 0.11239013E+00 0.15729405E+04</pdfrwt>
<totfact> 0.29846996E-03</totfact>
</mgrwt>
</event>
<event>
12    3  0.2212098E-007  0.3399530E+03  0.7818608E-02  0.1066816E+00
         -2   -1    0    0    0  501 -0.00000000000E+00  0.00000000000E+00  0.17835821289E+03  0.17835821289E+03  0.00000000000E+00 0.  1.
          1   -1    0    0  501    0  0.00000000000E+00 -0.00000000000E+00 -0.16425605540E+04  0.16425605540E+04  0.00000000000E+00 0. -1.
        -24    2    1    2    0    0  0.14253590909E+03  0.14791813687E+03 -0.10264027173E+04  0.10498991836E+04  0.81175717122E+02 0.  0.
    5000000    2    1    2    0    0 -0.14253590909E+03 -0.14791813687E+03 -0.43779962391E+03  0.77101958338E+03  0.60050514291E+03 0.  0.
        -24    2    4    4    0    0 -0.20980187265E+03 -0.24845933912E+03 -0.50931207578E+03  0.61039070336E+03  0.86192524266E+02 0.  0.
         24    2    4    4    0    0  0.67265963561E+02  0.10054120226E+03  0.71512451876E+02  0.16062888002E+03  0.77809788067E+02 0.  0.
         11    1    5    5    0    0  0.31690140203E+01 -0.48005316309E+01 -0.39452814294E+02  0.39869942432E+02  0.00000000000E+00 0. -1.
        -12    1    5    5    0    0 -0.21297088667E+03 -0.24365880749E+03 -0.46985926149E+03  0.57052076092E+03  0.00000000000E+00 0.  1.
         13    1    3    3    0    0  0.10091917514E+03  0.14597238413E+03 -0.77419833959E+03  0.79427683200E+03  0.00000000000E+00 0. -1.
        -14    1    3    3    0    0  0.41616733951E+02  0.19457527382E+01 -0.25220437767E+03  0.25562235155E+03  0.00000000000E+00 0.  1.
          4    1    6    6  502    0  0.72604651957E+01  0.56544942939E+02 -0.59900678955E+00  0.57012312144E+02  0.00000000000E+00 0. -1.
         -1    1    6    6    0  502  0.60005498366E+02  0.43996259316E+02  0.72111458665E+02  0.10361656788E+03  0.00000000000E+00 0.  1.
<mgrwt>
<rscale>  0 0.33995298E+03</rscale>
<asrwt>0</asrwt>
<pdfrwt beam="1">  1        1 0.25270164E+00 0.33995298E+03</pdfrwt>
<pdfrwt beam="2">  1       -2 0.27439723E-01 0.33995298E+03</pdfrwt>
<totfact> 0.60484472E+01</totfact>
</mgrwt>
</event>
<event>
12    3  0.2212098E-007  0.6356580E+03  0.7818608E-02  0.9834069E-01
          1   -1    0    0  501    0  0.00000000000E+00  0.00000000000E+00  0.12189061782E+04  0.12189061782E+04  0.00000000000E+00 0. -1.
         -2   -1    0    0    0  501 -0.00000000000E+00 -0.00000000000E+00 -0.14827331085E+04  0.14827331085E+04  0.00000000000E+00 0.  1.
        -24    2    1    2    0    0  0.39406723731E+03 -0.40109422419E+03  0.10255778810E+04  0.11722102866E+04  0.78111471192E+02 0.  0.
    5000000    2    1    2    0    0 -0.39406723731E+03  0.40109422419E+03 -0.12894048113E+04  0.15294290001E+04  0.60035217548E+03 0.  0.
        -24    2    4    4    0    0 -0.42931130788E+03  0.17348766884E+03 -0.11656917290E+04  0.12563892661E+04  0.72598971644E+02 0.  0.
         24    2    4    4    0    0  0.35244070571E+02  0.22760655535E+03 -0.12371308235E+03  0.27303973397E+03  0.78732972958E+02 0.  0.
         11    1    5    5    0    0 -0.11069503221E+03  0.13496765162E+02 -0.30682855853E+03  0.32646487890E+03  0.00000000000E+00 0. -1.
        -12    1    5    5    0    0 -0.31861627566E+03  0.15999090367E+03 -0.85886317043E+03  0.92992438720E+03  0.00000000000E+00 0.  1.
         13    1    3    3    0    0  0.14293256708E+03 -0.17031945007E+03  0.47654542937E+03  0.52586498273E+03  0.00000000000E+00 0. -1.
        -14    1    3    3    0    0  0.25113467023E+03 -0.23077477412E+03  0.54903245162E+03  0.64634530391E+03  0.00000000000E+00 0.  1.
          2    1    6    6  502    0  0.99090716406E+01 -0.90180362298E+00  0.31697735040E+01  0.10442720652E+02  0.00000000000E+00 0. -1.
         -1    1    6    6    0  502  0.25334998930E+02  0.22850835898E+03 -0.12688285586E+03  0.26259701332E+03  0.00000000000E+00 0.  1.
<mgrwt>
<rscale>  0 0.63565801E+03</rscale>
<asrwt>0</asrwt>
<pdfrwt beam="1">  1        1 0.18752403E+00 0.63565801E+03</pdfrwt>
<pdfrwt beam="2">  1       -2 0.22811278E+00 0.63565801E+03</pdfrwt>
<totfact> 0.84982047E-01</totfact>
</mgrwt>
</event>
<event>
12    3  0.2212098E-007  0.7519044E+03  0.7818608E-02  0.9632367E-01
          1   -1    0    0  501    0  0.00000000000E+00  0.00000000000E+00  0.54760484001E+03  0.54760484001E+03  0.00000000000E+00 0. -1.
         -2   -1    0    0    0  501 -0.00000000000E+00 -0.00000000000E+00 -0.15660460027E+04  0.15660460027E+04  0.00000000000E+00 0.  1.
        -24    2    1    2    0    0  0.13718422169E+03 -0.62658918532E+03 -0.10528390886E+04  0.12346737267E+04  0.67197819842E+02 0.  0.
    5000000    2    1    2    0    0 -0.13718422169E+03  0.62658918532E+03  0.34397925878E+02  0.87897711607E+03  0.59998669605E+03 0.  0.
        -24    2    4    4    0    0  0.54882285163E+02 -0.85439451597E+02  0.49966491317E+02  0.13691591913E+03  0.77054224698E+02 0.  0.
         24    2    4    4    0    0 -0.19206650685E+03  0.71202863692E+03 -0.15568565439E+02  0.74206119694E+03  0.80858623086E+02 0.  0.
         13    1    3    3    0    0  0.94353251892E+02 -0.47750876844E+03 -0.84756523808E+03  0.97738630688E+03  0.00000000000E+00 0. -1.
        -14    1    3    3    0    0  0.42830969794E+02 -0.14908041688E+03 -0.20527385052E+03  0.25728741978E+03  0.00000000000E+00 0.  1.
         13    1    5    5    0    0  0.49392871692E+02 -0.17787088951E+02 -0.22646352122E+00  0.52498453244E+02  0.00000000000E+00 0. -1.
        -14    1    5    5    0    0  0.54894134716E+01 -0.67652362646E+02  0.50192954838E+02  0.84417465890E+02  0.00000000000E+00 0.  1.
          4    1    6    6  502    0 -0.78707698591E+02  0.43830004681E+03  0.12287186723E+01  0.44531263467E+03  0.00000000000E+00 0. -1.
         -3    1    6    6    0  502 -0.11335880826E+03  0.27372859011E+03 -0.16797284111E+02  0.29674856226E+03  0.00000000000E+00 0.  1.
<mgrwt>
<rscale>  0 0.75190445E+03</rscale>
<asrwt>0</asrwt>
<pdfrwt beam="1">  1        1 0.84246899E-01 0.75190445E+03</pdfrwt>
<pdfrwt beam="2">  1       -2 0.24093015E+00 0.75190445E+03</pdfrwt>
<totfact> 0.25804211E+00</totfact>
</mgrwt>
</event>
<event>
12    3  0.2212098E-007  0.8112336E+03  0.7818608E-02  0.9543898E-01
         -2   -1    0    0    0  501 -0.00000000000E+00  0.00000000000E+00  0.54225010740E+03  0.54225010740E+03  0.00000000000E+00 0.  1.
          1   -1    0    0  501    0  0.00000000000E+00 -0.00000000000E+00 -0.13028114081E+04  0.13028114081E+04  0.00000000000E+00 0. -1.
        -24    2    1    2    0    0  0.53751955410E+03  0.48805116450E+03 -0.23955947396E+03  0.76867365691E+03  0.79682112489E+02 0.  0.
    5000000    2    1    2    0    0 -0.53751955410E+03 -0.48805116450E+03 -0.52100182676E+03  0.10763878586E+04  0.60003892246E+03 0.  0.
        -24    2    4    4    0    0 -0.77956418682E+02  0.10024343590E+03  0.20596095379E+02  0.15073505507E+03  0.78555127322E+02 0.  0.
         24    2    4    4    0    0 -0.45956313542E+03 -0.58829460040E+03 -0.54159792214E+03  0.92565280354E+03  0.78841557201E+02 0.  0.
         11    1    3    3    0    0  0.37564352200E+03  0.33652763015E+03 -0.12735170532E+03  0.52017050889E+03  0.00000000000E+00 0. -1.
        -12    1    3    3    0    0  0.16187603211E+03  0.15152353435E+03 -0.11220776864E+03  0.24850314802E+03  0.00000000000E+00 0.  1.
         11    1    5    5    0    0 -0.42590449618E+02  0.74724741540E-02  0.11139790532E+02  0.44023191474E+02  0.00000000000E+00 0. -1.
        -12    1    5    5    0    0 -0.35365969064E+02  0.10023596342E+03  0.94563048472E+01  0.10671186360E+03  0.00000000000E+00 0.  1.
          2    1    6    6  502    0 -0.32694818631E+03 -0.38926350675E+03 -0.40705345138E+03  0.65124012968E+03  0.00000000000E+00 0. -1.
         -1    1    6    6    0  502 -0.13261494911E+03 -0.19903109364E+03 -0.13454447076E+03  0.27441267386E+03  0.00000000000E+00 0.  1.
<mgrwt>
<rscale>  0 0.81123364E+03</rscale>
<asrwt>0</asrwt>
<pdfrwt beam="1">  1        1 0.20043252E+00 0.81123364E+03</pdfrwt>
<pdfrwt beam="2">  1       -2 0.83423095E-01 0.81123364E+03</pdfrwt>
<totfact> 0.10140194E+01</totfact>
</mgrwt>
</event>
<event>
12    3  0.2212098E-007  0.6065354E+03  0.7818608E-02  0.9891939E-01
          1   -1    0    0  501    0  0.00000000000E+00  0.00000000000E+00  0.10341104674E+04  0.10341104674E+04  0.00000000000E+00 0. -1.
         -2   -1    0    0    0  501 -0.00000000000E+00 -0.00000000000E+00 -0.43938408179E+03  0.43938408179E+03  0.00000000000E+00 0.  1.
        -24    2    1    2    0    0 -0.50019480085E+03 -0.30882400168E+02  0.28531471019E+02  0.50824172595E+03  0.79668348311E+02 0.  0.
    5000000    2    1    2    0    0  0.50019480085E+03  0.30882400168E+02  0.56619491463E+03  0.96525282327E+03  0.59998980829E+03 0.  0.
        -24    2    4    4    0    0 -0.81481755227E+02  0.52349360437E+02  0.29194486875E+03  0.31733644952E+03  0.78044114636E+02 0.  0.
         24    2    4    4    0    0  0.58167655608E+03 -0.21466960269E+02  0.27425004587E+03  0.64791637376E+03  0.75987455845E+02 0.  0.
         11    1    3    3    0    0 -0.27956214414E+03  0.37800115315E+01  0.49443549378E+02  0.28392595073E+03  0.00000000000E+00 0. -1.
        -12    1    3    3    0    0 -0.22063265671E+03 -0.34662411700E+02 -0.20912078359E+02  0.22431577522E+03  0.00000000000E+00 0.  1.
         13    1    5    5    0    0  0.15437555796E+02  0.40420842805E+01  0.42621563486E+02  0.45511034357E+02  0.00000000000E+00 0. -1.
        -14    1    5    5    0    0 -0.96919311023E+02  0.48307276156E+02  0.24932330527E+03  0.27182541516E+03  0.00000000000E+00 0.  1.
          4    1    6    6  502    0  0.18297578176E+03  0.24275429958E+02  0.10515009001E+03  0.21242875191E+03  0.00000000000E+00 0. -1.
         -1    1    6    6    0  502  0.39870077432E+03 -0.45742390227E+02  0.16909995587E+03  0.43548762184E+03  0.00000000000E+00 0.  1.
<mgrwt>
<rscale>  0 0.60653540E+03</rscale>
<asrwt>0</asrwt>
<pdfrwt beam="1">  1        1 0.15909392E+00 0.60653540E+03</pdfrwt>
<pdfrwt beam="2">  1       -2 0.67597551E-01 0.60653540E+03</pdfrwt>
<totfact> 0.26041213E+01</totfact>
</mgrwt>
</event>
<event>
12    3  0.2212098E-007  0.6921990E+03  0.7818608E-02  0.9730667E-01
         -2   -1    0    0    0  501 -0.00000000000E+00  0.00000000000E+00  0.14592306576E+04  0.14592306576E+04  0.00000000000E+00 0.  1.
          1   -1    0    0  501    0  0.00000000000E+00 -0.00000000000E+00 -0.74670880327E+03  0.74670880327E+03  0.00000000000E+00 0. -1.
        -24    2    1    2    0    0 -0.29202055443E+03  0.49749523994E+03 -0.47810111794E+03  0.75350182967E+03  0.80042553479E+02 0.  0.
    5000000    2    1    2    0    0  0.29202055443E+03 -0.49749523994E+03  0.11906229723E+04  0.14524376312E+04  0.59934505294E+03 0.  0.
        -24    2    4    4    0    0  0.44288501257E+03 -0.29429762041E+03  0.60519098382E+03  0.80968107704E+03  0.81049959103E+02 0.  0.
         24    2    4    4    0    0 -0.15086445814E+03 -0.20319761953E+03  0.58543198847E+03  0.64275655420E+03  0.79724635610E+02 0.  0.
         11    1    3    3    0    0 -0.12558156324E+03  0.14282664434E+03 -0.16995267420E+03  0.25505703446E+03  0.00000000000E+00 0. -1.
        -12    1    3    3    0    0 -0.16643899119E+03  0.35466859560E+03 -0.30814844374E+03  0.49844479521E+03  0.00000000000E+00 0.  1.
         11    1    5    5    0    0  0.98507298169E+02 -0.29797682941E+02  0.13325488232E+03  0.16836998950E+03  0.00000000000E+00 0. -1.
        -12    1    5    5    0    0  0.34437771440E+03 -0.26449993747E+03  0.47193610150E+03  0.64131108754E+03  0.00000000000E+00 0.  1.
          2    1    6    6  502    0 -0.10035350596E+03 -0.68696525151E+02  0.26199072791E+03  0.28884109859E+03  0.00000000000E+00 0. -1.
         -1    1    6    6    0  502 -0.50510952175E+02 -0.13450109438E+03  0.32344126057E+03  0.35391545560E+03  0.00000000000E+00 0.  1.
<mgrwt>
<rscale>  0 0.69219904E+03</rscale>
<asrwt>0</asrwt>
<pdfrwt beam="1">  1        1 0.11487828E+00 0.69219904E+03</pdfrwt>
<pdfrwt beam="2">  1       -2 0.22449702E+00 0.69219904E+03</pdfrwt>
<totfact> 0.20844256E+00</totfact>
</mgrwt>
</event>
<event>
12    3  0.2212098E-007  0.1836490E+04  0.7818608E-02  0.8687132E-01
         -2   -1    0    0    0  501 -0.00000000000E+00  0.00000000000E+00  0.14182411005E+04  0.14182411005E+04  0.00000000000E+00 0.  1.
          1   -1    0    0  501    0  0.00000000000E+00 -0.00000000000E+00 -0.31854228528E+04  0.31854228528E+04  0.00000000000E+00 0. -1.
        -24    2    1    2    0    0 -0.11200838824E+04  0.13953159416E+04 -0.20198315124E+04  0.26996465426E+04  0.82931515770E+02 0.  0.
    5000000    2    1    2    0    0  0.11200838824E+04 -0.13953159416E+04  0.25264976016E+03  0.19040174107E+04  0.59996326418E+03 0.  0.
        -24    2    4    4    0    0  0.38611561175E+03 -0.93740689085E+03  0.95772804090E+02  0.10213938438E+04  0.79094939656E+02 0.  0.
         24    2    4    4    0    0  0.73396827062E+03 -0.45790905075E+03  0.15687695607E+03  0.88262356687E+03  0.77613532403E+02 0.  0.
         13    1    5    5    0    0  0.20201907777E+03 -0.58195699157E+03  0.41264300695E+02  0.61740455969E+03  0.00000000000E+00 0. -1.
        -14    1    5    5    0    0  0.18409653398E+03 -0.35544989929E+03  0.54508503395E+02  0.40398928410E+03  0.00000000000E+00 0.  1.
         13    1    3    3    0    0 -0.52811282702E+03  0.72382783208E+03 -0.10162758871E+04  0.13548603497E+04  0.00000000000E+00 0. -1.
        -14    1    3    3    0    0 -0.59197105535E+03  0.67148810953E+03 -0.10035556253E+04  0.13447861929E+04  0.00000000000E+00 0.  1.
          2    1    6    6  502    0  0.44374323754E+03 -0.26182517960E+03  0.12977076271E+03  0.53131999435E+03  0.00000000000E+00 0. -1.
         -1    1    6    6    0  502  0.29022503308E+03 -0.19608387115E+03  0.27106193364E+02  0.35130357252E+03  0.00000000000E+00 0.  1.
<mgrwt>
<rscale>  0 0.18364900E+04</rscale>
<asrwt>0</asrwt>
<pdfrwt beam="1">  1        1 0.49006505E+00 0.18364900E+04</pdfrwt>
<pdfrwt beam="2">  1       -2 0.21819094E+00 0.18364900E+04</pdfrwt>
<totfact> 0.35155364E-02</totfact>
</mgrwt>
</event>
<event>
12    3  0.2212098E-007  0.7977272E+03  0.7818608E-02  0.9563313E-01
          1   -1    0    0  501    0  0.00000000000E+00  0.00000000000E+00  0.64329494511E+03  0.64329494511E+03  0.00000000000E+00 0. -1.
         -2   -1    0    0    0  501 -0.00000000000E+00 -0.00000000000E+00 -0.15129686297E+04  0.15129686297E+04  0.00000000000E+00 0.  1.
        -24    2    1    2    0    0  0.58601005126E+03 -0.46242479999E+03 -0.93256108126E+03  0.11964980903E+04  0.68505722416E+02 0.  0.
    5000000    2    1    2    0    0 -0.58601005126E+03  0.46242479999E+03  0.62887396716E+02  0.95976548446E+03  0.59995873580E+03 0.  0.
        -24    2    4    4    0    0 -0.18895116878E+03 -0.53683011490E+02  0.19786804125E+03  0.29010188439E+03  0.80143194792E+02 0.  0.
         24    2    4    4    0    0 -0.39705888248E+03  0.51610781148E+03 -0.13498064453E+03  0.66966360007E+03  0.78781556463E+02 0.  0.
         11    1    3    3    0    0  0.28209534610E+03 -0.21115621596E+03 -0.49294735946E+03  0.60593880139E+03  0.00000000000E+00 0. -1.
        -12    1    3    3    0    0  0.30391470516E+03 -0.25126858403E+03 -0.43961372180E+03  0.59055928892E+03  0.00000000000E+00 0.  1.
         11    1    5    5    0    0 -0.84648674401E+02 -0.23052916360E+02  0.14438801554E+03  0.16895186907E+03  0.00000000000E+00 0. -1.
        -12    1    5    5    0    0 -0.10430249438E+03 -0.30630095129E+02  0.53480025704E+02  0.12115001531E+03  0.00000000000E+00 0.  1.
          2    1    6    6  502    0 -0.27570534206E+03  0.38649542827E+03 -0.12916792733E+03  0.49201270834E+03  0.00000000000E+00 0. -1.
         -1    1    6    6    0  502 -0.12135354042E+03  0.12961238320E+03 -0.58127172059E+01  0.17765089173E+03  0.00000000000E+00 0.  1.
<mgrwt>
<rscale>  0 0.79772716E+03</rscale>
<asrwt>0</asrwt>
<pdfrwt beam="1">  1        1 0.98968454E-01 0.79772716E+03</pdfrwt>
<pdfrwt beam="2">  1       -2 0.23276440E+00 0.79772716E+03</pdfrwt>
<totfact> 0.22829349E+00</totfact>
</mgrwt>
</event>
<event>
12    3  0.2212098E-007  0.1238269E+04  0.7818608E-02  0.9080004E-01
          3   -1    0    0  501    0  0.00000000000E+00  0.00000000000E+00  0.87482912754E+03  0.87482912754E+03  0.00000000000E+00 0. -1.
         -4   -1    0    0    0  501 -0.00000000000E+00 -0.00000000000E+00 -0.19644570526E+04  0.19644570526E+04  0.00000000000E+00 0.  1.
        -24    2    1    2    0    0 -0.11404477291E+04 -0.46575559795E+03 -0.67596414592E+03  0.14080424611E+04  0.90037470093E+02 0.  0.
    5000000    2    1    2    0    0  0.11404477291E+04  0.46575559795E+03 -0.41366377917E+03  0.14312437190E+04  0.59982627586E+03 0.  0.
        -24    2    4    4    0    0  0.66171339612E+03  0.20775186543E+03  0.67477172019E+02  0.70137931218E+03  0.79713954954E+02 0.  0.
         24    2    4    4    0    0  0.47873433297E+03  0.25800373252E+03 -0.48114095119E+03  0.72986440683E+03  0.73844091801E+02 0.  0.
         11    1    5    5    0    0  0.23065607227E+03  0.46727176571E+02  0.51722465347E+02  0.24095822485E+03  0.00000000000E+00 0. -1.
        -12    1    5    5    0    0  0.43105732386E+03  0.16102468886E+03  0.15754706672E+02  0.46042108733E+03  0.00000000000E+00 0.  1.
         13    1    3    3    0    0 -0.44030860591E+03 -0.19819994535E+03 -0.31138265431E+03  0.57455551880E+03  0.00000000000E+00 0. -1.
        -14    1    3    3    0    0 -0.70013912318E+03 -0.26755565260E+03 -0.36458149160E+03  0.83348694235E+03  0.00000000000E+00 0.  1.
          2    1    6    6  502    0  0.21659697211E+03  0.15798713360E+03 -0.24387447493E+03  0.36242094618E+03  0.00000000000E+00 0. -1.
         -1    1    6    6    0  502  0.26213736086E+03  0.10001659892E+03 -0.23726647626E+03  0.36744346065E+03  0.00000000000E+00 0.  1.
<mgrwt>
<rscale>  0 0.12382689E+04</rscale>
<asrwt>0</asrwt>
<pdfrwt beam="1">  1        3 0.13458910E+00 0.12382689E+04</pdfrwt>
<pdfrwt beam="2">  1       -4 0.30222416E+00 0.12382689E+04</pdfrwt>
<totfact> 0.27796515E-02</totfact>
</mgrwt>
</event>
<event>
12    3  0.2212098E-007  0.5052121E+03  0.7818608E-02  0.1012427E+00
          1   -1    0    0  501    0  0.00000000000E+00  0.00000000000E+00  0.14868119531E+04  0.14868119531E+04  0.00000000000E+00 0. -1.
         -2   -1    0    0    0  501 -0.00000000000E+00 -0.00000000000E+00 -0.17996513424E+03  0.17996513424E+03  0.00000000000E+00 0.  1.
        -24    2    1    2    0    0 -0.32462715035E+03  0.33518431922E+02  0.57469115127E+03  0.66552066665E+03  0.78368146401E+02 0.  0.
    5000000    2    1    2    0    0  0.32462715035E+03 -0.33518431922E+02  0.73215566759E+03  0.10012564207E+04  0.59996352086E+03 0.  0.
        -24    2    4    4    0    0  0.24919993616E+02 -0.27630981975E+03  0.31176031911E+03  0.42512796747E+03  0.81062750926E+02 0.  0.
         24    2    4    4    0    0  0.29970715673E+03  0.24279138782E+03  0.42039534848E+03  0.57612845321E+03  0.80123078957E+02 0.  0.
         13    1    5    5    0    0 -0.16925341504E+01 -0.23274156780E+03  0.28340613282E+03  0.36672951636E+03  0.00000000000E+00 0. -1.
        -14    1    5    5    0    0  0.26612527767E+02 -0.43568251949E+02  0.28354186291E+02  0.58398451112E+02  0.00000000000E+00 0.  1.
         13    1    3    3    0    0 -0.23503961363E+03  0.58359621296E+02  0.43094153622E+03  0.49432790030E+03  0.00000000000E+00 0. -1.
        -14    1    3    3    0    0 -0.89587536719E+02 -0.24841189374E+02  0.14374961505E+03  0.17119276635E+03  0.00000000000E+00 0.  1.
          4    1    6    6  502    0  0.21469690804E+03  0.21011560417E+03  0.34844714089E+03  0.46006384278E+03  0.00000000000E+00 0. -1.
         -3    1    6    6    0  502  0.85010248693E+02  0.32675783651E+02  0.71948207590E+02  0.11606461043E+03  0.00000000000E+00 0.  1.
<mgrwt>
<rscale>  0 0.50521214E+03</rscale>
<asrwt>0</asrwt>
<pdfrwt beam="1">  1        1 0.22874029E+00 0.50521214E+03</pdfrwt>
<pdfrwt beam="2">  1       -2 0.27686945E-01 0.50521214E+03</pdfrwt>
<totfact> 0.73440152E+01</totfact>
</mgrwt>
</event>
<event>
12    3  0.2212098E-007  0.9461229E+03  0.7818608E-02  0.9369694E-01
          1   -1    0    0  501    0  0.00000000000E+00  0.00000000000E+00  0.10335428684E+04  0.10335428684E+04  0.00000000000E+00 0. -1.
         -2   -1    0    0    0  501 -0.00000000000E+00 -0.00000000000E+00 -0.98042853228E+03  0.98042853228E+03  0.00000000000E+00 0.  1.
        -24    2    1    2    0    0  0.61785314171E+03 -0.60949272369E+03 -0.26632149018E+03  0.91159608435E+03  0.82803381094E+02 0.  0.
    5000000    2    1    2    0    0 -0.61785314171E+03  0.60949272369E+03  0.31943582628E+03  0.11023753163E+04  0.59997350438E+03 0.  0.
        -24    2    4    4    0    0 -0.50140443029E+03  0.11922191052E+03  0.27641348507E+03  0.59021973079E+03  0.79590509581E+02 0.  0.
         24    2    4    4    0    0 -0.11644871141E+03  0.49027081317E+03  0.43022341208E+02  0.51215558552E+03  0.80787680382E+02 0.  0.
         11    1    3    3    0    0  0.34787079826E+03 -0.39979911559E+03 -0.15894393506E+03  0.55327804908E+03  0.00000000000E+00 0. -1.
        -12    1    3    3    0    0  0.26998234344E+03 -0.20969360810E+03 -0.10737755512E+03  0.35831803526E+03  0.00000000000E+00 0.  1.
         11    1    5    5    0    0 -0.18208460155E+03  0.43332380307E+02  0.14462611287E+03  0.23653585315E+03  0.00000000000E+00 0. -1.
        -12    1    5    5    0    0 -0.31931982875E+03  0.75889530210E+02  0.13178737221E+03  0.35368387764E+03  0.00000000000E+00 0.  1.
          2    1    6    6  502    0 -0.31716057013E+02  0.20593002221E+03  0.54046247850E+02  0.21525352314E+03  0.00000000000E+00 0. -1.
         -1    1    6    6    0  502 -0.84732654399E+02  0.28434079096E+03 -0.11023906642E+02  0.29690206238E+03  0.00000000000E+00 0.  1.
<mgrwt>
<rscale>  0 0.94612287E+03</rscale>
<asrwt>0</asrwt>
<pdfrwt beam="1">  1        1 0.15900659E+00 0.94612287E+03</pdfrwt>
<pdfrwt beam="2">  1       -2 0.15083516E+00 0.94612287E+03</pdfrwt>
<totfact> 0.36947659E+00</totfact>
</mgrwt>
</event>
<event>
12    3  0.2212098E-007  0.5268723E+03  0.7818608E-02  0.1006993E+00
          1   -1    0    0  501    0  0.00000000000E+00  0.00000000000E+00  0.16250683387E+04  0.16250683387E+04  0.00000000000E+00 0. -1.
         -2   -1    0    0    0  501 -0.00000000000E+00 -0.00000000000E+00 -0.24705933246E+03  0.24705933246E+03  0.00000000000E+00 0.  1.
        -24    2    1    2    0    0  0.27137920081E+03  0.26352623452E+03  0.82569289289E+02  0.39518557270E+03  0.79127760134E+02 0.  0.
    5000000    2    1    2    0    0 -0.27137920081E+03 -0.26352623452E+03  0.12954397170E+04  0.14769420985E+04  0.60008428995E+03 0.  0.
        -24    2    4    4    0    0 -0.12310761443E+03 -0.42230144721E+03  0.63146053593E+03  0.77395482560E+03  0.82277983688E+02 0.  0.
         24    2    4    4    0    0 -0.14827158638E+03  0.15877521268E+03  0.66397918105E+03  0.70298727288E+03  0.78286151236E+02 0.  0.
         11    1    3    3    0    0  0.18213715176E+03  0.14414986292E+03  0.81419476236E+02  0.24613463011E+03  0.00000000000E+00 0. -1.
        -12    1    3    3    0    0  0.89242049047E+02  0.11937637161E+03  0.11498130534E+01  0.14905094259E+03  0.00000000000E+00 0.  1.
         13    1    5    5    0    0 -0.92815992076E+02 -0.36647996757E+03  0.57942411786E+03  0.69184874313E+03  0.00000000000E+00 0. -1.
        -14    1    5    5    0    0 -0.30291622351E+02 -0.55821479639E+02  0.52036418063E+02  0.82106082470E+02  0.00000000000E+00 0.  1.
          2    1    6    6  502    0 -0.13018889741E+03  0.16636299515E+03  0.60300974008E+03  0.63894173584E+03  0.00000000000E+00 0. -1.
         -1    1    6    6    0  502 -0.18082688971E+02 -0.75877824640E+01  0.60969440970E+02  0.64045537045E+02  0.00000000000E+00 0.  1.
<mgrwt>
<rscale>  0 0.52687225E+03</rscale>
<asrwt>0</asrwt>
<pdfrwt beam="1">  1        1 0.25001051E+00 0.52687225E+03</pdfrwt>
<pdfrwt beam="2">  1       -2 0.38009129E-01 0.52687225E+03</pdfrwt>
<totfact> 0.32668138E+01</totfact>
</mgrwt>
</event>
<event>
12    3  0.2212098E-007  0.4692791E+03  0.7818608E-02  0.1022124E+00
         -2   -1    0    0    0  501 -0.00000000000E+00  0.00000000000E+00  0.59921193445E+03  0.59921193445E+03  0.00000000000E+00 0.  1.
          1   -1    0    0  501    0  0.00000000000E+00 -0.00000000000E+00 -0.97682818768E+03  0.97682818768E+03  0.00000000000E+00 0. -1.
        -24    2    1    2    0    0  0.23807576800E+03 -0.34949756911E+03  0.34049464407E+03  0.54874427351E+03  0.79718585943E+02 0.  0.
    5000000    2    1    2    0    0 -0.23807576800E+03  0.34949756911E+03 -0.71811089730E+03  0.10272958486E+04  0.60068700472E+03 0.  0.
        -24    2    4    4    0    0 -0.17355059381E+03  0.45516517001E+02 -0.67728645477E+03  0.70521475620E+03  0.80120837640E+02 0.  0.
         24    2    4    4    0    0 -0.64525174190E+02  0.30398105211E+03 -0.40824442539E+02  0.32208109242E+03  0.74172884793E+02 0.  0.
         11    1    3    3    0    0  0.46139572904E+02 -0.12538357848E+03  0.12890196942E+03  0.18564918438E+03  0.00000000000E+00 0. -1.
        -12    1    3    3    0    0  0.19193619510E+03 -0.22411399063E+03  0.21159267465E+03  0.36309508913E+03  0.00000000000E+00 0.  1.
         11    1    5    5    0    0 -0.24767282287E+02  0.38959505920E+02 -0.19866154243E+03  0.20395506812E+03  0.00000000000E+00 0. -1.
        -12    1    5    5    0    0 -0.14878331153E+03  0.65570110817E+01 -0.47862491234E+03  0.50125968808E+03  0.00000000000E+00 0.  1.
          4    1    6    6  502    0  0.69805421013E+01  0.64101393438E+02  0.13655539626E+02  0.65910472394E+02  0.00000000000E+00 0. -1.
         -3    1    6    6    0  502 -0.71505716292E+02  0.23987965867E+03 -0.54479982165E+02  0.25617062002E+03  0.00000000000E+00 0.  1.
<mgrwt>
<rscale>  0 0.46927906E+03</rscale>
<asrwt>0</asrwt>
<pdfrwt beam="1">  1        1 0.15028126E+00 0.46927906E+03</pdfrwt>
<pdfrwt beam="2">  1       -2 0.92186451E-01 0.46927906E+03</pdfrwt>
<totfact> 0.14720376E+01</totfact>
</mgrwt>
</event>
<event>
12    3  0.2212098E-007  0.8773302E+03  0.7818608E-02  0.9454372E-01
          1   -1    0    0  501    0  0.00000000000E+00  0.00000000000E+00  0.22713638164E+04  0.22713638164E+04  0.00000000000E+00 0. -1.
         -2   -1    0    0    0  501 -0.00000000000E+00 -0.00000000000E+00 -0.46382474387E+03  0.46382474387E+03  0.00000000000E+00 0.  1.
        -24    2    1    2    0    0 -0.84632311298E+03  0.11795231888E+03  0.31639524111E+03  0.91483025686E+03  0.81442551381E+02 0.  0.
    5000000    2    1    2    0    0  0.84632311298E+03 -0.11795231888E+03  0.14911438315E+04  0.18203583034E+04  0.60001572122E+03 0.  0.
        -24    2    4    4    0    0  0.45319748591E+03 -0.19051671672E+03  0.12536912893E+04  0.13484530527E+04  0.69994326709E+02 0.  0.
         24    2    4    4    0    0  0.39312562708E+03  0.72564397842E+02  0.23745254211E+03  0.47190525074E+03  0.80607105277E+02 0.  0.
         11    1    5    5    0    0  0.14811911810E+03 -0.27448997251E+02  0.38345894336E+03  0.41198723504E+03  0.00000000000E+00 0. -1.
        -12    1    5    5    0    0  0.30507836781E+03 -0.16306771947E+03  0.87023234598E+03  0.93646581766E+03  0.00000000000E+00 0.  1.
         11    1    3    3    0    0 -0.78460777472E+03  0.10144910322E+03  0.31316017185E+03  0.85086460375E+03  0.00000000000E+00 0. -1.
        -12    1    3    3    0    0 -0.61715338267E+02  0.16503215663E+02  0.32350692642E+01  0.63965653110E+02  0.00000000000E+00 0.  1.
          2    1    6    6  502    0  0.64911345241E+02  0.31967800774E+02  0.72139929031E+02  0.10217432353E+03  0.00000000000E+00 0. -1.
         -1    1    6    6    0  502  0.32821428184E+03  0.40596597067E+02  0.16531261308E+03  0.36973092721E+03  0.00000000000E+00 0.  1.
<mgrwt>
<rscale>  0 0.87733020E+03</rscale>
<asrwt>0</asrwt>
<pdfrwt beam="1">  1        1 0.34944058E+00 0.87733020E+03</pdfrwt>
<pdfrwt beam="2">  1       -2 0.71357654E-01 0.87733020E+03</pdfrwt>
<totfact> 0.31355416E+00</totfact>
</mgrwt>
</event>
<event>
12    3  0.2410439E-007  0.9179849E+03  0.7818608E-02  0.9403375E-01
          1   -1    0    0  501    0  0.00000000000E+00  0.00000000000E+00  0.14548934631E+04  0.14548934631E+04  0.00000000000E+00 0. -1.
         -2   -1    0    0    0  501 -0.00000000000E+00 -0.00000000000E+00 -0.13653146975E+04  0.13653146975E+04  0.00000000000E+00 0.  1.
        -24    2    1    2    0    0  0.16771182366E+03  0.85467267806E+03  0.10673659368E+04  0.13798089874E+04  0.77525197927E+02 0.  0.
    5000000    2    1    2    0    0 -0.16771182366E+03 -0.85467267806E+03 -0.97778717114E+03  0.14403991732E+04  0.60007448174E+03 0.  0.
        -24    2    4    4    0    0 -0.29639255752E+03 -0.64588502364E+03 -0.94036598720E+03  0.11812175873E+04  0.77270866401E+02 0.  0.
         24    2    4    4    0    0  0.12868073386E+03 -0.20878765442E+03 -0.37421183936E+02  0.25918158586E+03  0.74991556426E+02 0.  0.
         11    1    3    3    0    0  0.10549396065E+03  0.67867431199E+03  0.81268046259E+03  0.10640382191E+04  0.00000000000E+00 0. -1.
        -12    1    3    3    0    0  0.62217863007E+02  0.17599836607E+03  0.25468547417E+03  0.31577076826E+03  0.00000000000E+00 0.  1.
         13    1    5    5    0    0 -0.74362715865E+02 -0.21452770846E+03 -0.34831239279E+03  0.41578056012E+03  0.00000000000E+00 0. -1.
        -14    1    5    5    0    0 -0.22202984165E+03 -0.43135731518E+03 -0.59205359441E+03  0.76543702720E+03  0.00000000000E+00 0.  1.
          2    1    6    6  502    0  0.61500079645E+02 -0.55201341229E+02 -0.39357437051E+02  0.91533904762E+02  0.00000000000E+00 0. -1.
         -1    1    6    6    0  502  0.67180654215E+02 -0.15358631319E+03  0.19362531149E+01  0.16764768109E+03  0.00000000000E+00 0.  1.
<mgrwt>
<rscale>  0 0.91798491E+03</rscale>
<asrwt>0</asrwt>
<pdfrwt beam="1">  1        1 0.22382976E+00 0.91798491E+03</pdfrwt>
<pdfrwt beam="2">  1       -2 0.21004841E+00 0.91798491E+03</pdfrwt>
<totfact> 0.71418581E-01</totfact>
</mgrwt>
</event>
<event>
12    3  0.2212098E-007  0.2662365E+04  0.7818608E-02  0.8347321E-01
          1   -1    0    0  501    0  0.00000000000E+00  0.00000000000E+00  0.28059325550E+04  0.28059325550E+04  0.00000000000E+00 0. -1.
         -2   -1    0    0    0  501 -0.00000000000E+00 -0.00000000000E+00 -0.25976468718E+04  0.25976468718E+04  0.00000000000E+00 0.  1.
        -24    2    1    2    0    0  0.51717144200E+02 -0.26574723082E+04  0.30901377206E+03  0.26769903427E+04  0.77162503051E+02 0.  0.
    5000000    2    1    2    0    0 -0.51717144200E+02  0.26574723082E+04 -0.10072808879E+03  0.27265890841E+04  0.59942318442E+03 0.  0.
        -24    2    4    4    0    0 -0.10343422034E+03  0.19708430945E+04 -0.31618257476E+03  0.20003034716E+04  0.79507338462E+02 0.  0.
         24    2    4    4    0    0  0.51717076144E+02  0.68662921367E+03  0.21545448597E+03  0.72628561250E+03  0.83281584837E+02 0.  0.
         11    1    5    5    0    0 -0.23523061106E+02  0.81812335709E+03 -0.96662861117E+02  0.82414978647E+03  0.00000000000E+00 0. -1.
        -12    1    5    5    0    0 -0.79911159238E+02  0.11527197374E+04 -0.21951971364E+03  0.11761536852E+04  0.00000000000E+00 0.  1.
         13    1    3    3    0    0 -0.16637537678E+02 -0.10226907552E+04  0.11017357686E+03  0.10287426332E+04  0.00000000000E+00 0. -1.
        -14    1    3    3    0    0  0.68354681877E+02 -0.16347815530E+04  0.19884019520E+03  0.16482477095E+04  0.00000000000E+00 0.  1.
          2    1    6    6  502    0 -0.14637919613E+00  0.42633752682E+03  0.15841254513E+03  0.45481671326E+03  0.00000000000E+00 0. -1.
         -1    1    6    6    0  502  0.51863455340E+02  0.26029168684E+03  0.57041940834E+02  0.27146889924E+03  0.00000000000E+00 0.  1.
<mgrwt>
<rscale>  0 0.26623648E+04</rscale>
<asrwt>0</asrwt>
<pdfrwt beam="1">  1        1 0.43168193E+00 0.26623648E+04</pdfrwt>
<pdfrwt beam="2">  1       -2 0.39963798E+00 0.26623648E+04</pdfrwt>
<totfact> 0.44454530E-03</totfact>
</mgrwt>
</event>
<event>
12    3  0.2212098E-007  0.8575283E+03  0.7818608E-02  0.9480288E-01
         -2   -1    0    0    0  501 -0.00000000000E+00  0.00000000000E+00  0.13944939366E+04  0.13944939366E+04  0.00000000000E+00 0.  1.
          1   -1    0    0  501    0  0.00000000000E+00 -0.00000000000E+00 -0.56532406916E+03  0.56532406916E+03  0.00000000000E+00 0. -1.
        -24    2    1    2    0    0  0.77808485741E+03 -0.95949528238E+02  0.39352273698E+03  0.88085893149E+03  0.80187002438E+02 0.  0.
    5000000    2    1    2    0    0 -0.77808485741E+03  0.95949528238E+02  0.43564713042E+03  0.10789590742E+04  0.59978488170E+03 0.  0.
        -24    2    4    4    0    0 -0.39241063493E+03 -0.19081301502E+03  0.38878358510E+03  0.58949656835E+03  0.77186883250E+02 0.  0.
         24    2    4    4    0    0 -0.38567422248E+03  0.28676254325E+03  0.46863545322E+02  0.48946250588E+03  0.79999941776E+02 0.  0.
         11    1    3    3    0    0  0.30784765492E+03 -0.38957084350E+01  0.17606201357E+03  0.35465925591E+03  0.00000000000E+00 0. -1.
        -12    1    3    3    0    0  0.47023720250E+03 -0.92053819803E+02  0.21746072342E+03  0.52619967558E+03  0.00000000000E+00 0.  1.
         11    1    5    5    0    0 -0.28105847447E+03 -0.98005402707E+02  0.24809460218E+03  0.38749175044E+03  0.00000000000E+00 0. -1.
        -12    1    5    5    0    0 -0.11135216046E+03 -0.92807612309E+02  0.14068898292E+03  0.20200481791E+03  0.00000000000E+00 0.  1.
          4    1    6    6  502    0 -0.37243521144E+03  0.25604321812E+03  0.54260904718E+02  0.45520364898E+03  0.00000000000E+00 0. -1.
         -3    1    6    6    0  502 -0.13239011037E+02  0.30719325130E+02 -0.73973593960E+01  0.34258856895E+02  0.00000000000E+00 0.  1.
<mgrwt>
<rscale>  0 0.85752831E+03</rscale>
<asrwt>0</asrwt>
<pdfrwt beam="1">  1        1 0.86972934E-01 0.85752831E+03</pdfrwt>
<pdfrwt beam="2">  1       -2 0.21453753E+00 0.85752831E+03</pdfrwt>
<totfact> 0.35484397E+00</totfact>
</mgrwt>
</event>
<event>
12    3  0.2212098E-007  0.6427044E+03  0.7818608E-02  0.9820566E-01
         -2   -1    0    0    0  501 -0.00000000000E+00  0.00000000000E+00  0.56316263037E+03  0.56316263037E+03  0.00000000000E+00 0.  1.
          1   -1    0    0  501    0  0.00000000000E+00 -0.00000000000E+00 -0.11534341689E+04  0.11534341689E+04  0.00000000000E+00 0. -1.
        -24    2    1    2    0    0 -0.52548287577E+03  0.10091416622E+03  0.21375206497E+03  0.57953709140E+03  0.62107756032E+02 0.  0.
    5000000    2    1    2    0    0  0.52548287577E+03 -0.10091416622E+03 -0.80402360346E+03  0.11370597078E+04  0.60011240826E+03 0.  0.
        -24    2    4    4    0    0 -0.76718774972E+02  0.53890960260E+02 -0.32745777262E+03  0.34978740384E+03  0.79577817314E+02 0.  0.
         24    2    4    4    0    0  0.60220165074E+03 -0.15480512648E+03 -0.47656583085E+03  0.78727230398E+03  0.77918124566E+02 0.  0.
         11    1    5    5    0    0 -0.87919798368E+02  0.24501694781E+02 -0.23341834083E+03  0.25062790313E+03  0.00000000000E+00 0. -1.
        -12    1    5    5    0    0  0.11201023395E+02  0.29389265479E+02 -0.94039431782E+02  0.99159500706E+02  0.00000000000E+00 0.  1.
         13    1    3    3    0    0 -0.11250085179E+03  0.44378373406E+02  0.62305308485E+02  0.13604349725E+03  0.00000000000E+00 0. -1.
        -14    1    3    3    0    0 -0.41298202398E+03  0.56535792813E+02  0.15144675649E+03  0.44349359415E+03  0.00000000000E+00 0.  1.
          4    1    6    6  502    0  0.42249766294E+03 -0.13783342464E+03 -0.31186229057E+03  0.54291842520E+03  0.00000000000E+00 0. -1.
         -3    1    6    6    0  502  0.17970398780E+03 -0.16971701841E+02 -0.16470354027E+03  0.24435387877E+03  0.00000000000E+00 0.  1.
<mgrwt>
<rscale>  0 0.64270440E+03</rscale>
<asrwt>0</asrwt>
<pdfrwt beam="1">  1        1 0.17745141E+00 0.64270440E+03</pdfrwt>
<pdfrwt beam="2">  1       -2 0.86640405E-01 0.64270440E+03</pdfrwt>
<totfact> 0.12173143E+01</totfact>
</mgrwt>
</event>
<event>
12    3  0.2212098E-007  0.9623875E+03  0.7818608E-02  0.9350788E-01
         -2   -1    0    0    0  501 -0.00000000000E+00  0.00000000000E+00  0.33351383178E+04  0.33351383178E+04  0.00000000000E+00 0.  1.
          1   -1    0    0  501    0  0.00000000000E+00 -0.00000000000E+00 -0.31502885462E+03  0.31502885462E+03  0.00000000000E+00 0. -1.
        -24    2    1    2    0    0 -0.89444955720E+03 -0.10933647160E+03  0.18294100335E+04  0.20410032919E+04  0.83419977493E+02 0.  0.
    5000000    2    1    2    0    0  0.89444955720E+03  0.10933647160E+03  0.11906994296E+04  0.16091638804E+04  0.59970725186E+03 0.  0.
        -24    2    4    4    0    0  0.51557655513E+03 -0.17445301435E+03  0.38441535877E+03  0.67078392881E+03  0.76960201870E+02 0.  0.
         24    2    4    4    0    0  0.37887300208E+03  0.28378948595E+03  0.80628407088E+03  0.93837995163E+03  0.79885584656E+02 0.  0.
         11    1    5    5    0    0  0.41047964446E+03 -0.10509233464E+03  0.30063931958E+03  0.51954012145E+03  0.00000000000E+00 0. -1.
        -12    1    5    5    0    0  0.10509691067E+03 -0.69360679710E+02  0.83776039199E+02  0.15124380736E+03  0.00000000000E+00 0.  1.
         13    1    3    3    0    0 -0.36678308186E+03 -0.53949898481E+02  0.84411725273E+03  0.92194053878E+03  0.00000000000E+00 0. -1.
        -14    1    3    3    0    0 -0.52766647534E+03 -0.55386573121E+02  0.98529278077E+03  0.11190627532E+04  0.00000000000E+00 0.  1.
          4    1    6    6  502    0  0.12829649273E+03  0.10867032141E+03  0.21695143140E+03  0.27447614175E+03  0.00000000000E+00 0. -1.
         -3    1    6    6    0  502  0.25057650934E+03  0.17511916454E+03  0.58933263947E+03  0.66390380988E+03  0.00000000000E+00 0.  1.
<mgrwt>
<rscale>  0 0.96238746E+03</rscale>
<asrwt>0</asrwt>
<pdfrwt beam="1">  1        1 0.48465980E-01 0.96238746E+03</pdfrwt>
<pdfrwt beam="2">  1       -2 0.51309818E+00 0.96238746E+03</pdfrwt>
<totfact> 0.10057899E-01</totfact>
</mgrwt>
</event>
<event>
12    3  0.2212098E-007  0.4180457E+03  0.7818608E-02  0.1037704E+00
          3   -1    0    0  501    0  0.00000000000E+00  0.00000000000E+00  0.15751841497E+03  0.15751841497E+03  0.00000000000E+00 0. -1.
         -4   -1    0    0    0  501 -0.00000000000E+00 -0.00000000000E+00 -0.14046908156E+04  0.14046908156E+04  0.00000000000E+00 0.  1.
        -24    2    1    2    0    0  0.57695570372E+02 -0.21752499814E+03 -0.12292062825E+03  0.26814581150E+03  0.78401477810E+02 0.  0.
    5000000    2    1    2    0    0 -0.57695570372E+02  0.21752499814E+03 -0.11242517724E+04  0.12940634191E+04  0.60001015093E+03 0.  0.
        -24    2    4    4    0    0  0.87103131547E+02  0.37343984446E+03 -0.86388615920E+03  0.94850368798E+03  0.79471234376E+02 0.  0.
         24    2    4    4    0    0 -0.14479870192E+03 -0.15591484632E+03 -0.26036561320E+03  0.34555973111E+03  0.79656586974E+02 0.  0.
         11    1    5    5    0    0  0.33357541373E+02  0.19233078424E+03 -0.34641931317E+03  0.39763072903E+03  0.00000000000E+00 0. -1.
        -12    1    5    5    0    0  0.53745590174E+02  0.18110906021E+03 -0.51746684603E+03  0.55087295894E+03  0.00000000000E+00 0.  1.
         11    1    3    3    0    0 -0.67826079649E+01 -0.11653476147E+03 -0.44399220168E+02  0.12489053268E+03  0.00000000000E+00 0. -1.
        -12    1    3    3    0    0  0.64478178336E+02 -0.10099023667E+03 -0.78521408083E+02  0.14325527882E+03  0.00000000000E+00 0.  1.
          4    1    6    6  502    0 -0.10013491570E+03 -0.83684584851E+02 -0.10114695166E+03  0.16510850043E+03  0.00000000000E+00 0. -1.
         -3    1    6    6    0  502 -0.44663786215E+02 -0.72230261469E+02 -0.15921866154E+03  0.18045123068E+03  0.00000000000E+00 0.  1.
<mgrwt>
<rscale>  0 0.41804570E+03</rscale>
<asrwt>0</asrwt>
<pdfrwt beam="1">  1        3 0.24233604E-01 0.41804570E+03</pdfrwt>
<pdfrwt beam="2">  1       -4 0.21610627E+00 0.41804570E+03</pdfrwt>
<totfact> 0.38517182E+00</totfact>
</mgrwt>
</event>
<event>
12    3  0.2212098E-007  0.1038030E+04  0.7818608E-02  0.9267790E-01
         -2   -1    0    0    0  501 -0.00000000000E+00  0.00000000000E+00  0.72702160071E+03  0.72702160071E+03  0.00000000000E+00 0.  1.
          1   -1    0    0  501    0  0.00000000000E+00 -0.00000000000E+00 -0.17239010365E+04  0.17239010365E+04  0.00000000000E+00 0. -1.
        -24    2    1    2    0    0 -0.95873836017E+03 -0.21509262558E+03 -0.82777484256E+03  0.12873433898E+04  0.81226427463E+02 0.  0.
    5000000    2    1    2    0    0  0.95873836017E+03  0.21509262558E+03 -0.16910459322E+03  0.11635792474E+04  0.59989684165E+03 0.  0.
        -24    2    4    4    0    0  0.34068964428E+03 -0.14388406489E+03  0.11014950817E+03  0.39404923805E+03  0.79811214775E+02 0.  0.
         24    2    4    4    0    0  0.61804871589E+03  0.35897669048E+03 -0.27925410139E+03  0.76953000933E+03  0.57836861875E+02 0.  0.
         13    1    3    3    0    0 -0.22758921275E+03 -0.61781367422E+02 -0.15670821602E+03  0.28314528442E+03  0.00000000000E+00 0. -1.
        -14    1    3    3    0    0 -0.73114914742E+03 -0.15331125816E+03 -0.67106662654E+03  0.10041981054E+04  0.00000000000E+00 0.  1.
         13    1    5    5    0    0  0.26933896815E+03 -0.81530617084E+02  0.10044171042E+03  0.29879634950E+03  0.00000000000E+00 0. -1.
        -14    1    5    5    0    0  0.71350676133E+02 -0.62353447811E+02  0.97077977533E+01  0.95252888543E+02  0.00000000000E+00 0.  1.
          2    1    6    6  502    0  0.35261157983E+03  0.23728511628E+03 -0.17013701410E+03  0.45780536935E+03  0.00000000000E+00 0. -1.
         -1    1    6    6    0  502  0.26543713607E+03  0.12169157420E+03 -0.10911708728E+03  0.31172463998E+03  0.00000000000E+00 0.  1.
<mgrwt>
<rscale>  0 0.10380303E+04</rscale>
<asrwt>0</asrwt>
<pdfrwt beam="1">  1        1 0.26521554E+00 0.10380303E+04</pdfrwt>
<pdfrwt beam="2">  1       -2 0.11184948E+00 0.10380303E+04</pdfrwt>
<totfact> 0.25348337E+00</totfact>
</mgrwt>
</event>
<event>
12    3  0.2212098E-007  0.1101928E+04  0.7818608E-02  0.9203314E-01
          1   -1    0    0  501    0  0.00000000000E+00  0.00000000000E+00  0.54400006201E+03  0.54400006201E+03  0.00000000000E+00 0. -1.
         -2   -1    0    0    0  501 -0.00000000000E+00 -0.00000000000E+00 -0.23192497977E+04  0.23192497977E+04  0.00000000000E+00 0.  1.
        -24    2    1    2    0    0  0.35067277545E+03  0.98058064145E+03 -0.86010867021E+03  0.13526017702E+04  0.72352155981E+02 0.  0.
    5000000    2    1    2    0    0 -0.35067277545E+03 -0.98058064145E+03 -0.91514106551E+03  0.15106480895E+04  0.60005390651E+03 0.  0.
        -24    2    4    4    0    0  0.30114810617E+01 -0.71243755976E+03 -0.72961554711E+03  0.10229484051E+04  0.80673708750E+02 0.  0.
         24    2    4    4    0    0 -0.35368425651E+03 -0.26814308168E+03 -0.18552551841E+03  0.48769968443E+03  0.80237140120E+02 0.  0.
         13    1    5    5    0    0  0.15470110153E+02 -0.47909759834E+03 -0.53965567268E+03  0.72180473682E+03  0.00000000000E+00 0. -1.
        -14    1    5    5    0    0 -0.12458629091E+02 -0.23333996143E+03 -0.18995987443E+03  0.30114366826E+03  0.00000000000E+00 0.  1.
         13    1    3    3    0    0  0.15285544224E+03  0.44955584494E+03 -0.43798850790E+03  0.64598697896E+03  0.00000000000E+00 0. -1.
        -14    1    3    3    0    0  0.19781733321E+03  0.53102479651E+03 -0.42212016231E+03  0.70661479128E+03  0.00000000000E+00 0.  1.
          4    1    6    6  502    0 -0.23481904896E+03 -0.13504237160E+03 -0.13241454457E+03  0.30151291763E+03  0.00000000000E+00 0. -1.
         -3    1    6    6    0  502 -0.11886520755E+03 -0.13310071008E+03 -0.53110973834E+02  0.18618676681E+03  0.00000000000E+00 0.  1.
<mgrwt>
<rscale>  0 0.11019284E+04</rscale>
<asrwt>0</asrwt>
<pdfrwt beam="1">  1        1 0.83692319E-01 0.11019284E+04</pdfrwt>
<pdfrwt beam="2">  1       -2 0.35680765E+00 0.11019284E+04</pdfrwt>
<totfact> 0.48820194E-01</totfact>
</mgrwt>
</event>
<event>
12    3  0.2212098E-007  0.1881925E+04  0.7818608E-02  0.8663906E-01
         -2   -1    0    0    0  501 -0.00000000000E+00  0.00000000000E+00  0.15229069741E+04  0.15229069741E+04  0.00000000000E+00 0.  1.
          1   -1    0    0  501    0  0.00000000000E+00 -0.00000000000E+00 -0.24206589031E+04  0.24206589031E+04  0.00000000000E+00 0. -1.
        -24    2    1    2    0    0  0.62425219998E+02  0.18705993389E+04 -0.38845355328E+03  0.19131851778E+04  0.79640232917E+02 0.  0.
    5000000    2    1    2    0    0 -0.62425219998E+02 -0.18705993389E+04 -0.50929837579E+03  0.20303806994E+04  0.60001846150E+03 0.  0.
        -24    2    4    4    0    0 -0.13010064581E+03 -0.64914027126E+03  0.78109210242E+02  0.67114935354E+03  0.77660390223E+02 0.  0.
         24    2    4    4    0    0  0.67675425808E+02 -0.12214590676E+04 -0.58740758603E+03  0.13592313459E+04  0.76941291223E+02 0.  0.
         11    1    5    5    0    0 -0.97789659884E+02 -0.29933700794E+03  0.48395912175E+02  0.31860261489E+03  0.00000000000E+00 0. -1.
        -12    1    5    5    0    0 -0.32310985921E+02 -0.34980326333E+03  0.29713298067E+02  0.35254673864E+03  0.00000000000E+00 0.  1.
         13    1    3    3    0    0  0.68230489109E+02  0.13208284393E+04 -0.24666053731E+03  0.13453938406E+04  0.00000000000E+00 0. -1.
        -14    1    3    3    0    0 -0.58052691108E+01  0.54977089958E+03 -0.14179301597E+03  0.56779133715E+03  0.00000000000E+00 0.  1.
          4    1    6    6  502    0 -0.13477294464E+02 -0.27479144897E+03 -0.14803590995E+03  0.31242056355E+03  0.00000000000E+00 0. -1.
         -3    1    6    6    0  502  0.81152720272E+02 -0.94666761865E+03 -0.43937167607E+03  0.10468107823E+04  0.00000000000E+00 0.  1.
<mgrwt>
<rscale>  0 0.18819252E+04</rscale>
<asrwt>0</asrwt>
<pdfrwt beam="1">  1        1 0.37240906E+00 0.18819252E+04</pdfrwt>
<pdfrwt beam="2">  1       -2 0.23429338E+00 0.18819252E+04</pdfrwt>
<totfact> 0.97756873E-02</totfact>
</mgrwt>
</event>
<event>
12    3  0.2212098E-007  0.4936799E+03  0.7818608E-02  0.1015442E+00
         -2   -1    0    0    0  501 -0.00000000000E+00  0.00000000000E+00  0.25482174604E+03  0.25482174604E+03  0.00000000000E+00 0.  1.
          1   -1    0    0  501    0  0.00000000000E+00 -0.00000000000E+00 -0.13754828249E+04  0.13754828249E+04  0.00000000000E+00 0. -1.
        -24    2    1    2    0    0  0.32244386536E+03 -0.53231504536E+02 -0.22462394274E+02  0.33683894687E+03  0.78436455747E+02 0.  0.
    5000000    2    1    2    0    0 -0.32244386536E+03  0.53231504536E+02 -0.10981986846E+04  0.12934656240E+04  0.60017441666E+03 0.  0.
        -24    2    4    4    0    0 -0.24354017772E+03  0.29854384935E+03 -0.79939910964E+03  0.89089045334E+03  0.78782074118E+02 0.  0.
         24    2    4    4    0    0 -0.78903687630E+02 -0.24531234482E+03 -0.29879957491E+03  0.40257517069E+03  0.79885190420E+02 0.  0.
         11    1    3    3    0    0  0.13929481729E+03  0.16027348729E+02 -0.12723581287E+02  0.14078995544E+03  0.00000000000E+00 0. -1.
        -12    1    3    3    0    0  0.18314904806E+03 -0.69258853264E+02 -0.97388129869E+01  0.19604899143E+03  0.00000000000E+00 0.  1.
         13    1    5    5    0    0 -0.21490443787E+03  0.21123389749E+03 -0.60797507280E+03  0.67855535221E+03  0.00000000000E+00 0. -1.
        -14    1    5    5    0    0 -0.28635739854E+02  0.87309951860E+02 -0.19142403684E+03  0.21233510113E+03  0.00000000000E+00 0.  1.
          2    1    6    6  502    0 -0.71884016462E+02 -0.20598571295E+03 -0.28778966554E+03  0.36113753246E+03  0.00000000000E+00 0. -1.
         -1    1    6    6    0  502 -0.70196711680E+01 -0.39326631873E+02 -0.11009909371E+02  0.41437638231E+02  0.00000000000E+00 0.  1.
<mgrwt>
<rscale>  0 0.49367991E+03</rscale>
<asrwt>0</asrwt>
<pdfrwt beam="1">  1        1 0.21161273E+00 0.49367991E+03</pdfrwt>
<pdfrwt beam="2">  1       -2 0.39203348E-01 0.49367991E+03</pdfrwt>
<totfact> 0.45681947E+01</totfact>
</mgrwt>
</event>
<event>
12    3  0.2212098E-007  0.6199004E+03  0.7818608E-02  0.9864958E-01
          1   -1    0    0  501    0  0.00000000000E+00  0.00000000000E+00  0.11740521904E+04  0.11740521904E+04  0.00000000000E+00 0. -1.
         -2   -1    0    0    0  501 -0.00000000000E+00 -0.00000000000E+00 -0.37365223620E+03  0.37365223620E+03  0.00000000000E+00 0.  1.
        -24    2    1    2    0    0  0.31356917451E+03  0.38507080446E+03  0.13000163887E+03  0.51992950421E+03  0.82590021137E+02 0.  0.
    5000000    2    1    2    0    0 -0.31356917451E+03 -0.38507080446E+03  0.67039831538E+03  0.10277749224E+04  0.60023515246E+03 0.  0.
        -24    2    4    4    0    0 -0.21930170098E+03 -0.51276792444E+03  0.36067890987E+03  0.67058569225E+03  0.92583552740E+02 0.  0.
         24    2    4    4    0    0 -0.94267473536E+02  0.12769711998E+03  0.30971940552E+03  0.35718923018E+03  0.80406000934E+02 0.  0.
         11    1    5    5    0    0 -0.40697781684E+01 -0.49415018984E+02  0.91232594877E+01  0.50414690906E+02  0.00000000000E+00 0. -1.
        -12    1    5    5    0    0 -0.21523192281E+03 -0.46335290546E+03  0.35155565038E+03  0.62017100134E+03  0.00000000000E+00 0.  1.
         13    1    3    3    0    0  0.20346186929E+03  0.19534041767E+03  0.50123195399E+02  0.28647328976E+03  0.00000000000E+00 0. -1.
        -14    1    3    3    0    0  0.11010730523E+03  0.18973038679E+03  0.79878443466E+02  0.23345621446E+03  0.00000000000E+00 0.  1.
          2    1    6    6  502    0  0.18670358592E+01  0.60679154566E+02  0.10258798248E+03  0.11920461305E+03  0.00000000000E+00 0. -1.
         -1    1    6    6    0  502 -0.96134509395E+02  0.67017965414E+02  0.20713142303E+03  0.23798461713E+03  0.00000000000E+00 0.  1.
<mgrwt>
<rscale>  0 0.61990040E+03</rscale>
<asrwt>0</asrwt>
<pdfrwt beam="1">  1        1 0.18062341E+00 0.61990040E+03</pdfrwt>
<pdfrwt beam="2">  1       -2 0.57484960E-01 0.61990040E+03</pdfrwt>
<totfact> 0.28879572E+01</totfact>
</mgrwt>
</event>
<event>
12    3  0.2212098E-007  0.1889747E+04  0.7818608E-02  0.8659977E-01
          1   -1    0    0  501    0  0.00000000000E+00  0.00000000000E+00  0.21250642352E+04  0.21250642352E+04  0.00000000000E+00 0. -1.
         -2   -1    0    0    0  501 -0.00000000000E+00 -0.00000000000E+00 -0.19274566806E+04  0.19274566806E+04  0.00000000000E+00 0.  1.
        -24    2    1    2    0    0  0.18677534609E+04 -0.13020775533E+03  0.73717025162E+03  0.20137967479E+04  0.80624512110E+02 0.  0.
    5000000    2    1    2    0    0 -0.18677534609E+04  0.13020775533E+03 -0.53956269698E+03  0.20387241679E+04  0.59984271150E+03 0.  0.
        -24    2    4    4    0    0 -0.10094755252E+04  0.24332866998E+03 -0.53298614217E+03  0.11698723596E+04  0.79230250087E+02 0.  0.
         24    2    4    4    0    0 -0.85827793567E+03 -0.11312091465E+03 -0.65765548146E+01  0.86885180821E+03  0.73640052785E+02 0.  0.
         11    1    3    3    0    0  0.88606240722E+03 -0.44968620606E+02  0.38862088174E+03  0.96858399535E+03  0.00000000000E+00 0. -1.
        -12    1    3    3    0    0  0.98169105363E+03 -0.85239134728E+02  0.34854936988E+03  0.10452127526E+04  0.00000000000E+00 0.  1.
         11    1    5    5    0    0 -0.44232751361E+03  0.14032860016E+03 -0.26230228024E+03  0.53305556140E+03  0.00000000000E+00 0. -1.
        -12    1    5    5    0    0 -0.56714801158E+03  0.10300006983E+03 -0.27068386193E+03  0.63681679824E+03  0.00000000000E+00 0.  1.
          2    1    6    6  502    0 -0.18052972744E+03 -0.38456481898E+02  0.25038148720E+02  0.18627075020E+03  0.00000000000E+00 0. -1.
         -1    1    6    6    0  502 -0.67774820822E+03 -0.74664432752E+02 -0.31614703535E+02  0.68258105801E+03  0.00000000000E+00 0.  1.
<mgrwt>
<rscale>  0 0.18897475E+04</rscale>
<asrwt>0</asrwt>
<pdfrwt beam="1">  1        1 0.32693296E+00 0.18897475E+04</pdfrwt>
<pdfrwt beam="2">  1       -2 0.29653180E+00 0.18897475E+04</pdfrwt>
<totfact> 0.64509172E-02</totfact>
</mgrwt>
</event>
<event>
12    3  0.2212098E-007  0.1674772E+04  0.7818608E-02  0.8775885E-01
          1   -1    0    0  501    0  0.00000000000E+00  0.00000000000E+00  0.21215787055E+04  0.21215787055E+04  0.00000000000E+00 0. -1.
         -2   -1    0    0    0  501 -0.00000000000E+00 -0.00000000000E+00 -0.17746365040E+04  0.17746365040E+04  0.00000000000E+00 0.  1.
        -24    2    1    2    0    0 -0.10738229771E+04  0.12517051878E+04  0.11027859101E+04  0.19854431793E+04  0.77370480091E+02 0.  0.
    5000000    2    1    2    0    0  0.10738229771E+04 -0.12517051878E+04 -0.75584370865E+03  0.19107720303E+04  0.59990697311E+03 0.  0.
        -24    2    4    4    0    0  0.65907975639E+03 -0.10308371782E+04 -0.32323891586E+03  0.12679519431E+04  0.78786547171E+02 0.  0.
         24    2    4    4    0    0  0.41474322073E+03 -0.22086800966E+03 -0.43260479279E+03  0.64282008722E+03  0.72637049503E+02 0.  0.
         11    1    5    5    0    0  0.16310927136E+03 -0.28660220720E+03 -0.55695080299E+02  0.33443594535E+03  0.00000000000E+00 0. -1.
        -12    1    5    5    0    0  0.49597048503E+03 -0.74423497097E+03 -0.26754383556E+03  0.93351599771E+03  0.00000000000E+00 0.  1.
         13    1    3    3    0    0 -0.65101009784E+03  0.81501695833E+03  0.68783920116E+03  0.12494757126E+04  0.00000000000E+00 0. -1.
        -14    1    3    3    0    0 -0.42281287928E+03  0.43668822950E+03  0.41494670897E+03  0.73596746664E+03  0.00000000000E+00 0.  1.
          2    1    6    6  502    0  0.29651371010E+03 -0.12305734618E+03 -0.27298802666E+03  0.42140948426E+03  0.00000000000E+00 0. -1.
         -1    1    6    6    0  502  0.11822951064E+03 -0.97810663484E+02 -0.15961676613E+03  0.22141060297E+03  0.00000000000E+00 0.  1.
<mgrwt>
<rscale>  0 0.16747718E+04</rscale>
<asrwt>0</asrwt>
<pdfrwt beam="1">  1        1 0.32639672E+00 0.16747718E+04</pdfrwt>
<pdfrwt beam="2">  1       -2 0.27302100E+00 0.16747718E+04</pdfrwt>
<totfact> 0.92422060E-02</totfact>
</mgrwt>
</event>
<event>
12    3  0.2212098E-007  0.2054499E+03  0.7818608E-02  0.1145221E+00
          1   -1    0    0  501    0  0.00000000000E+00  0.00000000000E+00  0.22877450545E+04  0.22877450545E+04  0.00000000000E+00 0. -1.
         -2   -1    0    0    0  501 -0.00000000000E+00 -0.00000000000E+00 -0.12223518145E+03  0.12223518145E+03  0.00000000000E+00 0.  1.
        -24    2    1    2    0    0  0.13290227536E+03 -0.23568036337E+02  0.14823046742E+04  0.14906616076E+04  0.81402790488E+02 0.  0.
    5000000    2    1    2    0    0 -0.13290227536E+03  0.23568036337E+02  0.68320519890E+03  0.91931862832E+03  0.60013242659E+03 0.  0.
        -24    2    4    4    0    0 -0.19261495999E+03 -0.11518892306E+02  0.76226713264E+03  0.79021536190E+03  0.78459728443E+02 0.  0.
         24    2    4    4    0    0  0.59712684631E+02  0.35086928643E+02 -0.79061933738E+02  0.12910326642E+03  0.74967771522E+02 0.  0.
         11    1    5    5    0    0 -0.56055643375E+02 -0.16935353472E+02  0.37491681585E+03  0.37946233035E+03  0.00000000000E+00 0. -1.
        -12    1    5    5    0    0 -0.13655931662E+03  0.54164611657E+01  0.38735031679E+03  0.41075303155E+03  0.00000000000E+00 0.  1.
         11    1    3    3    0    0  0.87270312062E+00 -0.13552581943E+02  0.40828423501E+03  0.40851003739E+03  0.00000000000E+00 0. -1.
        -12    1    3    3    0    0  0.13202957224E+03 -0.10015454394E+02  0.10740204391E+04  0.10821515702E+04  0.00000000000E+00 0.  1.
          2    1    6    6  502    0  0.13956581896E+02  0.45673526716E+01 -0.72197672083E+02  0.73675984845E+02  0.00000000000E+00 0. -1.
         -1    1    6    6    0  502  0.45756102735E+02  0.30519575971E+02 -0.68642616553E+01  0.55427281577E+02  0.00000000000E+00 0.  1.
<mgrwt>
<rscale>  0 0.20544989E+03</rscale>
<asrwt>0</asrwt>
<pdfrwt beam="1">  1        1 0.35196075E+00 0.20544989E+03</pdfrwt>
<pdfrwt beam="2">  1       -2 0.18805414E-01 0.20544989E+03</pdfrwt>
<totfact> 0.46467350E+01</totfact>
</mgrwt>
</event>
<event>
12    3  0.2212098E-007  0.8585101E+03  0.7818608E-02  0.9478986E-01
          1   -1    0    0  501    0  0.00000000000E+00  0.00000000000E+00  0.10261858475E+04  0.10261858475E+04  0.00000000000E+00 0. -1.
         -2   -1    0    0    0  501 -0.00000000000E+00 -0.00000000000E+00 -0.88718264105E+03  0.88718264105E+03  0.00000000000E+00 0.  1.
        -24    2    1    2    0    0 -0.34750142209E+03  0.67676928158E+03  0.46012884294E+03  0.89258590308E+03  0.78848864419E+02 0.  0.
    5000000    2    1    2    0    0  0.34750142209E+03 -0.67676928158E+03 -0.32112563647E+03  0.10207825855E+04  0.60008458869E+03 0.  0.
        -24    2    4    4    0    0  0.42236069787E+02 -0.64357252485E+03 -0.18028580721E+03  0.67410813193E+03  0.77131841200E+02 0.  0.
         24    2    4    4    0    0  0.30526535230E+03 -0.33196756737E+02 -0.14083982926E+03  0.34667445356E+03  0.77835462789E+02 0.  0.
         11    1    3    3    0    0 -0.30322880809E+03  0.54101142927E+03  0.39760719809E+03  0.73670384866E+03  0.00000000000E+00 0. -1.
        -12    1    3    3    0    0 -0.44272614001E+02  0.13575785232E+03  0.62521644851E+02  0.15588205442E+03  0.00000000000E+00 0.  1.
         13    1    5    5    0    0  0.52406476025E+02 -0.46948966730E+03 -0.15894197645E+03  0.49842706419E+03  0.00000000000E+00 0. -1.
        -14    1    5    5    0    0 -0.10170406238E+02 -0.17408285754E+03 -0.21343830762E+02  0.17568106775E+03  0.00000000000E+00 0.  1.
          4    1    6    6  502    0  0.14512145311E+03 -0.21081364726E+02 -0.25253664867E+02  0.14880325158E+03  0.00000000000E+00 0. -1.
         -3    1    6    6    0  502  0.16014389920E+03 -0.12115392011E+02 -0.11558616440E+03  0.19787120198E+03  0.00000000000E+00 0.  1.
<mgrwt>
<rscale>  0 0.85851014E+03</rscale>
<asrwt>0</asrwt>
<pdfrwt beam="1">  1        1 0.15787475E+00 0.85851014E+03</pdfrwt>
<pdfrwt beam="2">  1       -2 0.13648964E+00 0.85851014E+03</pdfrwt>
<totfact> 0.49119246E+00</totfact>
</mgrwt>
</event>
<event>
12    3  0.2212098E-007  0.7421717E+03  0.7818608E-02  0.9647712E-01
         -2   -1    0    0    0  501 -0.00000000000E+00  0.00000000000E+00  0.12596622793E+04  0.12596622793E+04  0.00000000000E+00 0.  1.
          1   -1    0    0  501    0  0.00000000000E+00 -0.00000000000E+00 -0.66650779325E+03  0.66650779325E+03  0.00000000000E+00 0. -1.
        -24    2    1    2    0    0 -0.23417778095E+03 -0.69686574733E+03  0.63723334109E+03  0.97627095923E+03  0.81102108096E+02 0.  0.
    5000000    2    1    2    0    0  0.23417778095E+03  0.69686574733E+03 -0.44078855018E+02  0.94989911334E+03  0.59992022568E+03 0.  0.
        -24    2    4    4    0    0  0.92783416417E+02  0.27647415956E+03  0.26616365332E+03  0.40297583810E+03  0.80620794334E+02 0.  0.
         24    2    4    4    0    0  0.14139436453E+03  0.42039158777E+03 -0.31024250834E+03  0.54692327524E+03  0.78442345896E+02 0.  0.
         11    1    3    3    0    0 -0.13781890685E+03 -0.28436290916E+03  0.26948229671E+03  0.41530353169E+03  0.00000000000E+00 0. -1.
        -12    1    3    3    0    0 -0.96358874094E+02 -0.41250283817E+03  0.36775104438E+03  0.56096742753E+03  0.00000000000E+00 0.  1.
         11    1    5    5    0    0  0.73948744197E+02  0.14960266748E+03  0.10565675931E+03  0.19751639343E+03  0.00000000000E+00 0. -1.
        -12    1    5    5    0    0  0.18834672220E+02  0.12687149208E+03  0.16050689401E+03  0.20545944467E+03  0.00000000000E+00 0.  1.
          4    1    6    6  502    0  0.12394118434E+03  0.25758161540E+03 -0.18118064174E+03  0.33843187012E+03  0.00000000000E+00 0. -1.
         -3    1    6    6    0  502  0.17453180195E+02  0.16280997237E+03 -0.12906186659E+03  0.20849140512E+03  0.00000000000E+00 0.  1.
<mgrwt>
<rscale>  0 0.74217174E+03</rscale>
<asrwt>0</asrwt>
<pdfrwt beam="1">  1        1 0.10253966E+00 0.74217174E+03</pdfrwt>
<pdfrwt beam="2">  1       -2 0.19379420E+00 0.74217174E+03</pdfrwt>
<totfact> 0.38589082E+00</totfact>
</mgrwt>
</event>
<event>
12    3  0.2212098E-007  0.6454374E+03  0.7818608E-02  0.9815378E-01
         -2   -1    0    0    0  501 -0.00000000000E+00  0.00000000000E+00  0.33985082547E+03  0.33985082547E+03  0.00000000000E+00 0.  1.
          1   -1    0    0  501    0  0.00000000000E+00 -0.00000000000E+00 -0.18714754299E+04  0.18714754299E+04  0.00000000000E+00 0. -1.
        -24    2    1    2    0    0 -0.14729641301E+03  0.59643182212E+03 -0.24955178266E+03  0.66820566399E+03  0.82435219680E+02 0.  0.
    5000000    2    1    2    0    0  0.14729641301E+03 -0.59643182212E+03 -0.12820728218E+04  0.15431205914E+04  0.60006940226E+03 0.  0.
        -24    2    4    4    0    0  0.25982917025E+02 -0.53526667367E+03 -0.12732633261E+04  0.13837767738E+04  0.80331426944E+02 0.  0.
         24    2    4    4    0    0  0.12131349598E+03 -0.61165148448E+02 -0.88094956433E+01  0.15934381758E+03  0.82793147635E+02 0.  0.
         11    1    3    3    0    0 -0.10835657432E+03  0.53670927552E+03 -0.23276587264E+03  0.59496045675E+03  0.00000000000E+00 0. -1.
        -12    1    3    3    0    0 -0.38939838686E+02  0.59722546597E+02 -0.16785910016E+02  0.73245207242E+02  0.00000000000E+00 0.  1.
         13    1    5    5    0    0  0.17417371980E+02 -0.38056201298E+03 -0.80605613558E+03  0.89154770162E+03  0.00000000000E+00 0. -1.
        -14    1    5    5    0    0  0.85655450442E+01 -0.15470466068E+03 -0.46720719057E+03  0.49222907220E+03  0.00000000000E+00 0.  1.
          4    1    6    6  502    0  0.46429916852E+02 -0.28179249675E+02  0.36856369724E+02  0.65636874395E+02  0.00000000000E+00 0. -1.
         -3    1    6    6    0  502  0.74883579131E+02 -0.32985898773E+02 -0.45665865367E+02  0.93706943185E+02  0.00000000000E+00 0.  1.
<mgrwt>
<rscale>  0 0.64543741E+03</rscale>
<asrwt>0</asrwt>
<pdfrwt beam="1">  1        1 0.28791930E+00 0.64543741E+03</pdfrwt>
<pdfrwt beam="2">  1       -2 0.52284742E-01 0.64543741E+03</pdfrwt>
<totfact> 0.11653842E+01</totfact>
</mgrwt>
</event>
<event>
12    3  0.2212098E-007  0.5478917E+03  0.7818608E-02  0.1001983E+00
         -4   -1    0    0    0  501 -0.00000000000E+00  0.00000000000E+00  0.17776301404E+03  0.17776301404E+03  0.00000000000E+00 0.  1.
          3   -1    0    0  501    0  0.00000000000E+00 -0.00000000000E+00 -0.22661727931E+04  0.22661727931E+04  0.00000000000E+00 0. -1.
        -24    2    1    2    0    0  0.24684091794E+03 -0.35990060822E+03 -0.39054288193E+03  0.59104365832E+03  0.79686742001E+02 0.  0.
    5000000    2    1    2    0    0 -0.24684091794E+03  0.35990060822E+03 -0.16978668972E+04  0.18528921489E+04  0.59999869018E+03 0.  0.
        -24    2    4    4    0    0 -0.38283156255E+03  0.27540958319E+03 -0.15398370539E+04  0.16125982293E+04  0.83453296068E+02 0.  0.
         24    2    4    4    0    0  0.13599064461E+03  0.84491025032E+02 -0.15802984326E+03  0.24029391960E+03  0.84472171177E+02 0.  0.
         11    1    5    5    0    0 -0.19388989059E+03  0.18150750649E+03 -0.93653807457E+03  0.97346896699E+03  0.00000000000E+00 0. -1.
        -12    1    5    5    0    0 -0.18894167195E+03  0.93902076698E+02 -0.60329897935E+03  0.63912926227E+03  0.00000000000E+00 0.  1.
         13    1    3    3    0    0  0.24142544096E+03 -0.31807843900E+03 -0.36890088514E+03  0.54364326534E+03  0.00000000000E+00 0. -1.
        -14    1    3    3    0    0  0.54154769787E+01 -0.41822169220E+02 -0.21641996789E+02  0.47400392975E+02  0.00000000000E+00 0.  1.
          2    1    6    6  502    0  0.58124026869E+02  0.81086287804E+02 -0.65660302815E+02  0.11943476854E+03  0.00000000000E+00 0. -1.
         -1    1    6    6    0  502  0.77866617736E+02  0.34047372276E+01 -0.92369540447E+02  0.12085915106E+03  0.00000000000E+00 0.  1.
<mgrwt>
<rscale>  0 0.54789175E+03</rscale>
<asrwt>0</asrwt>
<pdfrwt beam="1">  1        3 0.34864198E+00 0.54789175E+03</pdfrwt>
<pdfrwt beam="2">  1       -4 0.27348155E-01 0.54789175E+03</pdfrwt>
<totfact> 0.64204737E-01</totfact>
</mgrwt>
</event>
<event>
12    3  0.2212098E-007  0.9354822E+03  0.7818608E-02  0.9382282E-01
         -2   -1    0    0    0  501 -0.00000000000E+00  0.00000000000E+00  0.82837886355E+03  0.82837886355E+03  0.00000000000E+00 0.  1.
          1   -1    0    0  501    0  0.00000000000E+00 -0.00000000000E+00 -0.13156079353E+04  0.13156079353E+04  0.00000000000E+00 0. -1.
        -24    2    1    2    0    0 -0.81603929590E+03 -0.22083281400E+03  0.23416794983E+03  0.88098526049E+03  0.81321192071E+02 0.  0.
    5000000    2    1    2    0    0  0.81603929590E+03  0.22083281400E+03 -0.72139702155E+03  0.12630015383E+04  0.60005996279E+03 0.  0.
        -24    2    4    4    0    0  0.17717936371E+03 -0.18162861537E+03 -0.27695363001E+03  0.38337530328E+03  0.76758251318E+02 0.  0.
         24    2    4    4    0    0  0.63885993219E+03  0.40246142937E+03 -0.44444339154E+03  0.87962623506E+03  0.78071569918E+02 0.  0.
         13    1    5    5    0    0  0.12789138643E+03 -0.17056981309E+03 -0.23847313928E+03  0.31987451605E+03  0.00000000000E+00 0. -1.
        -14    1    5    5    0    0  0.49287977283E+02 -0.11058802282E+02 -0.38480490731E+02  0.63500787235E+02  0.00000000000E+00 0.  1.
         13    1    3    3    0    0 -0.37585799395E+03 -0.13849744826E+03  0.13099267941E+03  0.42143784459E+03  0.00000000000E+00 0. -1.
        -14    1    3    3    0    0 -0.44018130195E+03 -0.82335365742E+02  0.10317527042E+03  0.45954741590E+03  0.00000000000E+00 0.  1.
          4    1    6    6  502    0  0.30347747874E+03  0.23612185507E+03 -0.21498041342E+03  0.44053227884E+03  0.00000000000E+00 0. -1.
         -3    1    6    6    0  502  0.33538245344E+03  0.16633957429E+03 -0.22946297812E+03  0.43909395621E+03  0.00000000000E+00 0.  1.
<mgrwt>
<rscale>  0 0.93548224E+03</rscale>
<asrwt>0</asrwt>
<pdfrwt beam="1">  1        1 0.20240122E+00 0.93548224E+03</pdfrwt>
<pdfrwt beam="2">  1       -2 0.12744290E+00 0.93548224E+03</pdfrwt>
<totfact> 0.35499495E+00</totfact>
</mgrwt>
</event>
<event>
12    3  0.2212098E-007  0.1238712E+04  0.7818608E-02  0.9079631E-01
          1   -1    0    0  501    0  0.00000000000E+00  0.00000000000E+00  0.18684712747E+04  0.18684712747E+04  0.00000000000E+00 0. -1.
         -2   -1    0    0    0  501 -0.00000000000E+00 -0.00000000000E+00 -0.92575031617E+03  0.92575031617E+03  0.00000000000E+00 0.  1.
        -24    2    1    2    0    0  0.10896348086E+04  0.58001045085E+03  0.27207718003E+03  0.12665545135E+04  0.80113696973E+02 0.  0.
    5000000    2    1    2    0    0 -0.10896348086E+04 -0.58001045085E+03  0.67064377854E+03  0.15276670775E+04  0.60023952102E+03 0.  0.
        -24    2    4    4    0    0 -0.32784774185E+03 -0.12787340757E+03 -0.70232019526E+02  0.36933716423E+03  0.87416555172E+02 0.  0.
         24    2    4    4    0    0 -0.76178706677E+03 -0.45213704328E+03  0.74087579807E+03  0.11583299132E+04  0.89909947723E+02 0.  0.
         11    1    3    3    0    0  0.51343677268E+03  0.30031977843E+03  0.16393948566E+03  0.61699711816E+03  0.00000000000E+00 0. -1.
        -12    1    3    3    0    0  0.57619803593E+03  0.27969067242E+03  0.10813769437E+03  0.64955739530E+03  0.00000000000E+00 0.  1.
         13    1    5    5    0    0 -0.15964174277E+03 -0.32748277105E+02 -0.66634558263E+02  0.17606277302E+03  0.00000000000E+00 0. -1.
        -14    1    5    5    0    0 -0.16820599908E+03 -0.95125130463E+02 -0.35974612637E+01  0.19327439121E+03  0.00000000000E+00 0.  1.
          2    1    6    6  502    0 -0.73888730652E+03 -0.44031700773E+03  0.73611947472E+03  0.11321242865E+04  0.00000000000E+00 0. -1.
         -1    1    6    6    0  502 -0.22899760244E+02 -0.11820035544E+02  0.47563233464E+01  0.26205626711E+02  0.00000000000E+00 0.  1.
<mgrwt>
<rscale>  0 0.12387123E+04</rscale>
<asrwt>0</asrwt>
<pdfrwt beam="1">  1        1 0.28745712E+00 0.12387123E+04</pdfrwt>
<pdfrwt beam="2">  1       -2 0.14242313E+00 0.12387123E+04</pdfrwt>
<totfact> 0.10731134E+00</totfact>
</mgrwt>
</event>
<event>
12    3  0.2212098E-007  0.1083337E+04  0.7818608E-02  0.9221586E-01
          1   -1    0    0  501    0  0.00000000000E+00  0.00000000000E+00  0.22079300576E+04  0.22079300576E+04  0.00000000000E+00 0. -1.
         -4   -1    0    0    0  501 -0.00000000000E+00 -0.00000000000E+00 -0.95101028160E+03  0.95101028160E+03  0.00000000000E+00 0.  1.
        -24    2    1    2    0    0 -0.56198854727E+03  0.89077597381E+03  0.15837594532E+04  0.19036800184E+04  0.79941505201E+02 0.  0.
    5000000    2    1    2    0    0  0.56198854727E+03 -0.89077597381E+03 -0.32683967720E+03  0.12552603207E+04  0.59961765771E+03 0.  0.
        -24    2    4    4    0    0  0.27783518887E+03 -0.16892388500E+03  0.12037879281E+03  0.35588677745E+03  0.80228882042E+02 0.  0.
         24    2    4    4    0    0  0.28415335841E+03 -0.72185208882E+03 -0.44721847001E+03  0.89937354328E+03  0.83993102198E+02 0.  0.
         13    1    5    5    0    0  0.32482242022E+02  0.28522593162E+01 -0.12332196860E+01  0.32630541841E+02  0.00000000000E+00 0. -1.
        -14    1    5    5    0    0  0.24535294684E+03 -0.17177614431E+03  0.12161201249E+03  0.32325623561E+03  0.00000000000E+00 0.  1.
         13    1    3    3    0    0 -0.45734817736E+03  0.77414970198E+03  0.13290105085E+04  0.16046008999E+04  0.00000000000E+00 0. -1.
        -14    1    3    3    0    0 -0.10464036992E+03  0.11662627183E+03  0.25474894472E+03  0.29907911852E+03  0.00000000000E+00 0.  1.
          4    1    6    6  502    0  0.23415122532E+02 -0.23047745936E+02 -0.31324229454E+02  0.45394646235E+02  0.00000000000E+00 0. -1.
         -3    1    6    6    0  502  0.26073823587E+03 -0.69880434288E+03 -0.41589424056E+03  0.85397889705E+03  0.00000000000E+00 0.  1.
<mgrwt>
<rscale>  0 0.10833374E+04</rscale>
<asrwt>0</asrwt>
<pdfrwt beam="1">  1        1 0.33968155E+00 0.10833374E+04</pdfrwt>
<pdfrwt beam="2">  1       -4 0.14630927E+00 0.10833374E+04</pdfrwt>
<totfact> 0.32546866E-01</totfact>
</mgrwt>
</event>
<event>
12    3  0.2212098E-007  0.4479805E+03  0.7818608E-02  0.1028326E+00
          1   -1    0    0  501    0  0.00000000000E+00  0.00000000000E+00  0.13102411347E+03  0.13102411347E+03  0.00000000000E+00 0. -1.
         -2   -1    0    0    0  501 -0.00000000000E+00 -0.00000000000E+00 -0.26712203020E+04  0.26712203020E+04  0.00000000000E+00 0.  1.
        -24    2    1    2    0    0 -0.18473292320E+03 -0.34563888892E+03 -0.13953524768E+04  0.14516103432E+04  0.81065156544E+02 0.  0.
    5000000    2    1    2    0    0  0.18473292320E+03  0.34563888892E+03 -0.11448437117E+04  0.13506340722E+04  0.59996064736E+03 0.  0.
        -24    2    4    4    0    0  0.24392305581E+03  0.18432373007E+03 -0.11158180157E+04  0.11596826283E+04  0.79625747798E+02 0.  0.
         24    2    4    4    0    0 -0.59190132614E+02  0.16131515885E+03 -0.29025696019E+02  0.19095144389E+03  0.78063503767E+02 0.  0.
         13    1    5    5    0    0  0.17401879852E+03  0.17187338698E+03 -0.84158185287E+03  0.87640345645E+03  0.00000000000E+00 0. -1.
        -14    1    5    5    0    0  0.69904257292E+02  0.12450343086E+02 -0.27423616282E+03  0.28327917189E+03  0.00000000000E+00 0.  1.
         13    1    3    3    0    0 -0.18259794627E+03 -0.31750215725E+03 -0.12130990330E+04  0.12671854219E+04  0.00000000000E+00 0. -1.
        -14    1    3    3    0    0 -0.21349769256E+01 -0.28136731669E+02 -0.18225344384E+03  0.18442492127E+03  0.00000000000E+00 0.  1.
          2    1    6    6  502    0 -0.28820365953E+02  0.15113221450E+03 -0.36354157304E+02  0.15809232906E+03  0.00000000000E+00 0. -1.
         -1    1    6    6    0  502 -0.30369766661E+02  0.10182944348E+02  0.73284612851E+01  0.32859114831E+02  0.00000000000E+00 0.  1.
<mgrwt>
<rscale>  0 0.44798046E+03</rscale>
<asrwt>0</asrwt>
<pdfrwt beam="1">  1        1 0.20157556E-01 0.44798046E+03</pdfrwt>
<pdfrwt beam="2">  1       -2 0.41095697E+00 0.44798046E+03</pdfrwt>
<totfact> 0.16090451E+00</totfact>
</mgrwt>
</event>
<event>
12    3  0.2212098E-007  0.4997242E+03  0.7818608E-02  0.1013851E+00
          1   -1    0    0  501    0  0.00000000000E+00  0.00000000000E+00  0.87081735302E+03  0.87081735302E+03  0.00000000000E+00 0. -1.
         -2   -1    0    0    0  501 -0.00000000000E+00 -0.00000000000E+00 -0.29632148332E+03  0.29632148332E+03  0.00000000000E+00 0.  1.
        -24    2    1    2    0    0 -0.21096381923E+03  0.24038776678E+03  0.24896332086E+03  0.41331591385E+03  0.80964795263E+02 0.  0.
    5000000    2    1    2    0    0  0.21096381923E+03 -0.24038776678E+03  0.32553254884E+03  0.75382292249E+03  0.59998795545E+03 0.  0.
        -24    2    4    4    0    0 -0.15498467484E+03 -0.25061934874E+03  0.13429529529E+03  0.33355735471E+03  0.79968588497E+02 0.  0.
         24    2    4    4    0    0  0.36594849406E+03  0.10231581964E+02  0.19123725355E+03  0.42026556778E+03  0.77643253039E+02 0.  0.
         11    1    3    3    0    0 -0.15437084093E+03  0.22113246857E+03  0.21195357215E+03  0.34300764122E+03  0.00000000000E+00 0. -1.
        -12    1    3    3    0    0 -0.56592978295E+02  0.19255298202E+02  0.37009748710E+02  0.70308272633E+02  0.00000000000E+00 0.  1.
         11    1    5    5    0    0  0.13475198071E+01 -0.26318533634E+02 -0.48262441510E+01  0.26791298119E+02  0.00000000000E+00 0. -1.
        -12    1    5    5    0    0 -0.15633219464E+03 -0.22430081511E+03  0.13912153944E+03  0.30676605659E+03  0.00000000000E+00 0.  1.
          2    1    6    6  502    0  0.10387299137E+03 -0.21996167797E+02  0.27903012751E+02  0.10978163715E+03  0.00000000000E+00 0. -1.
         -1    1    6    6    0  502  0.26207550269E+03  0.32227749761E+02  0.16333424080E+03  0.31048393064E+03  0.00000000000E+00 0.  1.
<mgrwt>
<rscale>  0 0.49972425E+03</rscale>
<asrwt>0</asrwt>
<pdfrwt beam="1">  1        1 0.13397190E+00 0.49972425E+03</pdfrwt>
<pdfrwt beam="2">  1       -2 0.45587921E-01 0.49972425E+03</pdfrwt>
<totfact> 0.80129683E+01</totfact>
</mgrwt>
</event>
<event>
12    3  0.2212098E-007  0.5497203E+03  0.7818608E-02  0.1001559E+00
         -2   -1    0    0    0  501 -0.00000000000E+00  0.00000000000E+00  0.35510861551E+03  0.35510861551E+03  0.00000000000E+00 0.  1.
          1   -1    0    0  501    0  0.00000000000E+00 -0.00000000000E+00 -0.95833843865E+03  0.95833843865E+03  0.00000000000E+00 0. -1.
        -24    2    1    2    0    0  0.35944387399E+03 -0.22351856264E+03 -0.18319540077E+03  0.46768629244E+03  0.77520751253E+02 0.  0.
    5000000    2    1    2    0    0 -0.35944387399E+03  0.22351856264E+03 -0.42003442236E+03  0.84576076172E+03  0.59976820832E+03 0.  0.
        -24    2    4    4    0    0  0.85401695117E+02 -0.90753910732E+02 -0.20845782689E+03  0.25580230547E+03  0.80314581804E+02 0.  0.
         24    2    4    4    0    0 -0.44484556911E+03  0.31427247337E+03 -0.21157659547E+03  0.58995845625E+03  0.81434369163E+02 0.  0.
         11    1    5    5    0    0  0.36070318318E+02 -0.59638307871E+02 -0.17544625682E+03  0.18878343322E+03  0.00000000000E+00 0. -1.
        -12    1    5    5    0    0  0.49331376799E+02 -0.31115602860E+02 -0.33011570072E+02  0.67018872244E+02  0.00000000000E+00 0.  1.
         11    1    3    3    0    0  0.24678408125E+03 -0.14041496827E+03 -0.83960820651E+02  0.29608810425E+03  0.00000000000E+00 0. -1.
        -12    1    3    3    0    0  0.11265979274E+03 -0.83103594369E+02 -0.99234580124E+02  0.17159818819E+03  0.00000000000E+00 0.  1.
          2    1    6    6  502    0 -0.34390115325E+03  0.27016309145E+03 -0.19390915895E+03  0.47838986310E+03  0.00000000000E+00 0. -1.
         -1    1    6    6    0  502 -0.10094441585E+03  0.44109381920E+02 -0.17667436524E+02  0.11156859316E+03  0.00000000000E+00 0.  1.
<mgrwt>
<rscale>  0 0.54972029E+03</rscale>
<asrwt>0</asrwt>
<pdfrwt beam="1">  1        1 0.14743668E+00 0.54972029E+03</pdfrwt>
<pdfrwt beam="2">  1       -2 0.54632096E-01 0.54972029E+03</pdfrwt>
<totfact> 0.47016922E+01</totfact>
</mgrwt>
</event>
<event>
12    3  0.2212098E-007  0.4451280E+03  0.7818608E-02  0.1029185E+00
          1   -1    0    0  501    0  0.00000000000E+00  0.00000000000E+00  0.14657529166E+04  0.14657529166E+04  0.00000000000E+00 0. -1.
         -2   -1    0    0    0  501 -0.00000000000E+00 -0.00000000000E+00 -0.23090372013E+03  0.23090372013E+03  0.00000000000E+00 0.  1.
        -24    2    1    2    0    0 -0.13108868746E+03 -0.21856133625E+03  0.94744177090E+03  0.98433928460E+03  0.79527456109E+02 0.  0.
    5000000    2    1    2    0    0  0.13108868746E+03  0.21856133625E+03  0.28740742552E+03  0.71231735208E+03  0.59986638525E+03 0.  0.
        -24    2    4    4    0    0 -0.26403494641E+02 -0.18030378228E+03  0.16743447365E+03  0.25985958877E+03  0.79284957446E+02 0.  0.
         24    2    4    4    0    0  0.15749218210E+03  0.39886511854E+03  0.11997295187E+03  0.45245776331E+03  0.80170743976E+02 0.  0.
         11    1    3    3    0    0 -0.49060731149E+02 -0.26550036830E+02  0.25856971472E+03  0.26451872744E+03  0.00000000000E+00 0. -1.
        -12    1    3    3    0    0 -0.82027956313E+02 -0.19201129942E+03  0.68887205619E+03  0.71982055716E+03  0.00000000000E+00 0.  1.
         13    1    5    5    0    0 -0.46196386586E+02 -0.10497565196E+03  0.13026532653E+03  0.17355992894E+03  0.00000000000E+00 0. -1.
        -14    1    5    5    0    0  0.19792891945E+02 -0.75328130326E+02  0.37169147112E+02  0.86299659831E+02  0.00000000000E+00 0.  1.
          4    1    6    6  502    0  0.80417121777E+02  0.12533338704E+03  0.15662531861E+02  0.14973538755E+03  0.00000000000E+00 0. -1.
         -3    1    6    6    0  502  0.77075060326E+02  0.27353173150E+03  0.10431042001E+03  0.30272237576E+03  0.00000000000E+00 0.  1.
<mgrwt>
<rscale>  0 0.44512804E+03</rscale>
<asrwt>0</asrwt>
<pdfrwt beam="1">  1        1 0.22550044E+00 0.44512804E+03</pdfrwt>
<pdfrwt beam="2">  1       -2 0.35523650E-01 0.44512804E+03</pdfrwt>
<totfact> 0.48241049E+01</totfact>
</mgrwt>
</event>
<event>
12    3  0.2212098E-007  0.7201288E+03  0.7818608E-02  0.9683415E-01
         -2   -1    0    0    0  501 -0.00000000000E+00  0.00000000000E+00  0.13389060592E+04  0.13389060592E+04  0.00000000000E+00 0.  1.
          1   -1    0    0  501    0  0.00000000000E+00 -0.00000000000E+00 -0.10168611632E+04  0.10168611632E+04  0.00000000000E+00 0. -1.
        -24    2    1    2    0    0  0.70524428191E+03 -0.52790396874E+02  0.98526156444E+03  0.12155614260E+04  0.81810187928E+02 0.  0.
    5000000    2    1    2    0    0 -0.70524428191E+03  0.52790396874E+02 -0.66321666841E+03  0.11402057964E+04  0.60004715289E+03 0.  0.
        -24    2    4    4    0    0 -0.29673043843E+03 -0.60839278016E+02 -0.63529668772E+03  0.70833963277E+03  0.79954881622E+02 0.  0.
         24    2    4    4    0    0 -0.40851384348E+03  0.11362967489E+03 -0.27919980693E+02  0.43186616361E+03  0.77029829435E+02 0.  0.
         13    1    3    3    0    0  0.41664682846E+03  0.82846654785E+01  0.56212840320E+03  0.69975106790E+03  0.00000000000E+00 0. -1.
        -14    1    3    3    0    0  0.28859745345E+03 -0.61075062353E+02  0.42313316125E+03  0.51581035810E+03  0.00000000000E+00 0.  1.
         13    1    5    5    0    0 -0.10028481266E+03 -0.35024208040E+02 -0.14689524266E+03  0.18127865598E+03  0.00000000000E+00 0. -1.
        -14    1    5    5    0    0 -0.19644562577E+03 -0.25815069976E+02 -0.48840144506E+03  0.52706097679E+03  0.00000000000E+00 0.  1.
          2    1    6    6  502    0 -0.19184247214E+03  0.59340132645E+02  0.24867333310E+02  0.20234418629E+03  0.00000000000E+00 0. -1.
         -1    1    6    6    0  502 -0.21667137134E+03  0.54289542245E+02 -0.52787314004E+02  0.22952197732E+03  0.00000000000E+00 0.  1.
<mgrwt>
<rscale>  0 0.72012877E+03</rscale>
<asrwt>0</asrwt>
<pdfrwt beam="1">  1        1 0.15644018E+00 0.72012877E+03</pdfrwt>
<pdfrwt beam="2">  1       -2 0.20598555E+00 0.72012877E+03</pdfrwt>
<totfact> 0.16241957E+00</totfact>
</mgrwt>
</event>
<event>
12    3  0.2212098E-007  0.1555041E+04  0.7818608E-02  0.8848655E-01
          1   -1    0    0  501    0  0.00000000000E+00  0.00000000000E+00  0.29098434751E+04  0.29098434751E+04  0.00000000000E+00 0. -1.
         -2   -1    0    0    0  501 -0.00000000000E+00 -0.00000000000E+00 -0.90695143758E+03  0.90695143758E+03  0.00000000000E+00 0.  1.
        -24    2    1    2    0    0 -0.14330540315E+04  0.58706190221E+03  0.12567307345E+04  0.19960213490E+04  0.80271741747E+02 0.  0.
    5000000    2    1    2    0    0  0.14330540315E+04 -0.58706190221E+03  0.74616130309E+03  0.18207735637E+04  0.60014510407E+03 0.  0.
        -24    2    4    4    0    0  0.43765979387E+03 -0.25872326978E+03 -0.28100100754E+02  0.51510502770E+03  0.77844385808E+02 0.  0.
         24    2    4    4    0    0  0.99539423761E+03 -0.32833863244E+03  0.77426140385E+03  0.13056685360E+04  0.81692463868E+02 0.  0.
         11    1    3    3    0    0 -0.93816727870E+03  0.34328264120E+03  0.81711515849E+03  0.12906114817E+04  0.00000000000E+00 0. -1.
        -12    1    3    3    0    0 -0.49488675278E+03  0.24377926101E+03  0.43961557597E+03  0.70540986725E+03  0.00000000000E+00 0.  1.
         13    1    5    5    0    0  0.24489960931E+03 -0.16903152809E+03  0.15901733160E+02  0.29799386108E+03  0.00000000000E+00 0. -1.
        -14    1    5    5    0    0  0.19276018457E+03 -0.89691741688E+02 -0.44001833914E+02  0.21711116661E+03  0.00000000000E+00 0.  1.
          4    1    6    6  502    0  0.50205600180E+03 -0.19073199436E+03  0.43743509911E+03  0.69266758878E+03  0.00000000000E+00 0. -1.
         -3    1    6    6    0  502  0.49333823580E+03 -0.13760663808E+03  0.33682630474E+03  0.61300094724E+03  0.00000000000E+00 0.  1.
<mgrwt>
<rscale>  0 0.15550406E+04</rscale>
<asrwt>0</asrwt>
<pdfrwt beam="1">  1        1 0.44766822E+00 0.15550406E+04</pdfrwt>
<pdfrwt beam="2">  1       -2 0.13953099E+00 0.15550406E+04</pdfrwt>
<totfact> 0.20854221E-01</totfact>
</mgrwt>
</event>
<event>
12    3  0.2212098E-007  0.4053183E+03  0.7818608E-02  0.1041954E+00
         -2   -1    0    0    0  501 -0.00000000000E+00  0.00000000000E+00  0.84716283286E+03  0.84716283286E+03  0.00000000000E+00 0.  1.
          1   -1    0    0  501    0  0.00000000000E+00 -0.00000000000E+00 -0.41193100727E+03  0.41193100727E+03  0.00000000000E+00 0. -1.
        -24    2    1    2    0    0 -0.59347728170E+02  0.20610732791E+03 -0.23980023925E+03  0.33084786539E+03  0.77160688373E+02 0.  0.
    5000000    2    1    2    0    0  0.59347728170E+02 -0.20610732791E+03  0.67503206484E+03  0.92824597474E+03  0.59997493080E+03 0.  0.
        -24    2    4    4    0    0 -0.17971761895E+03  0.78782057718E+02  0.42051951933E+03  0.47058442565E+03  0.78153696948E+02 0.  0.
         24    2    4    4    0    0  0.23906534712E+03 -0.28488938563E+03  0.25451254551E+03  0.45766154908E+03  0.79770015989E+02 0.  0.
         11    1    5    5    0    0 -0.22878408943E+02 -0.15635660421E+02  0.66225806322E+02  0.71789643372E+02  0.00000000000E+00 0. -1.
        -12    1    5    5    0    0 -0.15683921001E+03  0.94417718139E+02  0.35429371301E+03  0.39879478228E+03  0.00000000000E+00 0.  1.
         13    1    3    3    0    0  0.63410052246E+01  0.11731767193E+03 -0.12280129293E+03  0.16995235226E+03  0.00000000000E+00 0. -1.
        -14    1    3    3    0    0 -0.65688733395E+02  0.88789655986E+02 -0.11699894632E+03  0.16089551313E+03  0.00000000000E+00 0.  1.
          4    1    6    6  502    0  0.86198860422E+02 -0.10007175023E+03  0.13797949939E+03  0.19100508104E+03  0.00000000000E+00 0. -1.
         -3    1    6    6    0  502  0.15286648670E+03 -0.18481763540E+03  0.11653304612E+03  0.26665646804E+03  0.00000000000E+00 0.  1.
<mgrwt>
<rscale>  0 0.40531830E+03</rscale>
<asrwt>0</asrwt>
<pdfrwt beam="1">  1        1 0.63374001E-01 0.40531830E+03</pdfrwt>
<pdfrwt beam="2">  1       -2 0.13033274E+00 0.40531830E+03</pdfrwt>
<totfact> 0.22971916E+01</totfact>
</mgrwt>
</event>
<event>
12    3  0.2212098E-007  0.1164939E+04  0.7818608E-02  0.9144111E-01
          1   -1    0    0  501    0  0.00000000000E+00  0.00000000000E+00  0.22951723621E+04  0.22951723621E+04  0.00000000000E+00 0. -1.
         -2   -1    0    0    0  501 -0.00000000000E+00 -0.00000000000E+00 -0.62293310389E+03  0.62293310389E+03  0.00000000000E+00 0.  1.
        -24    2    1    2    0    0 -0.11083156360E+04 -0.14253250633E+03  0.85254857570E+03  0.14078451252E+04  0.80683072719E+02 0.  0.
    5000000    2    1    2    0    0  0.11083156360E+04  0.14253250633E+03  0.81969068254E+03  0.15102603408E+04  0.60026195740E+03 0.  0.
        -24    2    4    4    0    0  0.97826006657E+03 -0.41176663033E+02  0.47685829376E+03  0.10919270177E+04  0.78882850870E+02 0.  0.
         24    2    4    4    0    0  0.13005556947E+03  0.18370916936E+03  0.34283238878E+03  0.41833332314E+03  0.82493711207E+02 0.  0.
         13    1    5    5    0    0  0.12229064088E+03 -0.24628295196E+01  0.31753857668E+02  0.12636998794E+03  0.00000000000E+00 0. -1.
        -14    1    5    5    0    0  0.85596942569E+03 -0.38713833513E+02  0.44510443609E+03  0.96555702973E+03  0.00000000000E+00 0.  1.
         13    1    3    3    0    0 -0.37478466811E+03 -0.47424683827E+02  0.24096968462E+03  0.44808373882E+03  0.00000000000E+00 0. -1.
        -14    1    3    3    0    0 -0.73353096794E+03 -0.95107822500E+02  0.61157889108E+03  0.95976138641E+03  0.00000000000E+00 0.  1.
          2    1    6    6  502    0  0.23263167246E+02  0.84027070772E+02  0.17715957226E+03  0.19745186151E+03  0.00000000000E+00 0. -1.
         -1    1    6    6    0  502  0.10679240223E+03  0.99682098588E+02  0.16567281652E+03  0.22088146162E+03  0.00000000000E+00 0.  1.
<mgrwt>
<rscale>  0 0.11649390E+04</rscale>
<asrwt>0</asrwt>
<pdfrwt beam="1">  1        1 0.35310344E+00 0.11649390E+04</pdfrwt>
<pdfrwt beam="2">  1       -2 0.95835863E-01 0.11649390E+04</pdfrwt>
<totfact> 0.14869469E+00</totfact>
</mgrwt>
</event>
<event>
12    3  0.2212098E-007  0.4844158E+03  0.7818608E-02  0.1017929E+00
          1   -1    0    0  501    0  0.00000000000E+00  0.00000000000E+00  0.18242098663E+04  0.18242098663E+04  0.00000000000E+00 0. -1.
         -2   -1    0    0    0  501 -0.00000000000E+00 -0.00000000000E+00 -0.34949013635E+03  0.34949013635E+03  0.00000000000E+00 0.  1.
        -24    2    1    2    0    0 -0.17903699257E+03 -0.35488699828E+03 -0.12104641456E+03  0.42330332609E+03  0.80835914952E+02 0.  0.
    5000000    2    1    2    0    0  0.17903699257E+03  0.35488699828E+03  0.15957661445E+04  0.17503966766E+04  0.59951639767E+03 0.  0.
        -24    2    4    4    0    0 -0.84943286130E+02 -0.28134529644E+02  0.91246941374E+03  0.92008644671E+03  0.77147422536E+02 0.  0.
         24    2    4    4    0    0  0.26398027870E+03  0.38302152792E+03  0.68329673078E+03  0.83031022985E+03  0.78291615778E+02 0.  0.
         11    1    3    3    0    0 -0.96594896526E+02 -0.26976817489E+03 -0.75189846114E+02  0.29624137992E+03  0.00000000000E+00 0. -1.
        -12    1    3    3    0    0 -0.82442096044E+02 -0.85118823389E+02 -0.45856568445E+02  0.12706194617E+03  0.00000000000E+00 0.  1.
         13    1    5    5    0    0 -0.83134590055E+02 -0.18158891735E+02  0.47909001209E+03  0.48658847612E+03  0.00000000000E+00 0. -1.
        -14    1    5    5    0    0 -0.18086960752E+01 -0.99756379091E+01  0.43337940165E+03  0.43349797059E+03  0.00000000000E+00 0.  1.
          4    1    6    6  502    0  0.79416841095E+02  0.16345552940E+03  0.21925807150E+03  0.28477859235E+03  0.00000000000E+00 0. -1.
         -3    1    6    6    0  502  0.18456343761E+03  0.21956599852E+03  0.46403865928E+03  0.54553163750E+03  0.00000000000E+00 0.  1.
<mgrwt>
<rscale>  0 0.48441582E+03</rscale>
<asrwt>0</asrwt>
<pdfrwt beam="1">  1        1 0.28064767E+00 0.48441582E+03</pdfrwt>
<pdfrwt beam="2">  1       -2 0.53767714E-01 0.48441582E+03</pdfrwt>
<totfact> 0.12197317E+01</totfact>
</mgrwt>
</event>
<event>
12    3  0.2212098E-007  0.3335081E+03  0.7818608E-02  0.1069595E+00
         -2   -1    0    0    0  501 -0.00000000000E+00  0.00000000000E+00  0.36237425640E+03  0.36237425640E+03  0.00000000000E+00 0.  1.
          1   -1    0    0  501    0  0.00000000000E+00 -0.00000000000E+00 -0.40500038369E+03  0.40500038369E+03  0.00000000000E+00 0. -1.
        -24    2    1    2    0    0  0.43315523876E+02 -0.82457444984E+02  0.83009361014E+02  0.14725245250E+03  0.78212952317E+02 0.  0.
    5000000    2    1    2    0    0 -0.43315523876E+02  0.82457444984E+02 -0.12563548830E+03  0.62012218759E+03  0.60007648411E+03 0.  0.
        -24    2    4    4    0    0  0.22136128060E+03 -0.92671087837E+02 -0.14536724838E+03  0.29186309798E+03  0.80397039701E+02 0.  0.
         24    2    4    4    0    0 -0.26467680447E+03  0.17512853282E+03  0.19731760078E+02  0.32825908961E+03  0.81491556127E+02 0.  0.
         11    1    5    5    0    0  0.43010024074E+02  0.10913779287E+02 -0.42258321678E+02  0.61275921047E+02  0.00000000000E+00 0. -1.
        -12    1    5    5    0    0  0.17835125652E+03 -0.10358486712E+03 -0.10310892670E+03  0.23058717693E+03  0.00000000000E+00 0.  1.
         11    1    3    3    0    0  0.35560703815E+02 -0.63767156468E+02  0.12724815765E+02  0.74112986960E+02  0.00000000000E+00 0. -1.
        -12    1    3    3    0    0  0.77548200606E+01 -0.18690288516E+02  0.70284545249E+02  0.73139465543E+02  0.00000000000E+00 0.  1.
          4    1    6    6  502    0 -0.16278571479E+03  0.71435739968E+02  0.37862244991E+02  0.18175754037E+03  0.00000000000E+00 0. -1.
         -3    1    6    6    0  502 -0.10189108968E+03  0.10369279285E+03 -0.18130484913E+02  0.14650154924E+03  0.00000000000E+00 0.  1.
<mgrwt>
<rscale>  0 0.33350808E+03</rscale>
<asrwt>0</asrwt>
<pdfrwt beam="1">  1        1 0.62307751E-01 0.33350808E+03</pdfrwt>
<pdfrwt beam="2">  1       -2 0.55749886E-01 0.33350808E+03</pdfrwt>
<totfact> 0.16190536E+02</totfact>
</mgrwt>
</event>
<event>
12    3  0.2212098E-007  0.6501030E+03  0.7818608E-02  0.9806586E-01
         -2   -1    0    0    0  501 -0.00000000000E+00  0.00000000000E+00  0.70518592176E+03  0.70518592176E+03  0.00000000000E+00 0.  1.
          1   -1    0    0  501    0  0.00000000000E+00 -0.00000000000E+00 -0.75024734922E+03  0.75024734922E+03  0.00000000000E+00 0. -1.
        -24    2    1    2    0    0  0.13610617387E+02 -0.52460577609E+03 -0.31153890188E+03  0.61503127816E+03  0.76226744083E+02 0.  0.
    5000000    2    1    2    0    0 -0.13610617387E+02  0.52460577609E+03  0.26647747442E+03  0.84040199282E+03  0.59989065333E+03 0.  0.
        -24    2    4    4    0    0 -0.71313263771E+02 -0.10989293276E+03  0.15396418319E+02  0.15090259397E+03  0.73297373141E+02 0.  0.
         24    2    4    4    0    0  0.57702646384E+02  0.63449870885E+03  0.25108105610E+03  0.68949939885E+03  0.80308887162E+02 0.  0.
         11    1    3    3    0    0 -0.18240938622E+02 -0.38725327244E+03 -0.24920542919E+03  0.46087001941E+03  0.00000000000E+00 0. -1.
        -12    1    3    3    0    0  0.31851556009E+02 -0.13735250365E+03 -0.62333472686E+02  0.15416125874E+03  0.00000000000E+00 0.  1.
         13    1    5    5    0    0 -0.71163770527E+01 -0.20078189001E+02 -0.25450918401E+02  0.33189241379E+02  0.00000000000E+00 0. -1.
        -14    1    5    5    0    0 -0.64196886718E+02 -0.89814743757E+02  0.40847336720E+02  0.11771335259E+03  0.00000000000E+00 0.  1.
          2    1    6    6  502    0 -0.12768164128E+01  0.31046016754E+03  0.92508381796E+02  0.32395207453E+03  0.00000000000E+00 0. -1.
         -1    1    6    6    0  502  0.58979462796E+02  0.32403854131E+03  0.15857267430E+03  0.36554732432E+03  0.00000000000E+00 0.  1.
<mgrwt>
<rscale>  0 0.65010302E+03</rscale>
<asrwt>0</asrwt>
<pdfrwt beam="1">  1        1 0.11542267E+00 0.65010302E+03</pdfrwt>
<pdfrwt beam="2">  1       -2 0.10849014E+00 0.65010302E+03</pdfrwt>
<totfact> 0.15034932E+01</totfact>
</mgrwt>
</event>
<event>
12    3  0.2212098E-007  0.1013166E+04  0.7818608E-02  0.9294222E-01
         -2   -1    0    0    0  501 -0.00000000000E+00  0.00000000000E+00  0.47290231863E+03  0.47290231863E+03  0.00000000000E+00 0.  1.
          1   -1    0    0  501    0  0.00000000000E+00 -0.00000000000E+00 -0.23519489965E+04  0.23519489965E+04  0.00000000000E+00 0. -1.
        -24    2    1    2    0    0 -0.53280111077E+03 -0.77600115430E+03 -0.55827235709E+03  0.10955119703E+04  0.49230449559E+02 0.  0.
    5000000    2    1    2    0    0  0.53280111077E+03  0.77600115430E+03 -0.13207743207E+04  0.17293393448E+04  0.60009578248E+03 0.  0.
        -24    2    4    4    0    0  0.54265535330E+03  0.33346038438E+03 -0.95139277298E+03  0.11476513795E+04  0.79276856964E+02 0.  0.
         24    2    4    4    0    0 -0.98542425291E+01  0.44254076992E+03 -0.36938154775E+03  0.58168796529E+03  0.77322196101E+02 0.  0.
         11    1    3    3    0    0 -0.37998212514E+03 -0.57073490698E+03 -0.38348966444E+03  0.78561381874E+03  0.00000000000E+00 0. -1.
        -12    1    3    3    0    0 -0.15281898563E+03 -0.20526624732E+03 -0.17478269265E+03  0.30989815151E+03  0.00000000000E+00 0.  1.
         11    1    5    5    0    0  0.43969503068E+03  0.26695812426E+03 -0.70796911160E+03  0.87511063477E+03  0.00000000000E+00 0. -1.
        -12    1    5    5    0    0  0.10296032262E+03  0.66502260117E+02 -0.24342366138E+03  0.27254074476E+03  0.00000000000E+00 0.  1.
          2    1    6    6  502    0  0.11398737504E+02  0.40085270101E+03 -0.31495177226E+03  0.50990924484E+03  0.00000000000E+00 0. -1.
         -1    1    6    6    0  502 -0.21252980033E+02  0.41688068910E+02 -0.54429775493E+02  0.71778720453E+02  0.00000000000E+00 0.  1.
<mgrwt>
<rscale>  0 0.10131657E+04</rscale>
<asrwt>0</asrwt>
<pdfrwt beam="1">  1        1 0.36183831E+00 0.10131657E+04</pdfrwt>
<pdfrwt beam="2">  1       -2 0.72754202E-01 0.10131657E+04</pdfrwt>
<totfact> 0.25995606E+00</totfact>
</mgrwt>
</event>
<event>
12    3  0.2212098E-007  0.6079073E+03  0.7818608E-02  0.9889135E-01
         -2   -1    0    0    0  501 -0.00000000000E+00  0.00000000000E+00  0.24572704718E+03  0.24572704718E+03  0.00000000000E+00 0.  1.
          1   -1    0    0  501    0  0.00000000000E+00 -0.00000000000E+00 -0.17345378709E+04  0.17345378709E+04  0.00000000000E+00 0. -1.
        -24    2    1    2    0    0  0.18970673602E+03  0.43264170561E+03 -0.29587540075E+03  0.56385391707E+03  0.84979385140E+02 0.  0.
    5000000    2    1    2    0    0 -0.18970673602E+03 -0.43264170561E+03 -0.11929354230E+04  0.14164110011E+04  0.59996475674E+03 0.  0.
        -24    2    4    4    0    0 -0.23038617264E+03  0.60281446657E+02 -0.52017232372E+03  0.57759474538E+03  0.79528624804E+02 0.  0.
         24    2    4    4    0    0  0.40679436627E+02 -0.49292315227E+03 -0.67276309928E+03  0.83881625568E+03  0.79840293279E+02 0.  0.
         11    1    3    3    0    0  0.15884960600E+03  0.27380832029E+03 -0.17346090029E+03  0.36096104709E+03  0.00000000000E+00 0. -1.
        -12    1    3    3    0    0  0.30857130019E+02  0.15883338532E+03 -0.12241450046E+03  0.20289286997E+03  0.00000000000E+00 0.  1.
         13    1    5    5    0    0 -0.14163853501E+03  0.30836360598E+02 -0.22225433741E+03  0.26534759512E+03  0.00000000000E+00 0. -1.
        -14    1    5    5    0    0 -0.88747637629E+02  0.29445086059E+02 -0.29791798631E+03  0.31224715026E+03  0.00000000000E+00 0.  1.
          4    1    6    6  502    0 -0.18389539429E+02 -0.13206133375E+03 -0.21419786013E+03  0.25230753916E+03  0.00000000000E+00 0. -1.
         -1    1    6    6    0  502  0.59068976055E+02 -0.36086181852E+03 -0.45856523915E+03  0.58650871652E+03  0.00000000000E+00 0.  1.
<mgrwt>
<rscale>  0 0.60790728E+03</rscale>
<asrwt>0</asrwt>
<pdfrwt beam="1">  1        1 0.26685198E+00 0.60790728E+03</pdfrwt>
<pdfrwt beam="2">  1       -2 0.37804161E-01 0.60790728E+03</pdfrwt>
<totfact> 0.27534498E+01</totfact>
</mgrwt>
</event>
<event>
12    3  0.2212098E-007  0.6372488E+03  0.7818608E-02  0.9831005E-01
          1   -1    0    0  501    0  0.00000000000E+00  0.00000000000E+00  0.32226819012E+04  0.32226819012E+04  0.00000000000E+00 0. -1.
         -2   -1    0    0    0  501 -0.00000000000E+00 -0.00000000000E+00 -0.18097189408E+03  0.18097189408E+03  0.00000000000E+00 0.  1.
        -24    2    1    2    0    0 -0.59506178278E+03 -0.18919821368E+03  0.95156556010E+03  0.11412055853E+04  0.83538514720E+02 0.  0.
    5000000    2    1    2    0    0  0.59506178278E+03  0.18919821368E+03  0.20901444470E+04  0.22624482099E+04  0.60006133345E+03 0.  0.
        -24    2    4    4    0    0  0.48974195317E+03  0.12190378342E+03  0.20449848523E+04  0.21078596334E+04  0.80009218144E+02 0.  0.
         24    2    4    4    0    0  0.10531982961E+03  0.67294430252E+02  0.45159594704E+02  0.15458857651E+03  0.78977415381E+02 0.  0.
         11    1    5    5    0    0  0.34456032457E+03  0.93185415872E+02  0.15832595847E+04  0.16229960725E+04  0.00000000000E+00 0. -1.
        -12    1    5    5    0    0  0.14518162860E+03  0.28718367551E+02  0.46172526762E+03  0.48486356089E+03  0.00000000000E+00 0.  1.
         13    1    3    3    0    0 -0.26830601090E+03 -0.12752880372E+03  0.42917592256E+03  0.52196138149E+03  0.00000000000E+00 0. -1.
        -14    1    3    3    0    0 -0.32675577188E+03 -0.61669409956E+02  0.52238963754E+03  0.61924420384E+03  0.00000000000E+00 0.  1.
          4    1    6    6  502    0  0.58375588988E+02  0.72110163756E+02  0.52852059778E+02  0.10677511568E+03  0.00000000000E+00 0. -1.
         -3    1    6    6    0  502  0.46944240624E+02 -0.48157335040E+01 -0.76924650740E+01  0.47813460823E+02  0.00000000000E+00 0.  1.
<mgrwt>
<rscale>  0 0.63724877E+03</rscale>
<asrwt>0</asrwt>
<pdfrwt beam="1">  1        1 0.49579717E+00 0.63724877E+03</pdfrwt>
<pdfrwt beam="2">  1       -2 0.27841832E-01 0.63724877E+03</pdfrwt>
<totfact> 0.46292094E+00</totfact>
</mgrwt>
</event>
<event>
12    3  0.2212098E-007  0.9585631E+03  0.7818608E-02  0.9355197E-01
          1   -1    0    0  501    0  0.00000000000E+00  0.00000000000E+00  0.19572805832E+04  0.19572805832E+04  0.00000000000E+00 0. -1.
         -2   -1    0    0    0  501 -0.00000000000E+00 -0.00000000000E+00 -0.50265999469E+03  0.50265999469E+03  0.00000000000E+00 0.  1.
        -24    2    1    2    0    0  0.88367503421E+03 -0.16689226699E+03  0.66304149984E+03  0.11200055416E+04  0.77806091304E+02 0.  0.
    5000000    2    1    2    0    0 -0.88367503421E+03  0.16689226699E+03  0.79157908864E+03  0.13399350363E+04  0.60007820568E+03 0.  0.
        -24    2    4    4    0    0 -0.49530271260E+03 -0.14231999765E+03  0.18871638848E+03  0.55485648616E+03  0.81682838536E+02 0.  0.
         24    2    4    4    0    0 -0.38837232161E+03  0.30921226464E+03  0.60286270015E+03  0.78507855009E+03  0.80371697625E+02 0.  0.
         13    1    5    5    0    0 -0.25599916412E+03 -0.44767800381E+02  0.12656347572E+03  0.28906407831E+03  0.00000000000E+00 0. -1.
        -14    1    5    5    0    0 -0.23930354849E+03 -0.97552197265E+02  0.62152912760E+02  0.26579240786E+03  0.00000000000E+00 0.  1.
         13    1    3    3    0    0  0.66429819014E+03 -0.12982254098E+03  0.45642280434E+03  0.81637476314E+03  0.00000000000E+00 0. -1.
        -14    1    3    3    0    0  0.21937684408E+03 -0.37069726006E+02  0.20661869550E+03  0.30363077847E+03  0.00000000000E+00 0.  1.
          2    1    6    6  502    0 -0.18847046439E+03  0.18513145057E+03  0.36432717403E+03  0.45003228736E+03  0.00000000000E+00 0. -1.
         -1    1    6    6    0  502 -0.19990185723E+03  0.12408081407E+03  0.23853552612E+03  0.33504626272E+03  0.00000000000E+00 0.  1.
<mgrwt>
<rscale>  0 0.95856312E+03</rscale>
<asrwt>0</asrwt>
<pdfrwt beam="1">  1        1 0.30112009E+00 0.95856312E+03</pdfrwt>
<pdfrwt beam="2">  1       -2 0.77332308E-01 0.95856312E+03</pdfrwt>
<totfact> 0.42224468E+00</totfact>
</mgrwt>
</event>
<event>
12    3  0.2212098E-007  0.6062628E+03  0.7818608E-02  0.9892497E-01
          1   -1    0    0  501    0  0.00000000000E+00  0.00000000000E+00  0.11595810949E+04  0.11595810949E+04  0.00000000000E+00 0. -1.
         -2   -1    0    0    0  501 -0.00000000000E+00 -0.00000000000E+00 -0.40994783391E+03  0.40994783391E+03  0.00000000000E+00 0.  1.
        -24    2    1    2    0    0  0.46166630389E+02 -0.47419442935E+03  0.62943924841E+03  0.79354552912E+03  0.80802380821E+02 0.  0.
    5000000    2    1    2    0    0 -0.46166630389E+02  0.47419442935E+03  0.12019401253E+03  0.77598339966E+03  0.60059297474E+03 0.  0.
        -24    2    4    4    0    0 -0.29502030777E+03  0.28835194189E+03 -0.33448468411E+02  0.42044349056E+03  0.73960153637E+02 0.  0.
         24    2    4    4    0    0  0.24885367738E+03  0.18584248746E+03  0.15364248094E+03  0.35553990910E+03  0.79605477958E+02 0.  0.
         11    1    3    3    0    0 -0.12404042459E+02 -0.11801844043E+03  0.19999546626E+03  0.23255192770E+03  0.00000000000E+00 0. -1.
        -12    1    3    3    0    0  0.58570672848E+02 -0.35617598893E+03  0.42944378215E+03  0.56099360142E+03  0.00000000000E+00 0.  1.
         13    1    5    5    0    0 -0.13237762696E+03  0.95893019774E+02  0.13917994648E+02  0.16405187575E+03  0.00000000000E+00 0. -1.
        -14    1    5    5    0    0 -0.16264268081E+03  0.19245892212E+03 -0.47366463059E+02  0.25639161481E+03  0.00000000000E+00 0.  1.
          4    1    6    6  502    0  0.81974548875E+02  0.10152447531E+03  0.87966685919E+02  0.15736957642E+03  0.00000000000E+00 0. -1.
         -1    1    6    6    0  502  0.16687912850E+03  0.84318012155E+02  0.65675795024E+02  0.19817033268E+03  0.00000000000E+00 0.  1.
<mgrwt>
<rscale>  0 0.60626282E+03</rscale>
<asrwt>0</asrwt>
<pdfrwt beam="1">  1        1 0.17839709E+00 0.60626282E+03</pdfrwt>
<pdfrwt beam="2">  1       -2 0.63068898E-01 0.60626282E+03</pdfrwt>
<totfact> 0.24379818E+01</totfact>
</mgrwt>
</event>
<event>
12    3  0.2212098E-007  0.6360173E+03  0.7818608E-02  0.9833376E-01
          1   -1    0    0  501    0  0.00000000000E+00  0.00000000000E+00  0.20835936445E+04  0.20835936445E+04  0.00000000000E+00 0. -1.
         -2   -1    0    0    0  501 -0.00000000000E+00 -0.00000000000E+00 -0.25159770140E+03  0.25159770140E+03  0.00000000000E+00 0.  1.
        -24    2    1    2    0    0  0.43028815367E+03 -0.25713021809E+03  0.23995760221E+03  0.56151933691E+03  0.80377052849E+02 0.  0.
    5000000    2    1    2    0    0 -0.43028815367E+03  0.25713021809E+03  0.15920383409E+04  0.17736720090E+04  0.60005205807E+03 0.  0.
        -24    2    4    4    0    0 -0.55093772070E+03  0.94153058977E+02  0.11566358114E+04  0.12871598033E+04  0.81097400849E+02 0.  0.
         24    2    4    4    0    0  0.12064956703E+03  0.16297715912E+03  0.43540252952E+03  0.48651220572E+03  0.77465419274E+02 0.  0.
         11    1    3    3    0    0  0.17171087181E+03 -0.13663577049E+03  0.13448701683E+03  0.25737271606E+03  0.00000000000E+00 0. -1.
        -12    1    3    3    0    0  0.25857728186E+03 -0.12049444760E+03  0.10547058538E+03  0.30414662086E+03  0.00000000000E+00 0.  1.
         13    1    5    5    0    0 -0.82701762287E+02  0.42197065633E+02  0.16575499468E+03  0.18998655767E+03  0.00000000000E+00 0. -1.
        -14    1    5    5    0    0 -0.46823595841E+03  0.51955993345E+02  0.99088081670E+03  0.10971732456E+04  0.00000000000E+00 0.  1.
          2    1    6    6  502    0  0.95214769422E+02  0.11724974862E+03  0.23470151813E+03  0.27910241575E+03  0.00000000000E+00 0. -1.
         -1    1    6    6    0  502  0.25434797609E+02  0.45727410494E+02  0.20070101139E+03  0.20740978997E+03  0.00000000000E+00 0.  1.
<mgrwt>
<rscale>  0 0.63601727E+03</rscale>
<asrwt>0</asrwt>
<pdfrwt beam="1">  1        1 0.32055286E+00 0.63601727E+03</pdfrwt>
<pdfrwt beam="2">  1       -2 0.38707340E-01 0.63601727E+03</pdfrwt>
<totfact> 0.15337338E+01</totfact>
</mgrwt>
</event>
<event>
12    3  0.2212098E-007  0.5265332E+03  0.7818608E-02  0.1007076E+00
          1   -1    0    0  501    0  0.00000000000E+00  0.00000000000E+00  0.83819754088E+03  0.83819754088E+03  0.00000000000E+00 0. -1.
         -2   -1    0    0    0  501 -0.00000000000E+00 -0.00000000000E+00 -0.33209820430E+03  0.33209820430E+03  0.00000000000E+00 0.  1.
        -24    2    1    2    0    0  0.16911776398E+03 -0.30913851805E+03  0.16334434086E+03  0.39469547639E+03  0.70254565371E+02 0.  0.
    5000000    2    1    2    0    0 -0.16911776398E+03  0.30913851805E+03  0.34275499572E+03  0.77560026879E+03  0.59992278538E+03 0.  0.
        -24    2    4    4    0    0  0.85207818106E+02  0.39802796718E+03  0.21580074505E+03  0.46724009035E+03  0.77824838842E+02 0.  0.
         24    2    4    4    0    0 -0.25432558208E+03 -0.88889449128E+02  0.12695425067E+03  0.30836017844E+03  0.79911088179E+02 0.  0.
         13    1    3    3    0    0  0.59463984528E+02 -0.49166483079E+02  0.35238399625E+02  0.84823660157E+02  0.00000000000E+00 0. -1.
        -14    1    3    3    0    0  0.10965377945E+03 -0.25997203497E+03  0.12810594124E+03  0.30987181624E+03  0.00000000000E+00 0.  1.
         13    1    5    5    0    0  0.98779039319E+02  0.32857169860E+03  0.16963367858E+03  0.38274305302E+03  0.00000000000E+00 0. -1.
        -14    1    5    5    0    0 -0.13571221213E+02  0.69456268586E+02  0.46167066465E+02  0.84497037327E+02  0.00000000000E+00 0.  1.
          2    1    6    6  502    0 -0.11615447272E+03 -0.10475567240E+01  0.39193985543E+02  0.12259334163E+03  0.00000000000E+00 0. -1.
         -1    1    6    6    0  502 -0.13817110936E+03 -0.87841892404E+02  0.87760265128E+02  0.18576683681E+03  0.00000000000E+00 0.  1.
<mgrwt>
<rscale>  0 0.52653321E+03</rscale>
<asrwt>0</asrwt>
<pdfrwt beam="1">  1        1 0.12895347E+00 0.52653321E+03</pdfrwt>
<pdfrwt beam="2">  1       -2 0.51092032E-01 0.52653321E+03</pdfrwt>
<totfact> 0.67607627E+01</totfact>
</mgrwt>
</event>
<event>
12    3  0.2212098E-007  0.4462706E+03  0.7818608E-02  0.1028840E+00
         -2   -1    0    0    0  501 -0.00000000000E+00  0.00000000000E+00  0.10686996735E+03  0.10686996735E+03  0.00000000000E+00 0.  1.
          1   -1    0    0  501    0  0.00000000000E+00 -0.00000000000E+00 -0.21748927698E+04  0.21748927698E+04  0.00000000000E+00 0. -1.
        -24    2    1    2    0    0  0.17447071289E+03  0.19484812191E+03 -0.92849403433E+03  0.96763181182E+03  0.76186161407E+02 0.  0.
    5000000    2    1    2    0    0 -0.17447071289E+03 -0.19484812191E+03 -0.11395287681E+04  0.13141309253E+04  0.60000704602E+03 0.  0.
        -24    2    4    4    0    0  0.14666622822E+03 -0.24632554353E+03 -0.36350022723E+03  0.47019373783E+03  0.82234299463E+02 0.  0.
         24    2    4    4    0    0 -0.32113694110E+03  0.51477421616E+02 -0.77602854088E+03  0.84393718749E+03  0.65044756052E+02 0.  0.
         11    1    5    5    0    0  0.11459986239E+03 -0.11236658233E+03 -0.19678414991E+03  0.25393577719E+03  0.00000000000E+00 0. -1.
        -12    1    5    5    0    0  0.32066365827E+02 -0.13395896120E+03 -0.16671607732E+03  0.21625796064E+03  0.00000000000E+00 0.  1.
         13    1    3    3    0    0  0.58941763823E+02  0.25876647563E+02 -0.29292301533E+03  0.29991269617E+03  0.00000000000E+00 0. -1.
        -14    1    3    3    0    0  0.11552894906E+03  0.16897147435E+03 -0.63557101900E+03  0.66771911565E+03  0.00000000000E+00 0.  1.
          4    1    6    6  502    0 -0.21555019766E+03  0.34120165742E+02 -0.43765912605E+03  0.48905171918E+03  0.00000000000E+00 0. -1.
         -3    1    6    6    0  502 -0.10558674344E+03  0.17357255874E+02 -0.33836941483E+03  0.35488546831E+03  0.00000000000E+00 0.  1.
<mgrwt>
<rscale>  0 0.44627059E+03</rscale>
<asrwt>0</asrwt>
<pdfrwt beam="1">  1        1 0.33459892E+00 0.44627059E+03</pdfrwt>
<pdfrwt beam="2">  1       -2 0.16441532E-01 0.44627059E+03</pdfrwt>
<totfact> 0.64551548E+01</totfact>
</mgrwt>
</event>
<event>
12    3  0.2212098E-007  0.6341711E+03  0.7818608E-02  0.9836943E-01
         -2   -1    0    0    0  501 -0.00000000000E+00  0.00000000000E+00  0.15100939448E+04  0.15100939448E+04  0.00000000000E+00 0.  1.
          1   -1    0    0  501    0  0.00000000000E+00 -0.00000000000E+00 -0.36938596473E+03  0.36938596473E+03  0.00000000000E+00 0. -1.
        -24    2    1    2    0    0 -0.45858801556E+03  0.25416593828E+03  0.90423171340E+03  0.10483024934E+04  0.79998961940E+02 0.  0.
    5000000    2    1    2    0    0  0.45858801556E+03 -0.25416593828E+03  0.23647626665E+03  0.83117741613E+03  0.60002631626E+03 0.  0.
        -24    2    4    4    0    0  0.54082583846E+03 -0.91301992683E+02  0.40131477121E+02  0.55584021229E+03  0.80741344590E+02 0.  0.
         24    2    4    4    0    0 -0.82237822899E+02 -0.16286394560E+03  0.19634478953E+03  0.27533720385E+03  0.63020434420E+02 0.  0.
         11    1    3    3    0    0 -0.11624652267E+03  0.10324496487E+03  0.24023906983E+03  0.28616007317E+03  0.00000000000E+00 0. -1.
        -12    1    3    3    0    0 -0.34234149289E+03  0.15092097342E+03  0.66399264358E+03  0.76214242022E+03  0.00000000000E+00 0.  1.
         13    1    5    5    0    0  0.29826812867E+03 -0.87358638684E+02  0.59567123541E+01  0.31085509607E+03  0.00000000000E+00 0. -1.
        -14    1    5    5    0    0  0.24255770979E+03 -0.39433539986E+01  0.34174764767E+02  0.24498511621E+03  0.00000000000E+00 0.  1.
          4    1    6    6  502    0 -0.14914628573E+02 -0.64147391798E+02  0.35048320268E+02  0.74603745037E+02  0.00000000000E+00 0. -1.
         -3    1    6    6    0  502 -0.67323194326E+02 -0.98716553803E+02  0.16129646927E+03  0.20073345881E+03  0.00000000000E+00 0.  1.
<mgrwt>
<rscale>  0 0.63417113E+03</rscale>
<asrwt>0</asrwt>
<pdfrwt beam="1">  1        1 0.56828611E-01 0.63417113E+03</pdfrwt>
<pdfrwt beam="2">  1       -2 0.23232214E+00 0.63417113E+03</pdfrwt>
<totfact> 0.50389327E+00</totfact>
</mgrwt>
</event>
<event>
12    3  0.2212098E-007  0.5134525E+03  0.7818608E-02  0.1010326E+00
          3   -1    0    0  501    0  0.00000000000E+00  0.00000000000E+00  0.27750322336E+04  0.27750322336E+04  0.00000000000E+00 0. -1.
         -4   -1    0    0    0  501 -0.00000000000E+00 -0.00000000000E+00 -0.19326112642E+03  0.19326112642E+03  0.00000000000E+00 0.  1.
        -24    2    1    2    0    0 -0.32290548806E+03  0.30646409754E+03  0.19129474352E+04  0.19656329522E+04  0.78465379526E+02 0.  0.
    5000000    2    1    2    0    0  0.32290548806E+03 -0.30646409754E+03  0.66882367199E+03  0.10026604078E+04  0.59984547329E+03 0.  0.
        -24    2    4    4    0    0  0.26168485303E+03 -0.12485389378E+02  0.92766508422E+01  0.27401639243E+03  0.79775182964E+02 0.  0.
         24    2    4    4    0    0  0.61220635036E+02 -0.29397870817E+03  0.65954702115E+03  0.72864401536E+03  0.75818078359E+02 0.  0.
         11    1    3    3    0    0 -0.67289562409E+02  0.10249634926E+03  0.43580111420E+03  0.45272066217E+03  0.00000000000E+00 0. -1.
        -12    1    3    3    0    0 -0.25561592565E+03  0.20396774829E+03  0.14771463210E+04  0.15129122900E+04  0.00000000000E+00 0.  1.
         13    1    5    5    0    0  0.13036353442E+03 -0.45942220602E+02  0.87567292965E+01  0.13849916623E+03  0.00000000000E+00 0. -1.
        -14    1    5    5    0    0  0.13132131861E+03  0.33456831224E+02  0.51992154563E+00  0.13551722619E+03  0.00000000000E+00 0.  1.
          2    1    6    6  502    0  0.60355626261E+02 -0.18587550102E+03  0.35145642024E+03  0.40213694039E+03  0.00000000000E+00 0. -1.
         -1    1    6    6    0  502  0.86500877533E+00 -0.10810320714E+03  0.30809060091E+03  0.32650707497E+03  0.00000000000E+00 0.  1.
<mgrwt>
<rscale>  0 0.51345255E+03</rscale>
<asrwt>0</asrwt>
<pdfrwt beam="1">  1        3 0.42692801E+00 0.51345255E+03</pdfrwt>
<pdfrwt beam="2">  1       -4 0.29732483E-01 0.51345255E+03</pdfrwt>
<totfact> 0.21345538E-01</totfact>
</mgrwt>
</event>
<event>
12    3  0.2212098E-007  0.6430557E+03  0.7818608E-02  0.9819898E-01
         -2   -1    0    0    0  501 -0.00000000000E+00  0.00000000000E+00  0.40774411054E+03  0.40774411054E+03  0.00000000000E+00 0.  1.
          1   -1    0    0  501    0  0.00000000000E+00 -0.00000000000E+00 -0.13915411910E+04  0.13915411910E+04  0.00000000000E+00 0. -1.
        -24    2    1    2    0    0 -0.33688371083E+02 -0.59059565920E+03 -0.15395455150E+03  0.61659224177E+03  0.80906425375E+02 0.  0.
    5000000    2    1    2    0    0  0.33688371083E+02  0.59059565920E+03 -0.82984252900E+03  0.11826930598E+04  0.60015507310E+03 0.  0.
        -24    2    4    4    0    0 -0.52450667552E+02  0.32940097835E+01 -0.47917616312E+03  0.48928673200E+03  0.83843829716E+02 0.  0.
         24    2    4    4    0    0  0.86139038635E+02  0.58730164942E+03 -0.35066636589E+03  0.69340632781E+03  0.74177313959E+02 0.  0.
         11    1    3    3    0    0  0.43509092051E+01 -0.45918031219E+03 -0.10307263594E+03  0.47062666499E+03  0.00000000000E+00 0. -1.
        -12    1    3    3    0    0 -0.38039280288E+02 -0.13141534701E+03 -0.50881915559E+02  0.14596557678E+03  0.00000000000E+00 0.  1.
         13    1    5    5    0    0 -0.52858114585E+02  0.35658267161E+02 -0.36847201410E+03  0.37394801439E+03  0.00000000000E+00 0. -1.
        -14    1    5    5    0    0  0.40744703283E+00 -0.32364257377E+02 -0.11070414902E+03  0.11533871761E+03  0.00000000000E+00 0.  1.
          4    1    6    6  502    0  0.64823240232E+02  0.37075893240E+03 -0.26122493573E+03  0.45815140017E+03  0.00000000000E+00 0. -1.
         -3    1    6    6    0  502  0.21315798403E+02  0.21654271701E+03 -0.89441430159E+02  0.23525492765E+03  0.00000000000E+00 0.  1.
<mgrwt>
<rscale>  0 0.64305570E+03</rscale>
<asrwt>0</asrwt>
<pdfrwt beam="1">  1        1 0.21408327E+00 0.64305570E+03</pdfrwt>
<pdfrwt beam="2">  1       -2 0.62729862E-01 0.64305570E+03</pdfrwt>
<totfact> 0.16810188E+01</totfact>
</mgrwt>
</event>
<event>
12    3  0.2212098E-007  0.4750580E+03  0.7818608E-02  0.1020502E+00
         -4   -1    0    0    0  501 -0.00000000000E+00  0.00000000000E+00  0.12741221107E+04  0.12741221107E+04  0.00000000000E+00 0.  1.
          3   -1    0    0  501    0  0.00000000000E+00 -0.00000000000E+00 -0.35484709650E+03  0.35484709650E+03  0.00000000000E+00 0. -1.
        -24    2    1    2    0    0 -0.28478016409E+03 -0.11097301279E+03  0.90158719354E+03  0.95526570809E+03  0.79109759631E+02 0.  0.
    5000000    2    1    2    0    0  0.28478016409E+03  0.11097301279E+03  0.17687820673E+02  0.67370349912E+03  0.60012398244E+03 0.  0.
        -24    2    4    4    0    0  0.23999487631E+03  0.33562067620E+03 -0.44883553331E+02  0.42287691073E+03  0.81065216456E+02 0.  0.
         24    2    4    4    0    0  0.44785287780E+02 -0.22464766341E+03  0.62571374005E+02  0.25082658839E+03  0.80786792980E+02 0.  0.
         11    1    5    5    0    0  0.13397085464E+03  0.21913428084E+03  0.72976078177E+01  0.25694606051E+03  0.00000000000E+00 0. -1.
        -12    1    5    5    0    0  0.10602402167E+03  0.11648639537E+03 -0.52181161149E+02  0.16593085022E+03  0.00000000000E+00 0.  1.
         13    1    3    3    0    0 -0.97750938383E+02 -0.29845630013E+02  0.42094614465E+03  0.43317625083E+03  0.00000000000E+00 0. -1.
        -14    1    3    3    0    0 -0.18702922571E+03 -0.81127382779E+02  0.48064104888E+03  0.52208945725E+03  0.00000000000E+00 0.  1.
          4    1    6    6  502    0  0.35827181268E+01 -0.54722012514E+02 -0.18797014941E+02  0.57971219527E+02  0.00000000000E+00 0. -1.
         -3    1    6    6    0  502  0.41202569653E+02 -0.16992565090E+03  0.81368388946E+02  0.19285536886E+03  0.00000000000E+00 0.  1.
<mgrwt>
<rscale>  0 0.47505796E+03</rscale>
<asrwt>0</asrwt>
<pdfrwt beam="1">  1        3 0.54591862E-01 0.47505796E+03</pdfrwt>
<pdfrwt beam="2">  1       -4 0.19601878E+00 0.47505796E+03</pdfrwt>
<totfact> 0.10629348E+00</totfact>
</mgrwt>
</event>
<event>
12    3  0.2212098E-007  0.8803496E+03  0.7818608E-02  0.9450484E-01
         -2   -1    0    0    0  501 -0.00000000000E+00  0.00000000000E+00  0.66332815862E+03  0.66332815862E+03  0.00000000000E+00 0.  1.
          1   -1    0    0  501    0  0.00000000000E+00 -0.00000000000E+00 -0.21729354511E+04  0.21729354511E+04  0.00000000000E+00 0. -1.
        -24    2    1    2    0    0  0.77218042582E+03 -0.38275342340E+03  0.14396424226E+03  0.87746032593E+03  0.80300232838E+02 0.  0.
    5000000    2    1    2    0    0 -0.77218042582E+03  0.38275342340E+03 -0.16535715347E+04  0.19588032838E+04  0.59987389587E+03 0.  0.
        -24    2    4    4    0    0 -0.72967520265E+03  0.30584976294E+03 -0.16594552816E+04  0.18401689186E+04  0.80373120732E+02 0.  0.
         24    2    4    4    0    0 -0.42505223173E+02  0.76903660461E+02  0.58837469230E+01  0.11863436513E+03  0.79489792567E+02 0.  0.
         11    1    3    3    0    0  0.13268990905E+03 -0.76826105435E+02  0.55499528247E+02  0.16306152236E+03  0.00000000000E+00 0. -1.
        -12    1    3    3    0    0  0.63949051677E+03 -0.30592731796E+03  0.88464714013E+02  0.71439880357E+03  0.00000000000E+00 0.  1.
         11    1    5    5    0    0 -0.58000540618E+03  0.26317788434E+03 -0.13904699806E+04  0.15294036867E+04  0.00000000000E+00 0. -1.
        -12    1    5    5    0    0 -0.14966979646E+03  0.42671878593E+02 -0.26898530103E+03  0.31076523191E+03  0.00000000000E+00 0.  1.
          2    1    6    6  502    0 -0.10875764396E+02  0.73278306010E+02 -0.20962351526E+02  0.76989691287E+02  0.00000000000E+00 0. -1.
         -1    1    6    6    0  502 -0.31629458777E+02  0.36253544509E+01  0.26846098449E+02  0.41644673842E+02  0.00000000000E+00 0.  1.
<mgrwt>
<rscale>  0 0.88034961E+03</rscale>
<asrwt>0</asrwt>
<pdfrwt beam="1">  1        1 0.33429776E+00 0.88034961E+03</pdfrwt>
<pdfrwt beam="2">  1       -2 0.10205049E+00 0.88034961E+03</pdfrwt>
<totfact> 0.16109391E+00</totfact>
</mgrwt>
</event>
<event>
12    3  0.2212098E-007  0.8896571E+03  0.7818608E-02  0.9438604E-01
          1   -1    0    0  501    0  0.00000000000E+00  0.00000000000E+00  0.73440408190E+03  0.73440408190E+03  0.00000000000E+00 0. -1.
         -2   -1    0    0    0  501 -0.00000000000E+00 -0.00000000000E+00 -0.13436095827E+04  0.13436095827E+04  0.00000000000E+00 0.  1.
        -24    2    1    2    0    0 -0.36397509074E+03 -0.78329184239E+03 -0.49705763013E+01  0.86511268945E+03  0.48695808628E+02 0.  0.
    5000000    2    1    2    0    0  0.36397509074E+03  0.78329184239E+03 -0.60423492445E+03  0.12129009751E+04  0.60000412871E+03 0.  0.
        -24    2    4    4    0    0  0.34825179952E+03  0.45581410921E+03 -0.73376794792E+02  0.58380911603E+03  0.80019447164E+02 0.  0.
         24    2    4    4    0    0  0.15723291218E+02  0.32747773318E+03 -0.53085812966E+03  0.62909185908E+03  0.80357487041E+02 0.  0.
         11    1    3    3    0    0 -0.32580242490E+03 -0.69072051133E+03  0.10599849353E+02  0.76377640815E+03  0.00000000000E+00 0. -1.
        -12    1    3    3    0    0 -0.38172665841E+02 -0.92571331061E+02 -0.15570425654E+02  0.10133628130E+03  0.00000000000E+00 0.  1.
         13    1    5    5    0    0  0.30071800186E+03  0.34429776595E+03 -0.45285275771E+02  0.45937242460E+03  0.00000000000E+00 0. -1.
        -14    1    5    5    0    0  0.47533797663E+02  0.11151634326E+03 -0.28091519022E+02  0.12443669143E+03  0.00000000000E+00 0.  1.
          4    1    6    6  502    0  0.44313661293E+02  0.26128180515E+03 -0.43009209870E+03  0.50518421952E+03  0.00000000000E+00 0. -1.
         -3    1    6    6    0  502 -0.28590370075E+02  0.66195928026E+02 -0.10076603096E+03  0.12390763957E+03  0.00000000000E+00 0.  1.
<mgrwt>
<rscale>  0 0.88965713E+03</rscale>
<asrwt>0</asrwt>
<pdfrwt beam="1">  1        1 0.11298524E+00 0.88965713E+03</pdfrwt>
<pdfrwt beam="2">  1       -2 0.20670917E+00 0.88965713E+03</pdfrwt>
<totfact> 0.26935196E+00</totfact>
</mgrwt>
</event>
<event>
12    3  0.2212098E-007  0.4913918E+03  0.7818608E-02  0.1016051E+00
         -4   -1    0    0    0  501 -0.00000000000E+00  0.00000000000E+00  0.25747802154E+03  0.25747802154E+03  0.00000000000E+00 0.  1.
          3   -1    0    0  501    0  0.00000000000E+00 -0.00000000000E+00 -0.12057936693E+04  0.12057936693E+04  0.00000000000E+00 0. -1.
        -24    2    1    2    0    0 -0.38542010970E+03 -0.50850020529E+02 -0.38471335482E+03  0.55271839435E+03  0.79742539029E+02 0.  0.
    5000000    2    1    2    0    0  0.38542010970E+03  0.50850020529E+02 -0.56360229296E+03  0.91055329651E+03  0.60027108510E+03 0.  0.
        -24    2    4    4    0    0  0.44043164201E+03 -0.47487861135E+02 -0.15121366176E+03  0.47606455760E+03  0.86814533731E+02 0.  0.
         24    2    4    4    0    0 -0.55011532309E+02  0.98337881664E+02 -0.41238863120E+03  0.43448873891E+03  0.77585265578E+02 0.  0.
         11    1    5    5    0    0  0.35443272559E+03 -0.70649518874E+02 -0.13338491199E+03  0.38523427448E+03  0.00000000000E+00 0. -1.
        -12    1    5    5    0    0  0.85998916420E+02  0.23161657738E+02 -0.17828749766E+02  0.90830283126E+02  0.00000000000E+00 0.  1.
         13    1    3    3    0    0 -0.48568760625E+02  0.18385803338E+02 -0.64679052890E+02  0.82947827915E+02  0.00000000000E+00 0. -1.
        -14    1    3    3    0    0 -0.33685134907E+03 -0.69235823867E+02 -0.32003430193E+03  0.46977056644E+03  0.00000000000E+00 0.  1.
          2    1    6    6  502    0 -0.27212120600E+02 -0.65424163107E+01 -0.73171644979E+02  0.78341511012E+02  0.00000000000E+00 0. -1.
         -3    1    6    6    0  502 -0.27799411709E+02  0.10488029797E+03 -0.33921698622E+03  0.35614722790E+03  0.00000000000E+00 0.  1.
<mgrwt>
<rscale>  0 0.49139184E+03</rscale>
<asrwt>0</asrwt>
<pdfrwt beam="1">  1        3 0.18550672E+00 0.49139184E+03</pdfrwt>
<pdfrwt beam="2">  1       -4 0.39612003E-01 0.49139184E+03</pdfrwt>
<totfact> 0.25927605E+00</totfact>
</mgrwt>
</event>
<event>
12    3  0.2212098E-007  0.8473004E+03  0.7818608E-02  0.9493967E-01
          1   -1    0    0  501    0  0.00000000000E+00  0.00000000000E+00  0.93813653747E+03  0.93813653747E+03  0.00000000000E+00 0. -1.
         -2   -1    0    0    0  501 -0.00000000000E+00 -0.00000000000E+00 -0.78782640595E+03  0.78782640595E+03  0.00000000000E+00 0.  1.
        -24    2    1    2    0    0 -0.60421920878E+03  0.44744492444E+03  0.98135088059E+02  0.76255688293E+03  0.81084471506E+02 0.  0.
    5000000    2    1    2    0    0  0.60421920878E+03 -0.44744492444E+03  0.52175043459E+02  0.96340606049E+03  0.60011764643E+03 0.  0.
        -24    2    4    4    0    0  0.40960612100E+03  0.34038279970E+02  0.11502212594E+03  0.43415071969E+03  0.79504585332E+02 0.  0.
         24    2    4    4    0    0  0.19461308778E+03 -0.48148320441E+03 -0.62847082483E+02  0.52925534080E+03  0.80381154001E+02 0.  0.
         11    1    5    5    0    0  0.49001870352E+02 -0.18625761639E+02  0.14806611184E+01  0.52443251730E+02  0.00000000000E+00 0. -1.
        -12    1    5    5    0    0  0.36060425064E+03  0.52664041609E+02  0.11354146482E+03  0.38170746796E+03  0.00000000000E+00 0.  1.
         11    1    3    3    0    0 -0.51692805601E+03  0.36217335620E+03  0.10710226514E+03  0.64019922698E+03  0.00000000000E+00 0. -1.
        -12    1    3    3    0    0 -0.87291152775E+02  0.85271568248E+02 -0.89671770853E+01  0.12235765595E+03  0.00000000000E+00 0.  1.
          2    1    6    6  502    0  0.16152885446E+03 -0.30648882260E+03 -0.56674231659E+02  0.35105403820E+03  0.00000000000E+00 0. -1.
         -1    1    6    6    0  502  0.33084233325E+02 -0.17499438182E+03 -0.61728508241E+01  0.17820130260E+03  0.00000000000E+00 0.  1.
<mgrwt>
<rscale>  0 0.84730040E+03</rscale>
<asrwt>0</asrwt>
<pdfrwt beam="1">  1        1 0.14432870E+00 0.84730040E+03</pdfrwt>
<pdfrwt beam="2">  1       -2 0.12120406E+00 0.84730040E+03</pdfrwt>
<totfact> 0.77866102E+00</totfact>
</mgrwt>
</event>
<event>
12    3  0.2212098E-007  0.1139355E+04  0.7818608E-02  0.9167660E-01
         -4   -1    0    0    0  501 -0.00000000000E+00  0.00000000000E+00  0.16136241745E+04  0.16136241745E+04  0.00000000000E+00 0.  1.
          3   -1    0    0  501    0  0.00000000000E+00 -0.00000000000E+00 -0.89458767376E+03  0.89458767376E+03  0.00000000000E+00 0. -1.
        -24    2    1    2    0    0  0.97495010379E+03 -0.56016578836E+03  0.37701495694E+03  0.11885997813E+04  0.79471674789E+02 0.  0.
    5000000    2    1    2    0    0 -0.97495010379E+03  0.56016578836E+03  0.34202154381E+03  0.13196120669E+04  0.60006987546E+03 0.  0.
        -24    2    4    4    0    0 -0.81671272997E+03  0.36114002865E+03  0.48253558978E+03  0.10183088972E+04  0.81673809810E+02 0.  0.
         24    2    4    4    0    0 -0.15823737382E+03  0.19902575971E+03 -0.14051404597E+03  0.30130316969E+03  0.79931742435E+02 0.  0.
         11    1    3    3    0    0  0.81972005422E+03 -0.48755792263E+03  0.29304816180E+03  0.99776295799E+03  0.00000000000E+00 0. -1.
        -12    1    3    3    0    0  0.15523004957E+03 -0.72607865731E+02  0.83966795141E+02  0.19083682334E+03  0.00000000000E+00 0.  1.
         13    1    5    5    0    0 -0.12397194847E+03  0.32703817352E+02  0.92832018968E+02  0.15829203208E+03  0.00000000000E+00 0. -1.
        -14    1    5    5    0    0 -0.69274078151E+03  0.32843621130E+03  0.38970357081E+03  0.86001686516E+03  0.00000000000E+00 0.  1.
          4    1    6    6  502    0 -0.37156282023E+02  0.18934427652E+02 -0.52687187214E+02  0.67194058821E+02  0.00000000000E+00 0. -1.
         -3    1    6    6    0  502 -0.12108109179E+03  0.18009133206E+03 -0.87826858759E+02  0.23410911087E+03  0.00000000000E+00 0.  1.
<mgrwt>
<rscale>  0 0.11393553E+04</rscale>
<asrwt>0</asrwt>
<pdfrwt beam="1">  1        3 0.13762887E+00 0.11393553E+04</pdfrwt>
<pdfrwt beam="2">  1       -4 0.24824987E+00 0.11393553E+04</pdfrwt>
<totfact> 0.57193299E-02</totfact>
</mgrwt>
</event>
<event>
12    3  0.2212098E-007  0.5551302E+03  0.7818608E-02  0.1000313E+00
          1   -1    0    0  501    0  0.00000000000E+00  0.00000000000E+00  0.96127907633E+03  0.96127907633E+03  0.00000000000E+00 0. -1.
         -2   -1    0    0    0  501 -0.00000000000E+00 -0.00000000000E+00 -0.51323706775E+03  0.51323706775E+03  0.00000000000E+00 0.  1.
        -24    2    1    2    0    0  0.14745409186E+03  0.42935495170E+03 -0.17930265407E+03  0.49462361445E+03  0.80091787726E+02 0.  0.
    5000000    2    1    2    0    0 -0.14745409186E+03 -0.42935495170E+03  0.62734466264E+03  0.97989252963E+03  0.60044954835E+03 0.  0.
        -24    2    4    4    0    0 -0.28520128656E+03 -0.15563021229E+03  0.75333324181E+02  0.34306430539E+03  0.80358391374E+02 0.  0.
         24    2    4    4    0    0  0.13774719470E+03 -0.27372473941E+03  0.55201133846E+03  0.63682822424E+03  0.83271524462E+02 0.  0.
         11    1    3    3    0    0  0.49930206210E+02  0.24129046275E+03 -0.69526091253E+02  0.25602341743E+03  0.00000000000E+00 0. -1.
        -12    1    3    3    0    0  0.97523885649E+02  0.18806448895E+03 -0.10977656281E+03  0.23860019702E+03  0.00000000000E+00 0.  1.
         13    1    5    5    0    0 -0.15600479972E+03 -0.39516741051E+02  0.33202529486E+02  0.16432126559E+03  0.00000000000E+00 0. -1.
        -14    1    5    5    0    0 -0.12919648684E+03 -0.11611347124E+03  0.42130794695E+02  0.17874303980E+03  0.00000000000E+00 0.  1.
          4    1    6    6  502    0  0.11483665874E+03 -0.13710133918E+03  0.30066716029E+03  0.34983564238E+03  0.00000000000E+00 0. -1.
         -3    1    6    6    0  502  0.22910535962E+02 -0.13662340022E+03  0.25134417817E+03  0.28699258187E+03  0.00000000000E+00 0.  1.
<mgrwt>
<rscale>  0 0.55513025E+03</rscale>
<asrwt>0</asrwt>
<pdfrwt beam="1">  1        1 0.14788909E+00 0.55513025E+03</pdfrwt>
<pdfrwt beam="2">  1       -2 0.78959549E-01 0.55513025E+03</pdfrwt>
<totfact> 0.21212604E+01</totfact>
</mgrwt>
</event>
<event>
12    3  0.2212098E-007  0.3707007E+03  0.7818608E-02  0.1054425E+00
         -2   -1    0    0    0  501 -0.00000000000E+00  0.00000000000E+00  0.47086464203E+03  0.47086464203E+03  0.00000000000E+00 0.  1.
          1   -1    0    0  501    0  0.00000000000E+00 -0.00000000000E+00 -0.45677040392E+03  0.45677040392E+03  0.00000000000E+00 0. -1.
        -24    2    1    2    0    0 -0.20194806119E+03 -0.26003662841E+01 -0.16144630991E+03  0.27041439686E+03  0.79178619084E+02 0.  0.
    5000000    2    1    2    0    0  0.20194806119E+03  0.26003662841E+01  0.17554054802E+03  0.65722064909E+03  0.60027886542E+03 0.  0.
        -24    2    4    4    0    0  0.15208302309E+03  0.23623476203E+03  0.25790888368E+03  0.39099824887E+03  0.86177315055E+02 0.  0.
         24    2    4    4    0    0  0.49865038101E+02 -0.23363439575E+03 -0.82368335661E+02  0.26622240022E+03  0.83775120165E+02 0.  0.
         11    1    3    3    0    0 -0.63537477810E+02  0.35349122217E+02 -0.44176388995E+02  0.85077170102E+02  0.00000000000E+00 0. -1.
        -12    1    3    3    0    0 -0.13841058338E+03 -0.37949488501E+02 -0.11726992092E+03  0.18533722676E+03  0.00000000000E+00 0.  1.
         13    1    5    5    0    0  0.95174939284E+02  0.10624884882E+03  0.17815328217E+03  0.22822287110E+03  0.00000000000E+00 0. -1.
        -14    1    5    5    0    0  0.56908083807E+02  0.12998591321E+03  0.79755601514E+02  0.16277537777E+03  0.00000000000E+00 0.  1.
          4    1    6    6  502    0  0.41219945725E+01 -0.85443955089E+02  0.93320357305E+01  0.86050840736E+02  0.00000000000E+00 0. -1.
         -3    1    6    6    0  502  0.45743043529E+02 -0.14819044066E+03 -0.91700371391E+02  0.18017155948E+03  0.00000000000E+00 0.  1.
<mgrwt>
<rscale>  0 0.37070066E+03</rscale>
<asrwt>0</asrwt>
<pdfrwt beam="1">  1        1 0.70272370E-01 0.37070066E+03</pdfrwt>
<pdfrwt beam="2">  1       -2 0.72440714E-01 0.37070066E+03</pdfrwt>
<totfact> 0.79203721E+01</totfact>
</mgrwt>
</event>
<event>
12    3  0.2212098E-007  0.9250426E+03  0.7818608E-02  0.9394807E-01
          1   -1    0    0  501    0  0.00000000000E+00  0.00000000000E+00  0.27055833397E+04  0.27055833397E+04  0.00000000000E+00 0. -1.
         -2   -1    0    0    0  501 -0.00000000000E+00 -0.00000000000E+00 -0.37007998169E+03  0.37007998169E+03  0.00000000000E+00 0.  1.
        -24    2    1    2    0    0  0.87106484319E+03  0.25967999728E+03  0.10577644517E+04  0.13969778719E+04  0.80584596451E+02 0.  0.
    5000000    2    1    2    0    0 -0.87106484319E+03 -0.25967999728E+03  0.12777389063E+04  0.16786854495E+04  0.59931666398E+03 0.  0.
        -24    2    4    4    0    0 -0.40698210484E+03 -0.22109364781E+03  0.21790582708E+03  0.51773049746E+03  0.77750136736E+02 0.  0.
         24    2    4    4    0    0 -0.46408273835E+03 -0.38586349465E+02  0.10598330792E+04  0.11609549521E+04  0.87798351344E+02 0.  0.
         11    1    5    5    0    0 -0.37245793367E+03 -0.22278813267E+03  0.21059556873E+03  0.48240020521E+03  0.00000000000E+00 0. -1.
        -12    1    5    5    0    0 -0.34524171168E+02  0.16944848576E+01  0.73102583560E+01  0.35330292257E+02  0.00000000000E+00 0.  1.
         13    1    3    3    0    0  0.33201929252E+03  0.12161999054E+03  0.46176344244E+03  0.58159583000E+03  0.00000000000E+00 0. -1.
        -14    1    3    3    0    0  0.53904555067E+03  0.13806000674E+03  0.59600100926E+03  0.81538204186E+03  0.00000000000E+00 0.  1.
          4    1    6    6  502    0 -0.41254122638E+03 -0.57595579059E+02  0.97001559795E+03  0.10556693490E+04  0.00000000000E+00 0. -1.
         -3    1    6    6    0  502 -0.51541511970E+02  0.19009229594E+02  0.89817481288E+02  0.10528560306E+03  0.00000000000E+00 0.  1.
<mgrwt>
<rscale>  0 0.92504263E+03</rscale>
<asrwt>0</asrwt>
<pdfrwt beam="1">  1        1 0.41624358E+00 0.92504263E+03</pdfrwt>
<pdfrwt beam="2">  1       -2 0.56935384E-01 0.92504263E+03</pdfrwt>
<totfact> 0.25462612E+00</totfact>
</mgrwt>
</event>
<event>
12    3  0.2212098E-007  0.3845816E+03  0.7818608E-02  0.1049253E+00
          3   -1    0    0  501    0  0.00000000000E+00  0.00000000000E+00  0.56860885251E+03  0.56860885251E+03  0.00000000000E+00 0. -1.
         -4   -1    0    0    0  501 -0.00000000000E+00 -0.00000000000E+00 -0.32505815843E+03  0.32505815843E+03  0.00000000000E+00 0.  1.
        -24    2    1    2    0    0 -0.90941633898E+02 -0.14999039440E+03  0.18174466309E+03  0.26545953864E+03  0.81670955098E+02 0.  0.
    5000000    2    1    2    0    0  0.90941633898E+02  0.14999039440E+03  0.61806030992E+02  0.62820747230E+03  0.60004761778E+03 0.  0.
        -24    2    4    4    0    0  0.52444767018E+02  0.35483904677E+03  0.13836082450E+03  0.39260145244E+03  0.79567455679E+02 0.  0.
         24    2    4    4    0    0  0.38496866881E+02 -0.20484865236E+03 -0.76554793504E+02  0.23560601986E+03  0.78769163082E+02 0.  0.
         11    1    3    3    0    0 -0.52754366638E+01 -0.56781845908E+02  0.98908676216E+02  0.11417063759E+03  0.00000000000E+00 0. -1.
        -12    1    3    3    0    0 -0.85666197235E+02 -0.93208548494E+02  0.82835986871E+02  0.15128890105E+03  0.00000000000E+00 0.  1.
         13    1    5    5    0    0  0.22866042327E+02  0.36911371034E+02 -0.27551916160E+01  0.43507427919E+02  0.00000000000E+00 0. -1.
        -14    1    5    5    0    0  0.29578724690E+02  0.31792767573E+03  0.14111601611E+03  0.34909402452E+03  0.00000000000E+00 0.  1.
          2    1    6    6  502    0  0.53112043749E+02 -0.73613056841E+02 -0.31642401304E+02  0.96130187189E+02  0.00000000000E+00 0. -1.
         -1    1    6    6    0  502 -0.14615176869E+02 -0.13123559552E+03 -0.44912392200E+02  0.13947583267E+03  0.00000000000E+00 0.  1.
<mgrwt>
<rscale>  0 0.38458158E+03</rscale>
<asrwt>0</asrwt>
<pdfrwt beam="1">  1        3 0.87478285E-01 0.38458158E+03</pdfrwt>
<pdfrwt beam="2">  1       -4 0.50008947E-01 0.38458158E+03</pdfrwt>
<totfact> 0.10248903E+01</totfact>
</mgrwt>
</event>
<event>
12    3  0.2212098E-007  0.1088729E+04  0.7818608E-02  0.9216247E-01
          1   -1    0    0  501    0  0.00000000000E+00  0.00000000000E+00  0.13385370553E+04  0.13385370553E+04  0.00000000000E+00 0. -1.
         -4   -1    0    0    0  501 -0.00000000000E+00 -0.00000000000E+00 -0.91251906218E+03  0.91251906218E+03  0.00000000000E+00 0.  1.
        -24    2    1    2    0    0 -0.83647722228E+03  0.58685864640E+03  0.21914342341E+03  0.10480466924E+04  0.79251594352E+02 0.  0.
    5000000    2    1    2    0    0  0.83647722228E+03 -0.58685864640E+03  0.20687456966E+03  0.12030094250E+04  0.60028107989E+03 0.  0.
        -24    2    4    4    0    0  0.67091346278E+02  0.89146034500E+02 -0.53904486798E+02  0.14313899377E+03  0.71657613881E+02 0.  0.
         24    2    4    4    0    0  0.76938587600E+03 -0.67600468090E+03  0.26077905646E+03  0.10598704313E+04  0.79891551318E+02 0.  0.
         13    1    5    5    0    0  0.23784115999E+02  0.81202727595E+02 -0.18433831234E+02  0.86598921914E+02  0.00000000000E+00 0. -1.
        -14    1    5    5    0    0  0.43307230278E+02  0.79433069057E+01 -0.35470655564E+02  0.56540071853E+02  0.00000000000E+00 0.  1.
         13    1    3    3    0    0 -0.37588196870E+03  0.30994562686E+03  0.92365156913E+02  0.49586779308E+03  0.00000000000E+00 0. -1.
        -14    1    3    3    0    0 -0.46059525358E+03  0.27691301953E+03  0.12677826650E+03  0.55217889933E+03  0.00000000000E+00 0.  1.
          2    1    6    6  502    0  0.18994498738E+03 -0.17067859176E+03  0.10098683443E+03  0.27460630117E+03  0.00000000000E+00 0. -1.
         -1    1    6    6    0  502  0.57944088862E+03 -0.50532608913E+03  0.15979222203E+03  0.78526413008E+03  0.00000000000E+00 0.  1.
<mgrwt>
<rscale>  0 0.10887293E+04</rscale>
<asrwt>0</asrwt>
<pdfrwt beam="1">  1        1 0.20592878E+00 0.10887293E+04</pdfrwt>
<pdfrwt beam="2">  1       -4 0.14038755E+00 0.10887293E+04</pdfrwt>
<totfact> 0.14229953E+00</totfact>
</mgrwt>
</event>
<event>
12    3  0.2212098E-007  0.4913766E+03  0.7818608E-02  0.1016055E+00
          1   -1    0    0  501    0  0.00000000000E+00  0.00000000000E+00  0.55184146351E+03  0.55184146351E+03  0.00000000000E+00 0. -1.
         -2   -1    0    0    0  501 -0.00000000000E+00 -0.00000000000E+00 -0.45030535503E+03  0.45030535503E+03  0.00000000000E+00 0.  1.
        -24    2    1    2    0    0  0.27589286616E+03  0.12714291995E+03 -0.33773212194E+02  0.31602116152E+03  0.80290404017E+02 0.  0.
    5000000    2    1    2    0    0 -0.27589286616E+03 -0.12714291995E+03  0.13530932067E+03  0.68612565703E+03  0.60014798948E+03 0.  0.
        -24    2    4    4    0    0  0.18025907728E+03 -0.16938647798E+02  0.49409181530E+02  0.20404969162E+03  0.80092176264E+02 0.  0.
         24    2    4    4    0    0 -0.45615194344E+03 -0.11020427215E+03  0.85900139143E+02  0.48207596541E+03  0.69273554901E+02 0.  0.
         11    1    3    3    0    0  0.12687768527E+03  0.10024742544E+03 -0.43149132113E+01  0.16175942569E+03  0.00000000000E+00 0. -1.
        -12    1    3    3    0    0  0.14901518089E+03  0.26895494516E+02 -0.29458298983E+02  0.15426173583E+03  0.00000000000E+00 0.  1.
         13    1    5    5    0    0  0.68421160213E+02 -0.45427603669E+02  0.13865773147E+02  0.83290947918E+02  0.00000000000E+00 0. -1.
        -14    1    5    5    0    0  0.11183791707E+03  0.28488955871E+02  0.35543408383E+02  0.12075874370E+03  0.00000000000E+00 0.  1.
          4    1    6    6  502    0 -0.12059581964E+03 -0.60741378786E+01  0.15859999338E+01  0.12075910840E+03  0.00000000000E+00 0. -1.
         -3    1    6    6    0  502 -0.33555612380E+03 -0.10413013428E+03  0.84314139210E+02  0.36131685701E+03  0.00000000000E+00 0.  1.
<mgrwt>
<rscale>  0 0.49137665E+03</rscale>
<asrwt>0</asrwt>
<pdfrwt beam="1">  1        1 0.84898687E-01 0.49137665E+03</pdfrwt>
<pdfrwt beam="2">  1       -2 0.69277747E-01 0.49137665E+03</pdfrwt>
<totfact> 0.66701148E+01</totfact>
</mgrwt>
</event>
<event>
12    3  0.2212098E-007  0.7946283E+03  0.7818608E-02  0.9567825E-01
          1   -1    0    0  501    0  0.00000000000E+00  0.00000000000E+00  0.71051854351E+03  0.71051854351E+03  0.00000000000E+00 0. -1.
         -2   -1    0    0    0  501 -0.00000000000E+00 -0.00000000000E+00 -0.97918091208E+03  0.97918091208E+03  0.00000000000E+00 0.  1.
        -24    2    1    2    0    0  0.62277959715E+03 -0.28531263108E+03  0.11958196412E+03  0.69969377822E+03  0.77548778629E+02 0.  0.
    5000000    2    1    2    0    0 -0.62277959715E+03  0.28531263108E+03 -0.38824433269E+03  0.99000567736E+03  0.60009987108E+03 0.  0.
        -24    2    4    4    0    0 -0.61383400633E+03  0.42400936013E+03 -0.31306276157E+03  0.81300845514E+03  0.79989565842E+02 0.  0.
         24    2    4    4    0    0 -0.89455908163E+01 -0.13869672905E+03 -0.75181571121E+02  0.17699722222E+03  0.79742973328E+02 0.  0.
         11    1    5    5    0    0 -0.31321986676E+03  0.25889656114E+03 -0.19038570311E+03  0.44875475513E+03  0.00000000000E+00 0. -1.
        -12    1    5    5    0    0 -0.30061413957E+03  0.16511279899E+03 -0.12267705847E+03  0.36425370001E+03  0.00000000000E+00 0.  1.
         13    1    3    3    0    0  0.30046037675E+03 -0.14443082234E+03  0.19367249495E+02  0.33393381199E+03  0.00000000000E+00 0. -1.
        -14    1    3    3    0    0  0.32231922040E+03 -0.14088180874E+03  0.10021471462E+03  0.36575996623E+03  0.00000000000E+00 0.  1.
          4    1    6    6  502    0  0.16270379931E+02 -0.27327473510E+01 -0.24873744813E+02  0.29847886896E+02  0.00000000000E+00 0. -1.
         -3    1    6    6    0  502 -0.25215970747E+02 -0.13596398169E+03 -0.50307826308E+02  0.14714933533E+03  0.00000000000E+00 0.  1.
<mgrwt>
<rscale>  0 0.79462829E+03</rscale>
<asrwt>0</asrwt>
<pdfrwt beam="1">  1        1 0.10931055E+00 0.79462829E+03</pdfrwt>
<pdfrwt beam="2">  1       -2 0.15064322E+00 0.79462829E+03</pdfrwt>
<totfact> 0.70265405E+00</totfact>
</mgrwt>
</event>
<event>
12    3  0.2212098E-007  0.1299557E+04  0.7818608E-02  0.9029917E-01
         -2   -1    0    0    0  501 -0.00000000000E+00  0.00000000000E+00  0.11149554587E+04  0.11149554587E+04  0.00000000000E+00 0.  1.
          1   -1    0    0  501    0  0.00000000000E+00 -0.00000000000E+00 -0.16524700730E+04  0.16524700730E+04  0.00000000000E+00 0. -1.
        -24    2    1    2    0    0 -0.11859876235E+04  0.36702515535E+03  0.10068674021E+03  0.12480733283E+04  0.79215563788E+02 0.  0.
    5000000    2    1    2    0    0  0.11859876235E+04 -0.36702515535E+03 -0.63820135453E+03  0.15193522034E+04  0.59988002254E+03 0.  0.
        -24    2    4    4    0    0 -0.43606742480E+02 -0.82492964928E+02 -0.45472170217E+02  0.12274460823E+03  0.65512466999E+02 0.  0.
         24    2    4    4    0    0  0.12295943659E+04 -0.28453219043E+03 -0.59272918431E+03  0.13966075952E+04  0.79523687479E+02 0.  0.
         11    1    5    5    0    0 -0.28053643237E+02 -0.43897357458E+02 -0.59264658747E+02  0.78906810017E+02  0.00000000000E+00 0. -1.
        -12    1    5    5    0    0 -0.15553099243E+02 -0.38595607469E+02  0.13792488531E+02  0.43837798210E+02  0.00000000000E+00 0.  1.
         11    1    3    3    0    0 -0.39963250272E+03  0.15042163912E+03  0.62335565537E+02  0.43153045023E+03  0.00000000000E+00 0. -1.
        -12    1    3    3    0    0 -0.78635512074E+03  0.21660351623E+03  0.38351174678E+02  0.81654287809E+03  0.00000000000E+00 0.  1.
          2    1    6    6  502    0  0.22685876791E+03 -0.69022070344E+02 -0.14119392286E+03  0.27597947501E+03  0.00000000000E+00 0. -1.
         -1    1    6    6    0  502  0.10027355980E+04 -0.21551012008E+03 -0.45153526145E+03  0.11206281202E+04  0.00000000000E+00 0.  1.
<mgrwt>
<rscale>  0 0.12995566E+04</rscale>
<asrwt>0</asrwt>
<pdfrwt beam="1">  1        1 0.25422616E+00 0.12995566E+04</pdfrwt>
<pdfrwt beam="2">  1       -2 0.17153161E+00 0.12995566E+04</pdfrwt>
<totfact> 0.90286619E-01</totfact>
</mgrwt>
</event>
<event>
12    3  0.2212098E-007  0.5245243E+03  0.7818608E-02  0.1007569E+00
         -2   -1    0    0    0  501 -0.00000000000E+00  0.00000000000E+00  0.48695128581E+03  0.48695128581E+03  0.00000000000E+00 0.  1.
          1   -1    0    0  501    0  0.00000000000E+00 -0.00000000000E+00 -0.68330154083E+03  0.68330154083E+03  0.00000000000E+00 0. -1.
        -24    2    1    2    0    0 -0.35909172651E+03  0.34186898106E+02  0.13746220873E+03  0.39463237129E+03  0.81995351018E+02 0.  0.
    5000000    2    1    2    0    0  0.35909172651E+03 -0.34186898106E+02 -0.33381246376E+03  0.77562045535E+03  0.60003393050E+03 0.  0.
        -24    2    4    4    0    0  0.17653301035E+03  0.26865855382E+03 -0.20973858098E+03  0.39229961453E+03  0.81039452910E+02 0.  0.
         24    2    4    4    0    0  0.18255871616E+03 -0.30284545192E+03 -0.12407388277E+03  0.38332084082E+03  0.80606984934E+02 0.  0.
         11    1    3    3    0    0 -0.26312725935E+03  0.24450203936E+02  0.13810652059E+03  0.29817306739E+03  0.00000000000E+00 0. -1.
        -12    1    3    3    0    0 -0.95964467162E+02  0.97366941698E+01 -0.64431186443E+00  0.96459303900E+02  0.00000000000E+00 0.  1.
         13    1    5    5    0    0  0.10708664368E+03  0.10982071484E+03 -0.65515648288E+02  0.16679460073E+03  0.00000000000E+00 0. -1.
        -14    1    5    5    0    0  0.69446366669E+02  0.15883783898E+03 -0.14422293269E+03  0.22550501380E+03  0.00000000000E+00 0.  1.
          4    1    6    6  502    0  0.11002792005E+03 -0.11013770922E+03 -0.38704913832E+02  0.16041985082E+03  0.00000000000E+00 0. -1.
         -3    1    6    6    0  502  0.72530796115E+02 -0.19270774271E+03 -0.85368968943E+02  0.22290099000E+03  0.00000000000E+00 0.  1.
<mgrwt>
<rscale>  0 0.52452429E+03</rscale>
<asrwt>0</asrwt>
<pdfrwt beam="1">  1        1 0.10512331E+00 0.52452429E+03</pdfrwt>
<pdfrwt beam="2">  1       -2 0.74915583E-01 0.52452429E+03</pdfrwt>
<totfact> 0.41243397E+01</totfact>
</mgrwt>
</event>
<event>
12    3  0.2212098E-007  0.4080300E+03  0.7818608E-02  0.1041034E+00
         -2   -1    0    0    0  501 -0.00000000000E+00  0.00000000000E+00  0.10561939734E+03  0.10561939734E+03  0.00000000000E+00 0.  1.
          1   -1    0    0  501    0  0.00000000000E+00 -0.00000000000E+00 -0.19917994938E+04  0.19917994938E+04  0.00000000000E+00 0. -1.
        -24    2    1    2    0    0 -0.10605245030E+03  0.22663266125E+03 -0.45180727427E+03  0.52264006919E+03  0.80083353347E+02 0.  0.
    5000000    2    1    2    0    0  0.10605245030E+03 -0.22663266125E+03 -0.14343728222E+04  0.15747788219E+04  0.59991120981E+03 0.  0.
        -24    2    4    4    0    0 -0.18556819461E+03 -0.15280651679E+02 -0.19383593215E+03  0.28054886889E+03  0.80412972054E+02 0.  0.
         24    2    4    4    0    0  0.29162064491E+03 -0.21135200957E+03 -0.12405368900E+04  0.12942299530E+04  0.79919480458E+02 0.  0.
         11    1    3    3    0    0 -0.51014065901E+02  0.18288202048E+03 -0.29536917942E+03  0.35112849570E+03  0.00000000000E+00 0. -1.
        -12    1    3    3    0    0 -0.55038384394E+02  0.43750640765E+02 -0.15643809485E+03  0.17151157350E+03  0.00000000000E+00 0.  1.
         13    1    5    5    0    0 -0.11907678096E+03  0.17144578875E+02 -0.15732972587E+03  0.19805519178E+03  0.00000000000E+00 0. -1.
        -14    1    5    5    0    0 -0.66491413654E+02 -0.32425230554E+02 -0.36506206282E+02  0.82493677111E+02  0.00000000000E+00 0.  1.
          2    1    6    6  502    0  0.20203645649E+03 -0.12751532055E+03 -0.93345373294E+03  0.96354281600E+03  0.00000000000E+00 0. -1.
         -1    1    6    6    0  502  0.89584188421E+02 -0.83836689017E+02 -0.30708315706E+03  0.33068713702E+03  0.00000000000E+00 0.  1.
<mgrwt>
<rscale>  0 0.40803003E+03</rscale>
<asrwt>0</asrwt>
<pdfrwt beam="1">  1        1 0.30643069E+00 0.40803003E+03</pdfrwt>
<pdfrwt beam="2">  1       -2 0.16249138E-01 0.40803003E+03</pdfrwt>
<totfact> 0.87575499E+01</totfact>
</mgrwt>
</event>
<event>
12    3  0.2212098E-007  0.1024359E+04  0.7818608E-02  0.9282224E-01
         -2   -1    0    0    0  501 -0.00000000000E+00  0.00000000000E+00  0.11352013373E+04  0.11352013373E+04  0.00000000000E+00 0.  1.
          1   -1    0    0  501    0  0.00000000000E+00 -0.00000000000E+00 -0.10000045621E+04  0.10000045621E+04  0.00000000000E+00 0. -1.
        -24    2    1    2    0    0  0.57746018391E+03 -0.76845116140E+03 -0.12478979446E+03  0.97262768055E+03  0.80340903149E+02 0.  0.
    5000000    2    1    2    0    0 -0.57746018391E+03  0.76845116140E+03  0.25998656967E+03  0.11625782188E+04  0.60001470564E+03 0.  0.
        -24    2    4    4    0    0  0.40558036956E+02 -0.23696992462E+02 -0.56154319821E+02  0.10628863623E+03  0.77054946260E+02 0.  0.
         24    2    4    4    0    0 -0.61801822087E+03  0.79214815386E+03  0.31614088949E+03  0.10562895826E+04  0.79733313421E+02 0.  0.
         11    1    5    5    0    0  0.33798039159E+02 -0.46614623075E+02 -0.58742342929E+02  0.82255050838E+02  0.00000000000E+00 0. -1.
        -12    1    5    5    0    0  0.67599977966E+01  0.22917630613E+02  0.25880231080E+01  0.24033585391E+02  0.00000000000E+00 0.  1.
         13    1    3    3    0    0  0.27807609297E+03 -0.35185571305E+03 -0.97116523894E+02  0.45886858196E+03  0.00000000000E+00 0. -1.
        -14    1    3    3    0    0  0.29938409094E+03 -0.41659544834E+03 -0.27673270562E+02  0.51375909860E+03  0.00000000000E+00 0.  1.
          2    1    6    6  502    0 -0.38869516950E+03  0.53365235239E+03  0.17486167291E+03  0.68296806122E+03  0.00000000000E+00 0. -1.
         -1    1    6    6    0  502 -0.22932305137E+03  0.25849580147E+03  0.14127921659E+03  0.37332152136E+03  0.00000000000E+00 0.  1.
<mgrwt>
<rscale>  0 0.10243594E+04</rscale>
<asrwt>0</asrwt>
<pdfrwt beam="1">  1        1 0.15384686E+00 0.10243594E+04</pdfrwt>
<pdfrwt beam="2">  1       -2 0.17464636E+00 0.10243594E+04</pdfrwt>
<totfact> 0.26034580E+00</totfact>
</mgrwt>
</event>
<event>
12    3  0.2212098E-007  0.6108050E+03  0.7818608E-02  0.9883239E-01
         -2   -1    0    0    0  501 -0.00000000000E+00  0.00000000000E+00  0.14480548362E+03  0.14480548362E+03  0.00000000000E+00 0.  1.
          1   -1    0    0  501    0  0.00000000000E+00 -0.00000000000E+00 -0.34877003388E+04  0.34877003388E+04  0.00000000000E+00 0. -1.
        -24    2    1    2    0    0  0.10969621286E+03 -0.46541857475E+03 -0.22202594727E+04  0.22725752970E+04  0.79991534374E+02 0.  0.
    5000000    2    1    2    0    0 -0.10969621286E+03  0.46541857475E+03 -0.11226353825E+04  0.13599305255E+04  0.60037748391E+03 0.  0.
        -24    2    4    4    0    0  0.16024645291E+03 -0.28782093770E+02 -0.43448248292E+03  0.46707803755E+03  0.53661257980E+02 0.  0.
         24    2    4    4    0    0 -0.26994266576E+03  0.49420066852E+03 -0.68815289962E+03  0.89285248793E+03  0.80794853760E+02 0.  0.
         13    1    3    3    0    0  0.94997008645E+02 -0.27860113197E+03 -0.14779971719E+04  0.15070231128E+04  0.00000000000E+00 0. -1.
        -14    1    3    3    0    0  0.14699204212E+02 -0.18681744278E+03 -0.74226230079E+03  0.76555218418E+03  0.00000000000E+00 0.  1.
         13    1    5    5    0    0  0.38505808437E+02 -0.30844403595E+02 -0.13879963235E+03  0.14730720436E+03  0.00000000000E+00 0. -1.
        -14    1    5    5    0    0  0.12174064447E+03  0.20623098248E+01 -0.29568285058E+03  0.31977083320E+03  0.00000000000E+00 0.  1.
          4    1    6    6  502    0 -0.21079296934E+03  0.30665550251E+03 -0.44157059020E+03  0.57745637002E+03  0.00000000000E+00 0. -1.
         -3    1    6    6    0  502 -0.59149696427E+02  0.18754516601E+03 -0.24658230941E+03  0.31539611792E+03  0.00000000000E+00 0.  1.
<mgrwt>
<rscale>  0 0.61080505E+03</rscale>
<asrwt>0</asrwt>
<pdfrwt beam="1">  1        1 0.53656922E+00 0.61080505E+03</pdfrwt>
<pdfrwt beam="2">  1       -2 0.22277769E-01 0.61080505E+03</pdfrwt>
<totfact> 0.43945723E+00</totfact>
</mgrwt>
</event>
<event>
12    3  0.2212098E-007  0.5955578E+03  0.7818608E-02  0.9914665E-01
         -2   -1    0    0    0  501 -0.00000000000E+00  0.00000000000E+00  0.91516064181E+03  0.91516064181E+03  0.00000000000E+00 0.  1.
          1   -1    0    0  501    0  0.00000000000E+00 -0.00000000000E+00 -0.51959105687E+03  0.51959105687E+03  0.00000000000E+00 0. -1.
        -24    2    1    2    0    0 -0.29951145344E+03 -0.46750525258E+03  0.13555408160E+03  0.57692077371E+03  0.78704499031E+02 0.  0.
    5000000    2    1    2    0    0  0.29951145344E+03  0.46750525258E+03  0.26001550334E+03  0.85783092496E+03  0.59999796824E+03 0.  0.
        -24    2    4    4    0    0  0.30368747220E+03  0.23111191740E+03 -0.11580590629E+03  0.40705729393E+03  0.81521981537E+02 0.  0.
         24    2    4    4    0    0 -0.41760187525E+01  0.23639333519E+03  0.37582140963E+03  0.45077363103E+03  0.77819576201E+02 0.  0.
         13    1    5    5    0    0  0.17220772363E+03  0.12687544998E+03 -0.10667253303E+03  0.23902282148E+03  0.00000000000E+00 0. -1.
        -14    1    5    5    0    0  0.13147974857E+03  0.10423646742E+03 -0.91333732616E+01  0.16803447245E+03  0.00000000000E+00 0.  1.
         13    1    3    3    0    0 -0.47677353782E+02 -0.13829201839E+03  0.35447685489E+02  0.15051362337E+03  0.00000000000E+00 0. -1.
        -14    1    3    3    0    0 -0.25183409966E+03 -0.32921323419E+03  0.10010639611E+03  0.42640715034E+03  0.00000000000E+00 0.  1.
          2    1    6    6  502    0  0.32125561588E+02  0.55210510542E+02  0.10550409150E+03  0.12333436465E+03  0.00000000000E+00 0. -1.
         -1    1    6    6    0  502 -0.36301580340E+02  0.18118282464E+03  0.27031731814E+03  0.32743926638E+03  0.00000000000E+00 0.  1.
<mgrwt>
<rscale>  0 0.59555777E+03</rscale>
<asrwt>0</asrwt>
<pdfrwt beam="1">  1        1 0.79937086E-01 0.59555777E+03</pdfrwt>
<pdfrwt beam="2">  1       -2 0.14079394E+00 0.59555777E+03</pdfrwt>
<totfact> 0.13483949E+01</totfact>
</mgrwt>
</event>
<event>
12    3  0.2212098E-007  0.1020444E+04  0.7818608E-02  0.9286402E-01
         -2   -1    0    0    0  501 -0.00000000000E+00  0.00000000000E+00  0.18963190759E+04  0.18963190759E+04  0.00000000000E+00 0.  1.
          1   -1    0    0  501    0  0.00000000000E+00 -0.00000000000E+00 -0.63570001651E+03  0.63570001651E+03  0.00000000000E+00 0. -1.
        -24    2    1    2    0    0  0.48618011118E+03 -0.88061815431E+03  0.73082611697E+03  0.12464851905E+04  0.88085655568E+02 0.  0.
    5000000    2    1    2    0    0 -0.48618011118E+03  0.88061815431E+03  0.52979294243E+03  0.12855339019E+04  0.60004784549E+03 0.  0.
        -24    2    4    4    0    0 -0.46438153278E+03  0.76628543315E+03  0.64226561645E+03  0.11052902814E+04  0.79485288479E+02 0.  0.
         24    2    4    4    0    0 -0.21798578402E+02  0.11433272116E+03 -0.11247267402E+03  0.18024362048E+03  0.79312742820E+02 0.  0.
         13    1    3    3    0    0  0.31706295901E+03 -0.63400745118E+03  0.47884269584E+03  0.85544415100E+03  0.00000000000E+00 0. -1.
        -14    1    3    3    0    0  0.16911715217E+03 -0.24661070313E+03  0.25198342113E+03  0.39104103951E+03  0.00000000000E+00 0.  1.
         13    1    5    5    0    0 -0.43402955951E+03  0.67147481901E+03  0.55997307160E+03  0.97613007945E+03  0.00000000000E+00 0. -1.
        -14    1    5    5    0    0 -0.30351973271E+02  0.94810614133E+02  0.82292544851E+02  0.12916020197E+03  0.00000000000E+00 0.  1.
          2    1    6    6  502    0 -0.44643631498E+02  0.58581285224E+02 -0.33505591120E+02  0.80916286668E+02  0.00000000000E+00 0. -1.
         -1    1    6    6    0  502  0.22845053097E+02  0.55751435936E+02 -0.78967082903E+02  0.99327333811E+02  0.00000000000E+00 0.  1.
<mgrwt>
<rscale>  0 0.10204438E+04</rscale>
<asrwt>0</asrwt>
<pdfrwt beam="1">  1        1 0.97800003E-01 0.10204438E+04</pdfrwt>
<pdfrwt beam="2">  1       -2 0.29174139E+00 0.10204438E+04</pdfrwt>
<totfact> 0.98974466E-01</totfact>
</mgrwt>
</event>
<event>
12    3  0.2212098E-007  0.8538331E+03  0.7818608E-02  0.9485207E-01
          1   -1    0    0  501    0  0.00000000000E+00  0.00000000000E+00  0.59859650982E+03  0.59859650982E+03  0.00000000000E+00 0. -1.
         -2   -1    0    0    0  501 -0.00000000000E+00 -0.00000000000E+00 -0.21769088543E+04  0.21769088543E+04  0.00000000000E+00 0.  1.
        -24    2    1    2    0    0 -0.29431821625E+03  0.74722255599E+03 -0.15787198304E+04  0.17730614293E+04  0.80160891469E+02 0.  0.
    5000000    2    1    2    0    0  0.29431821625E+03 -0.74722255599E+03  0.40748592051E+00  0.10024439348E+04  0.59994076026E+03 0.  0.
        -24    2    4    4    0    0 -0.95972363013E+02 -0.99787226741E+02 -0.15909327264E+03  0.22586926240E+03  0.80858328056E+02 0.  0.
         24    2    4    4    0    0  0.39029057926E+03 -0.64743532925E+03  0.15950075856E+03  0.77657467242E+03  0.78284660340E+02 0.  0.
         13    1    5    5    0    0 -0.68702971731E+02 -0.99897474995E+02 -0.15721500588E+03  0.19853503950E+03  0.00000000000E+00 0. -1.
        -14    1    5    5    0    0 -0.27269391282E+02  0.11024825411E+00 -0.18782667559E+01  0.27334222900E+02  0.00000000000E+00 0.  1.
         13    1    3    3    0    0 -0.28678009180E+03  0.72401487014E+03 -0.14924028531E+04  0.16833617048E+04  0.00000000000E+00 0. -1.
        -14    1    3    3    0    0 -0.75381244541E+01  0.23207685848E+02 -0.86316977309E+02  0.89699724495E+02  0.00000000000E+00 0.  1.
          4    1    6    6  502    0  0.11031309022E+03 -0.18938925966E+03  0.82769720575E+02  0.23428208680E+03  0.00000000000E+00 0. -1.
         -3    1    6    6    0  502  0.27997748904E+03 -0.45804606959E+03  0.76731037984E+02  0.54229258563E+03  0.00000000000E+00 0.  1.
<mgrwt>
<rscale>  0 0.85383314E+03</rscale>
<asrwt>0</asrwt>
<pdfrwt beam="1">  1        1 0.92091769E-01 0.85383314E+03</pdfrwt>
<pdfrwt beam="2">  1       -2 0.33490906E+00 0.85383314E+03</pdfrwt>
<totfact> 0.60433108E-01</totfact>
</mgrwt>
</event>
<event>
12    3  0.2212098E-007  0.9286248E+03  0.7818608E-02  0.9390490E-01
          1   -1    0    0  501    0  0.00000000000E+00  0.00000000000E+00  0.18931634914E+04  0.18931634914E+04  0.00000000000E+00 0. -1.
         -2   -1    0    0    0  501 -0.00000000000E+00 -0.00000000000E+00 -0.12612615517E+04  0.12612615517E+04  0.00000000000E+00 0.  1.
        -24    2    1    2    0    0 -0.93342055549E+02  0.85032729244E+03 -0.93610029563E+03  0.12703679276E+04  0.76037256222E+02 0.  0.
    5000000    2    1    2    0    0  0.93342055549E+02 -0.85032729244E+03  0.15680022353E+04  0.18840571155E+04  0.59939215945E+03 0.  0.
        -24    2    4    4    0    0  0.23504890822E+03 -0.79640136437E+03  0.14632646675E+04  0.16843463914E+04  0.79850839977E+02 0.  0.
         24    2    4    4    0    0 -0.14170685267E+03 -0.53925928072E+02  0.10473756781E+03  0.19971072407E+03  0.76977772017E+02 0.  0.
         11    1    3    3    0    0 -0.98636538921E+02  0.57283896240E+03 -0.63368234829E+03  0.85989939073E+03  0.00000000000E+00 0. -1.
        -12    1    3    3    0    0  0.52944833719E+01  0.27748833004E+03 -0.30241794734E+03  0.41046853684E+03  0.00000000000E+00 0.  1.
         13    1    5    5    0    0  0.16632324749E+03 -0.66979609455E+03  0.12104169663E+04  0.13933411152E+04  0.00000000000E+00 0. -1.
        -14    1    5    5    0    0  0.68725660733E+02 -0.12660526982E+03  0.25284770117E+03  0.29100527620E+03  0.00000000000E+00 0.  1.
          2    1    6    6  502    0 -0.44636810799E+02  0.12824045715E+02  0.54598623781E+02  0.71679221156E+02  0.00000000000E+00 0. -1.
         -1    1    6    6    0  502 -0.97070041873E+02 -0.66749973786E+02  0.50138944028E+02  0.12803150291E+03  0.00000000000E+00 0.  1.
<mgrwt>
<rscale>  0 0.92862481E+03</rscale>
<asrwt>0</asrwt>
<pdfrwt beam="1">  1        1 0.29125592E+00 0.92862481E+03</pdfrwt>
<pdfrwt beam="2">  1       -2 0.19404024E+00 0.92862481E+03</pdfrwt>
<totfact> 0.45652049E-01</totfact>
</mgrwt>
</event>
<event>
12    3  0.2212098E-007  0.1342872E+04  0.7818608E-02  0.8996241E-01
          1   -1    0    0  501    0  0.00000000000E+00  0.00000000000E+00  0.23212965624E+04  0.23212965624E+04  0.00000000000E+00 0. -1.
         -2   -1    0    0    0  501 -0.00000000000E+00 -0.00000000000E+00 -0.80188921816E+03  0.80188921816E+03  0.00000000000E+00 0.  1.
        -24    2    1    2    0    0 -0.19762200931E+03  0.12733823765E+04  0.89274139128E+03  0.15696914744E+04  0.79918694323E+02 0.  0.
    5000000    2    1    2    0    0  0.19762200931E+03 -0.12733823765E+04  0.62666595293E+03  0.15534943061E+04  0.60006433580E+03 0.  0.
        -24    2    4    4    0    0 -0.15533031653E+03 -0.18726967866E+03  0.22418033600E+03  0.34021591721E+03  0.79325957272E+02 0.  0.
         24    2    4    4    0    0  0.35295232584E+03 -0.10861126979E+04  0.40248561693E+03  0.12132783889E+04  0.76378271174E+02 0.  0.
         11    1    5    5    0    0 -0.15583132870E+02  0.32261698650E+01  0.31720987590E+02  0.35488917364E+02  0.00000000000E+00 0. -1.
        -12    1    5    5    0    0 -0.13974718366E+03 -0.19049584852E+03  0.19245934841E+03  0.30472699985E+03  0.00000000000E+00 0.  1.
         13    1    3    3    0    0 -0.13854120892E+03  0.73237114160E+03  0.55336650907E+03  0.92831872166E+03  0.00000000000E+00 0. -1.
        -14    1    3    3    0    0 -0.59080800384E+02  0.54101123495E+03  0.33937488220E+03  0.64137275276E+03  0.00000000000E+00 0.  1.
          4    1    6    6  502    0  0.31351592496E+03 -0.88116343407E+03  0.31388769231E+03  0.98654281008E+03  0.00000000000E+00 0. -1.
         -3    1    6    6    0  502  0.39436400881E+02 -0.20494926383E+03  0.88597924626E+02  0.22673557883E+03  0.00000000000E+00 0.  1.
<mgrwt>
<rscale>  0 0.13428721E+04</rscale>
<asrwt>0</asrwt>
<pdfrwt beam="1">  1        1 0.35712254E+00 0.13428721E+04</pdfrwt>
<pdfrwt beam="2">  1       -2 0.12336757E+00 0.13428721E+04</pdfrwt>
<totfact> 0.75595568E-01</totfact>
</mgrwt>
</event>
<event>
12    3  0.2212098E-007  0.4871513E+03  0.7818608E-02  0.1017188E+00
          1   -1    0    0  501    0  0.00000000000E+00  0.00000000000E+00  0.81135976211E+03  0.81135976211E+03  0.00000000000E+00 0. -1.
         -2   -1    0    0    0  501 -0.00000000000E+00 -0.00000000000E+00 -0.88318403418E+03  0.88318403418E+03  0.00000000000E+00 0.  1.
        -24    2    1    2    0    0 -0.39337585373E+03 -0.89230261650E+02  0.58660964170E+03  0.71654798872E+03  0.81385173754E+02 0.  0.
    5000000    2    1    2    0    0  0.39337585373E+03  0.89230261650E+02 -0.65843391377E+03  0.97799580757E+03  0.60019495077E+03 0.  0.
        -24    2    4    4    0    0  0.16786931395E+03  0.24092785664E+03 -0.52073171422E+02  0.30879557643E+03  0.80104645111E+02 0.  0.
         24    2    4    4    0    0  0.22550653978E+03 -0.15169759499E+03 -0.60636074235E+03  0.66920023114E+03  0.79311031308E+02 0.  0.
         11    1    3    3    0    0 -0.25456591859E+03 -0.44209394630E+02  0.43621013678E+03  0.50698871872E+03  0.00000000000E+00 0. -1.
        -12    1    3    3    0    0 -0.13880993514E+03 -0.45020867020E+02  0.15039950492E+03  0.20955927000E+03  0.00000000000E+00 0.  1.
         13    1    5    5    0    0  0.43615086409E+02  0.54774331198E+02  0.21426570896E+02  0.73222954468E+02  0.00000000000E+00 0. -1.
        -14    1    5    5    0    0  0.12425422754E+03  0.18615352545E+03 -0.73499742318E+02  0.23557262196E+03  0.00000000000E+00 0.  1.
          2    1    6    6  502    0  0.17148531103E+03 -0.88327537865E+02 -0.34975486715E+03  0.39942137266E+03  0.00000000000E+00 0. -1.
         -1    1    6    6    0  502  0.54021228754E+02 -0.63370057129E+02 -0.25660587520E+03  0.26977885848E+03  0.00000000000E+00 0.  1.
<mgrwt>
<rscale>  0 0.48715133E+03</rscale>
<asrwt>0</asrwt>
<pdfrwt beam="1">  1        1 0.12482458E+00 0.48715133E+03</pdfrwt>
<pdfrwt beam="2">  1       -2 0.13587447E+00 0.48715133E+03</pdfrwt>
<totfact> 0.78091771E+00</totfact>
</mgrwt>
</event>
<event>
12    3  0.2212098E-007  0.4950573E+03  0.7818608E-02  0.1015077E+00
         -2   -1    0    0    0  501 -0.00000000000E+00  0.00000000000E+00  0.18765068272E+04  0.18765068272E+04  0.00000000000E+00 0.  1.
          1   -1    0    0  501    0  0.00000000000E+00 -0.00000000000E+00 -0.27647853472E+03  0.27647853472E+03  0.00000000000E+00 0. -1.
        -24    2    1    2    0    0  0.36445539719E+03 -0.18801099556E+03  0.25117236297E+02  0.41846572171E+03  0.79415449957E+02 0.  0.
    5000000    2    1    2    0    0 -0.36445539719E+03  0.18801099556E+03  0.15749110562E+04  0.17345196402E+04  0.60003139619E+03 0.  0.
        -24    2    4    4    0    0 -0.28655117366E+03 -0.62506616751E+02  0.13367330945E+04  0.13710047989E+04  0.82341608808E+02 0.  0.
         24    2    4    4    0    0 -0.77904223534E+02  0.25051761231E+03  0.23817796169E+03  0.36351484127E+03  0.81155137063E+02 0.  0.
         11    1    5    5    0    0 -0.10128724153E+03  0.10457163236E+02  0.55828873474E+03  0.56749869507E+03  0.00000000000E+00 0. -1.
        -12    1    5    5    0    0 -0.18526393213E+03 -0.72963779987E+02  0.77844435973E+03  0.80350610386E+03  0.00000000000E+00 0.  1.
         11    1    3    3    0    0  0.70887864537E+02 -0.10351229704E+02 -0.14353206276E+02  0.73063341187E+02  0.00000000000E+00 0. -1.
        -12    1    3    3    0    0  0.29356753266E+03 -0.17765976585E+03  0.39470442573E+02  0.34540238052E+03  0.00000000000E+00 0.  1.
          2    1    6    6  502    0  0.16748733273E+02  0.48304910283E+02  0.50181491022E+02  0.71638442647E+02  0.00000000000E+00 0. -1.
         -1    1    6    6    0  502 -0.94652956807E+02  0.20221270202E+03  0.18799647066E+03  0.29187639862E+03  0.00000000000E+00 0.  1.
<mgrwt>
<rscale>  0 0.49505728E+03</rscale>
<asrwt>0</asrwt>
<pdfrwt beam="1">  1        1 0.42535160E-01 0.49505728E+03</pdfrwt>
<pdfrwt beam="2">  1       -2 0.28869335E+00 0.49505728E+03</pdfrwt>
<totfact> 0.34476485E+00</totfact>
</mgrwt>
</event>
<event>
12    3  0.2212098E-007  0.5889176E+03  0.7818608E-02  0.9928669E-01
          1   -1    0    0  501    0  0.00000000000E+00  0.00000000000E+00  0.10099829479E+04  0.10099829479E+04  0.00000000000E+00 0. -1.
         -2   -1    0    0    0  501 -0.00000000000E+00 -0.00000000000E+00 -0.52880664297E+03  0.52880664297E+03  0.00000000000E+00 0.  1.
        -24    2    1    2    0    0  0.42263762122E+03 -0.39072689862E+03  0.59113216629E+01  0.58141782750E+03  0.81985841673E+02 0.  0.
    5000000    2    1    2    0    0 -0.42263762122E+03  0.39072689862E+03  0.47526498332E+03  0.95737176341E+03  0.59949463787E+03 0.  0.
        -24    2    4    4    0    0 -0.31734866239E+03  0.36053925154E+03  0.60095828758E+03  0.77330701179E+03  0.78448362948E+02 0.  0.
         24    2    4    4    0    0 -0.10528895883E+03  0.30187647080E+02 -0.12569330426E+03  0.18406475162E+03  0.77999789520E+02 0.  0.
         11    1    5    5    0    0 -0.65738849975E+02  0.81039187289E+02  0.83603634966E+02  0.13371056073E+03  0.00000000000E+00 0. -1.
        -12    1    5    5    0    0 -0.25160981242E+03  0.27950006425E+03  0.51735465261E+03  0.63959645106E+03  0.00000000000E+00 0.  1.
         13    1    3    3    0    0  0.27630986603E+03 -0.23274992254E+03 -0.32315685157E+02  0.36271748237E+03  0.00000000000E+00 0. -1.
        -14    1    3    3    0    0  0.14632775519E+03 -0.15797697609E+03  0.38227006820E+02  0.21870034514E+03  0.00000000000E+00 0.  1.
          4    1    6    6  502    0 -0.29459264449E+02  0.33869328499E+02 -0.89139542903E+02  0.99803996833E+02  0.00000000000E+00 0. -1.
         -3    1    6    6    0  502 -0.75829694382E+02 -0.36816814192E+01 -0.36553761361E+02  0.84260754790E+02  0.00000000000E+00 0.  1.
<mgrwt>
<rscale>  0 0.58891756E+03</rscale>
<asrwt>0</asrwt>
<pdfrwt beam="1">  1        1 0.15538199E+00 0.58891756E+03</pdfrwt>
<pdfrwt beam="2">  1       -2 0.81354868E-01 0.58891756E+03</pdfrwt>
<totfact> 0.18103720E+01</totfact>
</mgrwt>
</event>
<event>
12    3  0.2212098E-007  0.6524957E+03  0.7818608E-02  0.9802107E-01
         -2   -1    0    0    0  501 -0.00000000000E+00  0.00000000000E+00  0.44130134899E+03  0.44130134899E+03  0.00000000000E+00 0.  1.
          1   -1    0    0  501    0  0.00000000000E+00 -0.00000000000E+00 -0.11618187090E+04  0.11618187090E+04  0.00000000000E+00 0. -1.
        -24    2    1    2    0    0 -0.39211474454E+03  0.34607524789E+03 -0.59825375418E+03  0.79806919987E+03  0.74059727974E+02 0.  0.
    5000000    2    1    2    0    0  0.39211474454E+03 -0.34607524789E+03 -0.12226360581E+03  0.80505085810E+03  0.59969696075E+03 0.  0.
        -24    2    4    4    0    0  0.19601081259E+03 -0.49379103877E+03 -0.70492498172E+02  0.54177773792E+03  0.79398339963E+02 0.  0.
         24    2    4    4    0    0  0.19610393195E+03  0.14771579088E+03 -0.51771107640E+02  0.26327312018E+03  0.79723153616E+02 0.  0.
         11    1    3    3    0    0 -0.12761124989E+03  0.13775034612E+03 -0.26089163631E+03  0.32144087302E+03  0.00000000000E+00 0. -1.
        -12    1    3    3    0    0 -0.26450349466E+03  0.20832490177E+03 -0.33736211787E+03  0.47662832685E+03  0.00000000000E+00 0.  1.
         11    1    5    5    0    0  0.12039728393E+03 -0.22551686451E+03 -0.61295615376E+01  0.25571651038E+03  0.00000000000E+00 0. -1.
        -12    1    5    5    0    0  0.75613528660E+02 -0.26827417426E+03 -0.64362936635E+02  0.28606122754E+03  0.00000000000E+00 0.  1.
          4    1    6    6  502    0  0.18335554720E+03  0.14313135550E+03 -0.25867298389E+02  0.23404050663E+03  0.00000000000E+00 0. -1.
         -3    1    6    6    0  502  0.12748384751E+02  0.45844353783E+01 -0.25903809251E+02  0.29232613555E+02  0.00000000000E+00 0.  1.
<mgrwt>
<rscale>  0 0.65249572E+03</rscale>
<asrwt>0</asrwt>
<pdfrwt beam="1">  1        1 0.17874134E+00 0.65249572E+03</pdfrwt>
<pdfrwt beam="2">  1       -2 0.67892516E-01 0.65249572E+03</pdfrwt>
<totfact> 0.20611710E+01</totfact>
</mgrwt>
</event>
<event>
12    3  0.2212098E-007  0.1110423E+04  0.7818608E-02  0.9195092E-01
         -2   -1    0    0    0  501 -0.00000000000E+00  0.00000000000E+00  0.76051937793E+03  0.76051937793E+03  0.00000000000E+00 0.  1.
          1   -1    0    0  501    0  0.00000000000E+00 -0.00000000000E+00 -0.19119111492E+04  0.19119111492E+04  0.00000000000E+00 0. -1.
        -24    2    1    2    0    0  0.14736407517E+03  0.10477098446E+04 -0.10155868825E+03  0.10657493937E+04  0.78073771352E+02 0.  0.
    5000000    2    1    2    0    0 -0.14736407517E+03 -0.10477098446E+04 -0.10498330830E+04  0.16066811334E+04  0.59988555006E+03 0.  0.
        -24    2    4    4    0    0 -0.28818550777E+03 -0.40299337187E+03 -0.68010708200E+03  0.84603788920E+03  0.88203867964E+02 0.  0.
         24    2    4    4    0    0  0.14082143261E+03 -0.64471647277E+03 -0.36972600100E+03  0.76064324423E+03  0.79942623385E+02 0.  0.
         13    1    3    3    0    0  0.11087238648E+03  0.73535760504E+03 -0.10635881840E+03  0.75123610910E+03  0.00000000000E+00 0. -1.
        -14    1    3    3    0    0  0.36491688683E+02  0.31235223960E+03  0.48001301487E+01  0.31451328457E+03  0.00000000000E+00 0.  1.
         13    1    5    5    0    0 -0.83365238224E+02 -0.18507699307E+03 -0.24692307437E+03  0.31964708815E+03  0.00000000000E+00 0. -1.
        -14    1    5    5    0    0 -0.20482026955E+03 -0.21791637880E+03 -0.43318400763E+03  0.52639080105E+03  0.00000000000E+00 0.  1.
          4    1    6    6  502    0  0.25184809148E+01 -0.50040298038E+02 -0.52618657221E+02  0.72657396469E+02  0.00000000000E+00 0. -1.
         -3    1    6    6    0  502  0.13830295169E+03 -0.59467617473E+03 -0.31710734378E+03  0.68798584776E+03  0.00000000000E+00 0.  1.
<mgrwt>
<rscale>  0 0.11104226E+04</rscale>
<asrwt>0</asrwt>
<pdfrwt beam="1">  1        1 0.29414017E+00 0.11104226E+04</pdfrwt>
<pdfrwt beam="2">  1       -2 0.11700298E+00 0.11104226E+04</pdfrwt>
<totfact> 0.16793903E+00</totfact>
</mgrwt>
</event>
<event>
12    3  0.2212098E-007  0.6361844E+03  0.7818608E-02  0.9833054E-01
         -2   -1    0    0    0  501 -0.00000000000E+00  0.00000000000E+00  0.23470919511E+03  0.23470919511E+03  0.00000000000E+00 0.  1.
          1   -1    0    0  501    0  0.00000000000E+00 -0.00000000000E+00 -0.20465498621E+04  0.20465498621E+04  0.00000000000E+00 0. -1.
        -24    2    1    2    0    0  0.89304909657E+02  0.50900700721E+03 -0.38593683115E+03  0.65025489217E+03  0.82587449873E+02 0.  0.
    5000000    2    1    2    0    0 -0.89304909657E+02 -0.50900700721E+03 -0.14259038359E+04  0.16310041651E+04  0.59992444277E+03 0.  0.
        -24    2    4    4    0    0 -0.12022526807E+03 -0.61398656292E+03 -0.98770394796E+03  0.11726223574E+04  0.89724521676E+02 0.  0.
         24    2    4    4    0    0  0.30920358411E+02  0.10497955571E+03 -0.43819988791E+03  0.45838180765E+03  0.78217415783E+02 0.  0.
         11    1    5    5    0    0 -0.86706040487E+02 -0.43365335486E+03 -0.76989661260E+03  0.88787046563E+03  0.00000000000E+00 0. -1.
        -12    1    5    5    0    0 -0.33519227581E+02 -0.18033320806E+03 -0.21780733536E+03  0.28475189180E+03  0.00000000000E+00 0.  1.
         11    1    3    3    0    0  0.13224401919E+02  0.30125988896E+03 -0.23726867569E+03  0.38370409167E+03  0.00000000000E+00 0. -1.
        -12    1    3    3    0    0  0.76080507738E+02  0.20774711825E+03 -0.14866815546E+03  0.26655080050E+03  0.00000000000E+00 0.  1.
          2    1    6    6  502    0  0.45795831492E+02  0.96456920407E+02 -0.42007618644E+03  0.43343419119E+03  0.00000000000E+00 0. -1.
         -1    1    6    6    0  502 -0.14875473081E+02  0.85226353000E+01 -0.18123701476E+02  0.24947616460E+02  0.00000000000E+00 0.  1.
<mgrwt>
<rscale>  0 0.63618438E+03</rscale>
<asrwt>0</asrwt>
<pdfrwt beam="1">  1        1 0.31485383E+00 0.63618438E+03</pdfrwt>
<pdfrwt beam="2">  1       -2 0.36109107E-01 0.63618438E+03</pdfrwt>
<totfact> 0.18552318E+01</totfact>
</mgrwt>
</event>
<event>
12    3  0.2212098E-007  0.6468682E+03  0.7818608E-02  0.9812674E-01
         -2   -1    0    0    0  501 -0.00000000000E+00  0.00000000000E+00  0.15912280449E+04  0.15912280449E+04  0.00000000000E+00 0.  1.
          1   -1    0    0  501    0  0.00000000000E+00 -0.00000000000E+00 -0.27734743754E+03  0.27734743754E+03  0.00000000000E+00 0. -1.
        -24    2    1    2    0    0  0.42465100614E+03 -0.28620076751E+03  0.36172606774E+03  0.63222336767E+03  0.81371261523E+02 0.  0.
    5000000    2    1    2    0    0 -0.42465100614E+03  0.28620076751E+03  0.95215453963E+03  0.12363521148E+04  0.59977406419E+03 0.  0.
        -24    2    4    4    0    0 -0.36327101160E+03 -0.10276584451E+03  0.49571505253E+03  0.62798964325E+03  0.78172450698E+02 0.  0.
         24    2    4    4    0    0 -0.61379994539E+02  0.38896661203E+03  0.45643948710E+03  0.60836247155E+03  0.81886277272E+02 0.  0.
         11    1    3    3    0    0  0.29385642322E+03 -0.15910736122E+03  0.20722524799E+03  0.39320357738E+03  0.00000000000E+00 0. -1.
        -12    1    3    3    0    0  0.13079458292E+03 -0.12709340630E+03  0.15450081975E+03  0.23901979029E+03  0.00000000000E+00 0.  1.
         13    1    5    5    0    0 -0.23911052245E+03 -0.99058107973E+02  0.36729963134E+03  0.44932768653E+03  0.00000000000E+00 0. -1.
        -14    1    5    5    0    0 -0.12416048915E+03 -0.37077365381E+01  0.12841542119E+03  0.17866195672E+03  0.00000000000E+00 0.  1.
          2    1    6    6  502    0 -0.39982863371E+02  0.19753631770E+03  0.17268135365E+03  0.26540172583E+03  0.00000000000E+00 0. -1.
         -1    1    6    6    0  502 -0.21397131168E+02  0.19143029433E+03  0.28375813345E+03  0.34296074572E+03  0.00000000000E+00 0.  1.
<mgrwt>
<rscale>  0 0.64686823E+03</rscale>
<asrwt>0</asrwt>
<pdfrwt beam="1">  1        1 0.42668838E-01 0.64686823E+03</pdfrwt>
<pdfrwt beam="2">  1       -2 0.24480431E+00 0.64686823E+03</pdfrwt>
<totfact> 0.61246175E+00</totfact>
</mgrwt>
</event>
<event>
12    3  0.2212098E-007  0.6469118E+03  0.7818608E-02  0.9812591E-01
         -2   -1    0    0    0  501 -0.00000000000E+00  0.00000000000E+00  0.19124302730E+04  0.19124302730E+04  0.00000000000E+00 0.  1.
          1   -1    0    0  501    0  0.00000000000E+00 -0.00000000000E+00 -0.31638312025E+03  0.31638312025E+03  0.00000000000E+00 0. -1.
        -24    2    1    2    0    0 -0.15169123047E+03 -0.54786900301E+03  0.11599697545E+04  0.12942437836E+04  0.79790138631E+02 0.  0.
    5000000    2    1    2    0    0  0.15169123047E+03  0.54786900301E+03  0.43607739818E+03  0.93456960957E+03  0.60007181575E+03 0.  0.
        -24    2    4    4    0    0  0.24097226784E+03  0.55060018053E+03  0.15251196737E+03  0.62531507148E+03  0.80813648430E+02 0.  0.
         24    2    4    4    0    0 -0.89281037363E+02 -0.27311775123E+01  0.28356543082E+03  0.30925453808E+03  0.85149590774E+02 0.  0.
         11    1    3    3    0    0 -0.62628670780E+02 -0.31860539483E+03  0.72869168102E+03  0.79776143928E+03  0.00000000000E+00 0. -1.
        -12    1    3    3    0    0 -0.89062559692E+02 -0.22926360818E+03  0.43127807350E+03  0.49648234436E+03  0.00000000000E+00 0.  1.
         13    1    5    5    0    0  0.12239755868E+03  0.34165290795E+03  0.12334276911E+03  0.38330315753E+03  0.00000000000E+00 0. -1.
        -14    1    5    5    0    0  0.11857470915E+03  0.20894727258E+03  0.29169198258E+02  0.24201191395E+03  0.00000000000E+00 0.  1.
          4    1    6    6  502    0 -0.10393320802E+03 -0.84449171666E+01  0.26583102339E+03  0.28555132875E+03  0.00000000000E+00 0. -1.
         -3    1    6    6    0  502  0.14652170660E+02  0.57137396543E+01  0.17734407425E+02  0.23703209331E+02  0.00000000000E+00 0.  1.
<mgrwt>
<rscale>  0 0.64691185E+03</rscale>
<asrwt>0</asrwt>
<pdfrwt beam="1">  1        1 0.48674327E-01 0.64691185E+03</pdfrwt>
<pdfrwt beam="2">  1       -2 0.29422004E+00 0.64691185E+03</pdfrwt>
<totfact> 0.26115557E+00</totfact>
</mgrwt>
</event>
<event>
12    3  0.2212098E-007  0.5595387E+03  0.7818608E-02  0.9993099E-01
         -2   -1    0    0    0  501 -0.00000000000E+00  0.00000000000E+00  0.25803081195E+03  0.25803081195E+03  0.00000000000E+00 0.  1.
          3   -1    0    0  501    0  0.00000000000E+00 -0.00000000000E+00 -0.12575595963E+04  0.12575595963E+04  0.00000000000E+00 0. -1.
        -24    2    1    2    0    0 -0.25010831828E+02 -0.40603701805E+03 -0.36691708136E+03  0.55350072217E+03  0.79014575357E+02 0.  0.
    5000000    2    1    2    0    0  0.25010831828E+02  0.40603701805E+03 -0.63261170294E+03  0.96208968603E+03  0.59993949323E+03 0.  0.
        -24    2    4    4    0    0 -0.27203108112E+03  0.25952378178E+03 -0.34152998836E+03  0.51418244364E+03  0.79920898323E+02 0.  0.
         24    2    4    4    0    0  0.29704191295E+03  0.14651323627E+03 -0.29108171458E+03  0.44790724240E+03  0.78691211569E+02 0.  0.
         13    1    5    5    0    0 -0.14959380663E+03  0.13059721151E+03 -0.12773179707E+03  0.23611300392E+03  0.00000000000E+00 0. -1.
        -14    1    5    5    0    0 -0.12243727449E+03  0.12892657027E+03 -0.21379819129E+03  0.27806943972E+03  0.00000000000E+00 0.  1.
         13    1    3    3    0    0 -0.10990794204E+02 -0.49152849529E+02 -0.16129502002E+02  0.52886302659E+02  0.00000000000E+00 0. -1.
        -14    1    3    3    0    0 -0.14020037624E+02 -0.35688416852E+03 -0.35078757936E+03  0.50061441951E+03  0.00000000000E+00 0.  1.
          4    1    6    6  502    0  0.51572259617E+02  0.49565903739E+01 -0.19333484640E+02  0.55299632716E+02  0.00000000000E+00 0. -1.
         -3    1    6    6    0  502  0.24546965333E+03  0.14155664589E+03 -0.27174822994E+03  0.39260760968E+03  0.00000000000E+00 0.  1.
<mgrwt>
<rscale>  0 0.55953871E+03</rscale>
<asrwt>0</asrwt>
<pdfrwt beam="1">  1        3 0.19347070E+00 0.55953871E+03</pdfrwt>
<pdfrwt beam="2">  1       -2 0.39697049E-01 0.55953871E+03</pdfrwt>
<totfact> 0.40878459E+00</totfact>
</mgrwt>
</event>
<event>
12    3  0.2212098E-007  0.4976783E+03  0.7818608E-02  0.1014387E+00
          1   -1    0    0  501    0  0.00000000000E+00  0.00000000000E+00  0.55525306387E+03  0.55525306387E+03  0.00000000000E+00 0. -1.
         -2   -1    0    0    0  501 -0.00000000000E+00 -0.00000000000E+00 -0.52384745344E+03  0.52384745344E+03  0.00000000000E+00 0.  1.
        -24    2    1    2    0    0 -0.27079310436E+03  0.15926758501E+03  0.19930619161E+03  0.38131757596E+03  0.83576711571E+02 0.  0.
    5000000    2    1    2    0    0  0.27079310436E+03 -0.15926758501E+03 -0.16790058118E+03  0.69778294135E+03  0.60001279909E+03 0.  0.
        -24    2    4    4    0    0  0.58235311184E+02  0.21545695938E+03 -0.78854603207E+02  0.24981549190E+03  0.79854109060E+02 0.  0.
         24    2    4    4    0    0  0.21255779318E+03 -0.37472454438E+03 -0.89045977971E+02  0.44796744945E+03  0.84536086777E+02 0.  0.
         11    1    5    5    0    0 -0.10573091670E+02  0.84715663053E+02 -0.51072794047E+02  0.99483486699E+02  0.00000000000E+00 0. -1.
        -12    1    5    5    0    0  0.68808402853E+02  0.13074129632E+03 -0.27781809159E+02  0.15033200520E+03  0.00000000000E+00 0.  1.
         13    1    3    3    0    0 -0.26569725070E+02  0.48087179896E+02  0.49738958123E+02  0.74109993360E+02  0.00000000000E+00 0. -1.
        -14    1    3    3    0    0 -0.24422337929E+03  0.11118040511E+03  0.14956723349E+03  0.30720758260E+03  0.00000000000E+00 0.  1.
          4    1    6    6  502    0  0.76614514536E+02 -0.64101068802E+02 -0.23524839199E+02  0.10262625843E+03  0.00000000000E+00 0. -1.
         -3    1    6    6    0  502  0.13594327864E+03 -0.31062347558E+03 -0.65521138772E+02  0.34534119102E+03  0.00000000000E+00 0.  1.
<mgrwt>
<rscale>  0 0.49767832E+03</rscale>
<asrwt>0</asrwt>
<pdfrwt beam="1">  1        1 0.85423548E-01 0.49767832E+03</pdfrwt>
<pdfrwt beam="2">  1       -2 0.80591916E-01 0.49767832E+03</pdfrwt>
<totfact> 0.47370282E+01</totfact>
</mgrwt>
</event>
<event>
12    3  0.2212098E-007  0.3275455E+03  0.7818608E-02  0.1072228E+00
         -2   -1    0    0    0  501 -0.00000000000E+00  0.00000000000E+00  0.80102583572E+02  0.80102583572E+02  0.00000000000E+00 0.  1.
          1   -1    0    0  501    0  0.00000000000E+00 -0.00000000000E+00 -0.18486158824E+04  0.18486158824E+04  0.00000000000E+00 0. -1.
        -24    2    1    2    0    0 -0.27660582402E+02  0.80478841110E-01 -0.32121064652E+02  0.91517126655E+02  0.81107998256E+02 0.  0.
    5000000    2    1    2    0    0  0.27660582402E+02 -0.80478841110E-01 -0.17363922341E+04  0.18372013393E+04  0.59957122678E+03 0.  0.
        -24    2    4    4    0    0 -0.20083258829E+03  0.18482025115E+03 -0.97323841923E+03  0.10155207532E+04  0.97964920781E+02 0.  0.
         24    2    4    4    0    0  0.22849317070E+03 -0.18490072999E+03 -0.76315381491E+03  0.82168058611E+03  0.79736010490E+02 0.  0.
         11    1    5    5    0    0 -0.82829654601E+02  0.25117413535E+02 -0.38716813412E+03  0.39672509402E+03  0.00000000000E+00 0. -1.
        -12    1    5    5    0    0 -0.11800293369E+03  0.15970283762E+03 -0.58607028511E+03  0.61879565916E+03  0.00000000000E+00 0.  1.
         13    1    3    3    0    0  0.11532503807E+02  0.19992369115E+02 -0.40641563037E+02  0.46737887340E+02  0.00000000000E+00 0. -1.
        -14    1    3    3    0    0 -0.39193086209E+02 -0.19911890274E+02  0.85204983854E+01  0.44779239315E+02  0.00000000000E+00 0.  1.
          2    1    6    6  502    0  0.47582924251E+02 -0.81981406379E+02 -0.27973775603E+03  0.29536130048E+03  0.00000000000E+00 0. -1.
         -3    1    6    6    0  502  0.18091024644E+03 -0.10291932361E+03 -0.48341605888E+03  0.52631928563E+03  0.00000000000E+00 0.  1.
<mgrwt>
<rscale>  0 0.32754553E+03</rscale>
<asrwt>0</asrwt>
<pdfrwt beam="1">  1        1 0.28440242E+00 0.32754553E+03</pdfrwt>
<pdfrwt beam="2">  1       -2 0.12323475E-01 0.32754553E+03</pdfrwt>
<totfact> 0.17461014E+02</totfact>
</mgrwt>
</event>
<event>
12    3  0.2634805E-007  0.6513187E+03  0.7818608E-02  0.9804308E-01
          1   -1    0    0  501    0  0.00000000000E+00  0.00000000000E+00  0.18775716904E+04  0.18775716904E+04  0.00000000000E+00 0. -1.
         -2   -1    0    0    0  501 -0.00000000000E+00 -0.00000000000E+00 -0.30729283559E+03  0.30729283559E+03  0.00000000000E+00 0.  1.
        -24    2    1    2    0    0  0.93102649423E+02 -0.62730458861E+03  0.78230372257E+03  0.10088820043E+04  0.60536220002E+02 0.  0.
    5000000    2    1    2    0    0 -0.93102649423E+02  0.62730458861E+03  0.78797513224E+03  0.11759825217E+04  0.59987576396E+03 0.  0.
        -24    2    4    4    0    0 -0.10848331889E+03  0.16043011793E+03 -0.50228326364E+02  0.21309192868E+03  0.73340521441E+02 0.  0.
         24    2    4    4    0    0  0.15380669468E+02  0.46687447069E+03  0.83820345860E+03  0.96289059305E+03  0.79780447538E+02 0.  0.
         11    1    3    3    0    0  0.62661570541E+02 -0.40527265236E+03  0.55050643007E+03  0.68646174309E+03  0.00000000000E+00 0. -1.
        -12    1    3    3    0    0  0.30441078883E+02 -0.22203193625E+03  0.23179729250E+03  0.32242026117E+03  0.00000000000E+00 0.  1.
         11    1    5    5    0    0 -0.70476654754E+02  0.14315217192E+03 -0.18449203075E+02  0.16062339894E+03  0.00000000000E+00 0. -1.
        -12    1    5    5    0    0 -0.38006664137E+02  0.17277946004E+02 -0.31779123288E+02  0.52468529748E+02  0.00000000000E+00 0.  1.
          2    1    6    6  502    0  0.49136054685E+01  0.17090462906E+03  0.23181490317E+03  0.28804632455E+03  0.00000000000E+00 0. -1.
         -1    1    6    6    0  502  0.10467063999E+02  0.29596984163E+03  0.60638855543E+03  0.67484426851E+03  0.00000000000E+00 0.  1.
<mgrwt>
<rscale>  0 0.65131869E+03</rscale>
<asrwt>0</asrwt>
<pdfrwt beam="1">  1        1 0.28885718E+00 0.65131869E+03</pdfrwt>
<pdfrwt beam="2">  1       -2 0.47275822E-01 0.65131869E+03</pdfrwt>
<totfact> 0.14149036E+01</totfact>
</mgrwt>
</event>
<event>
12    3  0.2212098E-007  0.1002628E+04  0.7818608E-02  0.9305667E-01
         -2   -1    0    0    0  501 -0.00000000000E+00  0.00000000000E+00  0.27508812730E+03  0.27508812730E+03  0.00000000000E+00 0.  1.
          1   -1    0    0  501    0  0.00000000000E+00 -0.00000000000E+00 -0.42421127267E+04  0.42421127267E+04  0.00000000000E+00 0. -1.
        -24    2    1    2    0    0  0.31732607264E+03  0.86847345692E+03 -0.10621911818E+04  0.14102680431E+04  0.75258653519E+02 0.  0.
    5000000    2    1    2    0    0 -0.31732607264E+03 -0.86847345692E+03 -0.29048334176E+04  0.31069328109E+04  0.60002693750E+03 0.  0.
        -24    2    4    4    0    0 -0.28323190077E+03 -0.10694263967E+03 -0.58400872183E+03  0.66272132623E+03  0.80475656379E+02 0.  0.
         24    2    4    4    0    0 -0.34094171869E+02 -0.76153081725E+03 -0.23208246957E+04  0.24442114847E+04  0.82770255292E+02 0.  0.
         11    1    3    3    0    0  0.77972230090E+02  0.31691469689E+03 -0.38188375275E+03  0.50234429865E+03  0.00000000000E+00 0. -1.
        -12    1    3    3    0    0  0.23935384255E+03  0.55155876002E+03 -0.68030742908E+03  0.90792374447E+03  0.00000000000E+00 0.  1.
         13    1    5    5    0    0 -0.16307821226E+03 -0.98377363711E+02 -0.39624894559E+03  0.43964285037E+03  0.00000000000E+00 0. -1.
        -14    1    5    5    0    0 -0.12015368852E+03 -0.85652759622E+01 -0.18775977624E+03  0.22307847586E+03  0.00000000000E+00 0.  1.
          2    1    6    6  502    0 -0.61518267194E+02 -0.54572942805E+03 -0.16750314852E+04  0.17627636206E+04  0.00000000000E+00 0. -1.
         -1    1    6    6    0  502  0.27424095325E+02 -0.21580138919E+03 -0.64579321054E+03  0.68144786401E+03  0.00000000000E+00 0.  1.
<mgrwt>
<rscale>  0 0.10026278E+04</rscale>
<asrwt>0</asrwt>
<pdfrwt beam="1">  1        1 0.65263267E+00 0.10026278E+04</pdfrwt>
<pdfrwt beam="2">  1       -2 0.42321254E-01 0.10026278E+04</pdfrwt>
<totfact> 0.28453755E-01</totfact>
</mgrwt>
</event>
<event>
12    3  0.2212098E-007  0.5273922E+03  0.7818608E-02  0.1006867E+00
         -2   -1    0    0    0  501 -0.00000000000E+00  0.00000000000E+00  0.25050346046E+03  0.25050346046E+03  0.00000000000E+00 0.  1.
          1   -1    0    0  501    0  0.00000000000E+00 -0.00000000000E+00 -0.15093027663E+04  0.15093027663E+04  0.00000000000E+00 0. -1.
        -24    2    1    2    0    0 -0.18071468886E+03  0.42646658850E+03 -0.52999278522E+03  0.70826007849E+03  0.78793632486E+02 0.  0.
    5000000    2    1    2    0    0  0.18071468886E+03 -0.42646658850E+03 -0.72880652063E+03  0.10515461483E+04  0.60004900430E+03 0.  0.
        -24    2    4    4    0    0 -0.54043996529E+02  0.32894790314E+02  0.50751319436E+02  0.11368278414E+03  0.79657128964E+02 0.  0.
         24    2    4    4    0    0  0.23475868539E+03 -0.45936137882E+03 -0.77955784007E+03  0.93786336413E+03  0.75846865842E+02 0.  0.
         11    1    5    5    0    0 -0.28846663581E+02  0.13557704289E+02 -0.18952946714E+02  0.37083089603E+02  0.00000000000E+00 0. -1.
        -12    1    5    5    0    0 -0.25197332947E+02  0.19337086025E+02  0.69704266151E+02  0.76599694537E+02  0.00000000000E+00 0.  1.
         13    1    3    3    0    0 -0.21934858167E+02  0.99763768507E+01 -0.26642332309E+02  0.35923251088E+02  0.00000000000E+00 0. -1.
        -14    1    3    3    0    0 -0.15877983069E+03  0.41649021165E+03 -0.50335045292E+03  0.67233682741E+03  0.00000000000E+00 0.  1.
          2    1    6    6  502    0  0.42270472677E+02 -0.15941218528E+03 -0.23826289893E+03  0.28977275007E+03  0.00000000000E+00 0. -1.
         -1    1    6    6    0  502  0.19248821271E+03 -0.29994919354E+03 -0.54129494114E+03  0.64809061406E+03  0.00000000000E+00 0.  1.
<mgrwt>
<rscale>  0 0.52739224E+03</rscale>
<asrwt>0</asrwt>
<pdfrwt beam="1">  1        1 0.23220042E+00 0.52739224E+03</pdfrwt>
<pdfrwt beam="2">  1       -2 0.38538994E-01 0.52739224E+03</pdfrwt>
<totfact> 0.38059045E+01</totfact>
</mgrwt>
</event>
<event>
12    3  0.2212098E-007  0.5087298E+03  0.7818608E-02  0.1011525E+00
          1   -1    0    0  501    0  0.00000000000E+00  0.00000000000E+00  0.30063114804E+04  0.30063114804E+04  0.00000000000E+00 0. -1.
         -2   -1    0    0    0  501 -0.00000000000E+00 -0.00000000000E+00 -0.11935451820E+03  0.11935451820E+03  0.00000000000E+00 0.  1.
        -24    2    1    2    0    0  0.36880012142E+03 -0.61621349163E+02  0.46148944310E+03  0.59926980920E+03  0.79630885348E+02 0.  0.
    5000000    2    1    2    0    0 -0.36880012142E+03  0.61621349163E+02  0.24254675191E+04  0.25263961894E+04  0.59997858242E+03 0.  0.
        -24    2    4    4    0    0 -0.46541444506E+03 -0.65213814215E+02  0.21190943832E+04  0.21720515697E+04  0.79897240023E+02 0.  0.
         24    2    4    4    0    0  0.96614323639E+02  0.12683516338E+03  0.30637313584E+03  0.35434461972E+03  0.79209374168E+02 0.  0.
         13    1    5    5    0    0 -0.10755227216E+03 -0.38883566911E+02  0.63311416572E+03  0.64336068411E+03  0.00000000000E+00 0. -1.
        -14    1    5    5    0    0 -0.35786217289E+03 -0.26330247304E+02  0.14859802175E+04  0.15286908855E+04  0.00000000000E+00 0.  1.
         13    1    3    3    0    0  0.20448862599E+03 -0.67305494108E+02  0.29586773154E+03  0.36590072733E+03  0.00000000000E+00 0. -1.
        -14    1    3    3    0    0  0.16431149543E+03  0.56841449443E+01  0.16562171156E+03  0.23336908188E+03  0.00000000000E+00 0.  1.
          4    1    6    6  502    0  0.15898489185E+02  0.21492134831E+01  0.26671012286E+01  0.16263287057E+02  0.00000000000E+00 0. -1.
         -3    1    6    6    0  502  0.80715834455E+02  0.12468594990E+03  0.30370603462E+03  0.33808133266E+03  0.00000000000E+00 0.  1.
<mgrwt>
<rscale>  0 0.50872982E+03</rscale>
<asrwt>0</asrwt>
<pdfrwt beam="1">  1        1 0.46250940E+00 0.50872982E+03</pdfrwt>
<pdfrwt beam="2">  1       -2 0.18362236E-01 0.50872982E+03</pdfrwt>
<totfact> 0.14288527E+01</totfact>
</mgrwt>
</event>
<event>
12    3  0.2212098E-007  0.1539213E+04  0.7818608E-02  0.8858787E-01
         -2   -1    0    0    0  501 -0.00000000000E+00  0.00000000000E+00  0.13486429670E+04  0.13486429670E+04  0.00000000000E+00 0.  1.
          1   -1    0    0  501    0  0.00000000000E+00 -0.00000000000E+00 -0.19001170537E+04  0.19001170537E+04  0.00000000000E+00 0. -1.
        -24    2    1    2    0    0  0.99102048817E+03 -0.11316695891E+04  0.84733933574E+02  0.15087776155E+04  0.80202160329E+02 0.  0.
    5000000    2    1    2    0    0 -0.99102048817E+03  0.11316695891E+04 -0.63620802036E+03  0.17399824052E+04  0.59998371515E+03 0.  0.
        -24    2    4    4    0    0 -0.17198453324E+03  0.12814594578E+02  0.44068749821E+02  0.19348728871E+03  0.75844463685E+02 0.  0.
         24    2    4    4    0    0 -0.81903595493E+03  0.11188549945E+04 -0.68027677018E+03  0.15464951165E+04  0.78830623029E+02 0.  0.
         11    1    5    5    0    0 -0.24382024091E+02 -0.23647166405E+02  0.20387696490E+02  0.39614766766E+02  0.00000000000E+00 0. -1.
        -12    1    5    5    0    0 -0.14760250915E+03  0.36461760983E+02  0.23681053331E+02  0.15387252194E+03  0.00000000000E+00 0.  1.
         13    1    3    3    0    0  0.26116509645E+03 -0.25437528188E+03  0.39138605433E+02  0.36666854524E+03  0.00000000000E+00 0. -1.
        -14    1    3    3    0    0  0.72985539172E+03 -0.87729430723E+03  0.45595328141E+02  0.11421090702E+04  0.00000000000E+00 0.  1.
          2    1    6    6  502    0 -0.58150165269E+03  0.80336317469E+03 -0.44688810020E+03  0.10877709026E+04  0.00000000000E+00 0. -1.
         -1    1    6    6    0  502 -0.23753430225E+03  0.31549181984E+03 -0.23338866999E+03  0.45872421389E+03  0.00000000000E+00 0.  1.
<mgrwt>
<rscale>  0 0.15392131E+04</rscale>
<asrwt>0</asrwt>
<pdfrwt beam="1">  1        1 0.29232570E+00 0.15392131E+04</pdfrwt>
<pdfrwt beam="2">  1       -2 0.20748353E+00 0.15392131E+04</pdfrwt>
<totfact> 0.34052078E-01</totfact>
</mgrwt>
</event>
<event>
12    3  0.2212098E-007  0.7692507E+03  0.7818608E-02  0.9605624E-01
          1   -1    0    0  501    0  0.00000000000E+00  0.00000000000E+00  0.23659514352E+04  0.23659514352E+04  0.00000000000E+00 0. -1.
         -2   -1    0    0    0  501 -0.00000000000E+00 -0.00000000000E+00 -0.62481343829E+03  0.62481343829E+03  0.00000000000E+00 0.  1.
        -24    2    1    2    0    0 -0.62134236838E+03 -0.26742412044E+03  0.19475626988E+04  0.20632464409E+04  0.80021318125E+02 0.  0.
    5000000    2    1    2    0    0  0.62134236838E+03  0.26742412044E+03 -0.20642470187E+03  0.92751843257E+03  0.60008106643E+03 0.  0.
        -24    2    4    4    0    0  0.27716037869E+03  0.39570708400E+03  0.17868243779E+02  0.48987218273E+03  0.79079133956E+02 0.  0.
         24    2    4    4    0    0  0.34418198968E+03 -0.12828296357E+03 -0.22429294565E+03  0.43764624985E+03  0.79430181739E+02 0.  0.
         11    1    5    5    0    0  0.15369664173E+02  0.53231435821E+02 -0.15432005627E+02  0.57514860115E+02  0.00000000000E+00 0. -1.
        -12    1    5    5    0    0  0.26179071452E+03  0.34247564818E+03  0.33300249406E+02  0.43235732261E+03  0.00000000000E+00 0.  1.
         11    1    3    3    0    0 -0.43301369443E+03 -0.19535243764E+03  0.12539064545E+04  0.13408746516E+04  0.00000000000E+00 0. -1.
        -12    1    3    3    0    0 -0.18832867395E+03 -0.72071682795E+02  0.69365624421E+03  0.72237178933E+03  0.00000000000E+00 0.  1.
          4    1    6    6  502    0  0.29558546835E+03 -0.78647970490E+02 -0.17412054728E+03  0.35195772096E+03  0.00000000000E+00 0. -1.
         -3    1    6    6    0  502  0.48596521336E+02 -0.49634993078E+02 -0.50172398372E+02  0.85688528883E+02  0.00000000000E+00 0.  1.
<mgrwt>
<rscale>  0 0.76925068E+03</rscale>
<asrwt>0</asrwt>
<pdfrwt beam="1">  1        1 0.36399252E+00 0.76925068E+03</pdfrwt>
<pdfrwt beam="2">  1       -2 0.96125145E-01 0.76925068E+03</pdfrwt>
<totfact> 0.14014743E+00</totfact>
</mgrwt>
</event>
<event>
12    3  0.2212098E-007  0.5996287E+03  0.7818608E-02  0.9906177E-01
         -2   -1    0    0    0  501 -0.00000000000E+00  0.00000000000E+00  0.62460327382E+03  0.62460327382E+03  0.00000000000E+00 0.  1.
          1   -1    0    0  501    0  0.00000000000E+00 -0.00000000000E+00 -0.84536506941E+03  0.84536506941E+03  0.00000000000E+00 0. -1.
        -24    2    1    2    0    0  0.42484914264E+03  0.22014159297E+03  0.27497039373E+03  0.55662214898E+03  0.72528507145E+02 0.  0.
    5000000    2    1    2    0    0 -0.42484914264E+03 -0.22014159297E+03 -0.49573218932E+03  0.91334619425E+03  0.59957631045E+03 0.  0.
        -24    2    4    4    0    0  0.11893330663E+03 -0.92577087218E+02 -0.14413259826E+02  0.17178440337E+03  0.81157197337E+02 0.  0.
         24    2    4    4    0    0 -0.54378244927E+03 -0.12756450576E+03 -0.48131892950E+03  0.74156179088E+03  0.79208096370E+02 0.  0.
         13    1    3    3    0    0  0.37871959904E+03  0.16794497022E+03  0.23381778319E+03  0.47571504438E+03  0.00000000000E+00 0. -1.
        -14    1    3    3    0    0  0.46129543605E+02  0.52196622757E+02  0.41152610539E+02  0.80907104599E+02  0.00000000000E+00 0.  1.
         13    1    5    5    0    0  0.10803973025E+03 -0.69226117316E+02 -0.41052490885E+02  0.13472247637E+03  0.00000000000E+00 0. -1.
        -14    1    5    5    0    0  0.10893576376E+02 -0.23350969902E+02  0.26639231059E+02  0.37061927001E+02  0.00000000000E+00 0.  1.
          4    1    6    6  502    0 -0.28260529451E+03 -0.94395181893E+02 -0.29288340504E+03  0.41780006199E+03  0.00000000000E+00 0. -1.
         -1    1    6    6    0  502 -0.26117715476E+03 -0.33169323864E+02 -0.18843552446E+03  0.32376172889E+03  0.00000000000E+00 0.  1.
<mgrwt>
<rscale>  0 0.59962872E+03</rscale>
<asrwt>0</asrwt>
<pdfrwt beam="1">  1        1 0.13005616E+00 0.59962872E+03</pdfrwt>
<pdfrwt beam="2">  1       -2 0.96092811E-01 0.59962872E+03</pdfrwt>
<totfact> 0.16705771E+01</totfact>
</mgrwt>
</event>
<event>
12    3  0.2212098E-007  0.1618664E+04  0.7818608E-02  0.8809163E-01
          1   -1    0    0  501    0  0.00000000000E+00  0.00000000000E+00  0.19388592118E+04  0.19388592118E+04  0.00000000000E+00 0. -1.
         -2   -1    0    0    0  501 -0.00000000000E+00 -0.00000000000E+00 -0.16829067652E+04  0.16829067652E+04  0.00000000000E+00 0.  1.
        -24    2    1    2    0    0  0.15290223461E+04 -0.32976801506E+03  0.92364666643E+03  0.18182387882E+04  0.78821622622E+02 0.  0.
    5000000    2    1    2    0    0 -0.15290223461E+04  0.32976801506E+03 -0.66769421981E+03  0.18035271887E+04  0.60019869262E+03 0.  0.
        -24    2    4    4    0    0 -0.76610308674E+03  0.45982822248E+03 -0.34932084327E+03  0.96273922070E+03  0.80534600211E+02 0.  0.
         24    2    4    4    0    0 -0.76291925932E+03 -0.13006020742E+03 -0.31837337654E+03  0.84078796797E+03  0.81248670202E+02 0.  0.
         13    1    5    5    0    0 -0.73491793674E+03  0.41993761071E+03 -0.32698824663E+03  0.90739918672E+03  0.00000000000E+00 0. -1.
        -14    1    5    5    0    0 -0.31185149998E+02  0.39890611771E+02 -0.22332596645E+02  0.55340033979E+02  0.00000000000E+00 0.  1.
         13    1    3    3    0    0  0.30187244054E+03 -0.92616102911E+02  0.20578270187E+03  0.37689684699E+03  0.00000000000E+00 0. -1.
        -14    1    3    3    0    0  0.12271499055E+04 -0.23715191215E+03  0.71786396456E+03  0.14413419413E+04  0.00000000000E+00 0.  1.
          4    1    6    6  502    0 -0.67878860221E+03 -0.10500523629E+03 -0.30672285777E+03  0.75223598532E+03  0.00000000000E+00 0. -1.
         -3    1    6    6    0  502 -0.84130657105E+02 -0.25054971135E+02 -0.11650518773E+02  0.88551982649E+02  0.00000000000E+00 0.  1.
<mgrwt>
<rscale>  0 0.16186645E+04</rscale>
<asrwt>0</asrwt>
<pdfrwt beam="1">  1        1 0.29828603E+00 0.16186645E+04</pdfrwt>
<pdfrwt beam="2">  1       -2 0.25890873E+00 0.16186645E+04</pdfrwt>
<totfact> 0.15113337E-01</totfact>
</mgrwt>
</event>
<event>
12    3  0.2212098E-007  0.5308448E+03  0.7818608E-02  0.1006027E+00
          1   -1    0    0  501    0  0.00000000000E+00  0.00000000000E+00  0.12070045099E+04  0.12070045099E+04  0.00000000000E+00 0. -1.
         -2   -1    0    0    0  501 -0.00000000000E+00 -0.00000000000E+00 -0.46729181614E+03  0.46729181614E+03  0.00000000000E+00 0.  1.
        -24    2    1    2    0    0  0.24035751729E+03 -0.27894742279E+03  0.87908648020E+03  0.95669531522E+03  0.83002925816E+02 0.  0.
    5000000    2    1    2    0    0 -0.24035751729E+03  0.27894742279E+03 -0.13937378644E+03  0.71760101081E+03  0.59995229608E+03 0.  0.
        -24    2    4    4    0    0  0.56530232849E+02  0.36938546928E+03 -0.12129292907E+03  0.39589611444E+03  0.48790026089E+02 0.  0.
         24    2    4    4    0    0 -0.29688775014E+03 -0.90438046497E+02 -0.18080857372E+02  0.32170489637E+03  0.82739026512E+02 0.  0.
         11    1    3    3    0    0  0.34215490608E+02 -0.25995989383E+02  0.51327162422E+02  0.66940039317E+02  0.00000000000E+00 0. -1.
        -12    1    3    3    0    0  0.20614202668E+03 -0.25295143340E+03  0.82775931778E+03  0.88975527590E+03  0.00000000000E+00 0.  1.
         13    1    5    5    0    0  0.36347189929E+02  0.13024907397E+03 -0.26110990418E+02  0.13772335788E+03  0.00000000000E+00 0. -1.
        -14    1    5    5    0    0  0.20183042920E+02  0.23913639531E+03 -0.95181938654E+02  0.25817275656E+03  0.00000000000E+00 0.  1.
          4    1    6    6  502    0 -0.98858941593E+02 -0.63120342510E+02  0.17713540395E+02  0.11862140399E+03  0.00000000000E+00 0. -1.
         -3    1    6    6    0  502 -0.19802880855E+03 -0.27317703987E+02 -0.35794397767E+02  0.20308349238E+03  0.00000000000E+00 0.  1.
<mgrwt>
<rscale>  0 0.53084480E+03</rscale>
<asrwt>0</asrwt>
<pdfrwt beam="1">  1        1 0.18569300E+00 0.53084480E+03</pdfrwt>
<pdfrwt beam="2">  1       -2 0.71891049E-01 0.53084480E+03</pdfrwt>
<totfact> 0.17183072E+01</totfact>
</mgrwt>
</event>
<event>
12    3  0.2212098E-007  0.9996534E+03  0.7818608E-02  0.9308925E-01
          1   -1    0    0  501    0  0.00000000000E+00  0.00000000000E+00  0.76273335553E+03  0.76273335553E+03  0.00000000000E+00 0. -1.
         -2   -1    0    0    0  501 -0.00000000000E+00 -0.00000000000E+00 -0.13629646442E+04  0.13629646442E+04  0.00000000000E+00 0.  1.
        -24    2    1    2    0    0  0.37193788939E+03 -0.84699330822E+03 -0.37023389684E+03  0.99938949176E+03  0.77270693948E+02 0.  0.
    5000000    2    1    2    0    0 -0.37193788939E+03  0.84699330822E+03 -0.22999739179E+03  0.11263085079E+04  0.59994716189E+03 0.  0.
        -24    2    4    4    0    0  0.12538011311E+03  0.10820137919E+03 -0.13502304556E+03  0.22713530038E+03  0.77016301041E+02 0.  0.
         24    2    4    4    0    0 -0.49731800249E+03  0.73879192903E+03 -0.94974346226E+02  0.89917320754E+03  0.79709602364E+02 0.  0.
         11    1    5    5    0    0  0.84205819506E+02  0.11067010928E+03 -0.87921572862E+02  0.16452567004E+03  0.00000000000E+00 0. -1.
        -12    1    5    5    0    0  0.41174293603E+02 -0.24687300875E+01 -0.47101472699E+02  0.62609630348E+02  0.00000000000E+00 0.  1.
         13    1    3    3    0    0  0.58098429898E+02 -0.21077782477E+03 -0.77809492519E+02  0.23207118757E+03  0.00000000000E+00 0. -1.
        -14    1    3    3    0    0  0.31383945949E+03 -0.63621548345E+03 -0.29242440432E+03  0.76731830419E+03  0.00000000000E+00 0.  1.
          2    1    6    6  502    0 -0.98180221475E+02  0.16453467810E+03 -0.51888573965E+02  0.19850299820E+03  0.00000000000E+00 0. -1.
         -3    1    6    6    0  502 -0.39913778102E+03  0.57425725093E+03 -0.43085772261E+02  0.70067020934E+03  0.00000000000E+00 0.  1.
<mgrwt>
<rscale>  0 0.99965344E+03</rscale>
<asrwt>0</asrwt>
<pdfrwt beam="1">  1        1 0.11734359E+00 0.99965344E+03</pdfrwt>
<pdfrwt beam="2">  1       -2 0.20968687E+00 0.99965344E+03</pdfrwt>
<totfact> 0.23992193E+00</totfact>
</mgrwt>
</event>
<event>
12    3  0.2212098E-007  0.5014126E+03  0.7818608E-02  0.1013411E+00
          1   -1    0    0  501    0  0.00000000000E+00  0.00000000000E+00  0.12397106763E+04  0.12397106763E+04  0.00000000000E+00 0. -1.
         -2   -1    0    0    0  501 -0.00000000000E+00 -0.00000000000E+00 -0.29940190067E+03  0.29940190067E+03  0.00000000000E+00 0.  1.
        -24    2    1    2    0    0 -0.24943934592E+03  0.31954848580E+03  0.62520098856E+03  0.74938859274E+03  0.79848386109E+02 0.  0.
    5000000    2    1    2    0    0  0.24943934592E+03 -0.31954848580E+03  0.31510778703E+03  0.78972398418E+03  0.60003319215E+03 0.  0.
        -24    2    4    4    0    0  0.37255645077E+03 -0.28583372229E+03  0.39555857027E+03  0.61941132583E+03  0.81881513510E+02 0.  0.
         24    2    4    4    0    0 -0.12311710485E+03 -0.33714763510E+02 -0.80450783240E+02  0.17031265835E+03  0.78990925317E+02 0.  0.
         11    1    5    5    0    0  0.15276629395E+03 -0.12235898912E+03  0.21802402014E+03  0.29299101717E+03  0.00000000000E+00 0. -1.
        -12    1    5    5    0    0  0.21979015682E+03 -0.16347473316E+03  0.17753455013E+03  0.32642030866E+03  0.00000000000E+00 0.  1.
         11    1    3    3    0    0 -0.13064931659E+03  0.16937170120E+03  0.25697774085E+03  0.33435546412E+03  0.00000000000E+00 0. -1.
        -12    1    3    3    0    0 -0.11879002933E+03  0.15017678460E+03  0.36822324771E+03  0.41503312862E+03  0.00000000000E+00 0.  1.
          2    1    6    6  502    0 -0.30545430517E+02 -0.56750359253E+01 -0.65425686115E+02  0.72427548363E+02  0.00000000000E+00 0. -1.
         -1    1    6    6    0  502 -0.92571674337E+02 -0.28039727585E+02 -0.15025097125E+02  0.97885109982E+02  0.00000000000E+00 0.  1.
<mgrwt>
<rscale>  0 0.50141264E+03</rscale>
<asrwt>0</asrwt>
<pdfrwt beam="1">  1        1 0.19072472E+00 0.50141264E+03</pdfrwt>
<pdfrwt beam="2">  1       -2 0.46061832E-01 0.50141264E+03</pdfrwt>
<totfact> 0.41376753E+01</totfact>
</mgrwt>
</event>
<event>
12    3  0.2212098E-007  0.3683332E+03  0.7818608E-02  0.1055332E+00
          1   -1    0    0  501    0  0.00000000000E+00  0.00000000000E+00  0.30467740584E+03  0.30467740584E+03  0.00000000000E+00 0. -1.
         -2   -1    0    0    0  501 -0.00000000000E+00 -0.00000000000E+00 -0.73237267013E+03  0.73237267013E+03  0.00000000000E+00 0.  1.
        -24    2    1    2    0    0 -0.13719943196E+03 -0.23334165195E+03 -0.84627366148E+02  0.29478926463E+03  0.80417092575E+02 0.  0.
    5000000    2    1    2    0    0  0.13719943196E+03  0.23334165195E+03 -0.34306789814E+03  0.74226081134E+03  0.59998626539E+03 0.  0.
        -24    2    4    4    0    0  0.22773427426E+03  0.26541344707E+02 -0.42483257533E+03  0.48938772547E+03  0.80313673324E+02 0.  0.
         24    2    4    4    0    0 -0.90534842309E+02  0.20680030724E+03  0.81764677198E+02  0.25287308587E+03  0.79349923569E+02 0.  0.
         13    1    3    3    0    0 -0.90633547178E+02 -0.17746603534E+03 -0.95967390296E+02  0.22117498406E+03  0.00000000000E+00 0. -1.
        -14    1    3    3    0    0 -0.46565884778E+02 -0.55875616608E+02  0.11340024149E+02  0.73614280572E+02  0.00000000000E+00 0.  1.
         13    1    5    5    0    0  0.75807761727E+02  0.98379286199E+00 -0.72745513339E+02  0.10506994955E+03  0.00000000000E+00 0. -1.
        -14    1    5    5    0    0  0.15192651254E+03  0.25557551845E+02 -0.35208706200E+03  0.38431777593E+03  0.00000000000E+00 0.  1.
          4    1    6    6  502    0 -0.60992932902E+02  0.61887458216E+02  0.54265520295E+02  0.10244482438E+03  0.00000000000E+00 0. -1.
         -3    1    6    6    0  502 -0.29541909407E+02  0.14491284903E+03  0.27499156902E+02  0.15042826149E+03  0.00000000000E+00 0.  1.
<mgrwt>
<rscale>  0 0.36833323E+03</rscale>
<asrwt>0</asrwt>
<pdfrwt beam="1">  1        1 0.46873448E-01 0.36833323E+03</pdfrwt>
<pdfrwt beam="2">  1       -2 0.11267272E+00 0.36833323E+03</pdfrwt>
<totfact> 0.48696597E+01</totfact>
</mgrwt>
</event>
<event>
12    3  0.2212098E-007  0.1140531E+04  0.7818608E-02  0.9166564E-01
          1   -1    0    0  501    0  0.00000000000E+00  0.00000000000E+00  0.27550433337E+04  0.27550433337E+04  0.00000000000E+00 0. -1.
         -2   -1    0    0    0  501 -0.00000000000E+00 -0.00000000000E+00 -0.51944064997E+03  0.51944064997E+03  0.00000000000E+00 0.  1.
        -24    2    1    2    0    0  0.35737892919E+03  0.10584724627E+04  0.94713308502E+03  0.14666623681E+04  0.77160662671E+02 0.  0.
    5000000    2    1    2    0    0 -0.35737892919E+03 -0.10584724627E+04  0.12884695987E+04  0.18078216155E+04  0.59998452772E+03 0.  0.
        -24    2    4    4    0    0 -0.35756282692E+03 -0.61820484705E+03  0.42381052482E+03  0.83425060276E+03  0.79563177135E+02 0.  0.
         24    2    4    4    0    0  0.18389773068E+00 -0.44026761568E+03  0.86465907386E+03  0.97357101278E+03  0.79809746736E+02 0.  0.
         11    1    3    3    0    0  0.97694940634E+02  0.30897487208E+03  0.32075861354E+03  0.45595598599E+03  0.00000000000E+00 0. -1.
        -12    1    3    3    0    0  0.25968398856E+03  0.74949759065E+03  0.62637447147E+03  0.10107063821E+04  0.00000000000E+00 0.  1.
         11    1    5    5    0    0 -0.23887584153E+03 -0.48176003121E+03  0.31889550709E+03  0.62517896620E+03  0.00000000000E+00 0. -1.
        -12    1    5    5    0    0 -0.11868698539E+03 -0.13644481584E+03  0.10491501774E+03  0.20907163657E+03  0.00000000000E+00 0.  1.
          2    1    6    6  502    0  0.23543663101E+02 -0.37781973803E+03  0.76688023535E+03  0.85522356954E+03  0.00000000000E+00 0. -1.
         -1    1    6    6    0  502 -0.23359765370E+02 -0.62447877657E+02  0.97778838505E+02  0.11834744324E+03  0.00000000000E+00 0.  1.
<mgrwt>
<rscale>  0 0.11405308E+04</rscale>
<asrwt>0</asrwt>
<pdfrwt beam="1">  1        1 0.42385281E+00 0.11405308E+04</pdfrwt>
<pdfrwt beam="2">  1       -2 0.79913948E-01 0.11405308E+04</pdfrwt>
<totfact> 0.10908785E+00</totfact>
</mgrwt>
</event>
<event>
12    3  0.2212098E-007  0.9257933E+03  0.7818608E-02  0.9393901E-01
          1   -1    0    0  501    0  0.00000000000E+00  0.00000000000E+00  0.96252384173E+03  0.96252384173E+03  0.00000000000E+00 0. -1.
         -2   -1    0    0    0  501 -0.00000000000E+00 -0.00000000000E+00 -0.92486083290E+03  0.92486083290E+03  0.00000000000E+00 0.  1.
        -24    2    1    2    0    0 -0.74582579550E+03  0.39575366430E+03 -0.36664347981E+02  0.84887635782E+03  0.79810503167E+02 0.  0.
    5000000    2    1    2    0    0  0.74582579550E+03 -0.39575366430E+03  0.74327356814E+02  0.10385083168E+04  0.60008156784E+03 0.  0.
        -24    2    4    4    0    0  0.72243268031E+03 -0.13503031521E+03  0.14978347901E+03  0.75480453408E+03  0.84573225533E+02 0.  0.
         24    2    4    4    0    0  0.23393115189E+02 -0.26072334909E+03 -0.75456122200E+02  0.28370378272E+03  0.79185272345E+02 0.  0.
         13    1    3    3    0    0 -0.49619236544E+03  0.25099591829E+03 -0.60400232492E+02  0.55933353431E+03  0.00000000000E+00 0. -1.
        -14    1    3    3    0    0 -0.24963343006E+03  0.14475774600E+03  0.23735884512E+02  0.28954282351E+03  0.00000000000E+00 0.  1.
         13    1    5    5    0    0  0.10319539118E+03 -0.18535947669E+02  0.52440114911E+02  0.11722984163E+03  0.00000000000E+00 0. -1.
        -14    1    5    5    0    0  0.61923728913E+03 -0.11649436754E+03  0.97343364102E+02  0.63757469245E+03  0.00000000000E+00 0.  1.
          2    1    6    6  502    0 -0.23490257483E+02 -0.14910342755E+03 -0.27195167933E+02  0.15337275333E+03  0.00000000000E+00 0. -1.
         -1    1    6    6    0  502  0.46883372671E+02 -0.11161992154E+03 -0.48260954266E+02  0.13033102940E+03  0.00000000000E+00 0.  1.
<mgrwt>
<rscale>  0 0.92579327E+03</rscale>
<asrwt>0</asrwt>
<pdfrwt beam="1">  1        1 0.14808059E+00 0.92579327E+03</pdfrwt>
<pdfrwt beam="2">  1       -2 0.14228628E+00 0.92579327E+03</pdfrwt>
<totfact> 0.49071639E+00</totfact>
</mgrwt>
</event>
<event>
12    3  0.2212098E-007  0.6862041E+03  0.7818608E-02  0.9741120E-01
         -2   -1    0    0    0  501 -0.00000000000E+00  0.00000000000E+00  0.53771025341E+03  0.53771025341E+03  0.00000000000E+00 0.  1.
          1   -1    0    0  501    0  0.00000000000E+00 -0.00000000000E+00 -0.11705456592E+04  0.11705456592E+04  0.00000000000E+00 0. -1.
        -24    2    1    2    0    0  0.45770006716E+03  0.49212590122E+03 -0.36044046921E+03  0.76713235742E+03  0.83050995305E+02 0.  0.
    5000000    2    1    2    0    0 -0.45770006716E+03 -0.49212590122E+03 -0.27239493659E+03  0.94112355520E+03  0.59986439347E+03 0.  0.
        -24    2    4    4    0    0 -0.34321274948E+03 -0.26841012349E+03  0.12823226325E+03  0.46117334605E+03  0.79989724180E+02 0.  0.
         24    2    4    4    0    0 -0.11448731769E+03 -0.22371577773E+03 -0.40062719984E+03  0.47995020916E+03  0.81816593059E+02 0.  0.
         11    1    3    3    0    0  0.41206567374E+03  0.42073359074E+03 -0.33984752418E+03  0.67993471270E+03  0.00000000000E+00 0. -1.
        -12    1    3    3    0    0  0.45634393430E+02  0.71392310476E+02 -0.20592945036E+02  0.87197644716E+02  0.00000000000E+00 0.  1.
         13    1    5    5    0    0 -0.21576393512E+02 -0.24800722712E+02 -0.10500731783E+02  0.34509157799E+02  0.00000000000E+00 0. -1.
        -14    1    5    5    0    0 -0.32163635597E+03 -0.24360940077E+03  0.13873299503E+03  0.42666418825E+03  0.00000000000E+00 0.  1.
          4    1    6    6  502    0 -0.69694625505E+02 -0.57752168861E+02 -0.11190779961E+03  0.14393057161E+03  0.00000000000E+00 0. -1.
         -3    1    6    6    0  502 -0.44792692182E+02 -0.16596360887E+03 -0.28871940023E+03  0.33601963754E+03  0.00000000000E+00 0.  1.
<mgrwt>
<rscale>  0 0.68620413E+03</rscale>
<asrwt>0</asrwt>
<pdfrwt beam="1">  1        1 0.18008394E+00 0.68620413E+03</pdfrwt>
<pdfrwt beam="2">  1       -2 0.82724656E-01 0.68620413E+03</pdfrwt>
<totfact> 0.13060946E+01</totfact>
</mgrwt>
</event>
<event>
12    3  0.2212098E-007  0.8266062E+03  0.7818608E-02  0.9522285E-01
          1   -1    0    0  501    0  0.00000000000E+00  0.00000000000E+00  0.15201671652E+04  0.15201671652E+04  0.00000000000E+00 0. -1.
         -2   -1    0    0    0  501 -0.00000000000E+00 -0.00000000000E+00 -0.50153768385E+03  0.50153768385E+03  0.00000000000E+00 0.  1.
        -24    2    1    2    0    0 -0.64205023773E+02  0.72390219810E+03  0.16330755082E+03  0.74899892564E+03  0.78570713186E+02 0.  0.
    5000000    2    1    2    0    0  0.64205023773E+02 -0.72390219810E+03  0.85532193057E+03  0.12727059235E+04  0.60004006967E+03 0.  0.
        -24    2    4    4    0    0 -0.80626964238E+01  0.84083211516E+02  0.18135401981E+03  0.21505519932E+03  0.78895276923E+02 0.  0.
         24    2    4    4    0    0  0.72267720197E+02 -0.80798540961E+03  0.67396791076E+03  0.10576507241E+04  0.79556671698E+02 0.  0.
         11    1    3    3    0    0 -0.21541310063E+02  0.34064292246E+03  0.37539238957E+02  0.34338145425E+03  0.00000000000E+00 0. -1.
        -12    1    3    3    0    0 -0.42663713710E+02  0.38325927563E+03  0.12576831187E+03  0.40561747139E+03  0.00000000000E+00 0.  1.
         11    1    5    5    0    0  0.22612397728E+02  0.81080804193E+02  0.14191839345E+03  0.16500378098E+03  0.00000000000E+00 0. -1.
        -12    1    5    5    0    0 -0.30675094152E+02  0.30024073228E+01  0.39435626356E+02  0.50051418332E+02  0.00000000000E+00 0.  1.
          2    1    6    6  502    0  0.31684828768E+02 -0.30291825088E+03  0.20416466786E+03  0.36666961517E+03  0.00000000000E+00 0. -1.
         -1    1    6    6    0  502  0.40582891428E+02 -0.50506715873E+03  0.46980324291E+03  0.69098110897E+03  0.00000000000E+00 0.  1.
<mgrwt>
<rscale>  0 0.82660618E+03</rscale>
<asrwt>0</asrwt>
<pdfrwt beam="1">  1        1 0.23387187E+00 0.82660618E+03</pdfrwt>
<pdfrwt beam="2">  1       -2 0.77159645E-01 0.82660618E+03</pdfrwt>
<totfact> 0.85200196E+00</totfact>
</mgrwt>
</event>
<event>
12    3  0.2473975E-007  0.1490551E+04  0.7818608E-02  0.8890761E-01
         -4   -1    0    0    0  501 -0.00000000000E+00  0.00000000000E+00  0.17432394757E+04  0.17432394757E+04  0.00000000000E+00 0.  1.
          3   -1    0    0  501    0  0.00000000000E+00 -0.00000000000E+00 -0.14831910044E+04  0.14831910044E+04  0.00000000000E+00 0. -1.
        -24    2    1    2    0    0  0.92503271360E+03  0.11309911971E+04 -0.39610757727E+03  0.15160466730E+04  0.81668187320E+02 0.  0.
    5000000    2    1    2    0    0 -0.92503271360E+03 -0.11309911971E+04  0.65615604855E+03  0.17103838071E+04  0.60003783077E+03 0.  0.
        -24    2    4    4    0    0 -0.79509365395E+03 -0.67102289749E+03  0.23840720900E+03  0.10701727791E+04  0.77370099073E+02 0.  0.
         24    2    4    4    0    0 -0.12993905965E+03 -0.45996829960E+03  0.41774883955E+03  0.64021102802E+03  0.83072688640E+02 0.  0.
         13    1    3    3    0    0  0.62862523758E+03  0.73700694448E+03 -0.29657901036E+03  0.10130686230E+04  0.00000000000E+00 0. -1.
        -14    1    3    3    0    0  0.29640747602E+03  0.39398425261E+03 -0.99528566916E+02  0.50297804999E+03  0.00000000000E+00 0.  1.
         13    1    5    5    0    0 -0.25184060895E+03 -0.18526852464E+03  0.42307474313E+02  0.31549649906E+03  0.00000000000E+00 0. -1.
        -14    1    5    5    0    0 -0.54325304500E+03 -0.48575437285E+03  0.19609973469E+03  0.75467627999E+03  0.00000000000E+00 0.  1.
          2    1    6    6  502    0 -0.61833642374E+01 -0.25026770018E+02  0.54094173487E+02  0.59922890585E+02  0.00000000000E+00 0. -1.
         -1    1    6    6    0  502 -0.12375569541E+03 -0.43494152958E+03  0.36365466606E+03  0.58028813744E+03  0.00000000000E+00 0.  1.
<mgrwt>
<rscale>  0 0.14905506E+04</rscale>
<asrwt>0</asrwt>
<pdfrwt beam="1">  1        3 0.22818323E+00 0.14905506E+04</pdfrwt>
<pdfrwt beam="2">  1       -4 0.26819069E+00 0.14905506E+04</pdfrwt>
<totfact> 0.10125105E-02</totfact>
</mgrwt>
</event>
<event>
12    3  0.2212098E-007  0.3629406E+03  0.7818608E-02  0.1057426E+00
          1   -1    0    0  501    0  0.00000000000E+00  0.00000000000E+00  0.84599685637E+03  0.84599685637E+03  0.00000000000E+00 0. -1.
         -2   -1    0    0    0  501 -0.00000000000E+00 -0.00000000000E+00 -0.27554772950E+03  0.27554772950E+03  0.00000000000E+00 0.  1.
        -24    2    1    2    0    0 -0.71355514672E+02 -0.26610096759E+03  0.76144999918E+02  0.29675532860E+03  0.79776748546E+02 0.  0.
    5000000    2    1    2    0    0  0.71355514672E+02  0.26610096759E+03  0.49430412696E+03  0.82478925727E+03  0.60003284456E+03 0.  0.
        -24    2    4    4    0    0  0.13434589428E+03  0.30761722922E+03  0.28641265581E+02  0.34624628094E+03  0.79931132514E+02 0.  0.
         24    2    4    4    0    0 -0.62990379607E+02 -0.41516261626E+02  0.46566286138E+03  0.47854297634E+03  0.80436881045E+02 0.  0.
         11    1    3    3    0    0 -0.16145627590E+02 -0.66860432055E+02  0.56616524676E+02  0.89086640588E+02  0.00000000000E+00 0. -1.
        -12    1    3    3    0    0 -0.55209887082E+02 -0.19924053554E+03  0.19528475242E+02  0.20766868801E+03  0.00000000000E+00 0.  1.
         13    1    5    5    0    0  0.55720930972E+02  0.20245425086E+03  0.42405503999E+02  0.21422131689E+03  0.00000000000E+00 0. -1.
        -14    1    5    5    0    0  0.78624963306E+02  0.10516297836E+03 -0.13764238418E+02  0.13202496405E+03  0.00000000000E+00 0.  1.
          2    1    6    6  502    0 -0.70185837272E+02 -0.33944348541E+01  0.26458254984E+03  0.27375445133E+03  0.00000000000E+00 0. -1.
         -1    1    6    6    0  502  0.71954576657E+01 -0.38121826772E+02  0.20108031154E+03  0.20478852501E+03  0.00000000000E+00 0.  1.
<mgrwt>
<rscale>  0 0.36294065E+03</rscale>
<asrwt>0</asrwt>
<pdfrwt beam="1">  1        1 0.13015336E+00 0.36294065E+03</pdfrwt>
<pdfrwt beam="2">  1       -2 0.42391959E-01 0.36294065E+03</pdfrwt>
<totfact> 0.98525828E+01</totfact>
</mgrwt>
</event>
<event>
12    3  0.2212098E-007  0.4496411E+03  0.7818608E-02  0.1027829E+00
          1   -1    0    0  501    0  0.00000000000E+00  0.00000000000E+00  0.37503315307E+03  0.37503315307E+03  0.00000000000E+00 0. -1.
         -2   -1    0    0    0  501 -0.00000000000E+00 -0.00000000000E+00 -0.67693805455E+03  0.67693805455E+03  0.00000000000E+00 0.  1.
        -24    2    1    2    0    0  0.16295144300E+03  0.19073290407E+03 -0.30289788046E+03  0.40146941304E+03  0.80612344874E+02 0.  0.
    5000000    2    1    2    0    0 -0.16295144300E+03 -0.19073290407E+03  0.99297898101E+00  0.65050179458E+03  0.60018279321E+03 0.  0.
        -24    2    4    4    0    0  0.88238668951E+02  0.16727509466E+03  0.35169486033E+02  0.20487089787E+03  0.70485261255E+02 0.  0.
         24    2    4    4    0    0 -0.25119011195E+03 -0.35800799873E+03 -0.34176507052E+02  0.44563089670E+03  0.78438912312E+02 0.  0.
         11    1    3    3    0    0  0.12352132580E+03  0.10310231994E+03 -0.14480096791E+03  0.21645998848E+03  0.00000000000E+00 0. -1.
        -12    1    3    3    0    0  0.39430117201E+02  0.87630584128E+02 -0.15809691256E+03  0.18500942456E+03  0.00000000000E+00 0.  1.
         13    1    5    5    0    0  0.10260585957E+02  0.94790420194E+02  0.18103895675E+02  0.97047691489E+02  0.00000000000E+00 0. -1.
        -14    1    5    5    0    0  0.77978082995E+02  0.72484674468E+02  0.17065590358E+02  0.10782320638E+03  0.00000000000E+00 0.  1.
          2    1    6    6  502    0 -0.20751225195E+03 -0.32556912850E+03 -0.49168814707E+02  0.38919681972E+03  0.00000000000E+00 0. -1.
         -1    1    6    6    0  502 -0.43677859996E+02 -0.32438870233E+02  0.14992307655E+02  0.56434076980E+02  0.00000000000E+00 0.  1.
<mgrwt>
<rscale>  0 0.44964107E+03</rscale>
<asrwt>0</asrwt>
<pdfrwt beam="1">  1        1 0.57697408E-01 0.44964107E+03</pdfrwt>
<pdfrwt beam="2">  1       -2 0.10414432E+00 0.44964107E+03</pdfrwt>
<totfact> 0.44596346E+01</totfact>
</mgrwt>
</event>
<event>
12    3  0.2212098E-007  0.2461135E+03  0.7818608E-02  0.1115786E+00
         -2   -1    0    0    0  501 -0.00000000000E+00  0.00000000000E+00  0.74978836928E+02  0.74978836928E+02  0.00000000000E+00 0.  1.
          1   -1    0    0  501    0  0.00000000000E+00 -0.00000000000E+00 -0.20369168561E+04  0.20369168561E+04  0.00000000000E+00 0. -1.
        -24    2    1    2    0    0  0.12466905955E+03 -0.14733721862E+02 -0.22614714513E+03  0.27104208920E+03  0.81005097991E+02 0.  0.
    5000000    2    1    2    0    0 -0.12466905955E+03  0.14733721862E+02 -0.17357908741E+04  0.18408536038E+04  0.60001047936E+03 0.  0.
        -24    2    4    4    0    0 -0.39570742699E+02 -0.14085294917E+03 -0.15904441011E+04  0.15992938547E+04  0.82601441778E+02 0.  0.
         24    2    4    4    0    0 -0.85098316848E+02  0.15558667104E+03 -0.14534677297E+03  0.24155974909E+03  0.76003238311E+02 0.  0.
         13    1    5    5    0    0 -0.49969272608E+02 -0.14687689777E+03 -0.14271136577E+04  0.14355219063E+04  0.00000000000E+00 0. -1.
        -14    1    5    5    0    0  0.10398529909E+02  0.60239485944E+01 -0.16333044335E+03  0.16377194847E+03  0.00000000000E+00 0.  1.
         13    1    3    3    0    0  0.12733818839E+03  0.48172606600E+01 -0.17715023674E+03  0.21822104985E+03  0.00000000000E+00 0. -1.
        -14    1    3    3    0    0 -0.26691288387E+01 -0.19550982522E+02 -0.48996908384E+02  0.52821039345E+02  0.00000000000E+00 0.  1.
          2    1    6    6  502    0 -0.29044720369E+02  0.39892964175E+02 -0.25394841734E+01  0.49411469841E+02  0.00000000000E+00 0. -1.
         -1    1    6    6    0  502 -0.56053596480E+02  0.11569370686E+03 -0.14280728879E+03  0.19214827925E+03  0.00000000000E+00 0.  1.
<mgrwt>
<rscale>  0 0.24611349E+03</rscale>
<asrwt>0</asrwt>
<pdfrwt beam="1">  1        1 0.31337177E+00 0.24611349E+03</pdfrwt>
<pdfrwt beam="2">  1       -2 0.11535208E-01 0.24611349E+03</pdfrwt>
<totfact> 0.14927841E+02</totfact>
</mgrwt>
</event>
<event>
12    3  0.2212098E-007  0.3588953E+03  0.7818608E-02  0.1059022E+00
         -2   -1    0    0    0  501 -0.00000000000E+00  0.00000000000E+00  0.17055233690E+03  0.17055233690E+03  0.00000000000E+00 0.  1.
          1   -1    0    0  501    0  0.00000000000E+00 -0.00000000000E+00 -0.15890487396E+04  0.15890487396E+04  0.00000000000E+00 0. -1.
        -24    2    1    2    0    0 -0.23161308095E+03  0.21465817979E+03 -0.25770780912E+03  0.41529668210E+03  0.79594383341E+02 0.  0.
    5000000    2    1    2    0    0  0.23161308095E+03 -0.21465817979E+03 -0.11607885935E+04  0.13443043944E+04  0.60000116034E+03 0.  0.
        -24    2    4    4    0    0  0.19016464754E+03 -0.47736120202E+02 -0.11321497438E+04  0.11518164139E+04  0.80477814946E+02 0.  0.
         24    2    4    4    0    0  0.41448433413E+02 -0.16692205959E+03 -0.28638849771E+02  0.19248798046E+03  0.81550550548E+02 0.  0.
         13    1    3    3    0    0 -0.17503602731E+03  0.11034747834E+03 -0.16828415224E+03  0.26670907882E+03  0.00000000000E+00 0. -1.
        -14    1    3    3    0    0 -0.56577053644E+02  0.10431070145E+03 -0.89423656884E+02  0.14858760328E+03  0.00000000000E+00 0.  1.
         13    1    5    5    0    0  0.13558330782E+03 -0.83492696092E+01 -0.89684582014E+03  0.90707495212E+03  0.00000000000E+00 0. -1.
        -14    1    5    5    0    0  0.54581339716E+02 -0.39386850593E+02 -0.23530392362E+03  0.24474146179E+03  0.00000000000E+00 0.  1.
          2    1    6    6  502    0 -0.23072016382E+02 -0.58597186211E+02  0.93237302318E+00  0.62982676120E+02  0.00000000000E+00 0. -1.
         -1    1    6    6    0  502  0.64520449795E+02 -0.10832487338E+03 -0.29571222795E+02  0.12950530434E+03  0.00000000000E+00 0.  1.
<mgrwt>
<rscale>  0 0.35889531E+03</rscale>
<asrwt>0</asrwt>
<pdfrwt beam="1">  1        1 0.24446903E+00 0.35889531E+03</pdfrwt>
<pdfrwt beam="2">  1       -2 0.26238822E-01 0.35889531E+03</pdfrwt>
<totfact> 0.70838420E+01</totfact>
</mgrwt>
</event>
<event>
12    3  0.2212098E-007  0.5957196E+03  0.7818608E-02  0.9914327E-01
         -2   -1    0    0    0  501 -0.00000000000E+00  0.00000000000E+00  0.16624470650E+03  0.16624470650E+03  0.00000000000E+00 0.  1.
          1   -1    0    0  501    0  0.00000000000E+00 -0.00000000000E+00 -0.28113904984E+04  0.28113904984E+04  0.00000000000E+00 0. -1.
        -24    2    1    2    0    0  0.42798316160E+03 -0.17996016553E+03 -0.17093331763E+04  0.17729368800E+04  0.77006655349E+02 0.  0.
    5000000    2    1    2    0    0 -0.42798316160E+03  0.17996016553E+03 -0.93581261555E+03  0.12046983249E+04  0.59999796229E+03 0.  0.
        -24    2    4    4    0    0 -0.24858770133E+03 -0.18673700513E+03 -0.26985144687E+03  0.41943457452E+03  0.80243408382E+02 0.  0.
         24    2    4    4    0    0 -0.17939546028E+03  0.36669717066E+03 -0.66596116868E+03  0.78526375036E+03  0.80531567123E+02 0.  0.
         13    1    5    5    0    0 -0.14979911150E+03 -0.12730350011E+03 -0.11982069494E+03  0.23022370400E+03  0.00000000000E+00 0. -1.
        -14    1    5    5    0    0 -0.98788589827E+02 -0.59433505014E+02 -0.15003075192E+03  0.18921087052E+03  0.00000000000E+00 0.  1.
         13    1    3    3    0    0  0.13047907820E+03 -0.28033497214E+02 -0.58488842731E+03  0.59992094414E+03  0.00000000000E+00 0. -1.
        -14    1    3    3    0    0  0.29750408341E+03 -0.15192666832E+03 -0.11244447490E+04  0.11730159358E+04  0.00000000000E+00 0.  1.
          4    1    6    6  502    0 -0.16070608993E+03  0.27534735476E+03 -0.55759818341E+03  0.64230705061E+03  0.00000000000E+00 0. -1.
         -3    1    6    6    0  502 -0.18689370348E+02  0.91349815897E+02 -0.10836298527E+03  0.14295669976E+03  0.00000000000E+00 0.  1.
<mgrwt>
<rscale>  0 0.59571958E+03</rscale>
<asrwt>0</asrwt>
<pdfrwt beam="1">  1        1 0.43252163E+00 0.59571958E+03</pdfrwt>
<pdfrwt beam="2">  1       -2 0.25576108E-01 0.59571958E+03</pdfrwt>
<totfact> 0.10734132E+01</totfact>
</mgrwt>
</event>
<event>
12    3  0.2212098E-007  0.4789400E+03  0.7818608E-02  0.1019427E+00
          1   -1    0    0  501    0  0.00000000000E+00  0.00000000000E+00  0.32504364600E+03  0.32504364600E+03  0.00000000000E+00 0. -1.
         -2   -1    0    0    0  501 -0.00000000000E+00 -0.00000000000E+00 -0.81893478908E+03  0.81893478908E+03  0.00000000000E+00 0.  1.
        -24    2    1    2    0    0 -0.13731612585E+03  0.29796435045E+03 -0.24043460718E+03  0.41462101128E+03  0.80394714401E+02 0.  0.
    5000000    2    1    2    0    0  0.13731612585E+03 -0.29796435045E+03 -0.25345653589E+03  0.72935742381E+03  0.60006963222E+03 0.  0.
        -24    2    4    4    0    0  0.33760589117E+03 -0.23857511812E+03 -0.40168447793E+02  0.42299319430E+03  0.80086912102E+02 0.  0.
         24    2    4    4    0    0 -0.20028976532E+03 -0.59389232334E+02 -0.21328808810E+03  0.30636422950E+03  0.68732536570E+02 0.  0.
         11    1    3    3    0    0 -0.42038945655E+02  0.15972796483E+03 -0.84683924738E+02  0.18561159126E+03  0.00000000000E+00 0. -1.
        -12    1    3    3    0    0 -0.95277180200E+02  0.13823638562E+03 -0.15575068245E+03  0.22900942002E+03  0.00000000000E+00 0.  1.
         13    1    5    5    0    0  0.95506523854E+02 -0.44935966759E+02  0.19375847382E+02  0.10731337600E+03  0.00000000000E+00 0. -1.
        -14    1    5    5    0    0  0.24209936732E+03 -0.19363915136E+03 -0.59544295175E+02  0.31567981830E+03  0.00000000000E+00 0.  1.
          2    1    6    6  502    0 -0.59817707192E+02 -0.12000965641E+02 -0.23133121566E+02  0.65248161533E+02  0.00000000000E+00 0. -1.
         -1    1    6    6    0  502 -0.14047205813E+03 -0.47388266693E+02 -0.19015496653E+03  0.24111606797E+03  0.00000000000E+00 0.  1.
<mgrwt>
<rscale>  0 0.47894001E+03</rscale>
<asrwt>0</asrwt>
<pdfrwt beam="1">  1        1 0.50006715E-01 0.47894001E+03</pdfrwt>
<pdfrwt beam="2">  1       -2 0.12598997E+00 0.47894001E+03</pdfrwt>
<totfact> 0.33686255E+01</totfact>
</mgrwt>
</event>
<event>
12    3  0.2212098E-007  0.4755883E+03  0.7818608E-02  0.1020355E+00
          1   -1    0    0  501    0  0.00000000000E+00  0.00000000000E+00  0.75834295110E+03  0.75834295110E+03  0.00000000000E+00 0. -1.
         -2   -1    0    0    0  501 -0.00000000000E+00 -0.00000000000E+00 -0.44928780207E+03  0.44928780207E+03  0.00000000000E+00 0.  1.
        -24    2    1    2    0    0 -0.23981916432E+03 -0.22775305035E+03  0.38961514615E+03  0.51778253987E+03  0.83151145289E+02 0.  0.
    5000000    2    1    2    0    0  0.23981916432E+03  0.22775305035E+03 -0.80559997120E+02  0.68984821330E+03  0.60001330047E+03 0.  0.
        -24    2    4    4    0    0  0.39297970167E+03  0.24334825318E+03  0.51099070839E+02  0.47235322763E+03  0.82795159088E+02 0.  0.
         24    2    4    4    0    0 -0.15316053735E+03 -0.15595202829E+02 -0.13165906796E+03  0.21749498567E+03  0.79174478612E+02 0.  0.
         11    1    5    5    0    0  0.20221093941E+03  0.10400415653E+03  0.62548416243E+02  0.23583560581E+03  0.00000000000E+00 0. -1.
        -12    1    5    5    0    0  0.19076876225E+03  0.13934409665E+03 -0.11449345404E+02  0.23651762182E+03  0.00000000000E+00 0.  1.
         13    1    3    3    0    0 -0.44813465619E+02 -0.39423453074E+02  0.12707136831E+03  0.14039084014E+03  0.00000000000E+00 0. -1.
        -14    1    3    3    0    0 -0.19500569870E+03 -0.18832959727E+03  0.26254377785E+03  0.37739169973E+03  0.00000000000E+00 0.  1.
          4    1    6    6  502    0 -0.31699650093E+02 -0.15529378962E+02  0.38616902385E+01  0.35509746246E+02  0.00000000000E+00 0. -1.
         -1    1    6    6    0  502 -0.12146088725E+03 -0.65823867393E-01 -0.13552075820E+03  0.18198523942E+03  0.00000000000E+00 0.  1.
<mgrwt>
<rscale>  0 0.47558830E+03</rscale>
<asrwt>0</asrwt>
<pdfrwt beam="1">  1        1 0.11666815E+00 0.47558830E+03</pdfrwt>
<pdfrwt beam="2">  1       -2 0.69121200E-01 0.47558830E+03</pdfrwt>
<totfact> 0.42259961E+01</totfact>
</mgrwt>
</event>
<event>
12    3  0.2212098E-007  0.8010540E+03  0.7818608E-02  0.9558493E-01
         -2   -1    0    0    0  501 -0.00000000000E+00  0.00000000000E+00  0.89732355588E+03  0.89732355588E+03  0.00000000000E+00 0.  1.
          1   -1    0    0  501    0  0.00000000000E+00 -0.00000000000E+00 -0.76402552983E+03  0.76402552983E+03  0.00000000000E+00 0. -1.
        -24    2    1    2    0    0 -0.62581565503E+03 -0.33726246228E+03  0.14916004538E+03  0.73082030883E+03  0.80364184266E+02 0.  0.
    5000000    2    1    2    0    0  0.62581565503E+03  0.33726246228E+03 -0.15862019330E+02  0.93052877687E+03  0.60020079838E+03 0.  0.
        -24    2    4    4    0    0  0.50850072867E+03 -0.23189704708E+02  0.10435962965E+03  0.52483895874E+03  0.73852873030E+02 0.  0.
         24    2    4    4    0    0  0.11731492637E+03  0.36045216699E+03 -0.12022164898E+03  0.40568981813E+03  0.80264730816E+02 0.  0.
         13    1    5    5    0    0  0.21688761674E+02  0.79403222715E+01  0.18371015258E+02  0.29511782432E+02  0.00000000000E+00 0. -1.
        -14    1    5    5    0    0  0.48681196699E+03 -0.31130026979E+02  0.85988614395E+02  0.49532717631E+03  0.00000000000E+00 0.  1.
         13    1    3    3    0    0 -0.32735835570E+03 -0.19415270614E+03  0.42009463251E+02  0.38291456142E+03  0.00000000000E+00 0. -1.
        -14    1    3    3    0    0 -0.29845729934E+03 -0.14310975615E+03  0.10715058213E+03  0.34790574741E+03  0.00000000000E+00 0.  1.
          2    1    6    6  502    0  0.11112644438E+03  0.32141943314E+03 -0.80141914929E+02  0.34940272633E+03  0.00000000000E+00 0. -1.
         -1    1    6    6    0  502  0.61884819880E+01  0.39032733853E+02 -0.40079734053E+02  0.56287091798E+02  0.00000000000E+00 0.  1.
<mgrwt>
<rscale>  0 0.80105401E+03</rscale>
<asrwt>0</asrwt>
<pdfrwt beam="1">  1        1 0.11754239E+00 0.80105401E+03</pdfrwt>
<pdfrwt beam="2">  1       -2 0.13804978E+00 0.80105401E+03</pdfrwt>
<totfact> 0.78882873E+00</totfact>
</mgrwt>
</event>
<event>
12    3  0.2212098E-007  0.5023479E+03  0.7818608E-02  0.1013168E+00
          1   -1    0    0  501    0  0.00000000000E+00  0.00000000000E+00  0.13397102987E+04  0.13397102987E+04  0.00000000000E+00 0. -1.
         -2   -1    0    0    0  501 -0.00000000000E+00 -0.00000000000E+00 -0.19520137117E+03  0.19520137117E+03  0.00000000000E+00 0.  1.
        -24    2    1    2    0    0 -0.12985988270E+03  0.30140247290E+03  0.41173918985E+03  0.53257645051E+03  0.80009220543E+02 0.  0.
    5000000    2    1    2    0    0  0.12985988270E+03 -0.30140247290E+03  0.73276973769E+03  0.10023352194E+04  0.60001446957E+03 0.  0.
        -24    2    4    4    0    0  0.35308095096E+03 -0.13568228499E+03  0.49348391488E+03  0.62691408649E+03  0.80119018954E+02 0.  0.
         24    2    4    4    0    0 -0.22322106826E+03 -0.16572018791E+03  0.23928582280E+03  0.37542113287E+03  0.79953086337E+02 0.  0.
         11    1    3    3    0    0 -0.13938004061E+03  0.29358919214E+03  0.40157453350E+03  0.51660769973E+03  0.00000000000E+00 0. -1.
        -12    1    3    3    0    0  0.95201579058E+01  0.78132807581E+01  0.10164656347E+02  0.15968750778E+02  0.00000000000E+00 0.  1.
         13    1    5    5    0    0  0.20653181790E+02 -0.73184133814E+01  0.70523283897E+02  0.73848809497E+02  0.00000000000E+00 0. -1.
        -14    1    5    5    0    0  0.33242776917E+03 -0.12836387161E+03  0.42296063099E+03  0.55306527699E+03  0.00000000000E+00 0.  1.
          2    1    6    6  502    0 -0.33851206972E+02 -0.68153843278E+02  0.68487236461E+02  0.10237847491E+03  0.00000000000E+00 0. -1.
         -1    1    6    6    0  502 -0.18936986129E+03 -0.97566344636E+02  0.17079858634E+03  0.27304265796E+03  0.00000000000E+00 0.  1.
<mgrwt>
<rscale>  0 0.50234793E+03</rscale>
<asrwt>0</asrwt>
<pdfrwt beam="1">  1        1 0.20610927E+00 0.50234793E+03</pdfrwt>
<pdfrwt beam="2">  1       -2 0.30030981E-01 0.50234793E+03</pdfrwt>
<totfact> 0.79840492E+01</totfact>
</mgrwt>
</event>
<event>
12    3  0.2212098E-007  0.1255210E+04  0.7818608E-02  0.9065858E-01
          1   -1    0    0  501    0  0.00000000000E+00  0.00000000000E+00  0.21255302423E+04  0.21255302423E+04  0.00000000000E+00 0. -1.
         -2   -1    0    0    0  501 -0.00000000000E+00 -0.00000000000E+00 -0.93553988586E+03  0.93553988586E+03  0.00000000000E+00 0.  1.
        -24    2    1    2    0    0 -0.61717049324E+03  0.10151242217E+04  0.12531933557E+04  0.17286348420E+04  0.79424348208E+02 0.  0.
    5000000    2    1    2    0    0  0.61717049324E+03 -0.10151242217E+04 -0.63202999250E+02  0.13324352861E+04  0.60001047445E+03 0.  0.
        -24    2    4    4    0    0  0.70501238799E+03 -0.71258687203E+03 -0.27569951584E+02  0.10057182380E+04  0.76723886115E+02 0.  0.
         24    2    4    4    0    0 -0.87841894752E+02 -0.30253734967E+03 -0.35633047666E+02  0.32671704810E+03  0.78925718330E+02 0.  0.
         13    1    5    5    0    0  0.52812942972E+03 -0.48453298105E+03 -0.18108371926E+02  0.71695245128E+03  0.00000000000E+00 0. -1.
        -14    1    5    5    0    0  0.17688295827E+03 -0.22805389098E+03 -0.94615796578E+01  0.28876578677E+03  0.00000000000E+00 0.  1.
         13    1    3    3    0    0 -0.23730344854E+03  0.40084010710E+03  0.54768177956E+03  0.71898612630E+03  0.00000000000E+00 0. -1.
        -14    1    3    3    0    0 -0.37986704470E+03  0.61428411460E+03  0.70551157610E+03  0.10096487157E+04  0.00000000000E+00 0.  1.
          2    1    6    6  502    0 -0.49350568962E+02 -0.22627043630E+03  0.60328523024E+01  0.23166826349E+03  0.00000000000E+00 0. -1.
         -1    1    6    6    0  502 -0.38491325790E+02 -0.76266913368E+02 -0.41665899968E+02  0.95048784610E+02  0.00000000000E+00 0.  1.
<mgrwt>
<rscale>  0 0.12552101E+04</rscale>
<asrwt>0</asrwt>
<pdfrwt beam="1">  1        1 0.32700465E+00 0.12552101E+04</pdfrwt>
<pdfrwt beam="2">  1       -2 0.14392921E+00 0.12552101E+04</pdfrwt>
<totfact> 0.69778630E-01</totfact>
</mgrwt>
</event>
<event>
12    3  0.2212098E-007  0.2648892E+03  0.7818608E-02  0.1104241E+00
         -4   -1    0    0    0  501 -0.00000000000E+00  0.00000000000E+00  0.29639479884E+03  0.29639479884E+03  0.00000000000E+00 0.  1.
          3   -1    0    0  501    0  0.00000000000E+00 -0.00000000000E+00 -0.90650435258E+03  0.90650435258E+03  0.00000000000E+00 0. -1.
        -24    2    1    2    0    0 -0.18795896468E+03 -0.11644543030E+03 -0.50224880233E+03  0.55452822750E+03  0.79747006254E+02 0.  0.
    5000000    2    1    2    0    0  0.18795896468E+03  0.11644543030E+03 -0.10786075141E+03  0.64837092393E+03  0.59988565798E+03 0.  0.
        -24    2    4    4    0    0  0.96160624140E+02  0.14137094652E+03  0.22241276537E+03  0.29562821827E+03  0.93252319452E+02 0.  0.
         24    2    4    4    0    0  0.91798340545E+02 -0.24925516221E+02 -0.33027351679E+03  0.35274270565E+03  0.79363743697E+02 0.  0.
         11    1    5    5    0    0  0.31792747356E+02  0.24185496521E+02  0.12213504083E+03  0.12850169347E+03  0.00000000000E+00 0. -1.
        -12    1    5    5    0    0  0.64367876784E+02  0.11718545000E+03  0.10027772455E+03  0.16712652480E+03  0.00000000000E+00 0.  1.
         13    1    3    3    0    0 -0.15510273270E+00 -0.25966128350E+02 -0.69329996480E+02  0.74033183710E+02  0.00000000000E+00 0. -1.
        -14    1    3    3    0    0 -0.18780386195E+03 -0.90479301946E+02 -0.43291880585E+03  0.48049504379E+03  0.00000000000E+00 0.  1.
          2    1    6    6  502    0  0.86372006227E+02 -0.47440476242E+02 -0.23771690887E+03  0.25733256889E+03  0.00000000000E+00 0. -1.
         -1    1    6    6    0  502  0.54263343176E+01  0.22514960021E+02 -0.92556607914E+02  0.95410136765E+02  0.00000000000E+00 0.  1.
<mgrwt>
<rscale>  0 0.26488922E+03</rscale>
<asrwt>0</asrwt>
<pdfrwt beam="1">  1        3 0.13946221E+00 0.26488922E+03</pdfrwt>
<pdfrwt beam="2">  1       -4 0.45599200E-01 0.26488922E+03</pdfrwt>
<totfact> 0.40623647E+00</totfact>
</mgrwt>
</event>
<event>
12    3  0.2212098E-007  0.9392405E+03  0.7818608E-02  0.9377816E-01
         -2   -1    0    0    0  501 -0.00000000000E+00  0.00000000000E+00  0.61978708193E+03  0.61978708193E+03  0.00000000000E+00 0.  1.
          1   -1    0    0  501    0  0.00000000000E+00 -0.00000000000E+00 -0.15464942069E+04  0.15464942069E+04  0.00000000000E+00 0. -1.
        -24    2    1    2    0    0 -0.43407664557E+03  0.73795879078E+03 -0.17210419233E+03  0.87693434359E+03  0.79926709196E+02 0.  0.
    5000000    2    1    2    0    0  0.43407664557E+03 -0.73795879078E+03 -0.75460293266E+03  0.12893469452E+04  0.59998687330E+03 0.  0.
        -24    2    4    4    0    0 -0.29858378366E+02  0.70157309336E+02 -0.80990791269E+02  0.13673929101E+03  0.79527068505E+02 0.  0.
         24    2    4    4    0    0  0.46393502394E+03 -0.80811610011E+03 -0.67361214139E+03  0.11526076542E+04  0.80397449425E+02 0.  0.
         11    1    3    3    0    0 -0.26430243205E+03  0.51622875773E+03 -0.13224531150E+03  0.59484176745E+03  0.00000000000E+00 0. -1.
        -12    1    3    3    0    0 -0.16977421353E+03  0.22173003305E+03 -0.39858880825E+02  0.28209257614E+03  0.00000000000E+00 0.  1.
         13    1    5    5    0    0  0.64187757627E+01  0.30778413617E+02  0.83971855196E+01  0.32542651270E+02  0.00000000000E+00 0. -1.
        -14    1    5    5    0    0 -0.36277154128E+02  0.39378895720E+02 -0.89387976788E+02  0.10419663974E+03  0.00000000000E+00 0.  1.
          2    1    6    6  502    0  0.45795003759E+03 -0.77150076369E+03 -0.65666771902E+03  0.11118202006E+04  0.00000000000E+00 0. -1.
         -1    1    6    6    0  502  0.59849863525E+01 -0.36615336425E+02 -0.16944422366E+02  0.40787453616E+02  0.00000000000E+00 0.  1.
<mgrwt>
<rscale>  0 0.93924052E+03</rscale>
<asrwt>0</asrwt>
<pdfrwt beam="1">  1        1 0.23792218E+00 0.93924052E+03</pdfrwt>
<pdfrwt beam="2">  1       -2 0.95351860E-01 0.93924052E+03</pdfrwt>
<totfact> 0.49667025E+00</totfact>
</mgrwt>
</event>
<event>
12    3  0.2212098E-007  0.8319265E+03  0.7818608E-02  0.9514921E-01
         -2   -1    0    0    0  501 -0.00000000000E+00  0.00000000000E+00  0.11594137349E+04  0.11594137349E+04  0.00000000000E+00 0.  1.
          1   -1    0    0  501    0  0.00000000000E+00 -0.00000000000E+00 -0.85396063172E+03  0.85396063172E+03  0.00000000000E+00 0. -1.
        -24    2    1    2    0    0  0.54082496432E+03 -0.60379110505E+03 -0.26328705338E+03  0.85572530691E+03  0.76748862086E+02 0.  0.
    5000000    2    1    2    0    0 -0.54082496432E+03  0.60379110505E+03  0.56874015661E+03  0.11576490598E+04  0.59969212038E+03 0.  0.
        -24    2    4    4    0    0 -0.61253974564E+01  0.11367255252E+03 -0.96959757858E+02  0.16990895507E+03  0.80677683902E+02 0.  0.
         24    2    4    4    0    0 -0.53469956686E+03  0.49011855253E+03  0.66569991447E+03  0.98774010469E+03  0.79713963264E+02 0.  0.
         11    1    5    5    0    0 -0.21313102512E+02  0.31171657915E+02  0.47605213420E+01  0.38060256953E+02  0.00000000000E+00 0. -1.
        -12    1    5    5    0    0  0.15187705056E+02  0.82500894605E+02 -0.10172027920E+03  0.13184869812E+03  0.00000000000E+00 0.  1.
         13    1    3    3    0    0  0.31184180101E+03 -0.38881885620E+03 -0.13437672200E+03  0.51621944482E+03  0.00000000000E+00 0. -1.
        -14    1    3    3    0    0  0.22898316331E+03 -0.21497224886E+03 -0.12891033138E+03  0.33950586209E+03  0.00000000000E+00 0.  1.
          2    1    6    6  502    0 -0.60834809153E+02  0.94554960266E+02  0.10102478313E+03  0.15115396562E+03  0.00000000000E+00 0. -1.
         -1    1    6    6    0  502 -0.47386475771E+03  0.39556359227E+03  0.56467513134E+03  0.83658613907E+03  0.00000000000E+00 0.  1.
<mgrwt>
<rscale>  0 0.83192651E+03</rscale>
<asrwt>0</asrwt>
<pdfrwt beam="1">  1        1 0.13137856E+00 0.83192651E+03</pdfrwt>
<pdfrwt beam="2">  1       -2 0.17837134E+00 0.83192651E+03</pdfrwt>
<totfact> 0.32914613E+00</totfact>
</mgrwt>
</event>
<event>
12    3  0.2212098E-007  0.1064135E+04  0.7818608E-02  0.9240871E-01
          1   -1    0    0  501    0  0.00000000000E+00  0.00000000000E+00  0.10921546928E+04  0.10921546928E+04  0.00000000000E+00 0. -1.
         -2   -1    0    0    0  501 -0.00000000000E+00 -0.00000000000E+00 -0.12555267543E+04  0.12555267543E+04  0.00000000000E+00 0.  1.
        -24    2    1    2    0    0  0.90111017209E+03 -0.40534052889E+03 -0.54588377917E+03  0.11300514371E+04  0.52217463275E+02 0.  0.
    5000000    2    1    2    0    0 -0.90111017209E+03  0.40534052889E+03  0.38251171767E+03  0.12176300101E+04  0.60000595059E+03 0.  0.
        -24    2    4    4    0    0 -0.66922207914E+03  0.10805599198E+01  0.29864322915E+03  0.73714585254E+03  0.79604464589E+02 0.  0.
         24    2    4    4    0    0 -0.23188809296E+03  0.40425996897E+03  0.83868488528E+02  0.48048415757E+03  0.81442569605E+02 0.  0.
         11    1    5    5    0    0 -0.48731052461E+03 -0.23467869315E+02  0.24482479616E+03  0.54585846984E+03  0.00000000000E+00 0. -1.
        -12    1    5    5    0    0 -0.18191155453E+03  0.24548429235E+02  0.53818432991E+02  0.19128738270E+03  0.00000000000E+00 0.  1.
         11    1    3    3    0    0  0.49178304188E+03 -0.21811331769E+03 -0.32667114713E+03  0.62939496185E+03  0.00000000000E+00 0. -1.
        -12    1    3    3    0    0  0.40932713022E+03 -0.18722721119E+03 -0.21921263204E+03  0.50065647523E+03  0.00000000000E+00 0.  1.
          2    1    6    6  502    0 -0.14485775218E+03  0.20220152785E+03  0.76968750379E+02  0.26037168580E+03  0.00000000000E+00 0. -1.
         -1    1    6    6    0  502 -0.87030340778E+02  0.20205844112E+03  0.68997381497E+01  0.22011247177E+03  0.00000000000E+00 0.  1.
<mgrwt>
<rscale>  0 0.10641354E+04</rscale>
<asrwt>0</asrwt>
<pdfrwt beam="1">  1        1 0.16802380E+00 0.10641354E+04</pdfrwt>
<pdfrwt beam="2">  1       -2 0.19315796E+00 0.10641354E+04</pdfrwt>
<totfact> 0.16456815E+00</totfact>
</mgrwt>
</event>
<event>
12    3  0.2212098E-007  0.8689219E+03  0.7818608E-02  0.9465287E-01
          1   -1    0    0  501    0  0.00000000000E+00  0.00000000000E+00  0.43894917671E+03  0.43894917671E+03  0.00000000000E+00 0. -1.
         -2   -1    0    0    0  501 -0.00000000000E+00 -0.00000000000E+00 -0.20563994467E+04  0.20563994467E+04  0.00000000000E+00 0.  1.
        -24    2    1    2    0    0  0.53391806241E+03 -0.58945277300E+03 -0.11370605971E+04  0.13893072845E+04  0.68882947149E+02 0.  0.
    5000000    2    1    2    0    0 -0.53391806241E+03  0.58945277300E+03 -0.48038967289E+03  0.11060413389E+04  0.60002511321E+03 0.  0.
        -24    2    4    4    0    0  0.71643967108E+02  0.17134328930E+03 -0.26780237332E+03  0.33601456980E+03  0.81830918057E+02 0.  0.
         24    2    4    4    0    0 -0.60556202952E+03  0.41810948370E+03 -0.21258729957E+03  0.77002676906E+03  0.78911045969E+02 0.  0.
         11    1    5    5    0    0  0.97904789936E+01  0.12536469125E+03 -0.17184235019E+03  0.21293649901E+03  0.00000000000E+00 0. -1.
        -12    1    5    5    0    0  0.61853488114E+02  0.45978598055E+02 -0.95960023128E+02  0.12307807079E+03  0.00000000000E+00 0.  1.
         11    1    3    3    0    0  0.51876940087E+02 -0.51805373945E+02 -0.14246666150E+03  0.16022410343E+03  0.00000000000E+00 0. -1.
        -12    1    3    3    0    0  0.48204112233E+03 -0.53764739906E+03 -0.99459393556E+03  0.12290831811E+04  0.00000000000E+00 0.  1.
          2    1    6    6  502    0 -0.60206427180E+03  0.42133839008E+03 -0.21337120062E+03  0.76520238865E+03  0.00000000000E+00 0. -1.
         -1    1    6    6    0  502 -0.34977577191E+01 -0.32289063853E+01  0.78390105146E+00  0.48243804125E+01  0.00000000000E+00 0.  1.
<mgrwt>
<rscale>  0 0.86892188E+03</rscale>
<asrwt>0</asrwt>
<pdfrwt beam="1">  1        1 0.67530642E-01 0.86892188E+03</pdfrwt>
<pdfrwt beam="2">  1       -2 0.31636915E+00 0.86892188E+03</pdfrwt>
<totfact> 0.12048030E+00</totfact>
</mgrwt>
</event>
<event>
12    3  0.2212098E-007  0.6797211E+03  0.7818608E-02  0.9752554E-01
          1   -1    0    0  501    0  0.00000000000E+00  0.00000000000E+00  0.29043162541E+04  0.29043162541E+04  0.00000000000E+00 0. -1.
         -2   -1    0    0    0  501 -0.00000000000E+00 -0.00000000000E+00 -0.28026351757E+03  0.28026351757E+03  0.00000000000E+00 0.  1.
        -24    2    1    2    0    0 -0.21497968914E+03 -0.50293483032E+03  0.13862781158E+03  0.56991552197E+03  0.80164342089E+02 0.  0.
    5000000    2    1    2    0    0  0.21497968914E+03  0.50293483032E+03  0.24854249249E+04  0.26146642497E+04  0.59997697526E+03 0.  0.
        -24    2    4    4    0    0 -0.16461922549E+03  0.34926608025E+03  0.11657898083E+04  0.12306625853E+04  0.79863868484E+02 0.  0.
         24    2    4    4    0    0  0.37959891463E+03  0.15366875007E+03  0.13196351166E+04  0.13840016644E+04  0.79462854645E+02 0.  0.
         11    1    3    3    0    0 -0.15653813144E+03 -0.26496232104E+03  0.75834477200E+02  0.31695439119E+03  0.00000000000E+00 0. -1.
        -12    1    3    3    0    0 -0.58441557709E+02 -0.23797250928E+03  0.62793334376E+02  0.25296113077E+03  0.00000000000E+00 0.  1.
         11    1    5    5    0    0 -0.64675894766E+02  0.69738586541E+02  0.22913801912E+03  0.24809408220E+03  0.00000000000E+00 0. -1.
        -12    1    5    5    0    0 -0.99943330724E+02  0.27952749371E+03  0.93665178917E+03  0.98256850309E+03  0.00000000000E+00 0.  1.
          2    1    6    6  502    0  0.40081349662E+02 -0.41109522922E+01  0.89393369006E+02  0.98054010329E+02  0.00000000000E+00 0. -1.
         -1    1    6    6    0  502  0.33951756497E+03  0.15777970236E+03  0.12302417476E+04  0.12859476541E+04  0.00000000000E+00 0.  1.
<mgrwt>
<rscale>  0 0.67972112E+03</rscale>
<asrwt>0</asrwt>
<pdfrwt beam="1">  1        1 0.44681786E+00 0.67972112E+03</pdfrwt>
<pdfrwt beam="2">  1       -2 0.43117466E-01 0.67972112E+03</pdfrwt>
<totfact> 0.33925980E+00</totfact>
</mgrwt>
</event>
<event>
12    3  0.2212098E-007  0.2125565E+04  0.7818608E-02  0.8550065E-01
         -2   -1    0    0    0  501 -0.00000000000E+00  0.00000000000E+00  0.21395740123E+04  0.21395740123E+04  0.00000000000E+00 0.  1.
          1   -1    0    0  501    0  0.00000000000E+00 -0.00000000000E+00 -0.24615618329E+04  0.24615618329E+04  0.00000000000E+00 0. -1.
        -24    2    1    2    0    0  0.11506292105E+04  0.17473400418E+04 -0.10015794922E+04  0.23210216426E+04  0.82675174514E+02 0.  0.
    5000000    2    1    2    0    0 -0.11506292105E+04 -0.17473400418E+04  0.67959167153E+03  0.22801142027E+04  0.59994261028E+03 0.  0.
        -24    2    4    4    0    0 -0.11293904088E+04 -0.13634201990E+04  0.45782095523E+03  0.18301823773E+04  0.74365128604E+02 0.  0.
         24    2    4    4    0    0 -0.21238801625E+02 -0.38391984278E+03  0.22177071631E+03  0.44993182542E+03  0.73558578960E+02 0.  0.
         11    1    5    5    0    0 -0.27874308335E+03 -0.34622107761E+03  0.14782284774E+03  0.46842110905E+03  0.00000000000E+00 0. -1.
        -12    1    5    5    0    0 -0.85064732549E+03 -0.10171991214E+04  0.30999810749E+03  0.13617612682E+04  0.00000000000E+00 0.  1.
         13    1    3    3    0    0  0.70518803778E+03  0.10198556411E+04 -0.62584314284E+03  0.13889115655E+04  0.00000000000E+00 0. -1.
        -14    1    3    3    0    0  0.44544117268E+03  0.72748440067E+03 -0.37573634931E+03  0.93211007705E+03  0.00000000000E+00 0.  1.
          4    1    6    6  502    0  0.11420396327E+02 -0.23314909823E+03  0.16364824956E+03  0.28507837000E+03  0.00000000000E+00 0. -1.
         -3    1    6    6    0  502 -0.32659197952E+02 -0.15077074454E+03  0.58122466747E+02  0.16485345541E+03  0.00000000000E+00 0.  1.
<mgrwt>
<rscale>  0 0.21255652E+04</rscale>
<asrwt>0</asrwt>
<pdfrwt beam="1">  1        1 0.37870182E+00 0.21255652E+04</pdfrwt>
<pdfrwt beam="2">  1       -2 0.32916524E+00 0.21255652E+04</pdfrwt>
<totfact> 0.23201494E-02</totfact>
</mgrwt>
</event>
<event>
12    3  0.2212098E-007  0.1014995E+04  0.7818608E-02  0.9292250E-01
         -4   -1    0    0    0  501 -0.00000000000E+00  0.00000000000E+00  0.18766455155E+04  0.18766455155E+04  0.00000000000E+00 0.  1.
          3   -1    0    0  501    0  0.00000000000E+00 -0.00000000000E+00 -0.98947461027E+03  0.98947461027E+03  0.00000000000E+00 0. -1.
        -24    2    1    2    0    0 -0.85892641071E+03  0.45003286183E+03  0.13259057322E+04  0.16443154154E+04  0.73912236526E+02 0.  0.
    5000000    2    1    2    0    0  0.85892641071E+03 -0.45003286183E+03 -0.43873482698E+03  0.12218047104E+04  0.60002862117E+03 0.  0.
        -24    2    4    4    0    0  0.53538116544E+03 -0.49282747638E+03 -0.49197621524E+03  0.88201617356E+03  0.80000126642E+02 0.  0.
         24    2    4    4    0    0  0.32354524527E+03  0.42794614552E+02  0.53241388261E+02  0.33978853685E+03  0.78158170281E+02 0.  0.
         11    1    5    5    0    0  0.23164457838E+03 -0.20413615299E+03 -0.25610062301E+03  0.40114624361E+03  0.00000000000E+00 0. -1.
        -12    1    5    5    0    0  0.30373658706E+03 -0.28869132339E+03 -0.23587559223E+03  0.48086992995E+03  0.00000000000E+00 0.  1.
         13    1    3    3    0    0 -0.42172264488E+03  0.20978956227E+03  0.70420268534E+03  0.84720898938E+03  0.00000000000E+00 0. -1.
        -14    1    3    3    0    0 -0.43720376583E+03  0.24024329956E+03  0.62170304687E+03  0.79710642597E+03  0.00000000000E+00 0.  1.
          4    1    6    6  502    0  0.10365866199E+02  0.14532867596E+02  0.14423233114E+02  0.22949620391E+02  0.00000000000E+00 0. -1.
         -3    1    6    6    0  502  0.31317937907E+03  0.28261746956E+02  0.38818155148E+02  0.31683891646E+03  0.00000000000E+00 0.  1.
<mgrwt>
<rscale>  0 0.10149946E+04</rscale>
<asrwt>0</asrwt>
<pdfrwt beam="1">  1        3 0.15222686E+00 0.10149946E+04</pdfrwt>
<pdfrwt beam="2">  1       -4 0.28871469E+00 0.10149946E+04</pdfrwt>
<totfact> 0.25069491E-02</totfact>
</mgrwt>
</event>
<event>
12    3  0.2212098E-007  0.9444239E+03  0.7818608E-02  0.9371692E-01
          1   -1    0    0  501    0  0.00000000000E+00  0.00000000000E+00  0.10519612686E+04  0.10519612686E+04  0.00000000000E+00 0. -1.
         -2   -1    0    0    0  501 -0.00000000000E+00 -0.00000000000E+00 -0.10360490209E+04  0.10360490209E+04  0.00000000000E+00 0.  1.
        -24    2    1    2    0    0 -0.86107978523E+03  0.76277140311E+02  0.41550168733E+03  0.96239350505E+03  0.79265425668E+02 0.  0.
    5000000    2    1    2    0    0  0.86107978523E+03 -0.76277140311E+02 -0.39958943963E+03  0.11256167844E+04  0.60005401959E+03 0.  0.
        -24    2    4    4    0    0  0.93263059913E+03 -0.38714956233E+02 -0.33121637878E+03  0.99367535184E+03  0.79923294575E+02 0.  0.
         24    2    4    4    0    0 -0.71550813899E+02 -0.37562184078E+02 -0.68373060856E+02  0.13194143258E+03  0.78760583651E+02 0.  0.
         11    1    3    3    0    0 -0.69686417060E+03  0.81242826384E+02  0.30909902211E+03  0.76665655582E+03  0.00000000000E+00 0. -1.
        -12    1    3    3    0    0 -0.16421561463E+03 -0.49656860729E+01  0.10640266522E+03  0.19573694923E+03  0.00000000000E+00 0.  1.
         13    1    5    5    0    0  0.51192660798E+03 -0.60529693721E+02 -0.17551327788E+03  0.54455266640E+03  0.00000000000E+00 0. -1.
        -14    1    5    5    0    0  0.42070399115E+03  0.21814737488E+02 -0.15570310090E+03  0.44912268544E+03  0.00000000000E+00 0.  1.
          2    1    6    6  502    0 -0.55755775493E+02 -0.13398424305E+02  0.41159742244E+00  0.57344517498E+02  0.00000000000E+00 0. -1.
         -1    1    6    6    0  502 -0.15795038406E+02 -0.24163759772E+02 -0.68784658279E+02  0.74596915078E+02  0.00000000000E+00 0.  1.
<mgrwt>
<rscale>  0 0.94442385E+03</rscale>
<asrwt>0</asrwt>
<pdfrwt beam="1">  1        1 0.16184020E+00 0.94442385E+03</pdfrwt>
<pdfrwt beam="2">  1       -2 0.15939216E+00 0.94442385E+03</pdfrwt>
<totfact> 0.30839726E+00</totfact>
</mgrwt>
</event>
<event>
12    3  0.2212098E-007  0.1177519E+04  0.7818608E-02  0.9132765E-01
          1   -1    0    0  501    0  0.00000000000E+00  0.00000000000E+00  0.19570570656E+04  0.19570570656E+04  0.00000000000E+00 0. -1.
         -2   -1    0    0    0  501 -0.00000000000E+00 -0.00000000000E+00 -0.13409125625E+04  0.13409125625E+04  0.00000000000E+00 0.  1.
        -24    2    1    2    0    0  0.10121788303E+04  0.50371319416E+03  0.13969151415E+04  0.17987159126E+04  0.75987202634E+02 0.  0.
    5000000    2    1    2    0    0 -0.10121788303E+04 -0.50371319416E+03 -0.78077063848E+03  0.14992537155E+04  0.59993828603E+03 0.  0.
        -24    2    4    4    0    0 -0.90397842055E+03 -0.23967558673E+03 -0.75001498305E+03  0.12014355555E+04  0.79394883304E+02 0.  0.
         24    2    4    4    0    0 -0.10820040979E+03 -0.26403760744E+03 -0.30755655433E+02  0.29781816004E+03  0.79539671159E+02 0.  0.
         13    1    5    5    0    0 -0.82523896318E+03 -0.20375252363E+03 -0.65655166307E+03  0.10740551771E+04  0.00000000000E+00 0. -1.
        -14    1    5    5    0    0 -0.78739457373E+02 -0.35923063096E+02 -0.93463319979E+02  0.12738037836E+03  0.00000000000E+00 0.  1.
         13    1    3    3    0    0  0.51797857659E+02  0.82013159043E+01  0.66910204776E+02  0.85013264517E+02  0.00000000000E+00 0. -1.
        -14    1    3    3    0    0  0.96038097268E+03  0.49551187826E+03  0.13300049367E+04  0.17137026481E+04  0.00000000000E+00 0.  1.
          4    1    6    6  502    0 -0.91164832360E+02 -0.22349675448E+03  0.45602496653E+01  0.24141794010E+03  0.00000000000E+00 0. -1.
         -3    1    6    6    0  502 -0.17035577429E+02 -0.40540852955E+02 -0.35315905098E+02  0.56400219943E+02  0.00000000000E+00 0.  1.
<mgrwt>
<rscale>  0 0.11775186E+04</rscale>
<asrwt>0</asrwt>
<pdfrwt beam="1">  1        1 0.30108570E+00 0.11775186E+04</pdfrwt>
<pdfrwt beam="2">  1       -2 0.20629424E+00 0.11775186E+04</pdfrwt>
<totfact> 0.33091635E-01</totfact>
</mgrwt>
</event>
<event>
12    3  0.2212098E-007  0.7691564E+03  0.7818608E-02  0.9605767E-01
         -2   -1    0    0    0  501 -0.00000000000E+00  0.00000000000E+00  0.87404327146E+03  0.87404327146E+03  0.00000000000E+00 0.  1.
          1   -1    0    0  501    0  0.00000000000E+00 -0.00000000000E+00 -0.72347052395E+03  0.72347052395E+03  0.00000000000E+00 0. -1.
        -24    2    1    2    0    0 -0.65696074504E+03  0.17398176575E+03  0.78547632019E+02  0.68811655665E+03  0.73943151740E+02 0.  0.
    5000000    2    1    2    0    0  0.65696074504E+03 -0.17398176575E+03  0.72025115485E+02  0.90939723876E+03  0.59995720286E+03 0.  0.
        -24    2    4    4    0    0 -0.57721689586E+02 -0.89670339197E+02  0.12580344081E+03  0.18321817094E+03  0.79811210144E+02 0.  0.
         24    2    4    4    0    0  0.71468243463E+03 -0.84311426556E+02 -0.53778325324E+02  0.72617906782E+03  0.81021794892E+02 0.  0.
         11    1    3    3    0    0 -0.32262011714E+03  0.12058469706E+03  0.24934940109E+02  0.34532037354E+03  0.00000000000E+00 0. -1.
        -12    1    3    3    0    0 -0.33434062791E+03  0.53397068693E+02  0.53612691910E+02  0.34279618310E+03  0.00000000000E+00 0.  1.
         13    1    5    5    0    0 -0.64749963653E+02 -0.29251962800E+02  0.54836780702E+02  0.89751365663E+02  0.00000000000E+00 0. -1.
        -14    1    5    5    0    0  0.70282740663E+01 -0.60418376397E+02  0.70966660106E+02  0.93466805281E+02  0.00000000000E+00 0.  1.
          2    1    6    6  502    0  0.30073525775E+03  0.12698451825E+01 -0.61271381826E+01  0.30080034838E+03  0.00000000000E+00 0. -1.
         -1    1    6    6    0  502  0.41394717688E+03 -0.85581271738E+02 -0.47651187141E+02  0.42537871945E+03  0.00000000000E+00 0.  1.
<mgrwt>
<rscale>  0 0.76915635E+03</rscale>
<asrwt>0</asrwt>
<pdfrwt beam="1">  1        1 0.11130316E+00 0.76915635E+03</pdfrwt>
<pdfrwt beam="2">  1       -2 0.13446819E+00 0.76915635E+03</pdfrwt>
<totfact> 0.92141790E+00</totfact>
</mgrwt>
</event>
<event>
12    3  0.2212098E-007  0.4658254E+03  0.7818608E-02  0.1023105E+00
          1   -1    0    0  501    0  0.00000000000E+00  0.00000000000E+00  0.28296338336E+03  0.28296338336E+03  0.00000000000E+00 0. -1.
         -2   -1    0    0    0  501 -0.00000000000E+00 -0.00000000000E+00 -0.85582864942E+03  0.85582864942E+03  0.00000000000E+00 0.  1.
        -24    2    1    2    0    0 -0.21599298437E+03 -0.20421998822E+03 -0.12010386712E+03  0.33051655331E+03  0.80358448369E+02 0.  0.
    5000000    2    1    2    0    0  0.21599298437E+03  0.20421998822E+03 -0.45276139893E+03  0.80827547947E+03  0.59996466019E+03 0.  0.
        -24    2    4    4    0    0 -0.88599674026E+02 -0.11948125565E+03 -0.26137131323E+03  0.31791380044E+03  0.10309485168E+03 0.  0.
         24    2    4    4    0    0  0.30459265840E+03  0.32370124387E+03 -0.19139008570E+03  0.49036167903E+03  0.79153196549E+02 0.  0.
         11    1    5    5    0    0  0.23360439593E+02 -0.14880150699E+02 -0.37035644847E+02  0.46246816237E+02  0.00000000000E+00 0. -1.
        -12    1    5    5    0    0 -0.11196011362E+03 -0.10460110495E+03 -0.22433566838E+03  0.27166698420E+03  0.00000000000E+00 0.  1.
         11    1    3    3    0    0 -0.13110388303E+03 -0.15160680485E+03 -0.44646029477E+02  0.20534390512E+03  0.00000000000E+00 0. -1.
        -12    1    3    3    0    0 -0.84889101341E+02 -0.52613183368E+02 -0.75457837647E+02  0.12517264818E+03  0.00000000000E+00 0.  1.
          2    1    6    6  502    0  0.85223528735E+02  0.47012629788E+02 -0.27907458582E+02  0.10125247382E+03  0.00000000000E+00 0. -1.
         -1    1    6    6    0  502  0.21936912967E+03  0.27668861408E+03 -0.16348262712E+03  0.38910920522E+03  0.00000000000E+00 0.  1.
<mgrwt>
<rscale>  0 0.46582538E+03</rscale>
<asrwt>0</asrwt>
<pdfrwt beam="1">  1        1 0.43532828E-01 0.46582538E+03</pdfrwt>
<pdfrwt beam="2">  1       -2 0.13166595E+00 0.46582538E+03</pdfrwt>
<totfact> 0.36092399E+01</totfact>
</mgrwt>
</event>
<event>
12    3  0.2212098E-007  0.3865027E+03  0.7818608E-02  0.1048556E+00
         -2   -1    0    0    0  501 -0.00000000000E+00  0.00000000000E+00  0.63329490620E+03  0.63329490620E+03  0.00000000000E+00 0.  1.
          1   -1    0    0  501    0  0.00000000000E+00 -0.00000000000E+00 -0.26422546263E+03  0.26422546263E+03  0.00000000000E+00 0. -1.
        -24    2    1    2    0    0  0.12264795950E+03  0.93327996111E+02  0.18066064381E+03  0.25001411019E+03  0.78205819762E+02 0.  0.
    5000000    2    1    2    0    0 -0.12264795950E+03 -0.93327996111E+02  0.18840879977E+03  0.64750625865E+03  0.60001153516E+03 0.  0.
        -24    2    4    4    0    0  0.13145502630E+03  0.17963247142E+03  0.97329305158E+02  0.25571582071E+03  0.79808136122E+02 0.  0.
         24    2    4    4    0    0 -0.25410298580E+03 -0.27296046753E+03  0.91079494612E+02  0.39179043794E+03  0.78284919979E+02 0.  0.
         11    1    3    3    0    0  0.92642223711E+02  0.36433213907E+02  0.68905131189E+02  0.12106972286E+03  0.00000000000E+00 0. -1.
        -12    1    3    3    0    0  0.30005735788E+02  0.56894782205E+02  0.11175551262E+03  0.12894438732E+03  0.00000000000E+00 0.  1.
         13    1    5    5    0    0  0.46626860067E+02  0.11874947501E+02  0.25678791488E+02  0.54538782441E+02  0.00000000000E+00 0. -1.
        -14    1    5    5    0    0  0.84828166233E+02  0.16775752391E+03  0.71650513670E+02  0.20117703827E+03  0.00000000000E+00 0.  1.
          4    1    6    6  502    0 -0.10671375197E+03 -0.10823932555E+03  0.76787295051E+02  0.17029346769E+03  0.00000000000E+00 0. -1.
         -3    1    6    6    0  502 -0.14738923383E+03 -0.16472114197E+03  0.14292199561E+02  0.22149697025E+03  0.00000000000E+00 0.  1.
<mgrwt>
<rscale>  0 0.38650274E+03</rscale>
<asrwt>0</asrwt>
<pdfrwt beam="1">  1        1 0.40650071E-01 0.38650274E+03</pdfrwt>
<pdfrwt beam="2">  1       -2 0.97429985E-01 0.38650274E+03</pdfrwt>
<totfact> 0.82255634E+01</totfact>
</mgrwt>
</event>
<event>
12    3  0.2212098E-007  0.2335828E+04  0.7818608E-02  0.8463927E-01
          1   -1    0    0  501    0  0.00000000000E+00  0.00000000000E+00  0.30255595459E+04  0.30255595459E+04  0.00000000000E+00 0. -1.
         -2   -1    0    0    0  501 -0.00000000000E+00 -0.00000000000E+00 -0.18640860512E+04  0.18640860512E+04  0.00000000000E+00 0.  1.
        -24    2    1    2    0    0  0.77035219546E+03 -0.22042969664E+04  0.64892913654E+03  0.24248645145E+04  0.80568407038E+02 0.  0.
    5000000    2    1    2    0    0 -0.77035219546E+03  0.22042969664E+04  0.51254435812E+03  0.24647810826E+04  0.60006370101E+03 0.  0.
        -24    2    4    4    0    0 -0.45909268390E+03  0.14100502326E+04  0.60465916511E+03  0.16037683059E+04  0.86326834017E+02 0.  0.
         24    2    4    4    0    0 -0.31125951156E+03  0.79424673383E+03 -0.92114806990E+02  0.86101277676E+03  0.71746124246E+02 0.  0.
         11    1    3    3    0    0  0.22143506741E+03 -0.57575098051E+03  0.14044236923E+03  0.63265056683E+03  0.00000000000E+00 0. -1.
        -12    1    3    3    0    0  0.54891712806E+03 -0.16285459859E+04  0.50848676731E+03  0.17922139476E+04  0.00000000000E+00 0.  1.
         11    1    5    5    0    0 -0.20019024791E+03  0.57415533090E+03  0.20428934706E+03  0.64145507768E+03  0.00000000000E+00 0. -1.
        -12    1    5    5    0    0 -0.25890243599E+03  0.83589490166E+03  0.40036981805E+03  0.96231322821E+03  0.00000000000E+00 0.  1.
          4    1    6    6  502    0 -0.97946406987E+02  0.23971755363E+03  0.49002816273E+01  0.25900196316E+03  0.00000000000E+00 0. -1.
         -3    1    6    6    0  502 -0.21331310457E+03  0.55452918019E+03 -0.97015088617E+02  0.60201081360E+03  0.00000000000E+00 0.  1.
<mgrwt>
<rscale>  0 0.23358283E+04</rscale>
<asrwt>0</asrwt>
<pdfrwt beam="1">  1        1 0.46547070E+00 0.23358283E+04</pdfrwt>
<pdfrwt beam="2">  1       -2 0.28678247E+00 0.23358283E+04</pdfrwt>
<totfact> 0.16457709E-02</totfact>
</mgrwt>
</event>
<event>
12    3  0.2212098E-007  0.4199164E+03  0.7818608E-02  0.1037094E+00
          1   -1    0    0  501    0  0.00000000000E+00  0.00000000000E+00  0.11287035962E+04  0.11287035962E+04  0.00000000000E+00 0. -1.
         -2   -1    0    0    0  501 -0.00000000000E+00 -0.00000000000E+00 -0.25956566925E+03  0.25956566925E+03  0.00000000000E+00 0.  1.
        -24    2    1    2    0    0 -0.30782895644E+03 -0.10191653767E+03  0.76901790606E+02  0.34292914511E+03  0.80875621117E+02 0.  0.
    5000000    2    1    2    0    0  0.30782895644E+03  0.10191653767E+03  0.79223613634E+03  0.10453401203E+04  0.59996018567E+03 0.  0.
        -24    2    4    4    0    0 -0.37885871358E+02 -0.77270362866E+02 -0.39782161356E+02  0.12336625321E+03  0.78933920743E+02 0.  0.
         24    2    4    4    0    0  0.34571482780E+03  0.17918690053E+03  0.83201829769E+03  0.92197386712E+03  0.78451746135E+02 0.  0.
         11    1    3    3    0    0 -0.18750072086E+03 -0.10047728355E+03  0.62600869044E+02  0.22174551548E+03  0.00000000000E+00 0. -1.
        -12    1    3    3    0    0 -0.12032823559E+03 -0.14392541168E+01  0.14300921562E+02  0.12118362963E+03  0.00000000000E+00 0.  1.
         11    1    5    5    0    0 -0.37537407859E+02  0.16538491070E+01 -0.16835889633E+02  0.41173284850E+02  0.00000000000E+00 0. -1.
        -12    1    5    5    0    0 -0.34846349908E+00 -0.78924211973E+02 -0.22946271723E+02  0.82192968364E+02  0.00000000000E+00 0.  1.
          4    1    6    6  502    0  0.11888291049E+03  0.75778031438E+02  0.22198106639E+03  0.26296587286E+03  0.00000000000E+00 0. -1.
         -3    1    6    6    0  502  0.22683191732E+03  0.10340886909E+03  0.61003723130E+03  0.65900799426E+03  0.00000000000E+00 0.  1.
<mgrwt>
<rscale>  0 0.41991643E+03</rscale>
<asrwt>0</asrwt>
<pdfrwt beam="1">  1        1 0.17364670E+00 0.41991643E+03</pdfrwt>
<pdfrwt beam="2">  1       -2 0.39933181E-01 0.41991643E+03</pdfrwt>
<totfact> 0.66572755E+01</totfact>
</mgrwt>
</event>
<event>
12    3  0.2212098E-007  0.1684063E+04  0.7818608E-02  0.8770506E-01
         -2   -1    0    0    0  501 -0.00000000000E+00  0.00000000000E+00  0.13347732515E+04  0.13347732515E+04  0.00000000000E+00 0.  1.
          1   -1    0    0  501    0  0.00000000000E+00 -0.00000000000E+00 -0.23709222204E+04  0.23709222204E+04  0.00000000000E+00 0. -1.
        -24    2    1    2    0    0  0.61683707735E+03  0.15644183318E+04 -0.91497788015E+03  0.19160567254E+04  0.78715669793E+02 0.  0.
    5000000    2    1    2    0    0 -0.61683707735E+03 -0.15644183318E+04 -0.12117108874E+03  0.17896387466E+04  0.60019306350E+03 0.  0.
        -24    2    4    4    0    0 -0.46693970949E+03 -0.12879700491E+04  0.13371078657E+03  0.13788417821E+04  0.80165740087E+02 0.  0.
         24    2    4    4    0    0 -0.14989736786E+03 -0.27644828275E+03 -0.25488187531E+03  0.41079696450E+03  0.69975008049E+02 0.  0.
         11    1    5    5    0    0 -0.11830674332E+02 -0.45403212651E+02  0.18891672737E+02  0.50579757541E+02  0.00000000000E+00 0. -1.
        -12    1    5    5    0    0 -0.45510903516E+03 -0.12425668364E+04  0.11481911383E+03  0.13282620245E+04  0.00000000000E+00 0.  1.
         11    1    3    3    0    0  0.39140103677E+03  0.89105406249E+03 -0.54155126066E+03  0.11137548571E+04  0.00000000000E+00 0. -1.
        -12    1    3    3    0    0  0.22543604059E+03  0.67336426934E+03 -0.37342661948E+03  0.80230186822E+03  0.00000000000E+00 0.  1.
          4    1    6    6  502    0 -0.23528082583E+01 -0.24853625842E+01  0.45318941333E+01  0.56789786327E+01  0.00000000000E+00 0. -1.
         -3    1    6    6    0  502 -0.14754455961E+03 -0.27396292017E+03 -0.25941376944E+03  0.40511798587E+03  0.00000000000E+00 0.  1.
<mgrwt>
<rscale>  0 0.16840629E+04</rscale>
<asrwt>0</asrwt>
<pdfrwt beam="1">  1        1 0.36475726E+00 0.16840629E+04</pdfrwt>
<pdfrwt beam="2">  1       -2 0.20534973E+00 0.16840629E+04</pdfrwt>
<totfact> 0.16522026E-01</totfact>
</mgrwt>
</event>
<event>
12    3  0.2212098E-007  0.1146399E+04  0.7818608E-02  0.9161112E-01
          1   -1    0    0  501    0  0.00000000000E+00  0.00000000000E+00  0.58801254883E+03  0.58801254883E+03  0.00000000000E+00 0. -1.
         -2   -1    0    0    0  501 -0.00000000000E+00 -0.00000000000E+00 -0.24879922190E+04  0.24879922190E+04  0.00000000000E+00 0.  1.
        -24    2    1    2    0    0 -0.40015149944E+03 -0.98983990977E+03 -0.13767617578E+04  0.17443019193E+04  0.84923368114E+02 0.  0.
    5000000    2    1    2    0    0  0.40015149944E+03  0.98983990977E+03 -0.52321791233E+03  0.13317028485E+04  0.59980932255E+03 0.  0.
        -24    2    4    4    0    0 -0.68296181192E+01  0.73126856257E+03 -0.32984983083E+03  0.80609711074E+03  0.78684730182E+02 0.  0.
         24    2    4    4    0    0  0.40698111756E+03  0.25857134720E+03 -0.19336808150E+03  0.52560573775E+03  0.79858656207E+02 0.  0.
         13    1    3    3    0    0 -0.31124052832E+03 -0.66889529750E+03 -0.96559789761E+03  0.12151834781E+04  0.00000000000E+00 0. -1.
        -14    1    3    3    0    0 -0.88910971121E+02 -0.32094461227E+03 -0.41116386019E+03  0.52911844124E+03  0.00000000000E+00 0.  1.
         13    1    5    5    0    0  0.21600816948E+02  0.57841804515E+03 -0.24065575827E+03  0.62685662176E+03  0.00000000000E+00 0. -1.
        -14    1    5    5    0    0 -0.28430435067E+02  0.15285051742E+03 -0.89194072554E+02  0.17924048898E+03  0.00000000000E+00 0.  1.
          4    1    6    6  502    0  0.10073088803E+03  0.10354460651E+03 -0.41845004703E+02  0.15039681433E+03  0.00000000000E+00 0. -1.
         -3    1    6    6    0  502  0.30625022952E+03  0.15502674069E+03 -0.15152307680E+03  0.37520892342E+03  0.00000000000E+00 0.  1.
<mgrwt>
<rscale>  0 0.11463990E+04</rscale>
<asrwt>0</asrwt>
<pdfrwt beam="1">  1        1 0.90463468E-01 0.11463990E+04</pdfrwt>
<pdfrwt beam="2">  1       -2 0.38276804E+00 0.11463990E+04</pdfrwt>
<totfact> 0.29678921E-01</totfact>
</mgrwt>
</event>
<event>
12    3  0.2212098E-007  0.8484666E+03  0.7818608E-02  0.9492397E-01
         -2   -1    0    0    0  501 -0.00000000000E+00  0.00000000000E+00  0.43924485238E+03  0.43924485238E+03  0.00000000000E+00 0.  1.
          1   -1    0    0  501    0  0.00000000000E+00 -0.00000000000E+00 -0.17434347123E+04  0.17434347123E+04  0.00000000000E+00 0. -1.
        -24    2    1    2    0    0  0.43150151461E+02 -0.74968089540E+03 -0.78813357185E+03  0.10917356025E+04  0.82756982687E+02 0.  0.
    5000000    2    1    2    0    0 -0.43150151461E+02  0.74968089540E+03 -0.51605628808E+03  0.10909439622E+04  0.59996771220E+03 0.  0.
        -24    2    4    4    0    0 -0.20309089615E+03  0.47973915190E+02 -0.48339702178E+02  0.22907794224E+03  0.81194631462E+02 0.  0.
         24    2    4    4    0    0  0.15994074469E+03  0.70170698021E+03 -0.46771658591E+03  0.86186601995E+03  0.77977584825E+02 0.  0.
         13    1    5    5    0    0 -0.94400250040E+02 -0.15514139751E+02 -0.44459628566E+01  0.95769840375E+02  0.00000000000E+00 0. -1.
        -14    1    5    5    0    0 -0.10869064611E+03  0.63488054941E+02 -0.43893739321E+02  0.13330810187E+03  0.00000000000E+00 0.  1.
         13    1    3    3    0    0  0.46547586780E+02 -0.33377420983E+03 -0.39754951909E+03  0.52116937853E+03  0.00000000000E+00 0. -1.
        -14    1    3    3    0    0 -0.33974353192E+01 -0.41590668556E+03 -0.39058405276E+03  0.57056622397E+03  0.00000000000E+00 0.  1.
          2    1    6    6  502    0  0.78067256442E+02  0.21103924709E+03 -0.12077991507E+03  0.25538176956E+03  0.00000000000E+00 0. -1.
         -1    1    6    6    0  502  0.81873488245E+02  0.49066773312E+03 -0.34693667084E+03  0.60648425040E+03  0.00000000000E+00 0.  1.
<mgrwt>
<rscale>  0 0.84846662E+03</rscale>
<asrwt>0</asrwt>
<pdfrwt beam="1">  1        1 0.26822072E+00 0.84846662E+03</pdfrwt>
<pdfrwt beam="2">  1       -2 0.67576132E-01 0.84846662E+03</pdfrwt>
<totfact> 0.80267554E+00</totfact>
</mgrwt>
</event>
<event>
12    3  0.2212098E-007  0.3243017E+03  0.7818608E-02  0.1073686E+00
          1   -1    0    0  501    0  0.00000000000E+00  0.00000000000E+00  0.16144551331E+04  0.16144551331E+04  0.00000000000E+00 0. -1.
         -2   -1    0    0    0  501 -0.00000000000E+00 -0.00000000000E+00 -0.10358893727E+03  0.10358893727E+03  0.00000000000E+00 0.  1.
        -24    2    1    2    0    0 -0.11014970990E+03 -0.11080556799E+03  0.52228789422E+03  0.55103089652E+03  0.80246943769E+02 0.  0.
    5000000    2    1    2    0    0  0.11014970990E+03  0.11080556799E+03  0.98857830164E+03  0.11670131739E+04  0.60018485241E+03 0.  0.
        -24    2    4    4    0    0  0.28113044395E+03  0.18275556986E+02  0.20926692932E+03  0.35973434049E+03  0.79043187662E+02 0.  0.
         24    2    4    4    0    0 -0.17098073406E+03  0.92530011004E+02  0.77931137232E+03  0.80727883340E+03  0.81096766147E+02 0.  0.
         11    1    5    5    0    0  0.22637506878E+03 -0.26625294662E+01  0.19641665383E+03  0.29972030750E+03  0.00000000000E+00 0. -1.
        -12    1    5    5    0    0  0.54755375175E+02  0.20938086452E+02  0.12850275496E+02  0.60014032986E+02  0.00000000000E+00 0.  1.
         13    1    3    3    0    0 -0.67599942696E+02 -0.58251540231E+02  0.41288070533E+03  0.42241386225E+03  0.00000000000E+00 0. -1.
        -14    1    3    3    0    0 -0.42549767201E+02 -0.52554027759E+02  0.10940718889E+03  0.12861703427E+03  0.00000000000E+00 0.  1.
          4    1    6    6  502    0 -0.46835179932E+02  0.64080626967E+02  0.22712317900E+03  0.24059260020E+03  0.00000000000E+00 0. -1.
         -3    1    6    6    0  502 -0.12414555413E+03  0.28449384037E+02  0.55218819332E+03  0.56668623320E+03  0.00000000000E+00 0.  1.
<mgrwt>
<rscale>  0 0.32430166E+03</rscale>
<asrwt>0</asrwt>
<pdfrwt beam="1">  1        1 0.24837769E+00 0.32430166E+03</pdfrwt>
<pdfrwt beam="2">  1       -2 0.15936761E-01 0.32430166E+03</pdfrwt>
<totfact> 0.16269327E+02</totfact>
</mgrwt>
</event>
<event>
12    3  0.2212098E-007  0.9915563E+03  0.7818608E-02  0.9317855E-01
         -2   -1    0    0    0  501 -0.00000000000E+00  0.00000000000E+00  0.79310513472E+03  0.79310513472E+03  0.00000000000E+00 0.  1.
          1   -1    0    0  501    0  0.00000000000E+00 -0.00000000000E+00 -0.17642278616E+04  0.17642278616E+04  0.00000000000E+00 0. -1.
        -24    2    1    2    0    0  0.65220497951E+03 -0.65120588452E+03 -0.11146278415E+04  0.14484646021E+04  0.78829177552E+02 0.  0.
    5000000    2    1    2    0    0 -0.65220497951E+03  0.65120588452E+03  0.14350511459E+03  0.11088683942E+04  0.59962901734E+03 0.  0.
        -24    2    4    4    0    0 -0.14899370679E+03  0.50013787351E+03 -0.76116121389E+02  0.53385397809E+03  0.82881776019E+02 0.  0.
         24    2    4    4    0    0 -0.50321127271E+03  0.15106801100E+03  0.21962123598E+03  0.57501441612E+03  0.79780715203E+02 0.  0.
         11    1    5    5    0    0 -0.15323147205E+03  0.40767008986E+03 -0.55696725097E+02  0.43906367577E+03  0.00000000000E+00 0. -1.
        -12    1    5    5    0    0  0.42377652592E+01  0.92467783658E+02 -0.20419396292E+02  0.94790302320E+02  0.00000000000E+00 0.  1.
         13    1    3    3    0    0  0.36121883720E+03 -0.41127151854E+03 -0.68294791520E+03  0.87523777637E+03  0.00000000000E+00 0. -1.
        -14    1    3    3    0    0  0.29098614231E+03 -0.23993436598E+03 -0.43167992628E+03  0.57322682574E+03  0.00000000000E+00 0.  1.
          2    1    6    6  502    0 -0.21956748777E+03  0.10410714462E+03  0.11745797529E+03  0.26989730492E+03  0.00000000000E+00 0. -1.
         -1    1    6    6    0  502 -0.28364378495E+03  0.46960866382E+02  0.10216326069E+03  0.30511711120E+03  0.00000000000E+00 0.  1.
<mgrwt>
<rscale>  0 0.99155625E+03</rscale>
<asrwt>0</asrwt>
<pdfrwt beam="1">  1        1 0.27141967E+00 0.99155625E+03</pdfrwt>
<pdfrwt beam="2">  1       -2 0.12201617E+00 0.99155625E+03</pdfrwt>
<totfact> 0.19315155E+00</totfact>
</mgrwt>
</event>
<event>
12    3  0.2212098E-007  0.1350537E+04  0.7818608E-02  0.8990421E-01
         -2   -1    0    0    0  501 -0.00000000000E+00  0.00000000000E+00  0.86454817759E+03  0.86454817759E+03  0.00000000000E+00 0.  1.
          1   -1    0    0  501    0  0.00000000000E+00 -0.00000000000E+00 -0.22186924032E+04  0.22186924032E+04  0.00000000000E+00 0. -1.
        -24    2    1    2    0    0  0.12852076318E+04  0.63904863082E+02 -0.32471112553E+03  0.13295058341E+04  0.79410070917E+02 0.  0.
    5000000    2    1    2    0    0 -0.12852076318E+04 -0.63904863082E+02 -0.10294331001E+04  0.17537347467E+04  0.60000880481E+03 0.  0.
        -24    2    4    4    0    0 -0.46155834857E+03  0.25336437235E+03 -0.39358768668E+03  0.66306919850E+03  0.86717245027E+02 0.  0.
         24    2    4    4    0    0 -0.82364928327E+03 -0.31726923543E+03 -0.63584541344E+03  0.10906655482E+04  0.78702215688E+02 0.  0.
         11    1    5    5    0    0 -0.10101331622E+03  0.25367606422E+02 -0.10595160077E+03  0.14856967125E+03  0.00000000000E+00 0. -1.
        -12    1    5    5    0    0 -0.36054503235E+03  0.22799676593E+03 -0.28763608591E+03  0.51449952725E+03  0.00000000000E+00 0.  1.
         13    1    3    3    0    0  0.75864436024E+03  0.14195046949E+02 -0.22345438334E+03  0.79099597099E+03  0.00000000000E+00 0. -1.
        -14    1    3    3    0    0  0.52656327159E+03  0.49709816133E+02 -0.10125674219E+03  0.53850986309E+03  0.00000000000E+00 0.  1.
          2    1    6    6  502    0 -0.38664756245E+03 -0.15170263226E+03 -0.34759575629E+03  0.54160210116E+03  0.00000000000E+00 0. -1.
         -1    1    6    6    0  502 -0.43700172081E+03 -0.16556660317E+03 -0.28824965715E+03  0.54906344708E+03  0.00000000000E+00 0.  1.
<mgrwt>
<rscale>  0 0.13505374E+04</rscale>
<asrwt>0</asrwt>
<pdfrwt beam="1">  1        1 0.34133729E+00 0.13505374E+04</pdfrwt>
<pdfrwt beam="2">  1       -2 0.13300741E+00 0.13505374E+04</pdfrwt>
<totfact> 0.73285721E-01</totfact>
</mgrwt>
</event>
<event>
12    3  0.2212098E-007  0.1314223E+04  0.7818608E-02  0.9018362E-01
          1   -1    0    0  501    0  0.00000000000E+00  0.00000000000E+00  0.24751072963E+04  0.24751072963E+04  0.00000000000E+00 0. -1.
         -2   -1    0    0    0  501 -0.00000000000E+00 -0.00000000000E+00 -0.75009437749E+03  0.75009437749E+03  0.00000000000E+00 0.  1.
        -24    2    1    2    0    0 -0.12161122181E+04  0.42737718751E+03  0.67195127119E+03  0.14558472127E+04  0.79952538773E+02 0.  0.
    5000000    2    1    2    0    0  0.12161122181E+04 -0.42737718751E+03  0.10530616476E+04  0.17693544610E+04  0.60008015099E+03 0.  0.
        -24    2    4    4    0    0  0.63475534234E+03 -0.40934566252E+03  0.86809257165E+03  0.11534789208E+04  0.80316198859E+02 0.  0.
         24    2    4    4    0    0  0.58135687580E+03 -0.18031524996E+02  0.18496907593E+03  0.61587554018E+03  0.82390345415E+02 0.  0.
         11    1    5    5    0    0  0.52213743354E+03 -0.33466136638E+03  0.66282096675E+03  0.90772097233E+03  0.00000000000E+00 0. -1.
        -12    1    5    5    0    0  0.11261790881E+03 -0.74684296140E+02  0.20527160491E+03  0.24575794851E+03  0.00000000000E+00 0.  1.
         13    1    3    3    0    0 -0.39996797515E+03  0.18025806368E+03  0.22204091849E+03  0.49170064078E+03  0.00000000000E+00 0. -1.
        -14    1    3    3    0    0 -0.81614424299E+03  0.24711912384E+03  0.44991035270E+03  0.96414657195E+03  0.00000000000E+00 0.  1.
          2    1    6    6  502    0  0.28311643638E+03 -0.50127812748E+01  0.47096157466E+02  0.28705067945E+03  0.00000000000E+00 0. -1.
         -1    1    6    6    0  502  0.29824043942E+03 -0.13018743721E+02  0.13787291846E+03  0.32882486073E+03  0.00000000000E+00 0.  1.
<mgrwt>
<rscale>  0 0.13142231E+04</rscale>
<asrwt>0</asrwt>
<pdfrwt beam="1">  1        1 0.38078573E+00 0.13142231E+04</pdfrwt>
<pdfrwt beam="2">  1       -2 0.11539914E+00 0.13142231E+04</pdfrwt>
<totfact> 0.70236649E-01</totfact>
</mgrwt>
</event>
<event>
12    3  0.2212098E-007  0.7642342E+03  0.7818608E-02  0.9613280E-01
         -2   -1    0    0    0  501 -0.00000000000E+00  0.00000000000E+00  0.26094592228E+04  0.26094592228E+04  0.00000000000E+00 0.  1.
          1   -1    0    0  501    0  0.00000000000E+00 -0.00000000000E+00 -0.25667868234E+03  0.25667868234E+03  0.00000000000E+00 0. -1.
        -24    2    1    2    0    0 -0.13125567397E+03 -0.68708689293E+03  0.11876494206E+04  0.13806093017E+04  0.79085063819E+02 0.  0.
    5000000    2    1    2    0    0  0.13125567397E+03  0.68708689293E+03  0.11651311199E+04  0.14855286034E+04  0.59995687741E+03 0.  0.
        -24    2    4    4    0    0  0.26180165387E+03  0.27157527086E+03  0.22589108854E+03  0.44715170337E+03  0.81391819215E+02 0.  0.
         24    2    4    4    0    0 -0.13054597989E+03  0.41551162207E+03  0.93924003131E+03  0.10383769001E+04  0.79765839835E+02 0.  0.
         11    1    3    3    0    0 -0.84066713222E+02 -0.37869750159E+03  0.73122568229E+03  0.82774996733E+03  0.00000000000E+00 0. -1.
        -12    1    3    3    0    0 -0.47188960750E+02 -0.30838939134E+03  0.45642373830E+03  0.55285933437E+03  0.00000000000E+00 0.  1.
         13    1    5    5    0    0  0.15540397979E+03  0.10291336613E+03  0.11397248523E+03  0.21847490760E+03  0.00000000000E+00 0. -1.
        -14    1    5    5    0    0  0.10639767408E+03  0.16866190473E+03  0.11191860331E+03  0.22867679577E+03  0.00000000000E+00 0.  1.
          2    1    6    6  502    0 -0.10501669736E+03  0.39845547457E+03  0.87185461621E+03  0.96432657526E+03  0.00000000000E+00 0. -1.
         -1    1    6    6    0  502 -0.25529282533E+02  0.17056147503E+02  0.67385415100E+02  0.74050324796E+02  0.00000000000E+00 0.  1.
<mgrwt>
<rscale>  0 0.76423416E+03</rscale>
<asrwt>0</asrwt>
<pdfrwt beam="1">  1        1 0.39489030E-01 0.76423416E+03</pdfrwt>
<pdfrwt beam="2">  1       -2 0.40145525E+00 0.76423416E+03</pdfrwt>
<totfact> 0.72436147E-01</totfact>
</mgrwt>
</event>
<event>
12    3  0.2212098E-007  0.6452722E+03  0.7818608E-02  0.9815691E-01
         -2   -1    0    0    0  501 -0.00000000000E+00  0.00000000000E+00  0.36836382834E+03  0.36836382834E+03  0.00000000000E+00 0.  1.
          1   -1    0    0  501    0  0.00000000000E+00 -0.00000000000E+00 -0.11539631309E+04  0.11539631309E+04  0.00000000000E+00 0. -1.
        -24    2    1    2    0    0 -0.50001971072E+03 -0.94864407568E+02 -0.35585071258E+03  0.62595387122E+03  0.78546497819E+02 0.  0.
    5000000    2    1    2    0    0  0.50001971072E+03  0.94864407568E+02 -0.42974858999E+03  0.89637308802E+03  0.59981821863E+03 0.  0.
        -24    2    4    4    0    0  0.61411934441E+03  0.14170051369E+03 -0.38143749315E+03  0.74084593039E+03  0.78335985622E+02 0.  0.
         24    2    4    4    0    0 -0.11409963368E+03 -0.46836106121E+02 -0.48311096839E+02  0.15552715763E+03  0.81500843189E+02 0.  0.
         11    1    3    3    0    0 -0.32156359176E+03 -0.82588845930E+02 -0.26798227498E+03  0.42665977162E+03  0.00000000000E+00 0. -1.
        -12    1    3    3    0    0 -0.17845611897E+03 -0.12275561637E+02 -0.87868437602E+02  0.19929409960E+03  0.00000000000E+00 0.  1.
         13    1    5    5    0    0  0.34157719421E+03  0.11592910359E+03 -0.20042678256E+03  0.41265655433E+03  0.00000000000E+00 0. -1.
        -14    1    5    5    0    0  0.27254215020E+03  0.25771410100E+02 -0.18101071059E+03  0.32818937607E+03  0.00000000000E+00 0.  1.
          2    1    6    6  502    0 -0.47151279594E+02  0.19428921923E+02 -0.32339770336E+01  0.51099753246E+02  0.00000000000E+00 0. -1.
         -1    1    6    6    0  502 -0.66948354088E+02 -0.66265028044E+02 -0.45077119805E+02  0.10442740439E+03  0.00000000000E+00 0.  1.
<mgrwt>
<rscale>  0 0.64527219E+03</rscale>
<asrwt>0</asrwt>
<pdfrwt beam="1">  1        1 0.17753279E+00 0.64527219E+03</pdfrwt>
<pdfrwt beam="2">  1       -2 0.56671358E-01 0.64527219E+03</pdfrwt>
<totfact> 0.30673847E+01</totfact>
</mgrwt>
</event>
<event>
12    3  0.2212098E-007  0.1400658E+04  0.7818608E-02  0.8953343E-01
         -4   -1    0    0    0  501 -0.00000000000E+00  0.00000000000E+00  0.96901274922E+03  0.96901274922E+03  0.00000000000E+00 0.  1.
          3   -1    0    0  501    0  0.00000000000E+00 -0.00000000000E+00 -0.30715281390E+04  0.30715281390E+04  0.00000000000E+00 0. -1.
        -24    2    1    2    0    0  0.95826602698E+03 -0.96648914714E+03  0.11731932043E+03  0.13684480588E+04  0.80692110122E+02 0.  0.
    5000000    2    1    2    0    0 -0.95826602698E+03  0.96648914714E+03 -0.22198347102E+04  0.26720928294E+04  0.60003241446E+03 0.  0.
        -24    2    4    4    0    0 -0.90427706049E+03  0.99678861645E+03 -0.21921029045E+04  0.25735317673E+04  0.80287391505E+02 0.  0.
         24    2    4    4    0    0 -0.53988966487E+02 -0.30299469310E+02 -0.27731805660E+02  0.98561062108E+02  0.71500794233E+02 0.  0.
         11    1    3    3    0    0  0.43102975482E+03 -0.48667985924E+03  0.38973958549E+02  0.65127790103E+03  0.00000000000E+00 0. -1.
        -12    1    3    3    0    0  0.52723627216E+03 -0.47980928790E+03  0.78345361881E+02  0.71717015775E+03  0.00000000000E+00 0.  1.
         13    1    5    5    0    0 -0.76950809276E+03  0.82112842031E+03 -0.17851453531E+04  0.21102460803E+04  0.00000000000E+00 0. -1.
        -14    1    5    5    0    0 -0.13476896773E+03  0.17566019614E+03 -0.40695755139E+03  0.46328568702E+03  0.00000000000E+00 0.  1.
          4    1    6    6  502    0  0.54355186556E+01 -0.31678570574E+02  0.17935356816E+01  0.32191512343E+02  0.00000000000E+00 0. -1.
         -3    1    6    6    0  502 -0.59424485142E+02  0.13791012640E+01 -0.29525341341E+02  0.66369549765E+02  0.00000000000E+00 0.  1.
<mgrwt>
<rscale>  0 0.14006577E+04</rscale>
<asrwt>0</asrwt>
<pdfrwt beam="1">  1        3 0.47254279E+00 0.14006577E+04</pdfrwt>
<pdfrwt beam="2">  1       -4 0.14907888E+00 0.14006577E+04</pdfrwt>
<totfact> 0.30232648E-03</totfact>
</mgrwt>
</event>
<event>
12    3  0.2212098E-007  0.1006028E+04  0.7818608E-02  0.9301958E-01
          1   -1    0    0  501    0  0.00000000000E+00  0.00000000000E+00  0.97239453658E+03  0.97239453658E+03  0.00000000000E+00 0. -1.
         -4   -1    0    0    0  501 -0.00000000000E+00 -0.00000000000E+00 -0.21629946635E+04  0.21629946635E+04  0.00000000000E+00 0.  1.
        -24    2    1    2    0    0  0.77477519021E+03  0.57632085125E+03 -0.16466441927E+04  0.19104870610E+04  0.78111419264E+02 0.  0.
    5000000    2    1    2    0    0 -0.77477519021E+03 -0.57632085125E+03  0.45604406577E+03  0.12249021391E+04  0.59998895121E+03 0.  0.
        -24    2    4    4    0    0  0.94521504986E+01 -0.10442533061E+03 -0.86420988691E+02  0.15793506677E+03  0.80504069510E+02 0.  0.
         24    2    4    4    0    0 -0.78422734071E+03 -0.47189552064E+03  0.54246505446E+03  0.10669670724E+04  0.80327416704E+02 0.  0.
         13    1    3    3    0    0  0.55098228654E+03  0.36667985244E+03 -0.11466318687E+04  0.13239336224E+04  0.00000000000E+00 0. -1.
        -14    1    3    3    0    0  0.22379290367E+03  0.20964099882E+03 -0.50001232406E+03  0.58655343859E+03  0.00000000000E+00 0.  1.
         13    1    5    5    0    0  0.13016508679E+02 -0.11400160208E+03 -0.91279142021E+02  0.14662085985E+03  0.00000000000E+00 0. -1.
        -14    1    5    5    0    0 -0.35643581801E+01  0.95762714691E+01  0.48581533303E+01  0.11314206922E+02  0.00000000000E+00 0.  1.
          4    1    6    6  502    0 -0.43438311897E+03 -0.30652588486E+03  0.32410470488E+03  0.62264811239E+03  0.00000000000E+00 0. -1.
         -3    1    6    6    0  502 -0.34984422174E+03 -0.16536963578E+03  0.21836034958E+03  0.44431895997E+03  0.00000000000E+00 0.  1.
<mgrwt>
<rscale>  0 0.10060279E+04</rscale>
<asrwt>0</asrwt>
<pdfrwt beam="1">  1        1 0.14959916E+00 0.10060279E+04</pdfrwt>
<pdfrwt beam="2">  1       -4 0.33276841E+00 0.10060279E+04</pdfrwt>
<totfact> 0.14589837E-01</totfact>
</mgrwt>
</event>
<event>
12    3  0.2212098E-007  0.4080488E+03  0.7818608E-02  0.1041028E+00
         -2   -1    0    0    0  501 -0.00000000000E+00  0.00000000000E+00  0.17383022310E+03  0.17383022310E+03  0.00000000000E+00 0.  1.
          1   -1    0    0  501    0  0.00000000000E+00 -0.00000000000E+00 -0.17044422266E+04  0.17044422266E+04  0.00000000000E+00 0. -1.
        -24    2    1    2    0    0 -0.44818641547E+02 -0.22109404090E+03 -0.24726635800E+02  0.24166556364E+03  0.83063545441E+02 0.  0.
    5000000    2    1    2    0    0  0.44818641547E+02  0.22109404090E+03 -0.15058853677E+04  0.16366068861E+04  0.59991672197E+03 0.  0.
        -24    2    4    4    0    0  0.15009831242E+03  0.35675309511E+03 -0.12882884018E+04  0.13482181468E+04  0.90569812001E+02 0.  0.
         24    2    4    4    0    0 -0.10527967087E+03 -0.13565905421E+03 -0.21759696591E+03  0.28838873928E+03  0.79576612676E+02 0.  0.
         11    1    5    5    0    0  0.16182867820E+03  0.34323872151E+03 -0.12370073782E+04  0.12939043994E+04  0.00000000000E+00 0. -1.
        -12    1    5    5    0    0 -0.11730365775E+02  0.13514373599E+02 -0.51281023623E+02  0.54313747420E+02  0.00000000000E+00 0.  1.
         13    1    3    3    0    0  0.47720426829E+01 -0.12917362053E+03 -0.41763264512E+02  0.13584096177E+03  0.00000000000E+00 0. -1.
        -14    1    3    3    0    0 -0.49590684229E+02 -0.91920420369E+02  0.17036628713E+02  0.10582460187E+03  0.00000000000E+00 0.  1.
          4    1    6    6  502    0  0.31058401622E+01 -0.41005467874E+02 -0.25556052477E+02  0.48417005864E+02  0.00000000000E+00 0. -1.
         -3    1    6    6    0  502 -0.10838551104E+03 -0.94653586335E+02 -0.19204091343E+03  0.23997173342E+03  0.00000000000E+00 0.  1.
<mgrwt>
<rscale>  0 0.40804876E+03</rscale>
<asrwt>0</asrwt>
<pdfrwt beam="1">  1        1 0.26222189E+00 0.40804876E+03</pdfrwt>
<pdfrwt beam="2">  1       -2 0.26743111E-01 0.40804876E+03</pdfrwt>
<totfact> 0.56838518E+01</totfact>
</mgrwt>
</event>
<event>
12    3  0.2212098E-007  0.9554496E+03  0.7818608E-02  0.9358803E-01
         -2   -1    0    0    0  501 -0.00000000000E+00  0.00000000000E+00  0.61088657559E+03  0.61088657559E+03  0.00000000000E+00 0.  1.
          1   -1    0    0  501    0  0.00000000000E+00 -0.00000000000E+00 -0.21918201043E+04  0.21918201043E+04  0.00000000000E+00 0. -1.
        -24    2    1    2    0    0  0.83980064250E+03 -0.19210243852E+03 -0.15225669384E+04  0.17512458400E+04  0.80519836637E+02 0.  0.
    5000000    2    1    2    0    0 -0.83980064250E+03  0.19210243852E+03 -0.58366590312E+02  0.10514608399E+04  0.59999564415E+03 0.  0.
        -24    2    4    4    0    0 -0.22196719474E+03  0.33583504640E+03 -0.84643209505E+01  0.41020023853E+03  0.78345242535E+02 0.  0.
         24    2    4    4    0    0 -0.61783344776E+03 -0.14373260788E+03 -0.49902269362E+02  0.64126060140E+03  0.79672395963E+02 0.  0.
         11    1    3    3    0    0  0.24625723646E+02 -0.18344559863E+02 -0.71918355776E+02  0.78199738102E+02  0.00000000000E+00 0. -1.
        -12    1    3    3    0    0  0.81517491886E+03 -0.17375787866E+03 -0.14506485827E+04  0.16730461019E+04  0.00000000000E+00 0.  1.
         13    1    5    5    0    0 -0.15733329768E+03  0.16781486253E+03 -0.81086791791E+01  0.23017676973E+03  0.00000000000E+00 0. -1.
        -14    1    5    5    0    0 -0.64633897055E+02  0.16802018387E+03 -0.35564177142E+00  0.18002346879E+03  0.00000000000E+00 0.  1.
          2    1    6    6  502    0 -0.38919623097E+03 -0.63509700058E+02 -0.59288267395E+02  0.39877598581E+03  0.00000000000E+00 0. -1.
         -1    1    6    6    0  502 -0.22863721679E+03 -0.80222907822E+02  0.93859980329E+01  0.24248461560E+03  0.00000000000E+00 0.  1.
<mgrwt>
<rscale>  0 0.95544960E+03</rscale>
<asrwt>0</asrwt>
<pdfrwt beam="1">  1        1 0.33720309E+00 0.95544960E+03</pdfrwt>
<pdfrwt beam="2">  1       -2 0.93982551E-01 0.95544960E+03</pdfrwt>
<totfact> 0.18795481E+00</totfact>
</mgrwt>
</event>
<event>
12    3  0.2212098E-007  0.6042264E+03  0.7818608E-02  0.9896676E-01
         -2   -1    0    0    0  501 -0.00000000000E+00  0.00000000000E+00  0.11146902886E+04  0.11146902886E+04  0.00000000000E+00 0.  1.
          1   -1    0    0  501    0  0.00000000000E+00 -0.00000000000E+00 -0.68605742240E+03  0.68605742240E+03  0.00000000000E+00 0. -1.
        -24    2    1    2    0    0 -0.41392623579E+02  0.48853009531E+03 -0.42073320636E+03  0.65101832511E+03  0.80208636686E+02 0.  0.
    5000000    2    1    2    0    0  0.41392623579E+02 -0.48853009531E+03  0.84936607255E+03  0.11497293859E+04  0.60006660651E+03 0.  0.
        -24    2    4    4    0    0 -0.22559441259E+03 -0.16262754660E+03  0.14233783187E+03  0.32270913598E+03  0.80873791553E+02 0.  0.
         24    2    4    4    0    0  0.26698703617E+03 -0.32590254870E+03  0.70702824067E+03  0.82702024989E+03  0.81111108335E+02 0.  0.
         13    1    3    3    0    0 -0.59189153720E+02  0.22962438887E+03 -0.20891697299E+03  0.31603325377E+03  0.00000000000E+00 0. -1.
        -14    1    3    3    0    0  0.17796530141E+02  0.25890570644E+03 -0.21181623336E+03  0.33498507135E+03  0.00000000000E+00 0.  1.
         13    1    5    5    0    0 -0.76667845260E+02 -0.26403432400E+02  0.10813002604E+02  0.81804772261E+02  0.00000000000E+00 0. -1.
        -14    1    5    5    0    0 -0.14892656733E+03 -0.13622411420E+03  0.13152482927E+03  0.24090436372E+03  0.00000000000E+00 0.  1.
          4    1    6    6  502    0  0.25610189139E+03 -0.27080427183E+03  0.62165829158E+03  0.72483250749E+03  0.00000000000E+00 0. -1.
         -3    1    6    6    0  502  0.10885144779E+02 -0.55098276871E+02  0.85369949090E+02  0.10218774241E+03  0.00000000000E+00 0.  1.
<mgrwt>
<rscale>  0 0.60422644E+03</rscale>
<asrwt>0</asrwt>
<pdfrwt beam="1">  1        1 0.10554730E+00 0.60422644E+03</pdfrwt>
<pdfrwt beam="2">  1       -2 0.17149081E+00 0.60422644E+03</pdfrwt>
<totfact> 0.53449388E+00</totfact>
</mgrwt>
</event>
<event>
12    3  0.2212098E-007  0.6482589E+03  0.7818608E-02  0.9810052E-01
          1   -1    0    0  501    0  0.00000000000E+00  0.00000000000E+00  0.70204239315E+03  0.70204239315E+03  0.00000000000E+00 0. -1.
         -2   -1    0    0    0  501 -0.00000000000E+00 -0.00000000000E+00 -0.71324652750E+03  0.71324652750E+03  0.00000000000E+00 0.  1.
        -24    2    1    2    0    0 -0.17842655999E+03  0.48250514254E+03  0.25680945455E+03  0.58074132950E+03  0.81621969832E+02 0.  0.
    5000000    2    1    2    0    0  0.17842655999E+03 -0.48250514254E+03 -0.26801358890E+03  0.83454759115E+03  0.59999262343E+03 0.  0.
        -24    2    4    4    0    0  0.17732107715E+03 -0.60811856532E+03 -0.19128707143E+03  0.66644713468E+03  0.79436048140E+02 0.  0.
         24    2    4    4    0    0  0.11054828430E+01  0.12561342278E+03 -0.76726517472E+02  0.16810045647E+03  0.81184055743E+02 0.  0.
         11    1    5    5    0    0  0.12042487773E+03 -0.27184364364E+03 -0.92181840284E+02  0.31128541476E+03  0.00000000000E+00 0. -1.
        -12    1    5    5    0    0  0.56896199419E+02 -0.33627492168E+03 -0.99105231148E+02  0.35516171992E+03  0.00000000000E+00 0.  1.
         13    1    3    3    0    0 -0.16606915019E+03  0.48043371838E+03  0.25135650314E+03  0.56707637234E+03  0.00000000000E+00 0. -1.
        -14    1    3    3    0    0 -0.12357409801E+02  0.20714241583E+01  0.54529514163E+01  0.13664957160E+02  0.00000000000E+00 0.  1.
          4    1    6    6  502    0  0.26136394105E+02  0.37677963482E+02 -0.59406449857E+02  0.75045761463E+02  0.00000000000E+00 0. -1.
         -3    1    6    6    0  502 -0.25030911261E+02  0.87935459298E+02 -0.17320067615E+02  0.93054695006E+02  0.00000000000E+00 0.  1.
<mgrwt>
<rscale>  0 0.64825889E+03</rscale>
<asrwt>0</asrwt>
<pdfrwt beam="1">  1        1 0.10800652E+00 0.64825889E+03</pdfrwt>
<pdfrwt beam="2">  1       -2 0.10973024E+00 0.64825889E+03</pdfrwt>
<totfact> 0.16191983E+01</totfact>
</mgrwt>
</event>
<event>
12    3  0.2212098E-007  0.1098011E+04  0.7818608E-02  0.9207132E-01
         -2   -1    0    0    0  501 -0.00000000000E+00  0.00000000000E+00  0.13416064903E+04  0.13416064903E+04  0.00000000000E+00 0.  1.
          1   -1    0    0  501    0  0.00000000000E+00 -0.00000000000E+00 -0.98576790514E+03  0.98576790514E+03  0.00000000000E+00 0. -1.
        -24    2    1    2    0    0 -0.94521955631E+03  0.38451091462E+03 -0.16041201835E+03  0.10359519071E+04  0.78585526823E+02 0.  0.
    5000000    2    1    2    0    0  0.94521955631E+03 -0.38451091462E+03  0.51625060350E+03  0.12914224884E+04  0.59997392008E+03 0.  0.
        -24    2    4    4    0    0  0.42626805624E+03  0.12294570152E+03  0.15526722796E+03  0.47681838266E+03  0.80173291545E+02 0.  0.
         24    2    4    4    0    0  0.51895150007E+03 -0.50745661613E+03  0.36098337555E+03  0.81460410571E+03  0.80299283545E+02 0.  0.
         11    1    3    3    0    0 -0.56103544285E+03  0.19233615817E+03 -0.11323233230E+03  0.60380090009E+03  0.00000000000E+00 0. -1.
        -12    1    3    3    0    0 -0.38418411345E+03  0.19217475645E+03 -0.47179686053E+02  0.43215100696E+03  0.00000000000E+00 0.  1.
         11    1    5    5    0    0  0.40907583946E+03  0.11521825666E+03  0.12833629835E+03  0.44394649967E+03  0.00000000000E+00 0. -1.
        -12    1    5    5    0    0  0.17192216778E+02  0.77274448600E+01  0.26930929608E+02  0.32871882991E+02  0.00000000000E+00 0.  1.
          4    1    6    6  502    0  0.22141248072E+03 -0.26776155537E+03  0.19011589635E+03  0.39606033783E+03  0.00000000000E+00 0. -1.
         -1    1    6    6    0  502  0.29753901934E+03 -0.23969506076E+03  0.17086747920E+03  0.41854376788E+03  0.00000000000E+00 0.  1.
<mgrwt>
<rscale>  0 0.10980112E+04</rscale>
<asrwt>0</asrwt>
<pdfrwt beam="1">  1        1 0.15165660E+00 0.10980112E+04</pdfrwt>
<pdfrwt beam="2">  1       -2 0.20640100E+00 0.10980112E+04</pdfrwt>
<totfact> 0.16213363E+00</totfact>
</mgrwt>
</event>
<event>
12    3  0.2212098E-007  0.4508870E+03  0.7818608E-02  0.1027458E+00
          1   -1    0    0  501    0  0.00000000000E+00  0.00000000000E+00  0.26000088900E+03  0.26000088900E+03  0.00000000000E+00 0. -1.
         -2   -1    0    0    0  501 -0.00000000000E+00 -0.00000000000E+00 -0.10039380028E+04  0.10039380028E+04  0.00000000000E+00 0.  1.
        -24    2    1    2    0    0  0.20200233815E+03 -0.20465726389E+03 -0.43836853032E+03  0.53116666319E+03  0.85331796123E+02 0.  0.
    5000000    2    1    2    0    0 -0.20200233815E+03  0.20465726389E+03 -0.30556858343E+03  0.73277222855E+03  0.60074407152E+03 0.  0.
        -24    2    4    4    0    0 -0.28380724739E+03 -0.92176461242E+02 -0.28000907183E+03  0.41662061617E+03  0.78259848178E+02 0.  0.
         24    2    4    4    0    0  0.81804909235E+02  0.29683372513E+03 -0.25559511608E+02  0.31615161238E+03  0.67054081341E+02 0.  0.
         11    1    5    5    0    0 -0.25391565778E+03 -0.92178770287E+02 -0.21562491624E+03  0.34563592328E+03  0.00000000000E+00 0. -1.
        -12    1    5    5    0    0 -0.29891589610E+02  0.23090448410E-02 -0.64384155584E+02  0.70984692892E+02  0.00000000000E+00 0.  1.
         13    1    3    3    0    0  0.11156635045E+03 -0.10032586848E+03 -0.15376496335E+03  0.21483946191E+03  0.00000000000E+00 0. -1.
        -14    1    3    3    0    0  0.90435987705E+02 -0.10433139541E+03 -0.28460356697E+03  0.31632720129E+03  0.00000000000E+00 0.  1.
          4    1    6    6  502    0 -0.95508351536E+01  0.37060957344E+02  0.68586091540E+01  0.38881532003E+02  0.00000000000E+00 0. -1.
         -3    1    6    6    0  502  0.91355744388E+02  0.25977276779E+03 -0.32418120762E+02  0.27727008038E+03  0.00000000000E+00 0.  1.
<mgrwt>
<rscale>  0 0.45088704E+03</rscale>
<asrwt>0</asrwt>
<pdfrwt beam="1">  1        1 0.40000138E-01 0.45088704E+03</pdfrwt>
<pdfrwt beam="2">  1       -2 0.15445200E+00 0.45088704E+03</pdfrwt>
<totfact> 0.26686869E+01</totfact>
</mgrwt>
</event>
<event>
12    3  0.2212098E-007  0.5620691E+03  0.7818608E-02  0.9987384E-01
          1   -1    0    0  501    0  0.00000000000E+00  0.00000000000E+00  0.12189212660E+04  0.12189212660E+04  0.00000000000E+00 0. -1.
         -4   -1    0    0    0  501 -0.00000000000E+00 -0.00000000000E+00 -0.48144298706E+03  0.48144298706E+03  0.00000000000E+00 0.  1.
        -24    2    1    2    0    0 -0.35256479461E+03 -0.21976896193E+03 -0.23556666982E+03  0.48403989152E+03  0.78756775107E+02 0.  0.
    5000000    2    1    2    0    0  0.35256479461E+03  0.21976896193E+03  0.97304494877E+03  0.12163243615E+04  0.60002345716E+03 0.  0.
        -24    2    4    4    0    0  0.30366854026E+03  0.39897279206E+03  0.55530670019E+03  0.75245897146E+03  0.80219083129E+02 0.  0.
         24    2    4    4    0    0  0.48896254346E+02 -0.17920383012E+03  0.41773824858E+03  0.46386539009E+03  0.78492033879E+02 0.  0.
         11    1    3    3    0    0 -0.12742620321E+03 -0.10413836148E+03 -0.56469783986E+02  0.17398583879E+03  0.00000000000E+00 0. -1.
        -12    1    3    3    0    0 -0.22513859140E+03 -0.11563060046E+03 -0.17909688584E+03  0.31005405273E+03  0.00000000000E+00 0.  1.
         11    1    5    5    0    0  0.25546253048E+03  0.29104617180E+03  0.39372484812E+03  0.55225739889E+03  0.00000000000E+00 0. -1.
        -12    1    5    5    0    0  0.48206009781E+02  0.10792662026E+03  0.16158185208E+03  0.20020157257E+03  0.00000000000E+00 0.  1.
          2    1    6    6  502    0  0.69978008389E+02 -0.13837715502E+03  0.30594722114E+03  0.34299979710E+03  0.00000000000E+00 0. -1.
         -1    1    6    6    0  502 -0.21081754043E+02 -0.40826675106E+02  0.11179102744E+03  0.12086559299E+03  0.00000000000E+00 0.  1.
<mgrwt>
<rscale>  0 0.56206905E+03</rscale>
<asrwt>0</asrwt>
<pdfrwt beam="1">  1        1 0.18752635E+00 0.56206905E+03</pdfrwt>
<pdfrwt beam="2">  1       -4 0.74068152E-01 0.56206905E+03</pdfrwt>
<totfact> 0.84931929E+00</totfact>
</mgrwt>
</event>
<event>
12    3  0.2212098E-007  0.8577471E+03  0.7818608E-02  0.9479998E-01
          1   -1    0    0  501    0  0.00000000000E+00  0.00000000000E+00  0.85762815598E+03  0.85762815598E+03  0.00000000000E+00 0. -1.
         -4   -1    0    0    0  501 -0.00000000000E+00 -0.00000000000E+00 -0.96471403766E+03  0.96471403766E+03  0.00000000000E+00 0.  1.
        -24    2    1    2    0    0  0.48953934680E+03 -0.63737023805E+03 -0.13571241576E+03  0.81897632665E+03  0.80092268055E+02 0.  0.
    5000000    2    1    2    0    0 -0.48953934680E+03  0.63737023805E+03  0.28626534072E+02  0.10033658670E+04  0.60002832614E+03 0.  0.
        -24    2    4    4    0    0 -0.41721986293E+03  0.69161861911E+03  0.15828803474E+03  0.82617717840E+03  0.71448581872E+02 0.  0.
         24    2    4    4    0    0 -0.72319483874E+02 -0.54248381058E+02 -0.12966150067E+03  0.17718868859E+03  0.80067046995E+02 0.  0.
         13    1    5    5    0    0 -0.34744153267E+03  0.51905592611E+03  0.11576562099E+03  0.63524511179E+03  0.00000000000E+00 0. -1.
        -14    1    5    5    0    0 -0.69778330259E+02  0.17256269300E+03  0.42522413747E+02  0.19093206661E+03  0.00000000000E+00 0.  1.
         13    1    3    3    0    0  0.12810733940E+03 -0.21627242680E+03 -0.20474335705E+02  0.25219922962E+03  0.00000000000E+00 0. -1.
        -14    1    3    3    0    0  0.36143200741E+03 -0.42109781125E+03 -0.11523808005E+03  0.56677709703E+03  0.00000000000E+00 0.  1.
          2    1    6    6  502    0 -0.56749458615E+02 -0.18891296446E+02 -0.23580475106E+02  0.64291686405E+02  0.00000000000E+00 0. -1.
         -1    1    6    6    0  502 -0.15570025258E+02 -0.35357084612E+02 -0.10608102556E+03  0.11289700219E+03  0.00000000000E+00 0.  1.
<mgrwt>
<rscale>  0 0.85774708E+03</rscale>
<asrwt>0</asrwt>
<pdfrwt beam="1">  1        1 0.13194279E+00 0.85774708E+03</pdfrwt>
<pdfrwt beam="2">  1       -4 0.14841754E+00 0.85774708E+03</pdfrwt>
<totfact> 0.28984427E+00</totfact>
</mgrwt>
</event>
<event>
12    3  0.2212098E-007  0.1792294E+04  0.7818608E-02  0.8710408E-01
         -2   -1    0    0    0  501 -0.00000000000E+00  0.00000000000E+00  0.13541085618E+04  0.13541085618E+04  0.00000000000E+00 0.  1.
          1   -1    0    0  501    0  0.00000000000E+00 -0.00000000000E+00 -0.26896047099E+04  0.26896047099E+04  0.00000000000E+00 0. -1.
        -24    2    1    2    0    0  0.14462692080E+04 -0.97134442739E+03 -0.13428230599E+04  0.22010274382E+04  0.78379810294E+02 0.  0.
    5000000    2    1    2    0    0 -0.14462692080E+04  0.97134442739E+03  0.73269118384E+01  0.18426858335E+04  0.60019395079E+03 0.  0.
        -24    2    4    4    0    0 -0.59308428652E+03  0.76765026254E+02  0.97747750740E+01  0.60374738730E+03  0.82301405049E+02 0.  0.
         24    2    4    4    0    0 -0.85318492151E+03  0.89457940113E+03 -0.24478632356E+01  0.12389384462E+04  0.82253669611E+02 0.  0.
         11    1    5    5    0    0 -0.50033060299E+02  0.30351964417E+02 -0.25780662052E+01  0.58576405593E+02  0.00000000000E+00 0. -1.
        -12    1    5    5    0    0 -0.54305122622E+03  0.46413061837E+02  0.12352841279E+02  0.54517098171E+03  0.00000000000E+00 0.  1.
         13    1    3    3    0    0  0.10635748069E+04 -0.70683933468E+03 -0.94058717647E+03  0.15860382882E+04  0.00000000000E+00 0. -1.
        -14    1    3    3    0    0  0.38269440110E+03 -0.26450509271E+03 -0.40223588347E+03  0.61498915003E+03  0.00000000000E+00 0.  1.
          2    1    6    6  502    0 -0.19280204051E+03  0.15576317456E+03 -0.79198341974E+01  0.24798692939E+03  0.00000000000E+00 0. -1.
         -1    1    6    6    0  502 -0.66038288100E+03  0.73881622657E+03  0.54719709618E+01  0.99095151679E+03  0.00000000000E+00 0.  1.
<mgrwt>
<rscale>  0 0.17922939E+04</rscale>
<asrwt>0</asrwt>
<pdfrwt beam="1">  1        1 0.41378534E+00 0.17922939E+04</pdfrwt>
<pdfrwt beam="2">  1       -2 0.20832439E+00 0.17922939E+04</pdfrwt>
<totfact> 0.93677675E-02</totfact>
</mgrwt>
</event>
<event>
12    3  0.2212098E-007  0.8563719E+03  0.7818608E-02  0.9481825E-01
         -2   -1    0    0    0  501 -0.00000000000E+00  0.00000000000E+00  0.81947780693E+03  0.81947780693E+03  0.00000000000E+00 0.  1.
          1   -1    0    0  501    0  0.00000000000E+00 -0.00000000000E+00 -0.10405200160E+04  0.10405200160E+04  0.00000000000E+00 0. -1.
        -24    2    1    2    0    0 -0.13498199240E+03 -0.77387876625E+03  0.15077682443E+03  0.80391126077E+03  0.80194646280E+02 0.  0.
    5000000    2    1    2    0    0  0.13498199240E+03  0.77387876625E+03 -0.37181903350E+03  0.10560865622E+04  0.59996745743E+03 0.  0.
        -24    2    4    4    0    0  0.30462211014E+03  0.35907266721E+03 -0.36302469649E+03  0.60091475470E+03  0.87085026477E+02 0.  0.
         24    2    4    4    0    0 -0.16964011774E+03  0.41480609904E+03 -0.87943370168E+01  0.45517180746E+03  0.79133839736E+02 0.  0.
         11    1    5    5    0    0  0.22337098054E+03  0.29843206681E+03 -0.24872908998E+03  0.44813218324E+03  0.00000000000E+00 0. -1.
        -12    1    5    5    0    0  0.81251129602E+02  0.60640600401E+02 -0.11429560650E+03  0.15278257147E+03  0.00000000000E+00 0.  1.
         13    1    3    3    0    0 -0.97946376317E+02 -0.33696646978E+03  0.56916476774E+02  0.35549877598E+03  0.00000000000E+00 0. -1.
        -14    1    3    3    0    0 -0.37035616082E+02 -0.43691229647E+03  0.93860347651E+02  0.44841248480E+03  0.00000000000E+00 0.  1.
          2    1    6    6  502    0 -0.83211461563E+02  0.24346325136E+03 -0.41136923832E+02  0.26055853201E+03  0.00000000000E+00 0. -1.
         -1    1    6    6    0  502 -0.86428656182E+02  0.17134284768E+03  0.32342586815E+02  0.19461327545E+03  0.00000000000E+00 0.  1.
<mgrwt>
<rscale>  0 0.85637187E+03</rscale>
<asrwt>0</asrwt>
<pdfrwt beam="1">  1        1 0.16008000E+00 0.85637187E+03</pdfrwt>
<pdfrwt beam="2">  1       -2 0.12607351E+00 0.85637187E+03</pdfrwt>
<totfact> 0.58605898E+00</totfact>
</mgrwt>
</event>
<event>
12    3  0.2212098E-007  0.6749704E+03  0.7818608E-02  0.9761020E-01
         -4   -1    0    0    0  501 -0.00000000000E+00  0.00000000000E+00  0.30073646896E+04  0.30073646896E+04  0.00000000000E+00 0.  1.
          3   -1    0    0  501    0  0.00000000000E+00 -0.00000000000E+00 -0.16985773295E+03  0.16985773295E+03  0.00000000000E+00 0. -1.
        -24    2    1    2    0    0 -0.54306107937E+02 -0.55929609708E+03  0.15385796685E+04  0.16399842105E+04  0.80990967349E+02 0.  0.
    5000000    2    1    2    0    0  0.54306107937E+02  0.55929609708E+03  0.12989272882E+04  0.15372382121E+04  0.60010660979E+03 0.  0.
        -24    2    4    4    0    0 -0.24303589455E+03  0.26561803165E+03  0.80338556737E+03  0.88403457076E+03  0.80432379441E+02 0.  0.
         24    2    4    4    0    0  0.29734200249E+03  0.29367806543E+03  0.49554172080E+03  0.65320364130E+03  0.80338828738E+02 0.  0.
         11    1    3    3    0    0  0.37749564826E+01 -0.16330327015E+03  0.36064932598E+03  0.39591684060E+03  0.00000000000E+00 0. -1.
        -12    1    3    3    0    0 -0.58081064419E+02 -0.39599282693E+03  0.11779303425E+04  0.12440673699E+04  0.00000000000E+00 0.  1.
         13    1    5    5    0    0 -0.45715265019E+02  0.90366455181E+02  0.17018210131E+03  0.19803517184E+03  0.00000000000E+00 0. -1.
        -14    1    5    5    0    0 -0.19732062953E+03  0.17525157647E+03  0.63320346606E+03  0.68599939893E+03  0.00000000000E+00 0.  1.
          2    1    6    6  502    0  0.20694229871E+03  0.23631999792E+03  0.40796512282E+03  0.51488619893E+03  0.00000000000E+00 0. -1.
         -1    1    6    6    0  502  0.90399703773E+02  0.57358067516E+02  0.87576597980E+02  0.13831744237E+03  0.00000000000E+00 0.  1.
<mgrwt>
<rscale>  0 0.67497040E+03</rscale>
<asrwt>0</asrwt>
<pdfrwt beam="1">  1        3 0.26131961E-01 0.67497040E+03</pdfrwt>
<pdfrwt beam="2">  1       -4 0.46267145E+00 0.67497040E+03</pdfrwt>
<totfact> 0.82180306E-02</totfact>
</mgrwt>
</event>
<event>
12    3  0.2212098E-007  0.1064493E+04  0.7818608E-02  0.9240508E-01
          1   -1    0    0  501    0  0.00000000000E+00  0.00000000000E+00  0.23902896794E+03  0.23902896794E+03  0.00000000000E+00 0. -1.
         -2   -1    0    0    0  501 -0.00000000000E+00 -0.00000000000E+00 -0.52744974619E+04  0.52744974619E+04  0.00000000000E+00 0.  1.
        -24    2    1    2    0    0 -0.73598457950E+03 -0.67159298375E+03 -0.30821986700E+04  0.32402172475E+04  0.79678935174E+02 0.  0.
    5000000    2    1    2    0    0  0.73598457950E+03  0.67159298375E+03 -0.19532698240E+04  0.22733091824E+04  0.59996766260E+03 0.  0.
        -24    2    4    4    0    0  0.32533163351E+03  0.63417297142E+03 -0.14606116425E+04  0.16272321476E+04  0.80511257938E+02 0.  0.
         24    2    4    4    0    0  0.41065294600E+03  0.37420012338E+02 -0.49265818150E+03  0.64607703473E+03  0.68318018304E+02 0.  0.
         13    1    3    3    0    0 -0.41809009512E+03 -0.33232863459E+03 -0.15954286667E+04  0.16824488936E+04  0.00000000000E+00 0. -1.
        -14    1    3    3    0    0 -0.31789448438E+03 -0.33926434916E+03 -0.14867700033E+04  0.15577683539E+04  0.00000000000E+00 0.  1.
         13    1    5    5    0    0  0.88997384396E+02  0.25828388147E+03 -0.54413017854E+03  0.60885856244E+03  0.00000000000E+00 0. -1.
        -14    1    5    5    0    0  0.23633424911E+03  0.37588908994E+03 -0.91648146396E+03  0.10183735852E+04  0.00000000000E+00 0.  1.
          2    1    6    6  502    0  0.18501224748E+03  0.75023873919E+01 -0.17110821855E+03  0.25211870218E+03  0.00000000000E+00 0. -1.
         -1    1    6    6    0  502  0.22564069852E+03  0.29917624946E+02 -0.32154996296E+03  0.39395833255E+03  0.00000000000E+00 0.  1.
<mgrwt>
<rscale>  0 0.10644929E+04</rscale>
<asrwt>0</asrwt>
<pdfrwt beam="1">  1        1 0.36773688E-01 0.10644929E+04</pdfrwt>
<pdfrwt beam="2">  1       -2 0.81146113E+00 0.10644929E+04</pdfrwt>
<totfact> 0.73140437E-03</totfact>
</mgrwt>
</event>
<event>
12    3  0.2212098E-007  0.9203285E+03  0.7818608E-02  0.9400521E-01
         -2   -1    0    0    0  501 -0.00000000000E+00  0.00000000000E+00  0.93628074564E+03  0.93628074564E+03  0.00000000000E+00 0.  1.
          1   -1    0    0  501    0  0.00000000000E+00 -0.00000000000E+00 -0.13475713342E+04  0.13475713342E+04  0.00000000000E+00 0. -1.
        -24    2    1    2    0    0 -0.53991127652E+03  0.65063562302E+03  0.42755331712E+03  0.95023811090E+03  0.72936465276E+02 0.  0.
    5000000    2    1    2    0    0  0.53991127652E+03 -0.65063562302E+03 -0.83884390564E+03  0.13336139689E+04  0.60003018217E+03 0.  0.
        -24    2    4    4    0    0  0.54125863233E+03 -0.26740885181E+03 -0.33298874368E+03  0.69403648189E+03  0.79603603447E+02 0.  0.
         24    2    4    4    0    0 -0.13473558028E+01 -0.38322677122E+03 -0.50585516196E+03  0.63957748700E+03  0.79406192760E+02 0.  0.
         13    1    3    3    0    0 -0.34598757860E+03  0.37125027473E+03  0.23276479621E+03  0.55831319292E+03  0.00000000000E+00 0. -1.
        -14    1    3    3    0    0 -0.19392369792E+03  0.27938534830E+03  0.19478852091E+03  0.39192491798E+03  0.00000000000E+00 0.  1.
         13    1    5    5    0    0  0.17045986901E+03 -0.12482105765E+03 -0.12755618527E+03  0.24679433497E+03  0.00000000000E+00 0. -1.
        -14    1    5    5    0    0  0.37079876332E+03 -0.14258779416E+03 -0.20543255840E+03  0.44724214691E+03  0.00000000000E+00 0.  1.
          4    1    6    6  502    0  0.14733567829E+02 -0.23093873003E+03 -0.36089609092E+03  0.42871408128E+03  0.00000000000E+00 0. -1.
         -3    1    6    6    0  502 -0.16080923632E+02 -0.15228804119E+03 -0.14495907104E+03  0.21086340572E+03  0.00000000000E+00 0.  1.
<mgrwt>
<rscale>  0 0.92032852E+03</rscale>
<asrwt>0</asrwt>
<pdfrwt beam="1">  1        1 0.20731867E+00 0.92032852E+03</pdfrwt>
<pdfrwt beam="2">  1       -2 0.14404319E+00 0.92032852E+03</pdfrwt>
<totfact> 0.24642155E+00</totfact>
</mgrwt>
</event>
<event>
12    3  0.2212098E-007  0.8745194E+03  0.7818608E-02  0.9458006E-01
         -2   -1    0    0    0  501 -0.00000000000E+00  0.00000000000E+00  0.81992856917E+03  0.81992856917E+03  0.00000000000E+00 0.  1.
          1   -1    0    0  501    0  0.00000000000E+00 -0.00000000000E+00 -0.10764710238E+04  0.10764710238E+04  0.00000000000E+00 0. -1.
        -24    2    1    2    0    0  0.26910453524E+03  0.78841950919E+03  0.45690351576E+01  0.83704019130E+03  0.81196258576E+02 0.  0.
    5000000    2    1    2    0    0 -0.26910453524E+03 -0.78841950919E+03 -0.26111148976E+03  0.10593594016E+04  0.60003379771E+03 0.  0.
        -24    2    4    4    0    0 -0.28305878445E+02 -0.59958391256E+03  0.60616327209E+02  0.60869895281E+03  0.80857807751E+02 0.  0.
         24    2    4    4    0    0 -0.24079865679E+03 -0.18883559663E+03 -0.32172781697E+03  0.45066044883E+03  0.77091998658E+02 0.  0.
         11    1    3    3    0    0  0.21971330248E+03  0.67238499813E+03 -0.23827850667E+02  0.70777347185E+03  0.00000000000E+00 0. -1.
        -12    1    3    3    0    0  0.49391232758E+02  0.11603451107E+03  0.28396885824E+02  0.12926671945E+03  0.00000000000E+00 0.  1.
         13    1    5    5    0    0  0.24249705348E+02 -0.19559695398E+03  0.37670503686E+02  0.20066211268E+03  0.00000000000E+00 0. -1.
        -14    1    5    5    0    0 -0.52555583793E+02 -0.40398695858E+03  0.22945823524E+02  0.40803684013E+03  0.00000000000E+00 0.  1.
          4    1    6    6  502    0 -0.15215003238E+03 -0.15202539226E+03 -0.18559206753E+03  0.28408760581E+03  0.00000000000E+00 0. -1.
         -3    1    6    6    0  502 -0.88648624415E+02 -0.36810204377E+02 -0.13613574943E+03  0.16657284301E+03  0.00000000000E+00 0.  1.
<mgrwt>
<rscale>  0 0.87451940E+03</rscale>
<asrwt>0</asrwt>
<pdfrwt beam="1">  1        1 0.16561093E+00 0.87451940E+03</pdfrwt>
<pdfrwt beam="2">  1       -2 0.12614286E+00 0.87451940E+03</pdfrwt>
<totfact> 0.54839638E+00</totfact>
</mgrwt>
</event>
<event>
12    3  0.2212098E-007  0.8477850E+03  0.7818608E-02  0.9493315E-01
          1   -1    0    0  501    0  0.00000000000E+00  0.00000000000E+00  0.21587138093E+04  0.21587138093E+04  0.00000000000E+00 0. -1.
         -2   -1    0    0    0  501 -0.00000000000E+00 -0.00000000000E+00 -0.47785475995E+03  0.47785475995E+03  0.00000000000E+00 0.  1.
        -24    2    1    2    0    0  0.61181497839E+03  0.53884151196E+03  0.20078209481E+03  0.84344559533E+03  0.80120408748E+02 0.  0.
    5000000    2    1    2    0    0 -0.61181497839E+03 -0.53884151196E+03  0.14800769545E+04  0.17931229739E+04  0.59999538785E+03 0.  0.
        -24    2    4    4    0    0 -0.60795278910E+03 -0.43186083841E+03  0.14806354563E+04  0.16597701285E+04  0.80281675324E+02 0.  0.
         24    2    4    4    0    0 -0.38621892866E+01 -0.10698067355E+03 -0.55850175014E+00  0.13335284545E+03  0.79516592277E+02 0.  0.
         11    1    3    3    0    0  0.51979348770E+03  0.49282726753E+03  0.17792913642E+03  0.73805336058E+03  0.00000000000E+00 0. -1.
        -12    1    3    3    0    0  0.92021490685E+02  0.46014244428E+02  0.22852958392E+02  0.10539223475E+03  0.00000000000E+00 0.  1.
         13    1    5    5    0    0 -0.43762787690E+03 -0.27768141076E+03  0.10803156825E+04  0.11982099559E+04  0.00000000000E+00 0. -1.
        -14    1    5    5    0    0 -0.17032491219E+03 -0.15417942766E+03  0.40031977382E+03  0.46156017261E+03  0.00000000000E+00 0.  1.
          2    1    6    6  502    0  0.33281774541E+02 -0.42862288589E+02  0.17620042547E+02  0.57055395880E+02  0.00000000000E+00 0. -1.
         -1    1    6    6    0  502 -0.37143963828E+02 -0.64118384957E+02 -0.18178544297E+02  0.76297449571E+02  0.00000000000E+00 0.  1.
<mgrwt>
<rscale>  0 0.84778495E+03</rscale>
<asrwt>0</asrwt>
<pdfrwt beam="1">  1        1 0.33210981E+00 0.84778495E+03</pdfrwt>
<pdfrwt beam="2">  1       -2 0.73516118E-01 0.84778495E+03</pdfrwt>
<totfact> 0.35127779E+00</totfact>
</mgrwt>
</event>
<event>
12    3  0.2212098E-007  0.1138963E+04  0.7818608E-02  0.9168027E-01
          1   -1    0    0  501    0  0.00000000000E+00  0.00000000000E+00  0.29778960426E+04  0.29778960426E+04  0.00000000000E+00 0. -1.
         -2   -1    0    0    0  501 -0.00000000000E+00 -0.00000000000E+00 -0.61138551361E+03  0.61138551361E+03  0.00000000000E+00 0.  1.
        -24    2    1    2    0    0  0.42287947693E+03  0.10488749139E+04  0.32451804572E+03  0.11791644230E+04  0.78429188087E+02 0.  0.
    5000000    2    1    2    0    0 -0.42287947693E+03 -0.10488749139E+04  0.20419924833E+04  0.24101171332E+04  0.59997138020E+03 0.  0.
        -24    2    4    4    0    0 -0.35323969277E+03 -0.78658431319E+03  0.19114203973E+04  0.20985366195E+04  0.82673126079E+02 0.  0.
         24    2    4    4    0    0 -0.69639784162E+02 -0.26229060068E+03  0.13057208599E+03  0.31158051374E+03  0.79920511499E+02 0.  0.
         11    1    5    5    0    0 -0.20992261364E+03 -0.50961157075E+03  0.13054235051E+04  0.14170045817E+04  0.00000000000E+00 0. -1.
        -12    1    5    5    0    0 -0.14331707913E+03 -0.27697274244E+03  0.60599689217E+03  0.68153203780E+03  0.00000000000E+00 0.  1.
         13    1    3    3    0    0  0.17320895357E+03  0.33105134892E+03  0.10700485703E+03  0.38864685338E+03  0.00000000000E+00 0. -1.
        -14    1    3    3    0    0  0.24967052336E+03  0.71782356495E+03  0.21751318869E+03  0.79051756963E+03  0.00000000000E+00 0.  1.
          2    1    6    6  502    0 -0.35311736043E+02 -0.29600741568E+02  0.34254465899E+02  0.57415076746E+02  0.00000000000E+00 0. -1.
         -3    1    6    6    0  502 -0.34328048119E+02 -0.23268985911E+03  0.96317620093E+02  0.25416543699E+03  0.00000000000E+00 0.  1.
<mgrwt>
<rscale>  0 0.11389628E+04</rscale>
<asrwt>0</asrwt>
<pdfrwt beam="1">  1        1 0.45813784E+00 0.11389628E+04</pdfrwt>
<pdfrwt beam="2">  1       -2 0.94059312E-01 0.11389628E+04</pdfrwt>
<totfact> 0.52014748E-01</totfact>
</mgrwt>
</event>
<event>
12    3  0.2212098E-007  0.1606251E+04  0.7818608E-02  0.8816717E-01
         -4   -1    0    0    0  501 -0.00000000000E+00  0.00000000000E+00  0.17170750860E+04  0.17170750860E+04  0.00000000000E+00 0.  1.
          1   -1    0    0  501    0  0.00000000000E+00 -0.00000000000E+00 -0.16008385415E+04  0.16008385415E+04  0.00000000000E+00 0. -1.
        -24    2    1    2    0    0  0.15599878486E+04  0.36298767350E+03  0.11864902758E+03  0.16075697735E+04  0.69863051371E+02 0.  0.
    5000000    2    1    2    0    0 -0.15599878486E+04 -0.36298767350E+03 -0.24124831034E+01  0.17103438541E+04  0.59995678201E+03 0.  0.
        -24    2    4    4    0    0 -0.80905892463E+03 -0.13885387488E+03  0.28358661917E+03  0.87234671119E+03  0.81918690560E+02 0.  0.
         24    2    4    4    0    0 -0.75092892395E+03 -0.22413379862E+03 -0.28599910227E+03  0.83799714289E+03  0.79457639532E+02 0.  0.
         11    1    3    3    0    0  0.13691479786E+04  0.31932095104E+03  0.12702538873E+03  0.14116187539E+04  0.00000000000E+00 0. -1.
        -12    1    3    3    0    0  0.19083986999E+03  0.43666722459E+02 -0.83763611541E+01  0.19595101953E+03  0.00000000000E+00 0.  1.
         11    1    5    5    0    0 -0.13095153664E+03  0.19417331685E+01  0.26634006596E+02  0.13364671931E+03  0.00000000000E+00 0. -1.
        -12    1    5    5    0    0 -0.67810738799E+03 -0.14079560805E+03  0.25695261257E+03  0.73869999188E+03  0.00000000000E+00 0.  1.
          2    1    6    6  502    0 -0.21200329667E+03 -0.28232458654E+02 -0.89349004288E+02  0.23178808013E+03  0.00000000000E+00 0. -1.
         -1    1    6    6    0  502 -0.53892562728E+03 -0.19590133996E+03 -0.19665009798E+03  0.60620906276E+03  0.00000000000E+00 0.  1.
<mgrwt>
<rscale>  0 0.16062506E+04</rscale>
<asrwt>0</asrwt>
<pdfrwt beam="1">  1        1 0.24628285E+00 0.16062506E+04</pdfrwt>
<pdfrwt beam="2">  1       -4 0.26416540E+00 0.16062506E+04</pdfrwt>
<totfact> 0.12771273E-01</totfact>
</mgrwt>
</event>
<event>
12    3  0.2212098E-007  0.5139336E+03  0.7818608E-02  0.1010205E+00
         -2   -1    0    0    0  501 -0.00000000000E+00  0.00000000000E+00  0.23513942182E+03  0.23513942182E+03  0.00000000000E+00 0.  1.
          1   -1    0    0  501    0  0.00000000000E+00 -0.00000000000E+00 -0.15697221889E+04  0.15697221889E+04  0.00000000000E+00 0. -1.
        -24    2    1    2    0    0 -0.45103540207E+03  0.43768326411E+02 -0.44724087315E+03  0.64188893443E+03  0.81537753310E+02 0.  0.
    5000000    2    1    2    0    0  0.45103540207E+03 -0.43768326411E+02 -0.88734189397E+03  0.11629726763E+04  0.59981764628E+03 0.  0.
        -24    2    4    4    0    0  0.41688269631E+03 -0.14501587929E+03 -0.25414371913E+03  0.51549825272E+03  0.79552692373E+02 0.  0.
         24    2    4    4    0    0  0.34152705760E+02  0.10124755287E+03 -0.63319817484E+03  0.64747442361E+03  0.82859678546E+02 0.  0.
         11    1    5    5    0    0  0.15359048576E+03 -0.53120178372E+02 -0.13878096954E+03  0.21370996273E+03  0.00000000000E+00 0. -1.
        -12    1    5    5    0    0  0.26329221055E+03 -0.91895700913E+02 -0.11536274959E+03  0.30178828999E+03  0.00000000000E+00 0.  1.
         13    1    3    3    0    0 -0.27894736419E+03 -0.12215213882E+02 -0.26095349069E+03  0.38217478691E+03  0.00000000000E+00 0. -1.
        -14    1    3    3    0    0 -0.17208803787E+03  0.55983540292E+02 -0.18628738246E+03  0.25971414753E+03  0.00000000000E+00 0.  1.
          4    1    6    6  502    0  0.53542746027E+02  0.58165123074E+02 -0.27382386561E+03  0.28500792370E+03  0.00000000000E+00 0. -1.
         -3    1    6    6    0  502 -0.19390040266E+02  0.43082429801E+02 -0.35937430924E+03  0.36246649991E+03  0.00000000000E+00 0.  1.
<mgrwt>
<rscale>  0 0.51393364E+03</rscale>
<asrwt>0</asrwt>
<pdfrwt beam="1">  1        1 0.24149571E+00 0.51393364E+03</pdfrwt>
<pdfrwt beam="2">  1       -2 0.36175297E-01 0.51393364E+03</pdfrwt>
<totfact> 0.39196842E+01</totfact>
</mgrwt>
</event>
<event>
12    3  0.3380751E-007  0.6641905E+03  0.7818608E-02  0.9780510E-01
         -2   -1    0    0    0  501 -0.00000000000E+00  0.00000000000E+00  0.42335640871E+03  0.42335640871E+03  0.00000000000E+00 0.  1.
          1   -1    0    0  501    0  0.00000000000E+00 -0.00000000000E+00 -0.13338038438E+04  0.13338038438E+04  0.00000000000E+00 0. -1.
        -24    2    1    2    0    0 -0.61821708017E+03  0.48017836675E+02 -0.50600974419E+03  0.80426577490E+03  0.79369418586E+02 0.  0.
    5000000    2    1    2    0    0  0.61821708017E+03 -0.48017836675E+02 -0.40443769089E+03  0.95289447759E+03  0.59994997189E+03 0.  0.
        -24    2    4    4    0    0  0.53146112869E+03  0.76668266171E+02 -0.32867942568E+02  0.54410550055E+03  0.81495642418E+02 0.  0.
         24    2    4    4    0    0  0.86755951473E+02 -0.12468610285E+03 -0.37156974832E+03  0.40878897704E+03  0.77273090541E+02 0.  0.
         11    1    5    5    0    0  0.20896387277E+03  0.42702529378E+02 -0.51078798289E+02  0.21931358775E+03  0.00000000000E+00 0. -1.
        -12    1    5    5    0    0  0.32249725593E+03  0.33965736793E+02  0.18210855721E+02  0.32479191280E+03  0.00000000000E+00 0.  1.
         13    1    3    3    0    0 -0.28201306213E+03  0.52572837428E+02 -0.26538463867E+03  0.39079953543E+03  0.00000000000E+00 0. -1.
        -14    1    3    3    0    0 -0.33620401803E+03 -0.45550007535E+01 -0.24062510552E+03  0.41346623947E+03  0.00000000000E+00 0.  1.
          2    1    6    6  502    0  0.92432231208E+02 -0.78763170586E+02 -0.23382093032E+03  0.26347596070E+03  0.00000000000E+00 0. -1.
         -1    1    6    6    0  502 -0.56762797351E+01 -0.45922932259E+02 -0.13774881800E+03  0.14531301634E+03  0.00000000000E+00 0.  1.
<mgrwt>
<rscale>  0 0.66419046E+03</rscale>
<asrwt>0</asrwt>
<pdfrwt beam="1">  1        1 0.20520059E+00 0.66419046E+03</pdfrwt>
<pdfrwt beam="2">  1       -2 0.65131757E-01 0.66419046E+03</pdfrwt>
<totfact> 0.16967679E+01</totfact>
</mgrwt>
</event>
<event>
12    3  0.2212098E-007  0.4170559E+03  0.7818608E-02  0.1038029E+00
          1   -1    0    0  501    0  0.00000000000E+00  0.00000000000E+00  0.25165935215E+04  0.25165935215E+04  0.00000000000E+00 0. -1.
         -2   -1    0    0    0  501 -0.00000000000E+00 -0.00000000000E+00 -0.88448051131E+02  0.88448051131E+02  0.00000000000E+00 0.  1.
        -24    2    1    2    0    0  0.22091259230E+03 -0.15169384493E+03  0.59846722392E+03  0.66096703210E+03  0.83072278080E+02 0.  0.
    5000000    2    1    2    0    0 -0.22091259230E+03  0.15169384493E+03  0.18296782464E+04  0.19440745405E+04  0.59990827431E+03 0.  0.
        -24    2    4    4    0    0 -0.11537307710E+02 -0.16846780032E+03  0.11058121712E+04  0.11215066065E+04  0.80262078316E+02 0.  0.
         24    2    4    4    0    0 -0.20937528459E+03  0.32016164525E+03  0.72386607519E+03  0.82256793398E+03  0.79337395452E+02 0.  0.
         11    1    3    3    0    0  0.15948394177E+03 -0.81895639901E+02  0.46447442564E+03  0.49787399570E+03  0.00000000000E+00 0. -1.
        -12    1    3    3    0    0  0.61428650528E+02 -0.69798205030E+02  0.13399279828E+03  0.16309303640E+03  0.00000000000E+00 0.  1.
         11    1    5    5    0    0 -0.22634924512E+02 -0.14787996814E+03  0.10551934780E+04  0.10657457956E+04  0.00000000000E+00 0. -1.
        -12    1    5    5    0    0  0.11097616802E+02 -0.20587832181E+02  0.50618693256E+02  0.55760810965E+02  0.00000000000E+00 0.  1.
          4    1    6    6  502    0 -0.15957674667E+03  0.18228653168E+03  0.48867068470E+03  0.54542841491E+03  0.00000000000E+00 0. -1.
         -3    1    6    6    0  502 -0.49798537917E+02  0.13787511358E+03  0.23519539049E+03  0.27713951907E+03  0.00000000000E+00 0.  1.
<mgrwt>
<rscale>  0 0.41705595E+03</rscale>
<asrwt>0</asrwt>
<pdfrwt beam="1">  1        1 0.38716818E+00 0.41705595E+03</pdfrwt>
<pdfrwt beam="2">  1       -2 0.13607394E-01 0.41705595E+03</pdfrwt>
<totfact> 0.52737270E+01</totfact>
</mgrwt>
</event>
<event>
12    3  0.2212098E-007  0.5294806E+03  0.7818608E-02  0.1006358E+00
          1   -1    0    0  501    0  0.00000000000E+00  0.00000000000E+00  0.20591125986E+04  0.20591125986E+04  0.00000000000E+00 0. -1.
         -2   -1    0    0    0  501 -0.00000000000E+00 -0.00000000000E+00 -0.19799543625E+03  0.19799543625E+03  0.00000000000E+00 0.  1.
        -24    2    1    2    0    0 -0.13183695026E+03  0.45956388532E+03  0.51013082998E+03  0.70348273350E+03  0.77939376999E+02 0.  0.
    5000000    2    1    2    0    0  0.13183695026E+03 -0.45956388532E+03  0.13509863323E+04  0.15536253013E+04  0.60000630047E+03 0.  0.
        -24    2    4    4    0    0  0.42348690355E+02 -0.47084117844E+03  0.49934203491E+03  0.69372226170E+03  0.91778437891E+02 0.  0.
         24    2    4    4    0    0  0.89488259909E+02  0.11277293129E+02  0.85164429743E+03  0.85990303962E+03  0.77459035616E+02 0.  0.
         11    1    5    5    0    0  0.53391602984E+02 -0.13537738059E+03  0.16412616701E+03  0.21935153781E+03  0.00000000000E+00 0. -1.
        -12    1    5    5    0    0 -0.11042912629E+02 -0.33546379786E+03  0.33521586790E+03  0.47437072390E+03  0.00000000000E+00 0.  1.
         13    1    3    3    0    0 -0.78527718050E+01  0.15980020880E+03  0.17194676910E+03  0.23486903619E+03  0.00000000000E+00 0. -1.
        -14    1    3    3    0    0 -0.12398417846E+03  0.29976367651E+03  0.33818406089E+03  0.46861369730E+03  0.00000000000E+00 0.  1.
          4    1    6    6  502    0  0.15331159238E+02  0.11635941059E+02  0.35374230936E+02  0.40271277385E+02  0.00000000000E+00 0. -1.
         -3    1    6    6    0  502  0.74157100671E+02 -0.35864793024E+00  0.81627006649E+03  0.81963176223E+03  0.00000000000E+00 0.  1.
<mgrwt>
<rscale>  0 0.52948059E+03</rscale>
<asrwt>0</asrwt>
<pdfrwt beam="1">  1        1 0.31678654E+00 0.52948059E+03</pdfrwt>
<pdfrwt beam="2">  1       -2 0.30460838E-01 0.52948059E+03</pdfrwt>
<totfact> 0.25522060E+01</totfact>
</mgrwt>
</event>
<event>
12    3  0.2212098E-007  0.6726310E+03  0.7818608E-02  0.9765217E-01
         -2   -1    0    0    0  501 -0.00000000000E+00  0.00000000000E+00  0.10558013540E+04  0.10558013540E+04  0.00000000000E+00 0.  1.
          1   -1    0    0  501    0  0.00000000000E+00 -0.00000000000E+00 -0.55914472551E+03  0.55914472551E+03  0.00000000000E+00 0. -1.
        -24    2    1    2    0    0 -0.63209232925E+03 -0.44908598700E+02  0.68955556493E+02  0.64302423768E+03  0.84662899407E+02 0.  0.
    5000000    2    1    2    0    0  0.63209232925E+03  0.44908598700E+02  0.42770107203E+03  0.97192184186E+03  0.60012195822E+03 0.  0.
        -24    2    4    4    0    0  0.78426289948E+02 -0.84644746090E+02 -0.11528619460E+03  0.18197301388E+03  0.80671278174E+02 0.  0.
         24    2    4    4    0    0  0.55366603930E+03  0.12955334479E+03  0.54298726662E+03  0.78994882798E+03  0.76510305751E+02 0.  0.
         11    1    3    3    0    0 -0.57941343968E+03 -0.64394806551E+02  0.58704567832E+02  0.58592904986E+03  0.00000000000E+00 0. -1.
        -12    1    3    3    0    0 -0.52678889572E+02  0.19486207851E+02  0.10250988661E+02  0.57095187814E+02  0.00000000000E+00 0.  1.
         11    1    5    5    0    0  0.33426229640E+02 -0.83554193546E+02 -0.99770781757E+02  0.13436080150E+03  0.00000000000E+00 0. -1.
        -12    1    5    5    0    0  0.45000060309E+02 -0.10905525431E+01 -0.15515412838E+02  0.47612212385E+02  0.00000000000E+00 0.  1.
          4    1    6    6  502    0  0.52729042557E+03  0.13472621164E+03  0.49882201755E+03  0.73824775665E+03  0.00000000000E+00 0. -1.
         -3    1    6    6    0  502  0.26375613728E+02 -0.51728668460E+01  0.44165249072E+02  0.51701071329E+02  0.00000000000E+00 0.  1.
<mgrwt>
<rscale>  0 0.67263097E+03</rscale>
<asrwt>0</asrwt>
<pdfrwt beam="1">  1        1 0.86022266E-01 0.67263097E+03</pdfrwt>
<pdfrwt beam="2">  1       -2 0.16243098E+00 0.67263097E+03</pdfrwt>
<totfact> 0.82611032E+00</totfact>
</mgrwt>
</event>
<event>
12    3  0.2212098E-007  0.1057560E+04  0.7818608E-02  0.9247574E-01
          1   -1    0    0  501    0  0.00000000000E+00  0.00000000000E+00  0.20464470087E+04  0.20464470087E+04  0.00000000000E+00 0. -1.
         -2   -1    0    0    0  501 -0.00000000000E+00 -0.00000000000E+00 -0.58539998554E+03  0.58539998554E+03  0.00000000000E+00 0.  1.
        -24    2    1    2    0    0 -0.84425704967E+03 -0.52351431153E+03  0.90355314691E+03  0.13443390055E+04  0.63260351399E+02 0.  0.
    5000000    2    1    2    0    0  0.84425704967E+03  0.52351431153E+03  0.55749387625E+03  0.12875079888E+04  0.60003349803E+03 0.  0.
        -24    2    4    4    0    0 -0.67256222431E+01 -0.57502989428E+02  0.14370927121E+03  0.17420266788E+03  0.79639105218E+02 0.  0.
         24    2    4    4    0    0  0.85098267192E+03  0.58101730096E+03  0.41378460504E+03  0.11133053209E+04  0.80488671207E+02 0.  0.
         11    1    3    3    0    0 -0.42322156318E+03 -0.24253277838E+03  0.47952878398E+03  0.68402229115E+03  0.00000000000E+00 0. -1.
        -12    1    3    3    0    0 -0.42103548650E+03 -0.28098153315E+03  0.42402436293E+03  0.66031671433E+03  0.00000000000E+00 0.  1.
         11    1    5    5    0    0  0.30937266506E+02 -0.34740906218E+02  0.10778255693E+03  0.11739303473E+03  0.00000000000E+00 0. -1.
        -12    1    5    5    0    0 -0.37662888749E+02 -0.22762083210E+02  0.35926714276E+02  0.56809633159E+02  0.00000000000E+00 0.  1.
          2    1    6    6  502    0  0.37076417499E+03  0.24077804942E+03  0.21913850388E+03  0.49341851042E+03  0.00000000000E+00 0. -1.
         -1    1    6    6    0  502  0.48021849692E+03  0.34023925154E+03  0.19464610116E+03  0.61988681045E+03  0.00000000000E+00 0.  1.
<mgrwt>
<rscale>  0 0.10575597E+04</rscale>
<asrwt>0</asrwt>
<pdfrwt beam="1">  1        1 0.31483800E+00 0.10575597E+04</pdfrwt>
<pdfrwt beam="2">  1       -2 0.90061538E-01 0.10575597E+04</pdfrwt>
<totfact> 0.25669058E+00</totfact>
</mgrwt>
</event>
<event>
12    3  0.2212098E-007  0.6914218E+03  0.7818608E-02  0.9732016E-01
         -2   -1    0    0    0  501 -0.00000000000E+00  0.00000000000E+00  0.27178416845E+03  0.27178416845E+03  0.00000000000E+00 0.  1.
          1   -1    0    0  501    0  0.00000000000E+00 -0.00000000000E+00 -0.19915334878E+04  0.19915334878E+04  0.00000000000E+00 0. -1.
        -24    2    1    2    0    0 -0.22608400585E+03  0.51918673504E+03 -0.10689183114E+04  0.12122245121E+04  0.78949780249E+02 0.  0.
    5000000    2    1    2    0    0  0.22608400585E+03 -0.51918673504E+03 -0.65083100795E+03  0.10510931441E+04  0.60045562134E+03 0.  0.
        -24    2    4    4    0    0  0.33077491890E+03 -0.58009871245E+03 -0.46383511849E+03  0.81661251730E+03  0.76068542039E+02 0.  0.
         24    2    4    4    0    0 -0.10469091305E+03  0.60911977413E+02 -0.18699588945E+03  0.23448062684E+03  0.73097506262E+02 0.  0.
         11    1    5    5    0    0  0.25901798229E+03 -0.38415983475E+03 -0.31303684394E+03  0.55916112119E+03  0.00000000000E+00 0. -1.
        -12    1    5    5    0    0  0.71756936609E+02 -0.19593887771E+03 -0.15079827455E+03  0.25745139611E+03  0.00000000000E+00 0.  1.
         13    1    3    3    0    0 -0.11381383667E+02  0.86881822219E+02 -0.19722375331E+03  0.21581287217E+03  0.00000000000E+00 0. -1.
        -14    1    3    3    0    0 -0.21470262218E+03  0.43230491282E+03 -0.87169455811E+03  0.99641163996E+03  0.00000000000E+00 0.  1.
          2    1    6    6  502    0 -0.51945000749E+02 -0.92563109304E+01 -0.57541442224E+02  0.78070352683E+02  0.00000000000E+00 0. -1.
         -1    1    6    6    0  502 -0.52745912306E+02  0.70168288343E+02 -0.12945444723E+03  0.15641027416E+03  0.00000000000E+00 0.  1.
<mgrwt>
<rscale>  0 0.69142179E+03</rscale>
<asrwt>0</asrwt>
<pdfrwt beam="1">  1        1 0.30638978E+00 0.69142179E+03</pdfrwt>
<pdfrwt beam="2">  1       -2 0.41812948E-01 0.69142179E+03</pdfrwt>
<totfact> 0.15065113E+01</totfact>
</mgrwt>
</event>
<event>
12    3  0.2212098E-007  0.5252676E+03  0.7818608E-02  0.1007386E+00
         -2   -1    0    0    0  501 -0.00000000000E+00  0.00000000000E+00  0.86731414155E+03  0.86731414155E+03  0.00000000000E+00 0.  1.
          1   -1    0    0  501    0  0.00000000000E+00 -0.00000000000E+00 -0.83821944146E+03  0.83821944146E+03  0.00000000000E+00 0. -1.
        -24    2    1    2    0    0 -0.28106309848E+03 -0.32711709811E+03  0.61899546209E+03  0.76006047996E+03  0.92382303011E+02 0.  0.
    5000000    2    1    2    0    0  0.28106309848E+03  0.32711709811E+03 -0.58990076200E+03  0.94547310304E+03  0.59994534615E+03 0.  0.
        -24    2    4    4    0    0 -0.22923989903E+02 -0.89213788365E+02 -0.34987796379E+03  0.37134138704E+03  0.83637472674E+02 0.  0.
         24    2    4    4    0    0  0.30398708839E+03  0.41633088647E+03 -0.24002279821E+03  0.57413171600E+03  0.79225795816E+02 0.  0.
         13    1    5    5    0    0 -0.96573586576E+01 -0.63226152856E+02 -0.32974680089E+03  0.33589248827E+03  0.00000000000E+00 0. -1.
        -14    1    5    5    0    0 -0.13266631245E+02 -0.25987635509E+02 -0.20131162896E+02  0.35448898763E+02  0.00000000000E+00 0.  1.
         13    1    3    3    0    0 -0.25308443696E+03 -0.32027785600E+03  0.59950459934E+03  0.72528298057E+03  0.00000000000E+00 0. -1.
        -14    1    3    3    0    0 -0.27978661525E+02 -0.68392421081E+01  0.19490862752E+02  0.34777499395E+02  0.00000000000E+00 0.  1.
          2    1    6    6  502    0  0.27530936539E+03  0.33189158822E+03 -0.21298386705E+03  0.48094635941E+03  0.00000000000E+00 0. -1.
         -1    1    6    6    0  502  0.28677722994E+02  0.84439298249E+02 -0.27038931159E+02  0.93185356591E+02  0.00000000000E+00 0.  1.
<mgrwt>
<rscale>  0 0.52526761E+03</rscale>
<asrwt>0</asrwt>
<pdfrwt beam="1">  1        1 0.12895684E+00 0.52526761E+03</pdfrwt>
<pdfrwt beam="2">  1       -2 0.13343295E+00 0.52526761E+03</pdfrwt>
<totfact> 0.77088977E+00</totfact>
</mgrwt>
</event>
<event>
12    3  0.2212098E-007  0.1800425E+04  0.7818608E-02  0.8706073E-01
         -2   -1    0    0    0  501 -0.00000000000E+00  0.00000000000E+00  0.30863791943E+04  0.30863791943E+04  0.00000000000E+00 0.  1.
          1   -1    0    0  501    0  0.00000000000E+00 -0.00000000000E+00 -0.10591754878E+04  0.10591754878E+04  0.00000000000E+00 0. -1.
        -24    2    1    2    0    0 -0.16584464819E+04 -0.57589088893E+03  0.89634698255E+03  0.19728022843E+04  0.80099255928E+02 0.  0.
    5000000    2    1    2    0    0  0.16584464819E+04  0.57589088893E+03  0.11308567239E+04  0.21727523977E+04  0.59993416517E+03 0.  0.
        -24    2    4    4    0    0  0.21787751626E+03 -0.11073627200E+03  0.13991599277E+03  0.29259404155E+03  0.79382958451E+02 0.  0.
         24    2    4    4    0    0  0.14405689656E+04  0.68662716094E+03  0.99094073117E+03  0.18801583562E+04  0.79599678033E+02 0.  0.
         13    1    5    5    0    0  0.14317323720E+03 -0.59004858631E+02  0.45151168067E+02  0.16130336999E+03  0.00000000000E+00 0. -1.
        -14    1    5    5    0    0  0.74704279060E+02 -0.51731413373E+02  0.94764824702E+02  0.13129067157E+03  0.00000000000E+00 0.  1.
         13    1    3    3    0    0 -0.93372683712E+03 -0.28230548406E+03  0.50197034198E+03  0.10970489583E+04  0.00000000000E+00 0. -1.
        -14    1    3    3    0    0 -0.72471964475E+03 -0.29358540487E+03  0.39437664057E+03  0.87575332604E+03  0.00000000000E+00 0.  1.
          2    1    6    6  502    0  0.77240358332E+03  0.32513716348E+03  0.50976821124E+03  0.98091034239E+03  0.00000000000E+00 0. -1.
         -1    1    6    6    0  502  0.66816538229E+03  0.36148999746E+03  0.48117251993E+03  0.89924801378E+03  0.00000000000E+00 0.  1.
<mgrwt>
<rscale>  0 0.18004254E+04</rscale>
<asrwt>0</asrwt>
<pdfrwt beam="1">  1        1 0.16295008E+00 0.18004254E+04</pdfrwt>
<pdfrwt beam="2">  1       -2 0.47482756E+00 0.18004254E+04</pdfrwt>
<totfact> 0.26019263E-02</totfact>
</mgrwt>
</event>
<event>
12    3  0.2212098E-007  0.1219005E+04  0.7818608E-02  0.9096382E-01
         -2   -1    0    0    0  501 -0.00000000000E+00  0.00000000000E+00  0.14867329858E+04  0.14867329858E+04  0.00000000000E+00 0.  1.
          1   -1    0    0  501    0  0.00000000000E+00 -0.00000000000E+00 -0.16825181954E+04  0.16825181954E+04  0.00000000000E+00 0. -1.
        -24    2    1    2    0    0 -0.10905364537E+04  0.51739410529E+03 -0.10259552937E+04  0.15862086965E+04  0.80668131542E+02 0.  0.
    5000000    2    1    2    0    0  0.10905364537E+04 -0.51739410529E+03  0.83017008405E+03  0.15830424846E+04  0.59989559302E+03 0.  0.
        -24    2    4    4    0    0  0.10864802625E+03 -0.66116016268E+02  0.38205517856E+03  0.41038417894E+03  0.79204126451E+02 0.  0.
         24    2    4    4    0    0  0.98188842741E+03 -0.45127808902E+03  0.44811490549E+03  0.11726583056E+04  0.81016885313E+02 0.  0.
         11    1    3    3    0    0 -0.76397487662E+03  0.34312989212E+03 -0.66773992271E+03  0.10711079961E+04  0.00000000000E+00 0. -1.
        -12    1    3    3    0    0 -0.32656157705E+03  0.17426421317E+03 -0.35821537095E+03  0.51510070043E+03  0.00000000000E+00 0.  1.
         13    1    5    5    0    0  0.46556080602E+02 -0.71267744114E+02  0.18352136094E+03  0.20230336110E+03  0.00000000000E+00 0. -1.
        -14    1    5    5    0    0  0.62091945649E+02  0.51517278467E+01  0.19853381762E+03  0.20808081784E+03  0.00000000000E+00 0.  1.
          4    1    6    6  502    0  0.21191384916E+03 -0.13007367329E+03  0.85008614904E+02  0.26277957409E+03  0.00000000000E+00 0. -1.
         -3    1    6    6    0  502  0.76997457825E+03 -0.32120441574E+03  0.36310629059E+03  0.90987873154E+03  0.00000000000E+00 0.  1.
<mgrwt>
<rscale>  0 0.12190053E+04</rscale>
<asrwt>0</asrwt>
<pdfrwt beam="1">  1        1 0.25884895E+00 0.12190053E+04</pdfrwt>
<pdfrwt beam="2">  1       -2 0.22872815E+00 0.12190053E+04</pdfrwt>
<totfact> 0.36383417E-01</totfact>
</mgrwt>
</event>
<event>
12    3  0.2212098E-007  0.5411678E+03  0.7818608E-02  0.1003559E+00
         -2   -1    0    0    0  501 -0.00000000000E+00  0.00000000000E+00  0.38083227874E+03  0.38083227874E+03  0.00000000000E+00 0.  1.
          1   -1    0    0  501    0  0.00000000000E+00 -0.00000000000E+00 -0.11531177674E+04  0.11531177674E+04  0.00000000000E+00 0. -1.
        -24    2    1    2    0    0 -0.28254232376E+03  0.41967797610E+03 -0.46348893210E+03  0.69049912094E+03  0.77506628728E+02 0.  0.
    5000000    2    1    2    0    0  0.28254232376E+03 -0.41967797610E+03 -0.30879655652E+03  0.84345092517E+03  0.60007864611E+03 0.  0.
        -24    2    4    4    0    0  0.20109397779E+03 -0.96853364776E+02  0.14272530018E+03  0.27664281650E+03  0.79632747260E+02 0.  0.
         24    2    4    4    0    0  0.81448345971E+02 -0.32282461132E+03 -0.45152185671E+03  0.56680810867E+03  0.80931342740E+02 0.  0.
         11    1    3    3    0    0 -0.13171848371E+03  0.12996789014E+03 -0.17606477076E+03  0.25542164145E+03  0.00000000000E+00 0. -1.
        -12    1    3    3    0    0 -0.15082384005E+03  0.28971008596E+03 -0.28742416134E+03  0.43507747949E+03  0.00000000000E+00 0.  1.
         13    1    5    5    0    0  0.91542347885E+02 -0.88113709219E+02  0.78481675937E+02  0.14934323107E+03  0.00000000000E+00 0. -1.
        -14    1    5    5    0    0  0.10955162990E+03 -0.87396555573E+01  0.64243624244E+02  0.12729958543E+03  0.00000000000E+00 0.  1.
          2    1    6    6  502    0  0.56359269652E+02 -0.17729649416E+03 -0.18653078671E+03  0.26344667109E+03  0.00000000000E+00 0. -1.
         -1    1    6    6    0  502  0.25089076319E+02 -0.14552811716E+03 -0.26499107000E+03  0.30336143759E+03  0.00000000000E+00 0.  1.
<mgrwt>
<rscale>  0 0.54116779E+03</rscale>
<asrwt>0</asrwt>
<pdfrwt beam="1">  1        1 0.17740273E+00 0.54116779E+03</pdfrwt>
<pdfrwt beam="2">  1       -2 0.58589583E-01 0.54116779E+03</pdfrwt>
<totfact> 0.29050258E+01</totfact>
</mgrwt>
</event>
<event>
12    3  0.2401399E-007  0.1669924E+04  0.7818608E-02  0.8778706E-01
         -2   -1    0    0    0  501 -0.00000000000E+00  0.00000000000E+00  0.11109776551E+04  0.11109776551E+04  0.00000000000E+00 0.  1.
          1   -1    0    0  501    0  0.00000000000E+00 -0.00000000000E+00 -0.30161161695E+04  0.30161161695E+04  0.00000000000E+00 0. -1.
        -24    2    1    2    0    0  0.14807835994E+04 -0.66028528032E+03 -0.17568252387E+04  0.23919677086E+04  0.79861628760E+02 0.  0.
    5000000    2    1    2    0    0 -0.14807835994E+04  0.66028528032E+03 -0.14831327568E+03  0.17351261161E+04  0.59997424235E+03 0.  0.
        -24    2    4    4    0    0 -0.10771006084E+04  0.73657715500E+03 -0.67388657623E+02  0.13089992618E+04  0.79032969863E+02 0.  0.
         24    2    4    4    0    0 -0.40368299100E+03 -0.76291874682E+02 -0.80924618059E+02  0.42612685433E+03  0.79087892956E+02 0.  0.
         11    1    3    3    0    0  0.59700732652E+03 -0.30209606839E+03 -0.69252998627E+03  0.96295252445E+03  0.00000000000E+00 0. -1.
        -12    1    3    3    0    0  0.88377627286E+03 -0.35818921193E+03 -0.10642952524E+04  0.14290151841E+04  0.00000000000E+00 0.  1.
         13    1    5    5    0    0 -0.64741187866E+03  0.45705725308E+03 -0.41030963114E+01  0.79250256064E+03  0.00000000000E+00 0. -1.
        -14    1    5    5    0    0 -0.42968872973E+03  0.27951990193E+03 -0.63285561312E+02  0.51649670115E+03  0.00000000000E+00 0.  1.
          2    1    6    6  502    0 -0.22531343085E+03 -0.58632752000E+02 -0.89949549132E+01  0.23299109627E+03  0.00000000000E+00 0. -1.
         -1    1    6    6    0  502 -0.17836956015E+03 -0.17659122682E+02 -0.71929663146E+02  0.19313575806E+03  0.00000000000E+00 0.  1.
<mgrwt>
<rscale>  0 0.16699241E+04</rscale>
<asrwt>0</asrwt>
<pdfrwt beam="1">  1        1 0.46401787E+00 0.16699241E+04</pdfrwt>
<pdfrwt beam="2">  1       -2 0.17091964E+00 0.16699241E+04</pdfrwt>
<totfact> 0.99428535E-02</totfact>
</mgrwt>
</event>
<event>
12    3  0.2212098E-007  0.7139945E+03  0.7818608E-02  0.9693595E-01
         -2   -1    0    0    0  501 -0.00000000000E+00  0.00000000000E+00  0.47346164368E+03  0.47346164368E+03  0.00000000000E+00 0.  1.
          1   -1    0    0  501    0  0.00000000000E+00 -0.00000000000E+00 -0.12016899108E+04  0.12016899108E+04  0.00000000000E+00 0. -1.
        -24    2    1    2    0    0 -0.65283490969E+02  0.59634963561E+03 -0.86964263313E+02  0.61158483373E+03  0.81107358880E+02 0.  0.
    5000000    2    1    2    0    0  0.65283490969E+02 -0.59634963561E+03 -0.64126400382E+03  0.10635667208E+04  0.60004985194E+03 0.  0.
        -24    2    4    4    0    0 -0.75465142088E+02  0.78191745145E+02 -0.25104733939E+02  0.13645913791E+03  0.78625135772E+02 0.  0.
         24    2    4    4    0    0  0.14074863306E+03 -0.67454138076E+03 -0.61615926988E+03  0.92710758284E+03  0.71133481798E+02 0.  0.
         11    1    5    5    0    0 -0.18706332980E+02  0.72883822052E+02 -0.25505409244E+02  0.79451270041E+02  0.00000000000E+00 0. -1.
        -12    1    5    5    0    0 -0.56758809107E+02  0.53079230938E+01  0.40067530460E+00  0.57007867874E+02  0.00000000000E+00 0.  1.
         13    1    3    3    0    0 -0.65118047763E+02  0.25678654578E+03 -0.54602084620E+02  0.27048304547E+03  0.00000000000E+00 0. -1.
        -14    1    3    3    0    0 -0.16544320576E+00  0.33956308983E+03 -0.32362178693E+02  0.34110178826E+03  0.00000000000E+00 0.  1.
          4    1    6    6  502    0  0.83143534859E+02 -0.26642434338E+03 -0.21938365197E+03  0.35499854209E+03  0.00000000000E+00 0. -1.
         -3    1    6    6    0  502  0.57605098198E+02 -0.40811703738E+03 -0.39677561791E+03  0.57210904074E+03  0.00000000000E+00 0.  1.
<mgrwt>
<rscale>  0 0.71399449E+03</rscale>
<asrwt>0</asrwt>
<pdfrwt beam="1">  1        1 0.18487537E+00 0.71399449E+03</pdfrwt>
<pdfrwt beam="2">  1       -2 0.72840253E-01 0.71399449E+03</pdfrwt>
<totfact> 0.16412291E+01</totfact>
</mgrwt>
</event>
<event>
12    3  0.2511922E-007  0.6085491E+03  0.7818608E-02  0.9887826E-01
          1   -1    0    0  501    0  0.00000000000E+00  0.00000000000E+00  0.93453278305E+03  0.93453278305E+03  0.00000000000E+00 0. -1.
         -2   -1    0    0    0  501 -0.00000000000E+00 -0.00000000000E+00 -0.48138236442E+03  0.48138236442E+03  0.00000000000E+00 0.  1.
        -24    2    1    2    0    0  0.49736156061E+03  0.17862913639E+03  0.25516845836E+03  0.59221540922E+03  0.79569205316E+02 0.  0.
    5000000    2    1    2    0    0 -0.49736156061E+03 -0.17862913639E+03  0.19798196027E+03  0.82369973825E+03  0.60000625985E+03 0.  0.
        -24    2    4    4    0    0 -0.18620976545E+03  0.13578754923E+03  0.27833940393E+03  0.37005099945E+03  0.79703093680E+02 0.  0.
         24    2    4    4    0    0 -0.31115179516E+03 -0.31441668562E+03 -0.80357443659E+02  0.45364873880E+03  0.60552189342E+02 0.  0.
         11    1    5    5    0    0 -0.60895311532E+02  0.83051432620E+02  0.15733693570E+03  0.18804438508E+03  0.00000000000E+00 0. -1.
        -12    1    5    5    0    0 -0.12531445392E+03  0.52736116605E+02  0.12100246823E+03  0.18200661437E+03  0.00000000000E+00 0.  1.
         11    1    3    3    0    0  0.29698546374E+03  0.14413729598E+03  0.14034020504E+03  0.35870781831E+03  0.00000000000E+00 0. -1.
        -12    1    3    3    0    0  0.20037609687E+03  0.34491840409E+02  0.11482825332E+03  0.23350759091E+03  0.00000000000E+00 0.  1.
          4    1    6    6  502    0 -0.13754236406E+03 -0.17155602326E+03 -0.59843361418E+02  0.22788286231E+03  0.00000000000E+00 0. -1.
         -3    1    6    6    0  502 -0.17360943110E+03 -0.14286066236E+03 -0.20514082240E+02  0.22576587649E+03  0.00000000000E+00 0.  1.
<mgrwt>
<rscale>  0 0.60854907E+03</rscale>
<asrwt>0</asrwt>
<pdfrwt beam="1">  1        1 0.14377427E+00 0.60854907E+03</pdfrwt>
<pdfrwt beam="2">  1       -2 0.74058826E-01 0.60854907E+03</pdfrwt>
<totfact> 0.25489388E+01</totfact>
</mgrwt>
</event>
<event>
12    3  0.2212098E-007  0.3513296E+03  0.7818608E-02  0.1062071E+00
         -2   -1    0    0    0  501 -0.00000000000E+00  0.00000000000E+00  0.29498516887E+03  0.29498516887E+03  0.00000000000E+00 0.  1.
          1   -1    0    0  501    0  0.00000000000E+00 -0.00000000000E+00 -0.94273183272E+03  0.94273183272E+03  0.00000000000E+00 0. -1.
        -24    2    1    2    0    0 -0.52174623438E+02 -0.74294600562E+02  0.17662641124E+03  0.21390942012E+03  0.79488815967E+02 0.  0.
    5000000    2    1    2    0    0  0.52174623438E+02  0.74294600562E+02 -0.82437307509E+03  0.10238075815E+04  0.60029086112E+03 0.  0.
        -24    2    4    4    0    0 -0.25359619212E+03  0.11482976727E+03 -0.36569499594E+03  0.46581018538E+03  0.75824762686E+02 0.  0.
         24    2    4    4    0    0  0.30577081556E+03 -0.40535166708E+02 -0.45867807916E+03  0.55799739610E+03  0.76397790335E+02 0.  0.
         13    1    5    5    0    0 -0.22224694927E+03  0.70703534065E+02 -0.27943189208E+03  0.36397098579E+03  0.00000000000E+00 0. -1.
        -14    1    5    5    0    0 -0.31349242853E+02  0.44126233205E+02 -0.86263103858E+02  0.10183919958E+03  0.00000000000E+00 0.  1.
         13    1    3    3    0    0 -0.65615990656E+01 -0.49017434203E+02  0.28970932727E+02  0.57315603296E+02  0.00000000000E+00 0. -1.
        -14    1    3    3    0    0 -0.45613024373E+02 -0.25277166359E+02  0.14765547852E+03  0.15659381682E+03  0.00000000000E+00 0.  1.
          4    1    6    6  502    0  0.21776082814E+03 -0.54790521899E+02 -0.36603132516E+03  0.42941903842E+03  0.00000000000E+00 0. -1.
         -3    1    6    6    0  502  0.88009987416E+02  0.14255355191E+02 -0.92646754003E+02  0.12857835768E+03  0.00000000000E+00 0.  1.
<mgrwt>
<rscale>  0 0.35132962E+03</rscale>
<asrwt>0</asrwt>
<pdfrwt beam="1">  1        1 0.14503567E+00 0.35132962E+03</pdfrwt>
<pdfrwt beam="2">  1       -2 0.45382334E-01 0.35132962E+03</pdfrwt>
<totfact> 0.72282590E+01</totfact>
</mgrwt>
</event>
<event>
12    3  0.2212098E-007  0.5669173E+03  0.7818608E-02  0.9976523E-01
         -2   -1    0    0    0  501 -0.00000000000E+00  0.00000000000E+00  0.44206708014E+03  0.44206708014E+03  0.00000000000E+00 0.  1.
          1   -1    0    0  501    0  0.00000000000E+00 -0.00000000000E+00 -0.16779912419E+04  0.16779912419E+04  0.00000000000E+00 0. -1.
        -24    2    1    2    0    0 -0.31651335077E+03  0.45828443494E+03 -0.11696349343E+04  0.12987635124E+04  0.92387537130E+02 0.  0.
    5000000    2    1    2    0    0  0.31651335077E+03 -0.45828443494E+03 -0.66289227420E+02  0.82129480963E+03  0.59993797856E+03 0.  0.
        -24    2    4    4    0    0  0.17991687519E+03 -0.33503730944E+03 -0.31632367327E+03  0.50110500922E+03  0.80159112350E+02 0.  0.
         24    2    4    4    0    0  0.13659647558E+03 -0.12324712551E+03  0.25003444585E+03  0.32018980041E+03  0.78459117315E+02 0.  0.
         13    1    3    3    0    0 -0.23808686838E+03  0.28597749361E+03 -0.83784880332E+03  0.91676556490E+03  0.00000000000E+00 0. -1.
        -14    1    3    3    0    0 -0.78426482390E+02  0.17230694133E+03 -0.33178613099E+03  0.38199794749E+03  0.00000000000E+00 0.  1.
         13    1    5    5    0    0  0.10121724271E+03 -0.12198332441E+03 -0.99806089560E+02  0.18731288576E+03  0.00000000000E+00 0. -1.
        -14    1    5    5    0    0  0.78699632480E+02 -0.21305398502E+03 -0.21651758371E+03  0.31379212346E+03  0.00000000000E+00 0.  1.
          4    1    6    6  502    0  0.15083713646E+02 -0.30092100558E+02  0.93563430109E+01  0.34937001701E+02  0.00000000000E+00 0. -1.
         -3    1    6    6    0  502  0.12151276193E+03 -0.93155024948E+02  0.24067810284E+03  0.28525279871E+03  0.00000000000E+00 0.  1.
<mgrwt>
<rscale>  0 0.56691734E+03</rscale>
<asrwt>0</asrwt>
<pdfrwt beam="1">  1        1 0.25815250E+00 0.56691734E+03</pdfrwt>
<pdfrwt beam="2">  1       -2 0.68010320E-01 0.56691734E+03</pdfrwt>
<totfact> 0.91484317E+00</totfact>
</mgrwt>
</event>
<event>
12    3  0.2212098E-007  0.2819792E+04  0.7818608E-02  0.8297150E-01
          1   -1    0    0  501    0  0.00000000000E+00  0.00000000000E+00  0.38025435652E+04  0.38025435652E+04  0.00000000000E+00 0. -1.
         -2   -1    0    0    0  501 -0.00000000000E+00 -0.00000000000E+00 -0.22709329399E+04  0.22709329399E+04  0.00000000000E+00 0.  1.
        -24    2    1    2    0    0  0.17437239397E+04  0.21994705396E+04  0.15412746904E+04  0.32032223210E+04  0.82835584498E+02 0.  0.
    5000000    2    1    2    0    0 -0.17437239397E+04 -0.21994705396E+04 -0.96640651104E+01  0.28702541840E+04  0.60001821166E+03 0.  0.
        -24    2    4    4    0    0 -0.92770095849E+03 -0.14652639741E+04  0.20718431043E+03  0.17483470364E+04  0.78513943406E+02 0.  0.
         24    2    4    4    0    0 -0.81602298123E+03 -0.73420656555E+03 -0.21684837554E+03  0.11219071476E+04  0.81851347400E+02 0.  0.
         11    1    5    5    0    0 -0.31605484824E+03 -0.46290872396E+03  0.35605120318E+02  0.56164301688E+03  0.00000000000E+00 0. -1.
        -12    1    5    5    0    0 -0.61164611025E+03 -0.10023552501E+04  0.17157919011E+03  0.11867040196E+04  0.00000000000E+00 0.  1.
         13    1    3    3    0    0  0.85473003174E+03  0.10725816231E+04  0.70605345147E+03  0.15425648258E+04  0.00000000000E+00 0. -1.
        -14    1    3    3    0    0  0.88899390798E+03  0.11268889165E+04  0.83522123891E+03  0.16606574952E+04  0.00000000000E+00 0.  1.
          4    1    6    6  502    0 -0.76838299599E+02 -0.59299460270E+02  0.29816092181E+01  0.97105305041E+02  0.00000000000E+00 0. -1.
         -3    1    6    6    0  502 -0.73918468164E+03 -0.67490710528E+03 -0.21982998475E+03  0.10248018426E+04  0.00000000000E+00 0.  1.
<mgrwt>
<rscale>  0 0.28197916E+04</rscale>
<asrwt>0</asrwt>
<pdfrwt beam="1">  1        1 0.58500671E+00 0.28197916E+04</pdfrwt>
<pdfrwt beam="2">  1       -2 0.34937430E+00 0.28197916E+04</pdfrwt>
<totfact> 0.15777548E-03</totfact>
</mgrwt>
</event>
<event>
12    3  0.2212098E-007  0.5597687E+03  0.7818608E-02  0.9992578E-01
          1   -1    0    0  501    0  0.00000000000E+00  0.00000000000E+00  0.19494539517E+04  0.19494539517E+04  0.00000000000E+00 0. -1.
         -2   -1    0    0    0  501 -0.00000000000E+00 -0.00000000000E+00 -0.18475935497E+03  0.18475935497E+03  0.00000000000E+00 0.  1.
        -24    2    1    2    0    0 -0.31593467790E+03 -0.28521024554E+03  0.89944890842E+03  0.99849165678E+03  0.82569031366E+02 0.  0.
    5000000    2    1    2    0    0  0.31593467790E+03  0.28521024554E+03  0.86524568833E+03  0.11357216499E+04  0.60004496503E+03 0.  0.
        -24    2    4    4    0    0  0.46344280945E+03  0.18885299694E+03  0.76442067981E+03  0.91712060792E+03  0.79539560382E+02 0.  0.
         24    2    4    4    0    0 -0.14750813155E+03  0.96357248602E+02  0.10082500852E+03  0.21860104199E+03  0.81100955518E+02 0.  0.
         11    1    3    3    0    0 -0.69633776467E+02 -0.23852293158E+02  0.13087951203E+03  0.15015738870E+03  0.00000000000E+00 0. -1.
        -12    1    3    3    0    0 -0.24630090143E+03 -0.26135795238E+03  0.76856939640E+03  0.84833426808E+03  0.00000000000E+00 0.  1.
         13    1    5    5    0    0  0.37929830165E+03  0.12221617342E+03  0.62366602726E+03  0.74011033518E+03  0.00000000000E+00 0. -1.
        -14    1    5    5    0    0  0.84144507800E+02  0.66636823516E+02  0.14075465255E+03  0.17701027274E+03  0.00000000000E+00 0.  1.
          4    1    6    6  502    0 -0.62359379106E+02  0.65402581993E+02  0.89686844900E+02  0.12731818426E+03  0.00000000000E+00 0. -1.
         -3    1    6    6    0  502 -0.85148752447E+02  0.30954666609E+02  0.11138163616E+02  0.91282857738E+02  0.00000000000E+00 0.  1.
<mgrwt>
<rscale>  0 0.55976866E+03</rscale>
<asrwt>0</asrwt>
<pdfrwt beam="1">  1        1 0.29991598E+00 0.55976866E+03</pdfrwt>
<pdfrwt beam="2">  1       -2 0.28424518E-01 0.55976866E+03</pdfrwt>
<totfact> 0.34089365E+01</totfact>
</mgrwt>
</event>
<event>
12    3  0.2212098E-007  0.8450272E+03  0.7818608E-02  0.9497036E-01
         -4   -1    0    0    0  501 -0.00000000000E+00  0.00000000000E+00  0.22181446365E+04  0.22181446365E+04  0.00000000000E+00 0.  1.
          3   -1    0    0  501    0  0.00000000000E+00 -0.00000000000E+00 -0.39079990979E+03  0.39079990979E+03  0.00000000000E+00 0. -1.
        -24    2    1    2    0    0 -0.77191835545E+03 -0.66944594774E+02  0.12462083367E+04  0.14695796751E+04  0.79307481740E+02 0.  0.
    5000000    2    1    2    0    0  0.77191835545E+03  0.66944594774E+02  0.58113638999E+03  0.11393648712E+04  0.60007772808E+03 0.  0.
        -24    2    4    4    0    0  0.81229506960E+03  0.20550550450E+02  0.35017942937E+03  0.88738325098E+03  0.67659412754E+02 0.  0.
         24    2    4    4    0    0 -0.40376714151E+02  0.46394044323E+02  0.23095696063E+03  0.25198162024E+03  0.79818123776E+02 0.  0.
         11    1    5    5    0    0  0.63026328757E+03  0.31261141075E+02  0.29702383397E+03  0.69744693600E+03  0.00000000000E+00 0. -1.
        -12    1    5    5    0    0  0.18203178204E+03 -0.10710590625E+02  0.53155595400E+02  0.18993631497E+03  0.00000000000E+00 0.  1.
         11    1    3    3    0    0 -0.41346259558E+03  0.38681589254E+01  0.66177574068E+03  0.78032904056E+03  0.00000000000E+00 0. -1.
        -12    1    3    3    0    0 -0.35845575987E+03 -0.70812753699E+02  0.58443259607E+03  0.68925063454E+03  0.00000000000E+00 0.  1.
          4    1    6    6  502    0 -0.54754761305E+02  0.57677743291E+02  0.15954433591E+03  0.17826721818E+03  0.00000000000E+00 0. -1.
         -3    1    6    6    0  502  0.14378047154E+02 -0.11283698967E+02  0.71412624711E+02  0.73714402056E+02  0.00000000000E+00 0.  1.
<mgrwt>
<rscale>  0 0.84502720E+03</rscale>
<asrwt>0</asrwt>
<pdfrwt beam="1">  1        3 0.60123064E-01 0.84502720E+03</pdfrwt>
<pdfrwt beam="2">  1       -4 0.34125301E+00 0.84502720E+03</pdfrwt>
<totfact> 0.10588617E-01</totfact>
</mgrwt>
</event>
<event>
12    3  0.2212098E-007  0.3984491E+03  0.7818608E-02  0.1044318E+00
         -2   -1    0    0    0  501 -0.00000000000E+00  0.00000000000E+00  0.16806616314E+03  0.16806616314E+03  0.00000000000E+00 0.  1.
          1   -1    0    0  501    0  0.00000000000E+00 -0.00000000000E+00 -0.20680847016E+04  0.20680847016E+04  0.00000000000E+00 0. -1.
        -24    2    1    2    0    0  0.21627591519E+03  0.23952804973E+03 -0.12548237402E+04  0.12979666606E+04  0.77368436860E+02 0.  0.
    5000000    2    1    2    0    0 -0.21627591519E+03 -0.23952804973E+03 -0.64519479824E+03  0.93818420410E+03  0.59980356371E+03 0.  0.
        -24    2    4    4    0    0  0.39181168785E+02  0.58660330549E+02  0.62652194837E+02  0.12382257434E+03  0.80190610608E+02 0.  0.
         24    2    4    4    0    0 -0.25545708398E+03 -0.29818838028E+03 -0.70784699308E+03  0.81436162976E+03  0.89234895263E+02 0.  0.
         13    1    3    3    0    0  0.16509452256E+03  0.16444981552E+03 -0.10175236646E+04  0.10438651020E+04  0.00000000000E+00 0. -1.
        -14    1    3    3    0    0  0.51181392633E+02  0.75078234204E+02 -0.23730007563E+03  0.25410155863E+03  0.00000000000E+00 0.  1.
         13    1    5    5    0    0  0.39154071919E+02  0.55832809836E+02  0.75075120299E+01  0.68605442487E+02  0.00000000000E+00 0. -1.
        -14    1    5    5    0    0  0.27096866275E-01  0.28275207132E+01  0.55144682807E+02  0.55217131848E+02  0.00000000000E+00 0.  1.
          2    1    6    6  502    0 -0.23418515166E+03 -0.22127291694E+03 -0.54781667678E+03  0.63553717467E+03  0.00000000000E+00 0. -1.
         -1    1    6    6    0  502 -0.21271932321E+02 -0.76915463333E+02 -0.16003031630E+03  0.17882445510E+03  0.00000000000E+00 0.  1.
<mgrwt>
<rscale>  0 0.39844914E+03</rscale>
<asrwt>0</asrwt>
<pdfrwt beam="1">  1        1 0.31816688E+00 0.39844914E+03</pdfrwt>
<pdfrwt beam="2">  1       -2 0.25856333E-01 0.39844914E+03</pdfrwt>
<totfact> 0.34878214E+01</totfact>
</mgrwt>
</event>
<event>
12    3  0.2212098E-007  0.7520437E+03  0.7818608E-02  0.9632150E-01
          1   -1    0    0  501    0  0.00000000000E+00  0.00000000000E+00  0.24983449994E+04  0.24983449994E+04  0.00000000000E+00 0. -1.
         -2   -1    0    0    0  501 -0.00000000000E+00 -0.00000000000E+00 -0.28605180969E+03  0.28605180969E+03  0.00000000000E+00 0.  1.
        -24    2    1    2    0    0 -0.73048752770E+03  0.66337777250E+02  0.10674398415E+04  0.12982333412E+04  0.89270734886E+02 0.  0.
    5000000    2    1    2    0    0  0.73048752770E+03 -0.66337777250E+02  0.11448533482E+04  0.14861634679E+04  0.59998327948E+03 0.  0.
        -24    2    4    4    0    0  0.73013420779E+03 -0.52856476679E+02  0.63984241228E+03  0.97469819510E+03  0.68909291619E+02 0.  0.
         24    2    4    4    0    0  0.35331990746E+00 -0.13481300571E+02  0.50501093595E+03  0.51146527283E+03  0.79867450087E+02 0.  0.
         11    1    5    5    0    0  0.43464033047E+03 -0.11304607899E+02  0.41519929952E+03  0.60119087598E+03  0.00000000000E+00 0. -1.
        -12    1    5    5    0    0  0.29549387732E+03 -0.41551868780E+02  0.22464311276E+03  0.37350731913E+03  0.00000000000E+00 0.  1.
         13    1    3    3    0    0 -0.48464586603E+03  0.51635290602E+02  0.77955894483E+03  0.91938020816E+03  0.00000000000E+00 0. -1.
        -14    1    3    3    0    0 -0.24584166167E+03  0.14702486648E+02  0.28788089664E+03  0.37885313299E+03  0.00000000000E+00 0.  1.
          2    1    6    6  502    0  0.17187675522E+02 -0.31396033701E+01  0.47625942981E+03  0.47657981260E+03  0.00000000000E+00 0. -1.
         -1    1    6    6    0  502 -0.16834355615E+02 -0.10341697201E+02  0.28751506143E+02  0.34885460230E+02  0.00000000000E+00 0.  1.
<mgrwt>
<rscale>  0 0.75204365E+03</rscale>
<asrwt>0</asrwt>
<pdfrwt beam="1">  1        1 0.38436075E+00 0.75204365E+03</pdfrwt>
<pdfrwt beam="2">  1       -2 0.44007972E-01 0.75204365E+03</pdfrwt>
<totfact> 0.61499677E+00</totfact>
</mgrwt>
</event>
<event>
12    3  0.2212098E-007  0.4554609E+03  0.7818608E-02  0.1026106E+00
         -4   -1    0    0    0  501 -0.00000000000E+00  0.00000000000E+00  0.21009097458E+04  0.21009097458E+04  0.00000000000E+00 0.  1.
          3   -1    0    0  501    0  0.00000000000E+00 -0.00000000000E+00 -0.12433893144E+03  0.12433893144E+03  0.00000000000E+00 0. -1.
        -24    2    1    2    0    0  0.17799598440E+03  0.22436715207E+03  0.30403106683E+03  0.42540830970E+03  0.80710290344E+02 0.  0.
    5000000    2    1    2    0    0 -0.17799598440E+03 -0.22436715207E+03  0.16725397475E+04  0.17998403675E+04  0.60001079338E+03 0.  0.
        -24    2    4    4    0    0 -0.20811694268E+03 -0.38185381566E+03  0.14401793100E+04  0.15064949705E+04  0.79282109693E+02 0.  0.
         24    2    4    4    0    0  0.30120958284E+02  0.15748666358E+03  0.23236043750E+03  0.29334539698E+03  0.79692080425E+02 0.  0.
         13    1    3    3    0    0  0.16834045842E+01  0.22556752756E+02  0.37330836326E+01  0.22925463120E+02  0.00000000000E+00 0. -1.
        -14    1    3    3    0    0  0.17631257981E+03  0.20181039932E+03  0.30029798320E+03  0.40248284658E+03  0.00000000000E+00 0.  1.
         13    1    5    5    0    0 -0.17046385478E+03 -0.23894160913E+03  0.99843944521E+03  0.10406883991E+04  0.00000000000E+00 0. -1.
        -14    1    5    5    0    0 -0.37653087904E+02 -0.14291220652E+03  0.44173986478E+03  0.46580657138E+03  0.00000000000E+00 0.  1.
          2    1    6    6  502    0  0.16863047012E+00  0.14741815841E+03  0.18907501783E+03  0.23975300672E+03  0.00000000000E+00 0. -1.
         -1    1    6    6    0  502  0.29952327814E+02  0.10068505171E+02  0.43285419671E+02  0.53592390262E+02  0.00000000000E+00 0.  1.
<mgrwt>
<rscale>  0 0.45546087E+03</rscale>
<asrwt>0</asrwt>
<pdfrwt beam="1">  1        3 0.19129068E-01 0.45546087E+03</pdfrwt>
<pdfrwt beam="2">  1       -4 0.32321686E+00 0.45546087E+03</pdfrwt>
<totfact> 0.13250489E+00</totfact>
</mgrwt>
</event>
<event>
12    3  0.2538470E-007  0.7409740E+03  0.7818608E-02  0.9649618E-01
         -2   -1    0    0    0  501 -0.00000000000E+00  0.00000000000E+00  0.62345737189E+03  0.62345737189E+03  0.00000000000E+00 0.  1.
          1   -1    0    0  501    0  0.00000000000E+00 -0.00000000000E+00 -0.12658390832E+04  0.12658390832E+04  0.00000000000E+00 0. -1.
        -24    2    1    2    0    0 -0.23869127604E+02  0.72660173581E+03  0.29087527139E+02  0.73192638539E+03  0.79688968310E+02 0.  0.
    5000000    2    1    2    0    0  0.23869127604E+02 -0.72660173581E+03 -0.67146923844E+03  0.11573700697E+04  0.60009559430E+03 0.  0.
        -24    2    4    4    0    0  0.39503047508E+02 -0.62241521433E+03 -0.18712785406E+03  0.65519575985E+03  0.72824859525E+02 0.  0.
         24    2    4    4    0    0 -0.15633919905E+02 -0.10418652147E+03 -0.48434138438E+03  0.50217430983E+03  0.80580457438E+02 0.  0.
         13    1    5    5    0    0  0.16413856410E+02 -0.44468628189E+03 -0.10078758844E+03  0.45626027876E+03  0.00000000000E+00 0. -1.
        -14    1    5    5    0    0  0.23089191098E+02 -0.17772893244E+03 -0.86340265611E+02  0.19893548109E+03  0.00000000000E+00 0.  1.
         13    1    3    3    0    0 -0.48449443368E+02  0.33136550889E+03  0.40206216718E+00  0.33488895279E+03  0.00000000000E+00 0. -1.
        -14    1    3    3    0    0  0.24580315764E+02  0.39523622692E+03  0.28685464972E+02  0.39703743261E+03  0.00000000000E+00 0.  1.
          4    1    6    6  502    0  0.93532098062E+01  0.77559120027E+01 -0.10964287372E+03  0.11031408097E+03  0.00000000000E+00 0. -1.
         -3    1    6    6    0  502 -0.24987129711E+02 -0.11194243348E+03 -0.37469851067E+03  0.39186022886E+03  0.00000000000E+00 0.  1.
<mgrwt>
<rscale>  0 0.74097398E+03</rscale>
<asrwt>0</asrwt>
<pdfrwt beam="1">  1        1 0.19474447E+00 0.74097398E+03</pdfrwt>
<pdfrwt beam="2">  1       -2 0.95916519E-01 0.74097398E+03</pdfrwt>
<totfact> 0.78776783E+00</totfact>
</mgrwt>
</event>
<event>
12    3  0.2212098E-007  0.4367911E+03  0.7818608E-02  0.1031736E+00
         -2   -1    0    0    0  501 -0.00000000000E+00  0.00000000000E+00  0.14448846673E+03  0.14448846673E+03  0.00000000000E+00 0.  1.
          1   -1    0    0  501    0  0.00000000000E+00 -0.00000000000E+00 -0.14309422687E+04  0.14309422687E+04  0.00000000000E+00 0. -1.
        -24    2    1    2    0    0  0.11013480330E+03  0.20556229823E+03 -0.23251813994E+03  0.34055140082E+03  0.86746976005E+02 0.  0.
    5000000    2    1    2    0    0 -0.11013480330E+03 -0.20556229823E+03 -0.10539356621E+04  0.12348793347E+04  0.59980084864E+03 0.  0.
        -24    2    4    4    0    0 -0.24547459318E+03 -0.34600391734E+03 -0.68039950790E+03  0.80596763916E+03  0.81632458694E+02 0.  0.
         24    2    4    4    0    0  0.13533978988E+03  0.14044161911E+03 -0.37353615417E+03  0.42891169550E+03  0.79970475560E+02 0.  0.
         11    1    3    3    0    0  0.37778576479E+02  0.61957128081E+02 -0.13281462521E+03  0.15134606447E+03  0.00000000000E+00 0. -1.
        -12    1    3    3    0    0  0.72356226822E+02  0.14360517015E+03 -0.99703514736E+02  0.18920533636E+03  0.00000000000E+00 0.  1.
         11    1    5    5    0    0 -0.66981882340E+02 -0.48637904593E+02 -0.99740044249E+02  0.12961595099E+03  0.00000000000E+00 0. -1.
        -12    1    5    5    0    0 -0.17849271084E+03 -0.29736601275E+03 -0.58065946365E+03  0.67635168817E+03  0.00000000000E+00 0.  1.
          2    1    6    6  502    0  0.27725296719E+02  0.85297353598E+02 -0.15017331873E+03  0.17491814162E+03  0.00000000000E+00 0. -1.
         -1    1    6    6    0  502  0.10761449316E+03  0.55144265509E+02 -0.22336283544E+03  0.25399355388E+03  0.00000000000E+00 0.  1.
<mgrwt>
<rscale>  0 0.43679111E+03</rscale>
<asrwt>0</asrwt>
<pdfrwt beam="1">  1        1 0.22014496E+00 0.43679111E+03</pdfrwt>
<pdfrwt beam="2">  1       -2 0.22228995E-01 0.43679111E+03</pdfrwt>
<totfact> 0.11983178E+02</totfact>
</mgrwt>
</event>
<event>
12    3  0.2212098E-007  0.1024889E+04  0.7818608E-02  0.9281661E-01
          1   -1    0    0  501    0  0.00000000000E+00  0.00000000000E+00  0.19154289259E+04  0.19154289259E+04  0.00000000000E+00 0. -1.
         -2   -1    0    0    0  501 -0.00000000000E+00 -0.00000000000E+00 -0.77682830293E+03  0.77682830293E+03  0.00000000000E+00 0.  1.
        -24    2    1    2    0    0 -0.46742030639E+03  0.83656509833E+03 -0.15504194301E+03  0.97416607442E+03  0.81477787629E+02 0.  0.
    5000000    2    1    2    0    0  0.46742030639E+03 -0.83656509833E+03  0.12936425660E+04  0.17180911544E+04  0.60000268313E+03 0.  0.
        -24    2    4    4    0    0  0.18747910696E+03  0.17930665553E+02  0.39287188543E+03  0.44274773132E+03  0.78786489437E+02 0.  0.
         24    2    4    4    0    0  0.27994119943E+03 -0.85449576389E+03  0.90077068055E+03  0.12753434231E+04  0.81135332786E+02 0.  0.
         11    1    3    3    0    0 -0.26823384393E+03  0.50488756704E+03 -0.53775572623E+02  0.57424094472E+03  0.00000000000E+00 0. -1.
        -12    1    3    3    0    0 -0.19918646245E+03  0.33167753129E+03 -0.10126637039E+03  0.39992512969E+03  0.00000000000E+00 0.  1.
         11    1    5    5    0    0  0.14548142521E+03  0.19718344744E+02  0.21752356725E+03  0.26243124911E+03  0.00000000000E+00 0. -1.
        -12    1    5    5    0    0  0.41997681749E+02 -0.17876791911E+01  0.17534831818E+03  0.18031648221E+03  0.00000000000E+00 0.  1.
          4    1    6    6  502    0  0.21480806612E+03 -0.74053005766E+03  0.75417046509E+03  0.10785640278E+04  0.00000000000E+00 0. -1.
         -3    1    6    6    0  502  0.65133133310E+02 -0.11396570623E+03  0.14660021546E+03  0.19677939532E+03  0.00000000000E+00 0.  1.
<mgrwt>
<rscale>  0 0.10248888E+04</rscale>
<asrwt>0</asrwt>
<pdfrwt beam="1">  1        1 0.29468137E+00 0.10248888E+04</pdfrwt>
<pdfrwt beam="2">  1       -2 0.11951205E+00 0.10248888E+04</pdfrwt>
<totfact> 0.16014937E+00</totfact>
</mgrwt>
</event>
<event>
12    3  0.2212098E-007  0.5627099E+03  0.7818608E-02  0.9985942E-01
          1   -1    0    0  501    0  0.00000000000E+00  0.00000000000E+00  0.85035709831E+03  0.85035709831E+03  0.00000000000E+00 0. -1.
         -2   -1    0    0    0  501 -0.00000000000E+00 -0.00000000000E+00 -0.59995234243E+03  0.59995234243E+03  0.00000000000E+00 0.  1.
        -24    2    1    2    0    0  0.39090174664E+03 -0.21266805268E+03 -0.28212972248E+03  0.53291387756E+03  0.79800654332E+02 0.  0.
    5000000    2    1    2    0    0 -0.39090174664E+03  0.21266805268E+03  0.53253447836E+03  0.91739556318E+03  0.59999147705E+03 0.  0.
        -24    2    4    4    0    0 -0.14756067502E+03  0.35504630395E+03  0.47954859601E+03  0.61978958839E+03  0.79625669142E+02 0.  0.
         24    2    4    4    0    0 -0.24334107162E+03 -0.14237825126E+03  0.52985882353E+02  0.29760597479E+03  0.79217226208E+02 0.  0.
         11    1    5    5    0    0 -0.71855404773E+02  0.21039876918E+03  0.33301779018E+03  0.40041439765E+03  0.00000000000E+00 0. -1.
        -12    1    5    5    0    0 -0.75705270243E+02  0.14464753476E+03  0.14653080583E+03  0.21937519074E+03  0.00000000000E+00 0.  1.
         11    1    3    3    0    0  0.18427148442E+03 -0.70494535322E+02 -0.89423736605E+02  0.21661501367E+03  0.00000000000E+00 0. -1.
        -12    1    3    3    0    0  0.20663026222E+03 -0.14217351736E+03 -0.19270598588E+03  0.31629886389E+03  0.00000000000E+00 0.  1.
          4    1    6    6  502    0 -0.12683782442E+03 -0.11682855745E+03  0.18409340250E+02  0.17342332412E+03  0.00000000000E+00 0. -1.
         -3    1    6    6    0  502 -0.11650324721E+03 -0.25549693811E+02  0.34576542103E+02  0.12418265067E+03  0.00000000000E+00 0.  1.
<mgrwt>
<rscale>  0 0.56270988E+03</rscale>
<asrwt>0</asrwt>
<pdfrwt beam="1">  1        1 0.13082417E+00 0.56270988E+03</pdfrwt>
<pdfrwt beam="2">  1       -2 0.92300360E-01 0.56270988E+03</pdfrwt>
<totfact> 0.18259127E+01</totfact>
</mgrwt>
</event>
<event>
12    3  0.2212098E-007  0.5795616E+03  0.7818608E-02  0.9948741E-01
          1   -1    0    0  501    0  0.00000000000E+00  0.00000000000E+00  0.12669598234E+04  0.12669598234E+04  0.00000000000E+00 0. -1.
         -2   -1    0    0    0  501 -0.00000000000E+00 -0.00000000000E+00 -0.62233204087E+03  0.62233204087E+03  0.00000000000E+00 0.  1.
        -24    2    1    2    0    0  0.23205054796E+03 -0.49692474653E+03 -0.31051076669E+03  0.63516008240E+03  0.78928660980E+02 0.  0.
    5000000    2    1    2    0    0 -0.23205054796E+03  0.49692474653E+03  0.95513854923E+03  0.12541317819E+04  0.59981265206E+03 0.  0.
        -24    2    4    4    0    0  0.15175864793E+02  0.25075474781E+03  0.34166043831E+02  0.26580212645E+03  0.79844858656E+02 0.  0.
         24    2    4    4    0    0 -0.24722641275E+03  0.24616999872E+03  0.92097250540E+03  0.98832965543E+03  0.82973397375E+02 0.  0.
         11    1    5    5    0    0 -0.87653630289E+01  0.57467155630E+02 -0.23466218686E+02  0.62689464702E+02  0.00000000000E+00 0. -1.
        -12    1    5    5    0    0  0.23941227822E+02  0.19328759217E+03  0.57632262517E+02  0.20311266175E+03  0.00000000000E+00 0.  1.
         13    1    3    3    0    0  0.68520850473E+02 -0.19736332924E+03 -0.82010646625E+02  0.22443960622E+03  0.00000000000E+00 0. -1.
        -14    1    3    3    0    0  0.16352969749E+03 -0.29956141729E+03 -0.22850012006E+03  0.41072047618E+03  0.00000000000E+00 0.  1.
          2    1    6    6  502    0 -0.12048821254E+03  0.71149833612E+02  0.42142625851E+03  0.44404932107E+03  0.00000000000E+00 0. -1.
         -1    1    6    6    0  502 -0.12673820021E+03  0.17502016511E+03  0.49954624689E+03  0.54428033436E+03  0.00000000000E+00 0.  1.
<mgrwt>
<rscale>  0 0.57956158E+03</rscale>
<asrwt>0</asrwt>
<pdfrwt beam="1">  1        1 0.19491689E+00 0.57956158E+03</pdfrwt>
<pdfrwt beam="2">  1       -2 0.95743391E-01 0.57956158E+03</pdfrwt>
<totfact> 0.80922039E+00</totfact>
</mgrwt>
</event>
<event>
12    3  0.2212098E-007  0.9879065E+03  0.7818608E-02  0.9321909E-01
          1   -1    0    0  501    0  0.00000000000E+00  0.00000000000E+00  0.17097648051E+04  0.17097648051E+04  0.00000000000E+00 0. -1.
         -2   -1    0    0    0  501 -0.00000000000E+00 -0.00000000000E+00 -0.88617869260E+03  0.88617869260E+03  0.00000000000E+00 0.  1.
        -24    2    1    2    0    0 -0.96789773261E+03 -0.79866938359E+02 -0.27396952066E+03  0.10123194274E+04  0.80787228457E+02 0.  0.
    5000000    2    1    2    0    0  0.96789773261E+03  0.79866938359E+02  0.10975556331E+04  0.15836240703E+04  0.60002673226E+03 0.  0.
        -24    2    4    4    0    0  0.60241002709E+03 -0.69014265647E+02  0.28197004754E+03  0.67414869974E+03  0.85490069893E+02 0.  0.
         24    2    4    4    0    0  0.36548770552E+03  0.14888120401E+03  0.81558558561E+03  0.90947537052E+03  0.78858901511E+02 0.  0.
         11    1    3    3    0    0 -0.44969638630E+03 -0.77087586548E+02 -0.13462769338E+03  0.47570363849E+03  0.00000000000E+00 0. -1.
        -12    1    3    3    0    0 -0.51820134631E+03 -0.27793518110E+01 -0.13934182728E+03  0.53661578894E+03  0.00000000000E+00 0.  1.
         13    1    5    5    0    0  0.29545145796E+03 -0.31949016744E+02  0.18525005502E+03  0.35018550308E+03  0.00000000000E+00 0. -1.
        -14    1    5    5    0    0  0.30695856912E+03 -0.37065248902E+02  0.96719992521E+02  0.32396319666E+03  0.00000000000E+00 0.  1.
          4    1    6    6  502    0  0.31353422274E+03  0.13378126849E+03  0.63183451414E+03  0.71792478010E+03  0.00000000000E+00 0. -1.
         -1    1    6    6    0  502  0.51953482781E+02  0.15099935520E+02  0.18375107146E+03  0.19155059042E+03  0.00000000000E+00 0.  1.
<mgrwt>
<rscale>  0 0.98790648E+03</rscale>
<asrwt>0</asrwt>
<pdfrwt beam="1">  1        1 0.26304074E+00 0.98790648E+03</pdfrwt>
<pdfrwt beam="2">  1       -2 0.13633518E+00 0.98790648E+03</pdfrwt>
<totfact> 0.15874957E+00</totfact>
</mgrwt>
</event>
<event>
12    3  0.2212098E-007  0.7236693E+03  0.7818608E-02  0.9677589E-01
          1   -1    0    0  501    0  0.00000000000E+00  0.00000000000E+00  0.72944013940E+03  0.72944013940E+03  0.00000000000E+00 0. -1.
         -2   -1    0    0    0  501 -0.00000000000E+00 -0.00000000000E+00 -0.99206592955E+03  0.99206592955E+03  0.00000000000E+00 0.  1.
        -24    2    1    2    0    0  0.65839647989E+03  0.26328014294E+03  0.10790671611E+03  0.72145365950E+03  0.77776378270E+02 0.  0.
    5000000    2    1    2    0    0 -0.65839647989E+03 -0.26328014294E+03 -0.37053250626E+03  0.10000524095E+04  0.60000677085E+03 0.  0.
        -24    2    4    4    0    0 -0.14527461660E+03 -0.43102034379E+02 -0.40016217833E+03  0.43536528055E+03  0.80315994342E+02 0.  0.
         24    2    4    4    0    0 -0.51312186329E+03 -0.22017810856E+03  0.29629672067E+02  0.56468712891E+03  0.78874520643E+02 0.  0.
         13    1    5    5    0    0 -0.81761576293E+02 -0.64743216252E+02 -0.23573874500E+03  0.25777780219E+03  0.00000000000E+00 0. -1.
        -14    1    5    5    0    0 -0.63513040306E+02  0.21641181873E+02 -0.16442343333E+03  0.17758747836E+03  0.00000000000E+00 0.  1.
         13    1    3    3    0    0  0.24943559398E+03  0.59830083196E+02  0.43117401484E+02  0.26010933222E+03  0.00000000000E+00 0. -1.
        -14    1    3    3    0    0  0.40896088592E+03  0.20345005974E+03  0.64789314630E+02  0.46134432727E+03  0.00000000000E+00 0.  1.
          2    1    6    6  502    0 -0.19620983044E+03 -0.12134081222E+03 -0.62760007672E+01  0.23078405157E+03  0.00000000000E+00 0. -1.
         -1    1    6    6    0  502 -0.31691203285E+03 -0.98837296337E+02  0.35905672834E+02  0.33390307734E+03  0.00000000000E+00 0.  1.
<mgrwt>
<rscale>  0 0.72366929E+03</rscale>
<asrwt>0</asrwt>
<pdfrwt beam="1">  1        1 0.11222156E+00 0.72366929E+03</pdfrwt>
<pdfrwt beam="2">  1       -2 0.15262553E+00 0.72366929E+03</pdfrwt>
<totfact> 0.65741081E+00</totfact>
</mgrwt>
</event>
<event>
12    3  0.2212098E-007  0.7927879E+03  0.7818608E-02  0.9570515E-01
          1   -1    0    0  501    0  0.00000000000E+00  0.00000000000E+00  0.12252551203E+04  0.12252551203E+04  0.00000000000E+00 0. -1.
         -2   -1    0    0    0  501 -0.00000000000E+00 -0.00000000000E+00 -0.76178825106E+03  0.76178825106E+03  0.00000000000E+00 0.  1.
        -24    2    1    2    0    0  0.39273440471E+03  0.68276951918E+03 -0.17241653797E+03  0.81024836584E+03  0.79752259031E+02 0.  0.
    5000000    2    1    2    0    0 -0.39273440471E+03 -0.68276951918E+03  0.63588340725E+03  0.11767950056E+04  0.60007020303E+03 0.  0.
        -24    2    4    4    0    0 -0.29885875633E+03 -0.49021116009E+03  0.92191224098E+02  0.58687722215E+03  0.79385857474E+02 0.  0.
         24    2    4    4    0    0 -0.93875648377E+02 -0.19255835909E+03  0.54369218316E+03  0.58991778342E+03  0.80687311026E+02 0.  0.
         11    1    3    3    0    0  0.32446779408E+03  0.50441753457E+03 -0.11361491108E+03  0.61042996863E+03  0.00000000000E+00 0. -1.
        -12    1    3    3    0    0  0.68266610630E+02  0.17835198460E+03 -0.58801626897E+02  0.19981839721E+03  0.00000000000E+00 0.  1.
         13    1    5    5    0    0 -0.68018841067E+02 -0.16847220427E+03  0.69215931416E+01  0.18181681661E+03  0.00000000000E+00 0. -1.
        -14    1    5    5    0    0 -0.23083991526E+03 -0.32173895582E+03  0.85269630957E+02  0.40506040554E+03  0.00000000000E+00 0.  1.
          2    1    6    6  502    0  0.24803747680E+01 -0.14540670463E+02  0.11380537440E+03  0.11475733789E+03  0.00000000000E+00 0. -1.
         -3    1    6    6    0  502 -0.96356023145E+02 -0.17801768863E+03  0.42988680876E+03  0.47516044554E+03  0.00000000000E+00 0.  1.
<mgrwt>
<rscale>  0 0.79278791E+03</rscale>
<asrwt>0</asrwt>
<pdfrwt beam="1">  1        1 0.18850079E+00 0.79278791E+03</pdfrwt>
<pdfrwt beam="2">  1       -2 0.11719819E+00 0.79278791E+03</pdfrwt>
<totfact> 0.51693063E+00</totfact>
</mgrwt>
</event>
<event>
12    3  0.2212098E-007  0.1012637E+04  0.7818608E-02  0.9294792E-01
         -2   -1    0    0    0  501 -0.00000000000E+00  0.00000000000E+00  0.42045215641E+03  0.42045215641E+03  0.00000000000E+00 0.  1.
          1   -1    0    0  501    0  0.00000000000E+00 -0.00000000000E+00 -0.29826949556E+04  0.29826949556E+04  0.00000000000E+00 0. -1.
        -24    2    1    2    0    0 -0.99709090943E+03 -0.73418222576E+02 -0.76759058417E+03  0.12629941591E+04  0.79865035172E+02 0.  0.
    5000000    2    1    2    0    0  0.99709090943E+03  0.73418222576E+02 -0.17946522151E+04  0.21401529530E+04  0.59991463730E+03 0.  0.
        -24    2    4    4    0    0  0.15459438494E+03  0.75039222280E+02 -0.42736016513E+02  0.19454526350E+03  0.80567882618E+02 0.  0.
         24    2    4    4    0    0  0.84249652450E+03 -0.16209997041E+01 -0.17519161985E+04  0.19456076895E+04  0.79849190313E+02 0.  0.
         11    1    5    5    0    0  0.73601374383E+02  0.61963130769E+02  0.10442330350E+02  0.96776206523E+02  0.00000000000E+00 0. -1.
        -12    1    5    5    0    0  0.80993010555E+02  0.13076091511E+02 -0.53178346862E+02  0.97769056981E+02  0.00000000000E+00 0.  1.
         11    1    3    3    0    0 -0.48511470890E+03 -0.68899464503E+02 -0.40350700745E+03  0.63474508431E+03  0.00000000000E+00 0. -1.
        -12    1    3    3    0    0 -0.51197620053E+03 -0.45187580727E+01 -0.36408357672E+03  0.62824907475E+03  0.00000000000E+00 0.  1.
          2    1    6    6  502    0  0.38695543031E+03 -0.33394340870E+02 -0.85771425362E+03  0.94155373076E+03  0.00000000000E+00 0. -1.
         -1    1    6    6    0  502  0.45554109419E+03  0.31773341166E+02 -0.89420194492E+03  0.10040539587E+04  0.00000000000E+00 0.  1.
<mgrwt>
<rscale>  0 0.10126369E+04</rscale>
<asrwt>0</asrwt>
<pdfrwt beam="1">  1        1 0.45887615E+00 0.10126369E+04</pdfrwt>
<pdfrwt beam="2">  1       -2 0.64684947E-01 0.10126369E+04</pdfrwt>
<totfact> 0.12192997E+00</totfact>
</mgrwt>
</event>
<event>
12    3  0.2212098E-007  0.1010420E+04  0.7818608E-02  0.9297190E-01
         -2   -1    0    0    0  501 -0.00000000000E+00  0.00000000000E+00  0.77506226163E+03  0.77506226163E+03  0.00000000000E+00 0.  1.
          1   -1    0    0  501    0  0.00000000000E+00 -0.00000000000E+00 -0.14768756392E+04  0.14768756392E+04  0.00000000000E+00 0. -1.
        -24    2    1    2    0    0 -0.81192149739E+03 -0.54891837244E+03 -0.41505341634E+03  0.10674785244E+04  0.81933900496E+02 0.  0.
    5000000    2    1    2    0    0  0.81192149739E+03  0.54891837244E+03 -0.28675996124E+03  0.11844593765E+04  0.60015401490E+03 0.  0.
        -24    2    4    4    0    0  0.28364047818E+02 -0.95038503502E+01 -0.19707489156E+03  0.21481268306E+03  0.80069554386E+02 0.  0.
         24    2    4    4    0    0  0.78355744958E+03  0.55842222279E+03 -0.89685069680E+02  0.96964669341E+03  0.79835096467E+02 0.  0.
         11    1    3    3    0    0 -0.27894543009E+03 -0.19425236332E+03 -0.10234684410E+03  0.35499212684E+03  0.00000000000E+00 0. -1.
        -12    1    3    3    0    0 -0.53297606730E+03 -0.35466600912E+03 -0.31270657224E+03  0.71248639753E+03  0.00000000000E+00 0.  1.
         11    1    5    5    0    0  0.30613499746E+02  0.26161275770E+02 -0.54114760525E+02  0.67453732464E+02  0.00000000000E+00 0. -1.
        -12    1    5    5    0    0 -0.22494519283E+01 -0.35665126120E+02 -0.14296013103E+03  0.14735895059E+03  0.00000000000E+00 0.  1.
          2    1    6    6  502    0  0.68519860037E+03  0.51521753162E+03 -0.91841472538E+02  0.86219550157E+03  0.00000000000E+00 0. -1.
         -1    1    6    6    0  502  0.98358849201E+02  0.43204691164E+02  0.21564028575E+01  0.10745119184E+03  0.00000000000E+00 0.  1.
<mgrwt>
<rscale>  0 0.10104198E+04</rscale>
<asrwt>0</asrwt>
<pdfrwt beam="1">  1        1 0.22721164E+00 0.10104198E+04</pdfrwt>
<pdfrwt beam="2">  1       -2 0.11924035E+00 0.10104198E+04</pdfrwt>
<totfact> 0.32065475E+00</totfact>
</mgrwt>
</event>
<event>
12    3  0.2212098E-007  0.3764598E+03  0.7818608E-02  0.1052250E+00
          1   -1    0    0  501    0  0.00000000000E+00  0.00000000000E+00  0.33584522588E+03  0.33584522588E+03  0.00000000000E+00 0. -1.
         -2   -1    0    0    0  501 -0.00000000000E+00 -0.00000000000E+00 -0.66177241176E+03  0.66177241176E+03  0.00000000000E+00 0.  1.
        -24    2    1    2    0    0  0.13701946386E+02  0.18484376009E+03 -0.30891038998E+03  0.36961808994E+03  0.82685817363E+02 0.  0.
    5000000    2    1    2    0    0 -0.13701946386E+02 -0.18484376009E+03 -0.17016795892E+02  0.62799954770E+03  0.59978237852E+03 0.  0.
        -24    2    4    4    0    0  0.28990621672E+02  0.17790699672E+03 -0.13038188625E+03  0.23636477296E+03  0.79859338889E+02 0.  0.
         24    2    4    4    0    0 -0.42692568058E+02 -0.36275075681E+03  0.11336509035E+03  0.39163477474E+03  0.84352748254E+02 0.  0.
         11    1    3    3    0    0  0.46500413178E+02  0.74523527173E+02 -0.13655401052E+03  0.16236699885E+03  0.00000000000E+00 0. -1.
        -12    1    3    3    0    0 -0.32798466791E+02  0.11032023292E+03 -0.17235637946E+03  0.20725109109E+03  0.00000000000E+00 0.  1.
         13    1    5    5    0    0 -0.39616184251E+01  0.10612277740E+02 -0.43589023888E+02  0.45036850055E+02  0.00000000000E+00 0. -1.
        -14    1    5    5    0    0  0.32952240097E+02  0.16729471898E+03 -0.86792862357E+02  0.19132792290E+03  0.00000000000E+00 0.  1.
          2    1    6    6  502    0 -0.29398457862E+02 -0.82467714144E+02  0.59653683771E+02  0.10594222571E+03  0.00000000000E+00 0. -1.
         -1    1    6    6    0  502 -0.13294110196E+02 -0.28028304267E+03  0.53711406583E+02  0.28569254903E+03  0.00000000000E+00 0.  1.
<mgrwt>
<rscale>  0 0.37645978E+03</rscale>
<asrwt>0</asrwt>
<pdfrwt beam="1">  1        1 0.51668496E-01 0.37645978E+03</pdfrwt>
<pdfrwt beam="2">  1       -2 0.10181114E+00 0.37645978E+03</pdfrwt>
<totfact> 0.54687488E+01</totfact>
</mgrwt>
</event>
<event>
12    3  0.2212098E-007  0.8216892E+03  0.7818608E-02  0.9529143E-01
         -2   -1    0    0    0  501 -0.00000000000E+00  0.00000000000E+00  0.37201275897E+03  0.37201275897E+03  0.00000000000E+00 0.  1.
          1   -1    0    0  501    0  0.00000000000E+00 -0.00000000000E+00 -0.23837120339E+04  0.23837120339E+04  0.00000000000E+00 0. -1.
        -24    2    1    2    0    0  0.59917112448E+03 -0.49963791223E+03 -0.43191354270E+03  0.89445755745E+03  0.69720398491E+02 0.  0.
    5000000    2    1    2    0    0 -0.59917112448E+03  0.49963791223E+03 -0.15797857323E+04  0.18612672355E+04  0.59995723359E+03 0.  0.
        -24    2    4    4    0    0 -0.19582572000E+02  0.17271967686E+03 -0.61439291111E+02  0.20156224746E+03  0.81467718806E+02 0.  0.
         24    2    4    4    0    0 -0.57958855248E+03  0.32691823537E+03 -0.15183464412E+04  0.16597049880E+04  0.80288909698E+02 0.  0.
         11    1    3    3    0    0  0.23057333941E+03 -0.22916123751E+03 -0.20177465067E+03  0.38261200618E+03  0.00000000000E+00 0. -1.
        -12    1    3    3    0    0  0.36859778507E+03 -0.27047667471E+03 -0.23013889203E+03  0.51184555127E+03  0.00000000000E+00 0.  1.
         11    1    5    5    0    0  0.30433424944E+02  0.89990812027E+02 -0.36080360420E+02  0.10161856135E+03  0.00000000000E+00 0. -1.
        -12    1    5    5    0    0 -0.50015996944E+02  0.82728864830E+02 -0.25358930690E+02  0.99943686104E+02  0.00000000000E+00 0.  1.
          2    1    6    6  502    0 -0.12450478868E+03  0.37148198466E+02 -0.26331479756E+03  0.29362580552E+03  0.00000000000E+00 0. -1.
         -1    1    6    6    0  502 -0.45508376380E+03  0.28977003691E+03 -0.12550316436E+04  0.13660791825E+04  0.00000000000E+00 0.  1.
<mgrwt>
<rscale>  0 0.82168919E+03</rscale>
<asrwt>0</asrwt>
<pdfrwt beam="1">  1        1 0.36672493E+00 0.82168919E+03</pdfrwt>
<pdfrwt beam="2">  1       -2 0.57232732E-01 0.82168919E+03</pdfrwt>
<totfact> 0.42594643E+00</totfact>
</mgrwt>
</event>
<event>
12    3  0.2212098E-007  0.7999083E+03  0.7818608E-02  0.9560150E-01
          1   -1    0    0  501    0  0.00000000000E+00  0.00000000000E+00  0.19093997502E+04  0.19093997502E+04  0.00000000000E+00 0. -1.
         -2   -1    0    0    0  501 -0.00000000000E+00 -0.00000000000E+00 -0.38703765148E+03  0.38703765148E+03  0.00000000000E+00 0.  1.
        -24    2    1    2    0    0 -0.66657109468E+03  0.33787078881E+03  0.78965368485E+03  0.10901373076E+04  0.79829275985E+02 0.  0.
    5000000    2    1    2    0    0  0.66657109468E+03 -0.33787078881E+03  0.73270841385E+03  0.12063000940E+04  0.59985381797E+03 0.  0.
        -24    2    4    4    0    0  0.68217896968E+03 -0.36553415409E+03  0.78645702510E+03  0.11061915931E+04  0.78497284949E+02 0.  0.
         24    2    4    4    0    0 -0.15607875003E+02  0.27663365278E+02 -0.53748611257E+02  0.10010850096E+03  0.78255550683E+02 0.  0.
         13    1    5    5    0    0  0.14434901312E+03 -0.44546085381E+02  0.13728089014E+03  0.20412504527E+03  0.00000000000E+00 0. -1.
        -14    1    5    5    0    0  0.53782995657E+03 -0.32098806871E+03  0.64917613496E+03  0.90206654779E+03  0.00000000000E+00 0.  1.
         13    1    3    3    0    0 -0.20029104010E+03  0.14326055422E+03  0.25298231386E+03  0.35304410244E+03  0.00000000000E+00 0. -1.
        -14    1    3    3    0    0 -0.46628005458E+03  0.19461023459E+03  0.53667137099E+03  0.73709320519E+03  0.00000000000E+00 0.  1.
          2    1    6    6  502    0  0.16270520238E+02  0.34638133284E+02 -0.55516030410E+02  0.67428182081E+02  0.00000000000E+00 0. -1.
         -1    1    6    6    0  502 -0.31878395241E+02 -0.69747680063E+01  0.17674191534E+01  0.32680318883E+02  0.00000000000E+00 0.  1.
<mgrwt>
<rscale>  0 0.79990828E+03</rscale>
<asrwt>0</asrwt>
<pdfrwt beam="1">  1        1 0.29375380E+00 0.79990828E+03</pdfrwt>
<pdfrwt beam="2">  1       -2 0.59544255E-01 0.79990828E+03</pdfrwt>
<totfact> 0.81948008E+00</totfact>
</mgrwt>
</event>
<event>
12    3  0.2212098E-007  0.9604482E+03  0.7818608E-02  0.9353021E-01
          3   -1    0    0  501    0  0.00000000000E+00  0.00000000000E+00  0.18924757442E+04  0.18924757442E+04  0.00000000000E+00 0. -1.
         -4   -1    0    0    0  501 -0.00000000000E+00 -0.00000000000E+00 -0.65976993176E+03  0.65976993176E+03  0.00000000000E+00 0.  1.
        -24    2    1    2    0    0 -0.93318933430E+03 -0.18716399510E+03  0.10757520359E+03  0.96110561840E+03  0.79239450856E+02 0.  0.
    5000000    2    1    2    0    0  0.93318933430E+03  0.18716399510E+03  0.11251306089E+04  0.15911400576E+04  0.59994591519E+03 0.  0.
        -24    2    4    4    0    0  0.12181312736E+03  0.60067837483E+02  0.58293515874E+03  0.60379220846E+03  0.79404336185E+02 0.  0.
         24    2    4    4    0    0  0.81137620694E+03  0.12709615762E+03  0.54219545014E+03  0.98734784914E+03  0.79969285213E+02 0.  0.
         11    1    5    5    0    0  0.97685206499E+02  0.23035213824E+02  0.49834241951E+03  0.50834849043E+03  0.00000000000E+00 0. -1.
        -12    1    5    5    0    0  0.24127920859E+02  0.37032623658E+02  0.84592739235E+02  0.95443718029E+02  0.00000000000E+00 0.  1.
         13    1    3    3    0    0 -0.52508204303E+03 -0.82538733001E+02  0.92592177685E+02  0.53953415622E+03  0.00000000000E+00 0. -1.
        -14    1    3    3    0    0 -0.40810729127E+03 -0.10462526210E+03  0.14983025903E+02  0.42157146218E+03  0.00000000000E+00 0.  1.
          2    1    6    6  502    0  0.33603687688E+03  0.22517001020E+02  0.19119810726E+03  0.38727834200E+03  0.00000000000E+00 0. -1.
         -1    1    6    6    0  502  0.47533933006E+03  0.10457915660E+03  0.35099734287E+03  0.60006950714E+03  0.00000000000E+00 0.  1.
<mgrwt>
<rscale>  0 0.96044825E+03</rscale>
<asrwt>0</asrwt>
<pdfrwt beam="1">  1        3 0.29115011E+00 0.96044825E+03</pdfrwt>
<pdfrwt beam="2">  1       -4 0.10150307E+00 0.96044825E+03</pdfrwt>
<totfact> 0.77200622E-02</totfact>
</mgrwt>
</event>
<event>
12    3  0.2212098E-007  0.5629265E+03  0.7818608E-02  0.9985455E-01
          1   -1    0    0  501    0  0.00000000000E+00  0.00000000000E+00  0.47685645591E+03  0.47685645591E+03  0.00000000000E+00 0. -1.
         -2   -1    0    0    0  501 -0.00000000000E+00 -0.00000000000E+00 -0.69977650092E+03  0.69977650092E+03  0.00000000000E+00 0.  1.
        -24    2    1    2    0    0 -0.33597360042E+03 -0.24441848996E+03 -0.44221034712E+02  0.42532963247E+03  0.79568448117E+02 0.  0.
    5000000    2    1    2    0    0  0.33597360042E+03  0.24441848996E+03 -0.17869901030E+03  0.75130332436E+03  0.59992057016E+03 0.  0.
        -24    2    4    4    0    0 -0.16072287028E+03  0.35945258055E+02 -0.17850130542E+02  0.18386415783E+03  0.79771541093E+02 0.  0.
         24    2    4    4    0    0  0.49669647069E+03  0.20847323191E+03 -0.16084887976E+03  0.56743916653E+03  0.77112730284E+02 0.  0.
         11    1    3    3    0    0 -0.13440999236E+03 -0.14047463003E+03 -0.40062245422E+02  0.19850478895E+03  0.00000000000E+00 0. -1.
        -12    1    3    3    0    0 -0.20156360805E+03 -0.10394385993E+03 -0.41587892903E+01  0.22682484352E+03  0.00000000000E+00 0.  1.
         13    1    5    5    0    0 -0.34632947084E+02 -0.75321504892E+00  0.28235278735E+02  0.44690483572E+02  0.00000000000E+00 0. -1.
        -14    1    5    5    0    0 -0.12608992319E+03  0.36698473104E+02 -0.46085409277E+02  0.13917367426E+03  0.00000000000E+00 0.  1.
          2    1    6    6  502    0  0.15453726957E+03  0.66528725476E+02 -0.13550940694E+02  0.16879415568E+03  0.00000000000E+00 0. -1.
         -1    1    6    6    0  502  0.34215920112E+03  0.14194450643E+03 -0.14729793906E+03  0.39864501085E+03  0.00000000000E+00 0.  1.
<mgrwt>
<rscale>  0 0.56292647E+03</rscale>
<asrwt>0</asrwt>
<pdfrwt beam="1">  1        1 0.73362532E-01 0.56292647E+03</pdfrwt>
<pdfrwt beam="2">  1       -2 0.10765792E+00 0.56292647E+03</pdfrwt>
<totfact> 0.29633637E+01</totfact>
</mgrwt>
</event>
<event>
12    3  0.2212098E-007  0.1703061E+04  0.7818608E-02  0.8759621E-01
         -2   -1    0    0    0  501 -0.00000000000E+00  0.00000000000E+00  0.22869407680E+04  0.22869407680E+04  0.00000000000E+00 0.  1.
          1   -1    0    0  501    0  0.00000000000E+00 -0.00000000000E+00 -0.13627069007E+04  0.13627069007E+04  0.00000000000E+00 0. -1.
        -24    2    1    2    0    0  0.25904026662E+03  0.16800971864E+04  0.67250492914E+03  0.18294390734E+04  0.68963961862E+02 0.  0.
    5000000    2    1    2    0    0 -0.25904026662E+03 -0.16800971864E+04  0.25172893812E+03  0.18202085954E+04  0.59996954665E+03 0.  0.
        -24    2    4    4    0    0 -0.69430008798E+02 -0.74167173831E+03  0.39834661751E+03  0.84840132392E+03  0.78786326306E+02 0.  0.
         24    2    4    4    0    0 -0.18961025782E+03 -0.93842544808E+03 -0.14661767939E+03  0.97180727144E+03  0.79487467288E+02 0.  0.
         11    1    3    3    0    0  0.79800810503E+02  0.65111587087E+03  0.23080175264E+03  0.69540599341E+03  0.00000000000E+00 0. -1.
        -12    1    3    3    0    0  0.17923945611E+03  0.10289813155E+04  0.44170317651E+03  0.11340330800E+04  0.00000000000E+00 0.  1.
         13    1    5    5    0    0  0.10231260829E+01 -0.27165879359E+03  0.17606035925E+03  0.32372333406E+03  0.00000000000E+00 0. -1.
        -14    1    5    5    0    0 -0.70453134881E+02 -0.47001294473E+03  0.22228625826E+03  0.52467798986E+03  0.00000000000E+00 0.  1.
          4    1    6    6  502    0 -0.13103635901E+02 -0.16052840255E+03 -0.48005643448E+02  0.16806431835E+03  0.00000000000E+00 0. -1.
         -3    1    6    6    0  502 -0.17650662192E+03 -0.77789704552E+03 -0.98612035941E+02  0.80374295309E+03  0.00000000000E+00 0.  1.
<mgrwt>
<rscale>  0 0.17030605E+04</rscale>
<asrwt>0</asrwt>
<pdfrwt beam="1">  1        1 0.20964722E+00 0.17030605E+04</pdfrwt>
<pdfrwt beam="2">  1       -2 0.35183704E+00 0.17030605E+04</pdfrwt>
<totfact> 0.10020323E-01</totfact>
</mgrwt>
</event>
<event>
12    3  0.2212098E-007  0.7056100E+03  0.7818608E-02  0.9707686E-01
         -2   -1    0    0    0  501 -0.00000000000E+00  0.00000000000E+00  0.16179978264E+03  0.16179978264E+03  0.00000000000E+00 0.  1.
          1   -1    0    0  501    0  0.00000000000E+00 -0.00000000000E+00 -0.39739741673E+04  0.39739741673E+04  0.00000000000E+00 0. -1.
        -24    2    1    2    0    0 -0.24803433494E+03  0.52975444382E+03 -0.71347419448E+03  0.92578950026E+03  0.76680966047E+02 0.  0.
    5000000    2    1    2    0    0  0.24803433494E+03 -0.52975444382E+03 -0.30987001901E+04  0.32099844496E+04  0.59991374091E+03 0.  0.
        -24    2    4    4    0    0  0.36088401085E+03 -0.97750395215E+02 -0.13850911171E+04  0.14369086581E+04  0.80228923588E+02 0.  0.
         24    2    4    4    0    0 -0.11284967591E+03 -0.43200404860E+03 -0.17136090731E+04  0.17730757915E+04  0.89326142718E+02 0.  0.
         11    1    3    3    0    0 -0.95048825574E+02  0.15025131289E+03 -0.26026914602E+03  0.31519797690E+03  0.00000000000E+00 0. -1.
        -12    1    3    3    0    0 -0.15298550937E+03  0.37950313093E+03 -0.45320504845E+03  0.61059152336E+03  0.00000000000E+00 0.  1.
         13    1    5    5    0    0  0.26048265941E+03 -0.94550276487E+02 -0.11094458149E+04  0.11435300550E+04  0.00000000000E+00 0. -1.
        -14    1    5    5    0    0  0.10040135144E+03 -0.32001187279E+01 -0.27564530221E+03  0.29337860310E+03  0.00000000000E+00 0.  1.
          4    1    6    6  502    0 -0.27173818768E+02 -0.83763426796E+02 -0.21896100313E+03  0.23600561219E+03  0.00000000000E+00 0. -1.
         -3    1    6    6    0  502 -0.85675857144E+02 -0.34824062181E+03 -0.14946480699E+04  0.15370701793E+04  0.00000000000E+00 0.  1.
<mgrwt>
<rscale>  0 0.70561003E+03</rscale>
<asrwt>0</asrwt>
<pdfrwt beam="1">  1        1 0.61138058E+00 0.70561003E+03</pdfrwt>
<pdfrwt beam="2">  1       -2 0.24892277E-01 0.70561003E+03</pdfrwt>
<totfact> 0.14257943E+00</totfact>
</mgrwt>
</event>
<event>
12    3  0.2212098E-007  0.5868330E+03  0.7818608E-02  0.9933106E-01
          1   -1    0    0  501    0  0.00000000000E+00  0.00000000000E+00  0.11510020048E+04  0.11510020048E+04  0.00000000000E+00 0. -1.
         -2   -1    0    0    0  501 -0.00000000000E+00 -0.00000000000E+00 -0.35056044249E+03  0.35056044249E+03  0.00000000000E+00 0.  1.
        -24    2    1    2    0    0 -0.35512730759E+03 -0.27217685334E+03  0.77945849304E+02  0.46144375502E+03  0.81603550994E+02 0.  0.
    5000000    2    1    2    0    0  0.35512730759E+03  0.27217685334E+03  0.72249571304E+03  0.10401186923E+04  0.59970925839E+03 0.  0.
        -24    2    4    4    0    0 -0.66883605729E+02  0.29140878278E+03  0.21805929208E+03  0.37822976142E+03  0.78201036825E+02 0.  0.
         24    2    4    4    0    0  0.42201091332E+03 -0.19231929441E+02  0.50443642096E+03  0.66188893088E+03  0.71956764462E+02 0.  0.
         11    1    5    5    0    0 -0.21940345029E+02  0.13153707140E+03  0.14440301796E+03  0.19655943500E+03  0.00000000000E+00 0. -1.
        -12    1    5    5    0    0 -0.44943260700E+02  0.15987171138E+03  0.73656274124E+02  0.18167032642E+03  0.00000000000E+00 0.  1.
         11    1    3    3    0    0 -0.31514096057E+03 -0.21367709603E+03  0.85342717116E+02  0.39019880287E+03  0.00000000000E+00 0. -1.
        -12    1    3    3    0    0 -0.39986347017E+02 -0.58499757316E+02 -0.73968678112E+01  0.71244952152E+02  0.00000000000E+00 0.  1.
          4    1    6    6  502    0  0.25274415126E+03 -0.54232150823E+01  0.35408099151E+03  0.43506593271E+03  0.00000000000E+00 0. -1.
         -3    1    6    6    0  502  0.16926676206E+03 -0.13808714359E+02  0.15035542945E+03  0.22682299816E+03  0.00000000000E+00 0.  1.
<mgrwt>
<rscale>  0 0.58683303E+03</rscale>
<asrwt>0</asrwt>
<pdfrwt beam="1">  1        1 0.17707723E+00 0.58683303E+03</pdfrwt>
<pdfrwt beam="2">  1       -2 0.53932376E-01 0.58683303E+03</pdfrwt>
<totfact> 0.34405716E+01</totfact>
</mgrwt>
</event>
<event>
12    3  0.2212098E-007  0.3807120E+03  0.7818608E-02  0.1050671E+00
         -2   -1    0    0    0  501 -0.00000000000E+00  0.00000000000E+00  0.51372775266E+03  0.51372775266E+03  0.00000000000E+00 0.  1.
          1   -1    0    0  501    0  0.00000000000E+00 -0.00000000000E+00 -0.49607544602E+03  0.49607544602E+03  0.00000000000E+00 0. -1.
        -24    2    1    2    0    0 -0.21597359903E+03 -0.11951531368E+02  0.24227032726E+03  0.33359911079E+03  0.76197248409E+02 0.  0.
    5000000    2    1    2    0    0  0.21597359903E+03  0.11951531368E+02 -0.22461802062E+03  0.67620408790E+03  0.60000939886E+03 0.  0.
        -24    2    4    4    0    0  0.27655920053E+03 -0.16665913239E+03  0.46922859376E+02  0.33575810629E+03  0.79192761016E+02 0.  0.
         24    2    4    4    0    0 -0.60585601499E+02  0.17861066376E+03 -0.27154087999E+03  0.34044598161E+03  0.81219656292E+02 0.  0.
         13    1    3    3    0    0 -0.11177252640E+03 -0.44283999219E+02  0.12589868831E+03  0.17408230802E+03  0.00000000000E+00 0. -1.
        -14    1    3    3    0    0 -0.10420107263E+03  0.32332467851E+02  0.11637163895E+03  0.15951680277E+03  0.00000000000E+00 0.  1.
         13    1    5    5    0    0  0.22349518111E+03 -0.16569005117E+03  0.49672965468E+02  0.28261403457E+03  0.00000000000E+00 0. -1.
        -14    1    5    5    0    0  0.53064019418E+02 -0.96908122347E+00 -0.27501060926E+01  0.53144071718E+02  0.00000000000E+00 0.  1.
          4    1    6    6  502    0  0.33211412364E+01  0.97457010658E+02 -0.16762059189E+03  0.19392153499E+03  0.00000000000E+00 0. -1.
         -3    1    6    6    0  502 -0.63906742735E+02  0.81153653104E+02 -0.10392028810E+03  0.14652444662E+03  0.00000000000E+00 0.  1.
<mgrwt>
<rscale>  0 0.38071203E+03</rscale>
<asrwt>0</asrwt>
<pdfrwt beam="1">  1        1 0.76319300E-01 0.38071203E+03</pdfrwt>
<pdfrwt beam="2">  1       -2 0.79035039E-01 0.38071203E+03</pdfrwt>
<totfact> 0.58503938E+01</totfact>
</mgrwt>
</event>
<event>
12    3  0.2212098E-007  0.9247834E+03  0.7818608E-02  0.9395120E-01
         -2   -1    0    0    0  501 -0.00000000000E+00  0.00000000000E+00  0.56564986023E+03  0.56564986023E+03  0.00000000000E+00 0.  1.
          1   -1    0    0  501    0  0.00000000000E+00 -0.00000000000E+00 -0.24598453811E+04  0.24598453811E+04  0.00000000000E+00 0. -1.
        -24    2    1    2    0    0 -0.25542533187E+02 -0.86215245233E+03 -0.17661388061E+04  0.19671607090E+04  0.80719889069E+02 0.  0.
    5000000    2    1    2    0    0  0.25542533187E+02  0.86215245233E+03 -0.12805671483E+03  0.10583345324E+04  0.59976177623E+03 0.  0.
        -24    2    4    4    0    0 -0.20380716351E+03  0.22566361815E+03  0.11636844694E+03  0.33477453709E+03  0.77916280632E+02 0.  0.
         24    2    4    4    0    0  0.22934969670E+03  0.63648883418E+03 -0.24442516177E+03  0.72355999532E+03  0.77949263679E+02 0.  0.
         11    1    5    5    0    0 -0.80509175167E+02  0.94012565818E+02  0.72997934380E+01  0.12398942214E+03  0.00000000000E+00 0. -1.
        -12    1    5    5    0    0 -0.12329798835E+03  0.13165105233E+03  0.10906865350E+03  0.21078511496E+03  0.00000000000E+00 0.  1.
         11    1    3    3    0    0  0.15489247833E+02 -0.46463070454E+03 -0.10122392469E+04  0.11138895373E+04  0.00000000000E+00 0. -1.
        -12    1    3    3    0    0 -0.41031781020E+02 -0.39752174778E+03 -0.75389955923E+03  0.85327117168E+03  0.00000000000E+00 0.  1.
          4    1    6    6  502    0  0.93218702671E+02  0.15829374284E+03 -0.72201457019E+02  0.19738208111E+03  0.00000000000E+00 0. -1.
         -3    1    6    6    0  502  0.13613099403E+03  0.47819509134E+03 -0.17222370475E+03  0.52617791420E+03  0.00000000000E+00 0.  1.
<mgrwt>
<rscale>  0 0.92478338E+03</rscale>
<asrwt>0</asrwt>
<pdfrwt beam="1">  1        1 0.37843775E+00 0.92478338E+03</pdfrwt>
<pdfrwt beam="2">  1       -2 0.87023055E-01 0.92478338E+03</pdfrwt>
<totfact> 0.14840469E+00</totfact>
</mgrwt>
</event>
<event>
12    3  0.2212098E-007  0.4572616E+03  0.7818608E-02  0.1025578E+00
         -2   -1    0    0    0  501 -0.00000000000E+00  0.00000000000E+00  0.20645244127E+03  0.20645244127E+03  0.00000000000E+00 0.  1.
          1   -1    0    0  501    0  0.00000000000E+00 -0.00000000000E+00 -0.19305812737E+04  0.19305812737E+04  0.00000000000E+00 0. -1.
        -24    2    1    2    0    0 -0.16477958971E+03  0.22356481126E+03 -0.13443449777E+04  0.13745949450E+04  0.71514373325E+02 0.  0.
    5000000    2    1    2    0    0  0.16477958971E+03 -0.22356481126E+03 -0.37978385469E+03  0.76243876999E+03  0.59995296789E+03 0.  0.
        -24    2    4    4    0    0  0.34919179542E+03 -0.15335717523E+02 -0.13473262249E+03  0.38335210519E+03  0.81460805102E+02 0.  0.
         24    2    4    4    0    0 -0.18441220571E+03 -0.20822909373E+03 -0.24505123220E+03  0.37908666480E+03  0.79305585758E+02 0.  0.
         11    1    3    3    0    0 -0.41472047534E+02  0.47369441906E+02 -0.46960882681E+03  0.47381034705E+03  0.00000000000E+00 0. -1.
        -12    1    3    3    0    0 -0.12330754218E+03  0.17619536935E+03 -0.87473615094E+03  0.90078459794E+03  0.00000000000E+00 0.  1.
         11    1    5    5    0    0  0.30052168015E+03 -0.16206408375E+02 -0.14426621107E+03  0.33374940834E+03  0.00000000000E+00 0. -1.
        -12    1    5    5    0    0  0.48670115276E+02  0.87069085169E+00  0.95335885803E+01  0.49602696850E+02  0.00000000000E+00 0.  1.
          4    1    6    6  502    0 -0.93673199995E+02 -0.54538819303E+02 -0.11653950636E+03  0.15915592277E+03  0.00000000000E+00 0. -1.
         -3    1    6    6    0  502 -0.90739005717E+02 -0.15369027443E+03 -0.12851172583E+03  0.21993074203E+03  0.00000000000E+00 0.  1.
<mgrwt>
<rscale>  0 0.45726159E+03</rscale>
<asrwt>0</asrwt>
<pdfrwt beam="1">  1        1 0.29701251E+00 0.45726159E+03</pdfrwt>
<pdfrwt beam="2">  1       -2 0.31761913E-01 0.45726159E+03</pdfrwt>
<totfact> 0.29131966E+01</totfact>
</mgrwt>
</event>
<event>
12    3  0.2212098E-007  0.1122515E+04  0.7818608E-02  0.9183521E-01
          1   -1    0    0  501    0  0.00000000000E+00  0.00000000000E+00  0.31041250159E+04  0.31041250159E+04  0.00000000000E+00 0. -1.
         -2   -1    0    0    0  501 -0.00000000000E+00 -0.00000000000E+00 -0.48863614472E+03  0.48863614472E+03  0.00000000000E+00 0.  1.
        -24    2    1    2    0    0 -0.76590949709E+03  0.75599943902E+03  0.61165968896E+03  0.12404118831E+04  0.79633880970E+02 0.  0.
    5000000    2    1    2    0    0  0.76590949709E+03 -0.75599943902E+03  0.20038291822E+04  0.23523492775E+04  0.60005268322E+03 0.  0.
        -24    2    4    4    0    0  0.61323252949E+03 -0.30381778243E+03  0.80599283123E+03  0.10604204010E+04  0.80669714145E+02 0.  0.
         24    2    4    4    0    0  0.15267696760E+03 -0.45218165659E+03  0.11978363510E+04  0.12919288765E+04  0.80559240951E+02 0.  0.
         11    1    3    3    0    0 -0.62361792348E+03  0.57358459362E+03  0.46512810141E+03  0.96656233697E+03  0.00000000000E+00 0. -1.
        -12    1    3    3    0    0 -0.14229157361E+03  0.18241484540E+03  0.14653158755E+03  0.27384954609E+03  0.00000000000E+00 0.  1.
         13    1    5    5    0    0  0.10645554243E+03 -0.43442598962E+02  0.93912623579E+02  0.14845747804E+03  0.00000000000E+00 0. -1.
        -14    1    5    5    0    0  0.50677698706E+03 -0.26037518347E+03  0.71208020765E+03  0.91196292300E+03  0.00000000000E+00 0.  1.
          2    1    6    6  502    0  0.42639092381E+02 -0.22773105871E+03  0.63995459224E+03  0.68060370806E+03  0.00000000000E+00 0. -1.
         -1    1    6    6    0  502  0.11003787522E+03 -0.22445059788E+03  0.55788175871E+03  0.61132516845E+03  0.00000000000E+00 0.  1.
<mgrwt>
<rscale>  0 0.11225149E+04</rscale>
<asrwt>0</asrwt>
<pdfrwt beam="1">  1        1 0.47755768E+00 0.11225149E+04</pdfrwt>
<pdfrwt beam="2">  1       -2 0.75174793E-01 0.11225149E+04</pdfrwt>
<totfact> 0.70451937E-01</totfact>
</mgrwt>
</event>
<event>
12    3  0.2212098E-007  0.1029247E+04  0.7818608E-02  0.9277036E-01
          1   -1    0    0  501    0  0.00000000000E+00  0.00000000000E+00  0.16430184013E+04  0.16430184013E+04  0.00000000000E+00 0. -1.
         -2   -1    0    0    0  501 -0.00000000000E+00 -0.00000000000E+00 -0.69693476699E+03  0.69693476699E+03  0.00000000000E+00 0.  1.
        -24    2    1    2    0    0  0.43874916972E+03  0.83692601119E+03  0.73655889651E+03  0.12012352578E+04  0.86609205271E+02 0.  0.
    5000000    2    1    2    0    0 -0.43874916972E+03 -0.83692601119E+03  0.20952473785E+03  0.11387179105E+04  0.59985988516E+03 0.  0.
        -24    2    4    4    0    0 -0.22915257375E+03 -0.85915039800E+03  0.17872645542E+03  0.91049918800E+03  0.80095674218E+02 0.  0.
         24    2    4    4    0    0 -0.20959659597E+03  0.22224386809E+02  0.30798282428E+02  0.22821872252E+03  0.81918219571E+02 0.  0.
         11    1    5    5    0    0 -0.13504484320E+03 -0.37780417992E+03  0.57846971045E+02  0.40536326930E+03  0.00000000000E+00 0. -1.
        -12    1    5    5    0    0 -0.94107730551E+02 -0.48134621808E+03  0.12087948438E+03  0.50513591869E+03  0.00000000000E+00 0.  1.
         11    1    3    3    0    0  0.36015856605E+03  0.60560436156E+03  0.54853931873E+03  0.89295364921E+03  0.00000000000E+00 0. -1.
        -12    1    3    3    0    0  0.78590603668E+02  0.23132164964E+03  0.18801957778E+03  0.30828160860E+03  0.00000000000E+00 0.  1.
          4    1    6    6  502    0 -0.16328977414E+03 -0.64895113532E+01  0.49272469075E+02  0.17068520822E+03  0.00000000000E+00 0. -1.
         -3    1    6    6    0  502 -0.46306821832E+02  0.28713898163E+02 -0.18474186647E+02  0.57533514304E+02  0.00000000000E+00 0.  1.
<mgrwt>
<rscale>  0 0.10292469E+04</rscale>
<asrwt>0</asrwt>
<pdfrwt beam="1">  1        1 0.25277206E+00 0.10292469E+04</pdfrwt>
<pdfrwt beam="2">  1       -2 0.10722073E+00 0.10292469E+04</pdfrwt>
<totfact> 0.31914428E+00</totfact>
</mgrwt>
</event>
<event>
12    3  0.2212098E-007  0.7348709E+03  0.7818608E-02  0.9659389E-01
         -2   -1    0    0    0  501 -0.00000000000E+00  0.00000000000E+00  0.28391167434E+03  0.28391167434E+03  0.00000000000E+00 0.  1.
          1   -1    0    0  501    0  0.00000000000E+00 -0.00000000000E+00 -0.27580403442E+04  0.27580403442E+04  0.00000000000E+00 0. -1.
        -24    2    1    2    0    0 -0.13253880096E+02  0.73256466327E+03 -0.63246678851E+03  0.97107789092E+03  0.78430736677E+02 0.  0.
    5000000    2    1    2    0    0  0.13253880096E+02 -0.73256466327E+03 -0.18416618814E+04  0.20708741276E+04  0.59997876299E+03 0.  0.
        -24    2    4    4    0    0  0.15470401310E+02 -0.30802600897E+03 -0.20646678193E+03  0.37959008010E+03  0.79628772150E+02 0.  0.
         24    2    4    4    0    0 -0.22165212138E+01 -0.42453865430E+03 -0.16351950994E+04  0.16912840475E+04  0.79628727616E+02 0.  0.
         11    1    5    5    0    0  0.41961242823E+01 -0.20368755504E+03 -0.17878686969E+03  0.27105529382E+03  0.00000000000E+00 0. -1.
        -12    1    5    5    0    0  0.11274277028E+02 -0.10433845393E+03 -0.27679912240E+02  0.10853478628E+03  0.00000000000E+00 0.  1.
         13    1    3    3    0    0  0.17458412861E+02  0.48276147536E+03 -0.45010755021E+03  0.66027285650E+03  0.00000000000E+00 0. -1.
        -14    1    3    3    0    0 -0.30712292957E+02  0.24980318791E+03 -0.18235923829E+03  0.31080503442E+03  0.00000000000E+00 0.  1.
          4    1    6    6  502    0 -0.18469924369E+02 -0.31768260944E+03 -0.13291858515E+04  0.13667473820E+04  0.00000000000E+00 0. -1.
         -3    1    6    6    0  502  0.16253403155E+02 -0.10685604486E+03 -0.30600924797E+03  0.32453666554E+03  0.00000000000E+00 0.  1.
<mgrwt>
<rscale>  0 0.73487094E+03</rscale>
<asrwt>0</asrwt>
<pdfrwt beam="1">  1        1 0.42431392E+00 0.73487094E+03</pdfrwt>
<pdfrwt beam="2">  1       -2 0.43678717E-01 0.73487094E+03</pdfrwt>
<totfact> 0.41448048E+00</totfact>
</mgrwt>
</event>
<event>
12    3  0.2212098E-007  0.7842360E+03  0.7818608E-02  0.9583119E-01
         -2   -1    0    0    0  501 -0.00000000000E+00  0.00000000000E+00  0.80507386224E+03  0.80507386224E+03  0.00000000000E+00 0.  1.
          1   -1    0    0  501    0  0.00000000000E+00 -0.00000000000E+00 -0.98675860344E+03  0.98675860344E+03  0.00000000000E+00 0. -1.
        -24    2    1    2    0    0 -0.32585182481E+02  0.69788215189E+03 -0.44708457060E+03  0.83344004149E+03  0.81464086860E+02 0.  0.
    5000000    2    1    2    0    0  0.32585182481E+02 -0.69788215189E+03  0.26539982940E+03  0.95839242419E+03  0.59998139742E+03 0.  0.
        -24    2    4    4    0    0 -0.18692476597E+03 -0.69684776092E+02 -0.44340646255E+02  0.22009304099E+03  0.81719138712E+02 0.  0.
         24    2    4    4    0    0  0.21950994845E+03 -0.62819737579E+03  0.30974047565E+03  0.73829938320E+03  0.79562909373E+02 0.  0.
         11    1    5    5    0    0 -0.14815296970E+02 -0.29509002147E+01  0.19593162071E+02  0.24740510025E+02  0.00000000000E+00 0. -1.
        -12    1    5    5    0    0 -0.17210946900E+03 -0.66733875878E+02 -0.63933808326E+02  0.19535253097E+03  0.00000000000E+00 0.  1.
         13    1    3    3    0    0 -0.18808386787E+02  0.59299583830E+03 -0.34438825864E+03  0.68600371161E+03  0.00000000000E+00 0. -1.
        -14    1    3    3    0    0 -0.13776795694E+02  0.10488631359E+03 -0.10269631196E+03  0.14743632988E+03  0.00000000000E+00 0.  1.
          2    1    6    6  502    0  0.83558196808E+02 -0.35284637426E+03  0.18181595725E+03  0.40563478449E+03  0.00000000000E+00 0. -1.
         -1    1    6    6    0  502  0.13595175164E+03 -0.27535100154E+03  0.12792451840E+03  0.33266459870E+03  0.00000000000E+00 0.  1.
<mgrwt>
<rscale>  0 0.78423596E+03</rscale>
<asrwt>0</asrwt>
<pdfrwt beam="1">  1        1 0.15180902E+00 0.78423596E+03</pdfrwt>
<pdfrwt beam="2">  1       -2 0.12385752E+00 0.78423596E+03</pdfrwt>
<totfact> 0.68002693E+00</totfact>
</mgrwt>
</event>
<event>
12    3  0.2212098E-007  0.7742291E+03  0.7818608E-02  0.9598087E-01
         -2   -1    0    0    0  501 -0.00000000000E+00  0.00000000000E+00  0.93182313384E+03  0.93182313384E+03  0.00000000000E+00 0.  1.
          1   -1    0    0  501    0  0.00000000000E+00 -0.00000000000E+00 -0.75579276539E+03  0.75579276539E+03  0.00000000000E+00 0. -1.
        -24    2    1    2    0    0 -0.21660730808E+03  0.68008127915E+03  0.22914477078E+03  0.75373186725E+03  0.78581992590E+02 0.  0.
    5000000    2    1    2    0    0  0.21660730808E+03 -0.68008127915E+03 -0.53114402323E+02  0.93388403198E+03  0.59990747061E+03 0.  0.
        -24    2    4    4    0    0 -0.12400526091E+03 -0.18209127284E+03  0.16626258988E+03  0.28692182440E+03  0.78398648851E+02 0.  0.
         24    2    4    4    0    0  0.34061256899E+03 -0.49799000631E+03 -0.21937699220E+03  0.64696220759E+03  0.80142777600E+02 0.  0.
         11    1    5    5    0    0 -0.89243651463E+02 -0.16286124587E+03  0.10339054726E+03  0.21255074688E+03  0.00000000000E+00 0. -1.
        -12    1    5    5    0    0 -0.34761609449E+02 -0.19230026968E+02  0.62872042616E+02  0.74371077519E+02  0.00000000000E+00 0.  1.
         11    1    3    3    0    0 -0.11060467644E+03  0.46668203489E+03  0.14535810120E+03  0.50115316394E+03  0.00000000000E+00 0. -1.
        -12    1    3    3    0    0 -0.10600263164E+03  0.21339924426E+03  0.83786669579E+02  0.25257870331E+03  0.00000000000E+00 0.  1.
          2    1    6    6  502    0  0.58411687434E+02 -0.11959489465E+03 -0.20193882184E+02  0.13462041796E+03  0.00000000000E+00 0. -1.
         -1    1    6    6    0  502  0.28220088156E+03 -0.37839511166E+03 -0.19918311002E+03  0.51234178963E+03  0.00000000000E+00 0.  1.
<mgrwt>
<rscale>  0 0.77422907E+03</rscale>
<asrwt>0</asrwt>
<pdfrwt beam="1">  1        1 0.11627581E+00 0.77422907E+03</pdfrwt>
<pdfrwt beam="2">  1       -2 0.14335741E+00 0.77422907E+03</pdfrwt>
<totfact> 0.72954059E+00</totfact>
</mgrwt>
</event>
<event>
12    3  0.2212098E-007  0.4240231E+03  0.7818608E-02  0.1035765E+00
          1   -1    0    0  501    0  0.00000000000E+00  0.00000000000E+00  0.72066157411E+03  0.72066157411E+03  0.00000000000E+00 0. -1.
         -2   -1    0    0    0  501 -0.00000000000E+00 -0.00000000000E+00 -0.27831538452E+03  0.27831538452E+03  0.00000000000E+00 0.  1.
        -24    2    1    2    0    0 -0.18272078603E+03 -0.12002312117E+03  0.22634984932E+03  0.32501390964E+03  0.81285619292E+02 0.  0.
    5000000    2    1    2    0    0  0.18272078603E+03  0.12002312117E+03  0.21599634027E+03  0.67396304899E+03  0.59981608609E+03 0.  0.
        -24    2    4    4    0    0 -0.90242499779E+02 -0.18404467464E+03  0.47293880591E+02  0.22507409324E+03  0.80034275637E+02 0.  0.
         24    2    4    4    0    0  0.27296328581E+03  0.30406779582E+03  0.16870245968E+03  0.44888895575E+03  0.77939687187E+02 0.  0.
         11    1    5    5    0    0 -0.81360757832E+02 -0.98101395327E+02  0.53990467231E+02  0.13841397051E+03  0.00000000000E+00 0. -1.
        -12    1    5    5    0    0 -0.88817419476E+01 -0.85943279317E+02 -0.66965866407E+01  0.86660122735E+02  0.00000000000E+00 0.  1.
         13    1    3    3    0    0 -0.95698527856E+02 -0.94050010431E+02  0.91393551145E+02  0.16234652410E+03  0.00000000000E+00 0. -1.
        -14    1    3    3    0    0 -0.87022258176E+02 -0.25973110742E+02  0.13495629818E+03  0.16266738554E+03  0.00000000000E+00 0.  1.
          4    1    6    6  502    0  0.19970188060E+03  0.20748353832E+03  0.15458497465E+03  0.32684365403E+03  0.00000000000E+00 0. -1.
         -3    1    6    6    0  502  0.73261405211E+02  0.96584257494E+02  0.14117485030E+02  0.12204530172E+03  0.00000000000E+00 0.  1.
<mgrwt>
<rscale>  0 0.42402308E+03</rscale>
<asrwt>0</asrwt>
<pdfrwt beam="1">  1        1 0.11087101E+00 0.42402308E+03</pdfrwt>
<pdfrwt beam="2">  1       -2 0.42817752E-01 0.42402308E+03</pdfrwt>
<totfact> 0.12296609E+02</totfact>
</mgrwt>
</event>
<event>
12    3  0.2212098E-007  0.1623381E+04  0.7818608E-02  0.8806311E-01
          1   -1    0    0  501    0  0.00000000000E+00  0.00000000000E+00  0.11184854058E+04  0.11184854058E+04  0.00000000000E+00 0. -1.
         -2   -1    0    0    0  501 -0.00000000000E+00 -0.00000000000E+00 -0.26099882465E+04  0.26099882465E+04  0.00000000000E+00 0.  1.
        -24    2    1    2    0    0  0.15363024834E+04  0.43442626733E+03 -0.11977120837E+04  0.19977719166E+04  0.87332085249E+02 0.  0.
    5000000    2    1    2    0    0 -0.15363024834E+04 -0.43442626733E+03 -0.29379075699E+03  0.17307017358E+04  0.60005332022E+03 0.  0.
        -24    2    4    4    0    0 -0.67287439539E+03  0.10637874582E+02 -0.33361965932E+03  0.75515283596E+03  0.77978280449E+02 0.  0.
         24    2    4    4    0    0 -0.86342808799E+03 -0.44506414191E+03  0.39828902333E+02  0.97554889980E+03  0.80741320968E+02 0.  0.
         11    1    3    3    0    0  0.28994767845E+03  0.11522514777E+03 -0.25038986827E+03  0.40005196793E+03  0.00000000000E+00 0. -1.
        -12    1    3    3    0    0  0.12463548049E+04  0.31920111956E+03 -0.94732221542E+03  0.15977199487E+04  0.00000000000E+00 0.  1.
         13    1    5    5    0    0 -0.24946097709E+03 -0.30302844026E+02 -0.10650560201E+03  0.27293311398E+03  0.00000000000E+00 0. -1.
        -14    1    5    5    0    0 -0.42341341830E+03  0.40940718608E+02 -0.22711405731E+03  0.48221972198E+03  0.00000000000E+00 0.  1.
          4    1    6    6  502    0 -0.66104709191E+03 -0.34767083841E+03 -0.30015607836E+01  0.74690513385E+03  0.00000000000E+00 0. -1.
         -3    1    6    6    0  502 -0.20238099608E+03 -0.97393303497E+02  0.42830463117E+02  0.22864376596E+03  0.00000000000E+00 0.  1.
<mgrwt>
<rscale>  0 0.16233815E+04</rscale>
<asrwt>0</asrwt>
<pdfrwt beam="1">  1        1 0.17207468E+00 0.16233815E+04</pdfrwt>
<pdfrwt beam="2">  1       -2 0.40153665E+00 0.16233815E+04</pdfrwt>
<totfact> 0.73042399E-02</totfact>
</mgrwt>
</event>
<event>
12    3  0.2212098E-007  0.9555814E+03  0.7818608E-02  0.9358650E-01
         -2   -1    0    0    0  501 -0.00000000000E+00  0.00000000000E+00  0.44039644585E+03  0.44039644585E+03  0.00000000000E+00 0.  1.
          1   -1    0    0  501    0  0.00000000000E+00 -0.00000000000E+00 -0.22517595240E+04  0.22517595240E+04  0.00000000000E+00 0. -1.
        -24    2    1    2    0    0 -0.26175172847E+03 -0.82480074373E+03 -0.47431680577E+03  0.99016187825E+03  0.81448626078E+02 0.  0.
    5000000    2    1    2    0    0  0.26175172847E+03  0.82480074373E+03 -0.13370462724E+04  0.17019940916E+04  0.60023405369E+03 0.  0.
        -24    2    4    4    0    0  0.43396049346E+03  0.43415986874E+03 -0.76658765787E+03  0.98517277682E+03  0.78052940223E+02 0.  0.
         24    2    4    4    0    0 -0.17220876499E+03  0.39064087499E+03 -0.57045861454E+03  0.71682131482E+03  0.78444977755E+02 0.  0.
         11    1    5    5    0    0  0.17643541233E+03  0.15460766799E+03 -0.34889066432E+03  0.42042559553E+03  0.00000000000E+00 0. -1.
        -12    1    5    5    0    0  0.25752508113E+03  0.27955220075E+03 -0.41769699355E+03  0.56474718129E+03  0.00000000000E+00 0.  1.
         13    1    3    3    0    0 -0.10082129219E+03 -0.44538699552E+03 -0.26381147975E+03  0.52738127155E+03  0.00000000000E+00 0. -1.
        -14    1    3    3    0    0 -0.16093043628E+03 -0.37941374821E+03 -0.21050532602E+03  0.46278060670E+03  0.00000000000E+00 0.  1.
          2    1    6    6  502    0 -0.14510113607E+03  0.30292247131E+03 -0.49384446740E+03  0.59724259836E+03  0.00000000000E+00 0. -1.
         -1    1    6    6    0  502 -0.27107628923E+02  0.87718403679E+02 -0.76614147134E+02  0.11957871646E+03  0.00000000000E+00 0.  1.
<mgrwt>
<rscale>  0 0.95558140E+03</rscale>
<asrwt>0</asrwt>
<pdfrwt beam="1">  1        1 0.34642455E+00 0.95558140E+03</pdfrwt>
<pdfrwt beam="2">  1       -2 0.67753299E-01 0.95558140E+03</pdfrwt>
<totfact> 0.35812928E+00</totfact>
</mgrwt>
</event>
<event>
12    3  0.2212098E-007  0.8228199E+03  0.7818608E-02  0.9527561E-01
          1   -1    0    0  501    0  0.00000000000E+00  0.00000000000E+00  0.37159592076E+04  0.37159592076E+04  0.00000000000E+00 0. -1.
         -2   -1    0    0    0  501 -0.00000000000E+00 -0.00000000000E+00 -0.20915042339E+03  0.20915042339E+03  0.00000000000E+00 0.  1.
        -24    2    1    2    0    0 -0.61269216320E+03 -0.46827756107E+03  0.17707141363E+04  0.19330021293E+04  0.79956977758E+02 0.  0.
    5000000    2    1    2    0    0  0.61269216320E+03  0.46827756107E+03  0.17360946479E+04  0.19921075017E+04  0.59982673397E+03 0.  0.
        -24    2    4    4    0    0  0.53286596573E+03  0.17161729425E+03  0.14788400701E+04  0.15832732981E+04  0.79923403703E+02 0.  0.
         24    2    4    4    0    0  0.79826197467E+02  0.29666026682E+03  0.25725457784E+03  0.40883420362E+03  0.81153881715E+02 0.  0.
         11    1    5    5    0    0  0.39802088496E+03  0.10917411411E+03  0.11671069453E+04  0.12379330490E+04  0.00000000000E+00 0. -1.
        -12    1    5    5    0    0  0.13484508077E+03  0.62443180141E+02  0.31173312480E+03  0.34534024910E+03  0.00000000000E+00 0.  1.
         11    1    3    3    0    0 -0.43754249498E+03 -0.36924674634E+03  0.13622037760E+04  0.14776284113E+04  0.00000000000E+00 0. -1.
        -12    1    3    3    0    0 -0.17514966821E+03 -0.99030814727E+02  0.40851036034E+03  0.45537371800E+03  0.00000000000E+00 0.  1.
          4    1    6    6  502    0  0.26737953854E+02  0.18525120063E+03  0.11155749333E+03  0.21789446948E+03  0.00000000000E+00 0. -1.
         -3    1    6    6    0  502  0.53088243613E+02  0.11140906619E+03  0.14569708451E+03  0.19093973415E+03  0.00000000000E+00 0.  1.
<mgrwt>
<rscale>  0 0.82281987E+03</rscale>
<asrwt>0</asrwt>
<pdfrwt beam="1">  1        1 0.57168598E+00 0.82281987E+03</pdfrwt>
<pdfrwt beam="2">  1       -2 0.32176991E-01 0.82281987E+03</pdfrwt>
<totfact> 0.14210293E+00</totfact>
</mgrwt>
</event>
<event>
12    3  0.2587998E-007  0.1421045E+04  0.7818608E-02  0.8938724E-01
          1   -1    0    0  501    0  0.00000000000E+00  0.00000000000E+00  0.17827541533E+04  0.17827541533E+04  0.00000000000E+00 0. -1.
         -2   -1    0    0    0  501 -0.00000000000E+00 -0.00000000000E+00 -0.12310075313E+04  0.12310075313E+04  0.00000000000E+00 0.  1.
        -24    2    1    2    0    0 -0.13989451727E+04 -0.22439940049E+03  0.17592839654E+03  0.14298914101E+04  0.78968074146E+02 0.  0.
    5000000    2    1    2    0    0  0.13989451727E+04  0.22439940049E+03  0.37581822553E+03  0.15838702745E+04  0.60000251731E+03 0.  0.
        -24    2    4    4    0    0  0.20059671521E+03  0.74829395866E+02  0.29288621890E+03  0.37082191557E+03  0.76733794418E+02 0.  0.
         24    2    4    4    0    0  0.11983484575E+04  0.14957000462E+03  0.82932006627E+02  0.12130483590E+04  0.78729864960E+02 0.  0.
         11    1    3    3    0    0 -0.88886646014E+03 -0.11144670145E+03  0.13376187745E+03  0.90575724732E+03  0.00000000000E+00 0. -1.
        -12    1    3    3    0    0 -0.51007871255E+03 -0.11295269904E+03  0.42166519091E+02  0.52413416274E+03  0.00000000000E+00 0.  1.
         13    1    5    5    0    0  0.16991400194E+02  0.10975106380E+02  0.80079031075E+02  0.82594260446E+02  0.00000000000E+00 0. -1.
        -14    1    5    5    0    0  0.18360531502E+03  0.63854289486E+02  0.21280718782E+03  0.28822765512E+03  0.00000000000E+00 0.  1.
          2    1    6    6  502    0  0.13667357133E+03 -0.25143337397E+01 -0.62096924185E+01  0.13683766753E+03  0.00000000000E+00 0. -1.
         -1    1    6    6    0  502  0.10616748862E+04  0.15208433836E+03  0.89141699045E+02  0.10762106914E+04  0.00000000000E+00 0.  1.
<mgrwt>
<rscale>  0 0.14210451E+04</rscale>
<asrwt>0</asrwt>
<pdfrwt beam="1">  1        1 0.27426987E+00 0.14210451E+04</pdfrwt>
<pdfrwt beam="2">  1       -2 0.18938577E+00 0.14210451E+04</pdfrwt>
<totfact> 0.54612103E-01</totfact>
</mgrwt>
</event>
<event>
12    3  0.2212098E-007  0.5202889E+03  0.7818608E-02  0.1008615E+00
          1   -1    0    0  501    0  0.00000000000E+00  0.00000000000E+00  0.10394825231E+04  0.10394825231E+04  0.00000000000E+00 0. -1.
         -2   -1    0    0    0  501 -0.00000000000E+00 -0.00000000000E+00 -0.43211180123E+03  0.43211180123E+03  0.00000000000E+00 0.  1.
        -24    2    1    2    0    0  0.41945931405E+03  0.11165413218E+03 -0.94571011181E+02  0.45124116439E+03  0.79133753269E+02 0.  0.
    5000000    2    1    2    0    0 -0.41945931405E+03 -0.11165413218E+03  0.70194173304E+03  0.10203531599E+04  0.59998801074E+03 0.  0.
        -24    2    4    4    0    0 -0.26834149281E+03 -0.26379793657E+03  0.69163024082E+03  0.79146931661E+03  0.80466023999E+02 0.  0.
         24    2    4    4    0    0 -0.15111782124E+03  0.15214380439E+03  0.10311492217E+02  0.22888384332E+03  0.79354607644E+02 0.  0.
         13    1    3    3    0    0  0.21459661714E+03  0.20186280428E+02 -0.63786548836E+02  0.22478415829E+03  0.00000000000E+00 0. -1.
        -14    1    3    3    0    0  0.20486269691E+03  0.91467851753E+02 -0.30784462345E+02  0.22645700610E+03  0.00000000000E+00 0.  1.
         13    1    5    5    0    0 -0.18258203374E+03 -0.22522761444E+03  0.49914367479E+03  0.57724179113E+03  0.00000000000E+00 0. -1.
        -14    1    5    5    0    0 -0.85759459075E+02 -0.38570322130E+02  0.19248656603E+03  0.21422752548E+03  0.00000000000E+00 0.  1.
          4    1    6    6  502    0 -0.39661097611E+02  0.60850836659E+02 -0.31047095178E+02  0.78992082545E+02  0.00000000000E+00 0. -1.
         -3    1    6    6    0  502 -0.11145672363E+03  0.91292967728E+02  0.41358587396E+02  0.14989176078E+03  0.00000000000E+00 0.  1.
<mgrwt>
<rscale>  0 0.52028888E+03</rscale>
<asrwt>0</asrwt>
<pdfrwt beam="1">  1        1 0.15992039E+00 0.52028888E+03</pdfrwt>
<pdfrwt beam="2">  1       -2 0.66478739E-01 0.52028888E+03</pdfrwt>
<totfact> 0.27058432E+01</totfact>
</mgrwt>
</event>
<event>
12    3  0.2212098E-007  0.1722159E+04  0.7818608E-02  0.8748826E-01
          1   -1    0    0  501    0  0.00000000000E+00  0.00000000000E+00  0.23006219930E+04  0.23006219930E+04  0.00000000000E+00 0. -1.
         -2   -1    0    0    0  501 -0.00000000000E+00 -0.00000000000E+00 -0.17275607272E+04  0.17275607272E+04  0.00000000000E+00 0.  1.
        -24    2    1    2    0    0 -0.64300623479E+03  0.15649731543E+04  0.12549708372E+04  0.21079711861E+04  0.77412709094E+02 0.  0.
    5000000    2    1    2    0    0  0.64300623479E+03 -0.15649731543E+04 -0.68190957136E+03  0.19202115341E+04  0.59967798065E+03 0.  0.
        -24    2    4    4    0    0 -0.51469599966E+02 -0.41810073156E+02  0.18107857931E+02  0.10393361748E+03  0.77955759151E+02 0.  0.
         24    2    4    4    0    0  0.69447583475E+03 -0.15231630812E+04 -0.70001742930E+03  0.18162779166E+04  0.80737923227E+02 0.  0.
         11    1    3    3    0    0 -0.20036526234E+03  0.53800666547E+03  0.46493188291E+03  0.73875507862E+03  0.00000000000E+00 0. -1.
        -12    1    3    3    0    0 -0.44264097245E+03  0.10269664889E+04  0.79003895430E+03  0.13692161075E+04  0.00000000000E+00 0.  1.
         13    1    5    5    0    0 -0.56320644980E+02 -0.43117399786E+02 -0.13265753422E+02  0.72160275977E+02  0.00000000000E+00 0. -1.
        -14    1    5    5    0    0  0.48510450140E+01  0.13073266301E+01  0.31373611353E+02  0.31773341498E+02  0.00000000000E+00 0.  1.
          4    1    6    6  502    0  0.30583453641E+03 -0.76807186583E+03 -0.34512007536E+03  0.89586663134E+03  0.00000000000E+00 0. -1.
         -3    1    6    6    0  502  0.38864129834E+03 -0.75509121534E+03 -0.35489735394E+03  0.92041128529E+03  0.00000000000E+00 0.  1.
<mgrwt>
<rscale>  0 0.17221592E+04</rscale>
<asrwt>0</asrwt>
<pdfrwt beam="1">  1        1 0.35394184E+00 0.17221592E+04</pdfrwt>
<pdfrwt beam="2">  1       -2 0.26577857E+00 0.17221592E+04</pdfrwt>
<totfact> 0.76785824E-02</totfact>
</mgrwt>
</event>
<event>
12    3  0.2212098E-007  0.1232546E+04  0.7818608E-02  0.9084836E-01
         -2   -1    0    0    0  501 -0.00000000000E+00  0.00000000000E+00  0.30100782306E+04  0.30100782306E+04  0.00000000000E+00 0.  1.
          1   -1    0    0  501    0  0.00000000000E+00 -0.00000000000E+00 -0.55654631164E+03  0.55654631164E+03  0.00000000000E+00 0. -1.
        -24    2    1    2    0    0 -0.52990474114E+03 -0.10427595045E+04  0.16556081659E+04  0.20288346099E+04  0.83576651060E+02 0.  0.
    5000000    2    1    2    0    0  0.52990474114E+03  0.10427595045E+04  0.79792375310E+03  0.15377899323E+04  0.59997428389E+03 0.  0.
        -24    2    4    4    0    0  0.21338985050E+03  0.91980039525E+03  0.46441288785E+03  0.10553193519E+04  0.80321906435E+02 0.  0.
         24    2    4    4    0    0  0.31651489064E+03  0.12295910926E+03  0.33351086525E+03  0.48247058046E+03  0.79042679784E+02 0.  0.
         11    1    5    5    0    0  0.96059429928E+02  0.51568249071E+03  0.22120660895E+03  0.56928745739E+03  0.00000000000E+00 0. -1.
        -12    1    5    5    0    0  0.11733042057E+03  0.40411790454E+03  0.24320627890E+03  0.48603189448E+03  0.00000000000E+00 0.  1.
         11    1    3    3    0    0 -0.18980412937E+03 -0.31196595311E+03  0.47047762429E+03  0.59556490694E+03  0.00000000000E+00 0. -1.
        -12    1    3    3    0    0 -0.34010061177E+03 -0.73079355139E+03  0.11851305416E+04  0.14332697030E+04  0.00000000000E+00 0.  1.
          4    1    6    6  502    0  0.24185956962E+03  0.12807527135E+03  0.26724098860E+03  0.38251414684E+03  0.00000000000E+00 0. -1.
         -3    1    6    6    0  502  0.74655321015E+02 -0.51161620888E+01  0.66269876652E+02  0.99956433619E+02  0.00000000000E+00 0.  1.
<mgrwt>
<rscale>  0 0.12325463E+04</rscale>
<asrwt>0</asrwt>
<pdfrwt beam="1">  1        1 0.85622511E-01 0.12325463E+04</pdfrwt>
<pdfrwt beam="2">  1       -2 0.46308895E+00 0.12325463E+04</pdfrwt>
<totfact> 0.93953914E-02</totfact>
</mgrwt>
</event>
<event>
12    3  0.2212098E-007  0.9276268E+03  0.7818608E-02  0.9391691E-01
          1   -1    0    0  501    0  0.00000000000E+00  0.00000000000E+00  0.11927272545E+04  0.11927272545E+04  0.00000000000E+00 0. -1.
         -2   -1    0    0    0  501 -0.00000000000E+00 -0.00000000000E+00 -0.95824622116E+03  0.95824622116E+03  0.00000000000E+00 0.  1.
        -24    2    1    2    0    0  0.75044096225E+03  0.36308834578E+03 -0.41594328352E+03  0.93526840294E+03  0.81996254555E+02 0.  0.
    5000000    2    1    2    0    0 -0.75044096225E+03 -0.36308834578E+03  0.65042431690E+03  0.12157050727E+04  0.59991019930E+03 0.  0.
        -24    2    4    4    0    0  0.55359418455E+01 -0.24643948328E+03  0.20821741528E+03  0.32854992189E+03  0.61866740442E+02 0.  0.
         24    2    4    4    0    0 -0.75597690410E+03 -0.11664886249E+03  0.44220690162E+03  0.88715515086E+03  0.79932979455E+02 0.  0.
         13    1    3    3    0    0  0.43128437286E+03  0.20169871745E+03 -0.19247898935E+03  0.51355305883E+03  0.00000000000E+00 0. -1.
        -14    1    3    3    0    0  0.31915658940E+03  0.16138962833E+03 -0.22346429418E+03  0.42171534412E+03  0.00000000000E+00 0.  1.
         13    1    5    5    0    0  0.31358117185E+02 -0.12496154330E+03  0.90609244392E+02  0.15750794897E+03  0.00000000000E+00 0. -1.
        -14    1    5    5    0    0 -0.25822175339E+02 -0.12147793998E+03  0.11760817089E+03  0.17104197292E+03  0.00000000000E+00 0.  1.
          4    1    6    6  502    0 -0.44573097049E+03 -0.10536173512E+03  0.28101117374E+03  0.53734948874E+03  0.00000000000E+00 0. -1.
         -3    1    6    6    0  502 -0.31024593361E+03 -0.11287127377E+02  0.16119572788E+03  0.34980566212E+03  0.00000000000E+00 0.  1.
<mgrwt>
<rscale>  0 0.92762679E+03</rscale>
<asrwt>0</asrwt>
<pdfrwt beam="1">  1        1 0.18349650E+00 0.92762679E+03</pdfrwt>
<pdfrwt beam="2">  1       -2 0.14742250E+00 0.92762679E+03</pdfrwt>
<totfact> 0.29902627E+00</totfact>
</mgrwt>
</event>
<event>
12    3  0.2212098E-007  0.8852560E+03  0.7818608E-02  0.9444202E-01
         -2   -1    0    0    0  501 -0.00000000000E+00  0.00000000000E+00  0.77487457758E+03  0.77487457758E+03  0.00000000000E+00 0.  1.
          1   -1    0    0  501    0  0.00000000000E+00 -0.00000000000E+00 -0.18616808229E+04  0.18616808229E+04  0.00000000000E+00 0. -1.
        -24    2    1    2    0    0  0.70447531596E+03 -0.40482227622E+03 -0.13635434442E+04  0.15892857119E+04  0.80073740629E+02 0.  0.
    5000000    2    1    2    0    0 -0.70447531596E+03  0.40482227622E+03  0.27673719880E+03  0.10472696886E+04  0.60001981408E+03 0.  0.
        -24    2    4    4    0    0  0.43278615050E+02  0.14023598378E+03  0.17758022466E+03  0.24398864054E+03  0.80352665511E+02 0.  0.
         24    2    4    4    0    0 -0.74775393101E+03  0.26458629244E+03  0.99156974148E+02  0.80328104804E+03  0.79287383147E+02 0.  0.
         11    1    5    5    0    0  0.38935266281E+02  0.25362597090E+02  0.83015071131E+02  0.95135263317E+02  0.00000000000E+00 0. -1.
        -12    1    5    5    0    0  0.43433487684E+01  0.11487338669E+03  0.94565153524E+02  0.14885337722E+03  0.00000000000E+00 0.  1.
         13    1    3    3    0    0  0.56248205084E+03 -0.33082579318E+03 -0.11519060179E+04  0.13239030315E+04  0.00000000000E+00 0. -1.
        -14    1    3    3    0    0  0.14199326512E+03 -0.73996483045E+02 -0.21163742630E+03  0.26538268039E+03  0.00000000000E+00 0.  1.
          4    1    6    6  502    0 -0.13301350603E+02 -0.47638453459E+01  0.64177499991E+01  0.15517978779E+02  0.00000000000E+00 0. -1.
         -3    1    6    6    0  502 -0.73445258041E+03  0.26935013778E+03  0.92739224149E+02  0.78776306926E+03  0.00000000000E+00 0.  1.
<mgrwt>
<rscale>  0 0.88525596E+03</rscale>
<asrwt>0</asrwt>
<pdfrwt beam="1">  1        1 0.28641243E+00 0.88525596E+03</pdfrwt>
<pdfrwt beam="2">  1       -2 0.11921147E+00 0.88525596E+03</pdfrwt>
<totfact> 0.17857602E+00</totfact>
</mgrwt>
</event>
<event>
12    3  0.2212098E-007  0.3976941E+03  0.7818608E-02  0.1044581E+00
          1   -1    0    0  501    0  0.00000000000E+00  0.00000000000E+00  0.54312749570E+03  0.54312749570E+03  0.00000000000E+00 0. -1.
         -2   -1    0    0    0  501 -0.00000000000E+00 -0.00000000000E+00 -0.49045652867E+03  0.49045652867E+03  0.00000000000E+00 0.  1.
        -24    2    1    2    0    0 -0.10459122521E+02  0.17955819177E+03  0.30110261810E+03  0.35955443907E+03  0.79158515379E+02 0.  0.
    5000000    2    1    2    0    0  0.10459122521E+02 -0.17955819177E+03 -0.24843165107E+03  0.67402958529E+03  0.60020584729E+03 0.  0.
        -24    2    4    4    0    0 -0.21931515102E+03 -0.26866979258E+03 -0.89994604747E+02  0.36768141498E+03  0.82510612215E+02 0.  0.
         24    2    4    4    0    0  0.22977427354E+03  0.89111600810E+02 -0.15843704632E+03  0.30634817031E+03  0.89497539771E+02 0.  0.
         11    1    5    5    0    0 -0.87522376894E+01 -0.22962956409E+02  0.13383066225E+02  0.27982235314E+02  0.00000000000E+00 0. -1.
        -12    1    5    5    0    0 -0.21056291333E+03 -0.24570683617E+03 -0.10337767097E+03  0.33969917967E+03  0.00000000000E+00 0.  1.
         11    1    3    3    0    0  0.16050369004E+02  0.10947853887E+03  0.23454821959E+03  0.25933767973E+03  0.00000000000E+00 0. -1.
        -12    1    3    3    0    0 -0.26509491525E+02  0.70079652903E+02  0.66554398511E+02  0.10021675934E+03  0.00000000000E+00 0.  1.
          4    1    6    6  502    0  0.12529280593E+03  0.15046268913E+01 -0.66031210389E+02  0.14163570124E+03  0.00000000000E+00 0. -1.
         -3    1    6    6    0  502  0.10448146761E+03  0.87606973918E+02 -0.92405835930E+02  0.16471246907E+03  0.00000000000E+00 0.  1.
<mgrwt>
<rscale>  0 0.39769413E+03</rscale>
<asrwt>0</asrwt>
<pdfrwt beam="1">  1        1 0.83558076E-01 0.39769413E+03</pdfrwt>
<pdfrwt beam="2">  1       -2 0.75454851E-01 0.39769413E+03</pdfrwt>
<totfact> 0.57175824E+01</totfact>
</mgrwt>
</event>
<event>
12    3  0.2212098E-007  0.6511263E+03  0.7818608E-02  0.9804668E-01
         -2   -1    0    0    0  501 -0.00000000000E+00  0.00000000000E+00  0.50591727896E+03  0.50591727896E+03  0.00000000000E+00 0.  1.
          1   -1    0    0  501    0  0.00000000000E+00 -0.00000000000E+00 -0.15946908073E+04  0.15946908073E+04  0.00000000000E+00 0. -1.
        -24    2    1    2    0    0 -0.32445566349E+03  0.42765204917E+03  0.20239761651E+03  0.57894653291E+03  0.77823775745E+02 0.  0.
    5000000    2    1    2    0    0  0.32445566349E+03 -0.42765204917E+03 -0.12911711448E+04  0.15216615533E+04  0.60014432007E+03 0.  0.
        -24    2    4    4    0    0 -0.14522749778E+03 -0.49191819981E+02 -0.15783104214E+03  0.23388279107E+03  0.79244311045E+02 0.  0.
         24    2    4    4    0    0  0.46968316127E+03 -0.37846022919E+03 -0.11333401027E+04  0.12877787622E+04  0.10039887997E+03 0.  0.
         11    1    3    3    0    0 -0.17232590217E+03  0.20092440016E+03  0.61728200559E+02  0.27180360904E+03  0.00000000000E+00 0. -1.
        -12    1    3    3    0    0 -0.15212976132E+03  0.22672764900E+03  0.14066941596E+03  0.30714292388E+03  0.00000000000E+00 0.  1.
         13    1    5    5    0    0 -0.12497694931E+03 -0.41304433543E+02 -0.16493519162E+03  0.21101874685E+03  0.00000000000E+00 0. -1.
        -14    1    5    5    0    0 -0.20250548474E+02 -0.78873864385E+01  0.71041494804E+01  0.22864044221E+02  0.00000000000E+00 0.  1.
          4    1    6    6  502    0  0.39098255876E+03 -0.35732370096E+03 -0.99613327825E+03  0.11281972773E+04  0.00000000000E+00 0. -1.
         -3    1    6    6    0  502  0.78700602510E+02 -0.21136528228E+02 -0.13720682443E+03  0.15958148492E+03  0.00000000000E+00 0.  1.
<mgrwt>
<rscale>  0 0.65112635E+03</rscale>
<asrwt>0</asrwt>
<pdfrwt beam="1">  1        1 0.24533704E+00 0.65112635E+03</pdfrwt>
<pdfrwt beam="2">  1       -2 0.77833430E-01 0.65112635E+03</pdfrwt>
<totfact> 0.76250393E+00</totfact>
</mgrwt>
</event>
<event>
12    3  0.2212098E-007  0.1390396E+04  0.7818608E-02  0.8960800E-01
         -2   -1    0    0    0  501 -0.00000000000E+00  0.00000000000E+00  0.17811257867E+04  0.17811257867E+04  0.00000000000E+00 0.  1.
          1   -1    0    0  501    0  0.00000000000E+00 -0.00000000000E+00 -0.13472402517E+04  0.13472402517E+04  0.00000000000E+00 0. -1.
        -24    2    1    2    0    0 -0.12756399759E+04 -0.49976381469E+03  0.80014005259E+03  0.15885351224E+04  0.78730633911E+02 0.  0.
    5000000    2    1    2    0    0  0.12756399759E+04  0.49976381469E+03 -0.36625451761E+03  0.15398309161E+04  0.59992971233E+03 0.  0.
        -24    2    4    4    0    0  0.51237045652E+02 -0.85776408899E+01 -0.17339050355E+03  0.19773019528E+03  0.79587389908E+02 0.  0.
         24    2    4    4    0    0  0.12244029303E+04  0.50834145558E+03 -0.19286401406E+03  0.13421007208E+04  0.80400532867E+02 0.  0.
         11    1    3    3    0    0 -0.79775561906E+03 -0.28461111820E+03  0.46164559930E+03  0.96464199354E+03  0.00000000000E+00 0. -1.
        -12    1    3    3    0    0 -0.47788435686E+03 -0.21515269649E+03  0.33849445329E+03  0.62389312887E+03  0.00000000000E+00 0.  1.
         11    1    5    5    0    0 -0.74835639265E+01 -0.20351323407E+02 -0.10328353472E+02  0.24017805455E+02  0.00000000000E+00 0. -1.
        -12    1    5    5    0    0  0.58720609579E+02  0.11773682517E+02 -0.16306215008E+03  0.17371238982E+03  0.00000000000E+00 0.  1.
          2    1    6    6  502    0  0.27602245350E+03  0.79100663209E+02 -0.46076990760E+02  0.29080646285E+03  0.00000000000E+00 0. -1.
         -1    1    6    6    0  502  0.94838047676E+03  0.42924079237E+03 -0.14678702330E+03  0.10512942579E+04  0.00000000000E+00 0.  1.
<mgrwt>
<rscale>  0 0.13903956E+04</rscale>
<asrwt>0</asrwt>
<pdfrwt beam="1">  1        1 0.20726773E+00 0.13903956E+04</pdfrwt>
<pdfrwt beam="2">  1       -2 0.27401935E+00 0.13903956E+04</pdfrwt>
<totfact> 0.32110021E-01</totfact>
</mgrwt>
</event>
<event>
12    3  0.2248036E-007  0.7696467E+03  0.7818608E-02  0.9605022E-01
          1   -1    0    0  501    0  0.00000000000E+00  0.00000000000E+00  0.84918648757E+03  0.84918648757E+03  0.00000000000E+00 0. -1.
         -2   -1    0    0    0  501 -0.00000000000E+00 -0.00000000000E+00 -0.71705797343E+03  0.71705797343E+03  0.00000000000E+00 0.  1.
        -24    2    1    2    0    0 -0.17931059766E+03 -0.62897832076E+03  0.16212342939E+03  0.67858805588E+03  0.80198034989E+02 0.  0.
    5000000    2    1    2    0    0  0.17931059766E+03  0.62897832076E+03 -0.29994915241E+02  0.88765640512E+03  0.59938983992E+03 0.  0.
        -24    2    4    4    0    0  0.33974369865E+03  0.16807802394E+03 -0.62752861417E+02  0.39192755278E+03  0.77416290948E+02 0.  0.
         24    2    4    4    0    0 -0.16043310099E+03  0.46090029682E+03  0.32757946175E+02  0.49572885234E+03  0.80660699883E+02 0.  0.
         11    1    5    5    0    0  0.16672989427E+03  0.12229544517E+03 -0.18700205875E+02  0.20761678943E+03  0.00000000000E+00 0. -1.
        -12    1    5    5    0    0  0.17301380438E+03  0.45782578765E+02 -0.44052655542E+02  0.18431076335E+03  0.00000000000E+00 0.  1.
         13    1    3    3    0    0 -0.12074586501E+03 -0.27788904379E+03  0.72854922844E+02  0.31162433210E+03  0.00000000000E+00 0. -1.
        -14    1    3    3    0    0 -0.58564732651E+02 -0.35108927696E+03  0.89268506542E+02  0.36696372378E+03  0.00000000000E+00 0.  1.
          4    1    6    6  502    0 -0.10610928277E+02  0.14076171761E+03  0.72265505700E+01  0.14134594432E+03  0.00000000000E+00 0. -1.
         -3    1    6    6    0  502 -0.14982217272E+03  0.32013857921E+03  0.25531395605E+02  0.35438290802E+03  0.00000000000E+00 0.  1.
<mgrwt>
<rscale>  0 0.76964667E+03</rscale>
<asrwt>0</asrwt>
<pdfrwt beam="1">  1        1 0.13064407E+00 0.76964667E+03</pdfrwt>
<pdfrwt beam="2">  1       -2 0.11031661E+00 0.76964667E+03</pdfrwt>
<totfact> 0.11697508E+01</totfact>
</mgrwt>
</event>
<event>
12    3  0.2212098E-007  0.1269837E+04  0.7818608E-02  0.9053832E-01
         -2   -1    0    0    0  501 -0.00000000000E+00  0.00000000000E+00  0.62206564022E+03  0.62206564022E+03  0.00000000000E+00 0.  1.
          1   -1    0    0  501    0  0.00000000000E+00 -0.00000000000E+00 -0.30052038880E+04  0.30052038880E+04  0.00000000000E+00 0. -1.
        -24    2    1    2    0    0  0.11525818989E+04  0.33606864910E+03 -0.17971247570E+04  0.21627425144E+04  0.80066352423E+02 0.  0.
    5000000    2    1    2    0    0 -0.11525818989E+04 -0.33606864910E+03 -0.58601349072E+03  0.14645270138E+04  0.60003365936E+03 0.  0.
        -24    2    4    4    0    0 -0.16548626541E+03 -0.29736837569E+03 -0.18126736850E+03  0.39400009720E+03  0.81021989694E+02 0.  0.
         24    2    4    4    0    0 -0.98709563345E+03 -0.38700273407E+02 -0.40474612222E+03  0.10705269166E+04  0.79705426280E+02 0.  0.
         13    1    3    3    0    0  0.58371505010E+03  0.17133017659E+03 -0.98248248950E+03  0.11555730748E+04  0.00000000000E+00 0. -1.
        -14    1    3    3    0    0  0.56886684875E+03  0.16473847251E+03 -0.81464226754E+03  0.10071694396E+04  0.00000000000E+00 0.  1.
         13    1    5    5    0    0 -0.14087970308E+03 -0.17338898369E+03 -0.11783884984E+03  0.25258033363E+03  0.00000000000E+00 0. -1.
        -14    1    5    5    0    0 -0.24606562333E+02 -0.12397939200E+03 -0.63428518663E+02  0.14141976357E+03  0.00000000000E+00 0.  1.
          2    1    6    6  502    0 -0.16712782791E+03 -0.26611267122E+02 -0.93857858834E+02  0.19351787531E+03  0.00000000000E+00 0. -1.
         -1    1    6    6    0  502 -0.81996780554E+03 -0.12089006285E+02 -0.31088826338E+03  0.87700904129E+03  0.00000000000E+00 0.  1.
<mgrwt>
<rscale>  0 0.12698375E+04</rscale>
<asrwt>0</asrwt>
<pdfrwt beam="1">  1        1 0.46233906E+00 0.12698375E+04</pdfrwt>
<pdfrwt beam="2">  1       -2 0.95702406E-01 0.12698375E+04</pdfrwt>
<totfact> 0.46881120E-01</totfact>
</mgrwt>
</event>
<event>
12    3  0.2212098E-007  0.6082165E+03  0.7818608E-02  0.9888505E-01
         -2   -1    0    0    0  501 -0.00000000000E+00  0.00000000000E+00  0.33737715129E+03  0.33737715129E+03  0.00000000000E+00 0.  1.
          1   -1    0    0  501    0  0.00000000000E+00 -0.00000000000E+00 -0.11995209502E+04  0.11995209502E+04  0.00000000000E+00 0. -1.
        -24    2    1    2    0    0 -0.43572800897E+03  0.13893731476E+03 -0.55136542468E+03  0.72082636468E+03  0.80151988459E+02 0.  0.
    5000000    2    1    2    0    0  0.43572800897E+03 -0.13893731476E+03 -0.31077837426E+03  0.81607173683E+03  0.60018947551E+03 0.  0.
        -24    2    4    4    0    0 -0.37571322808E+02  0.16548713784E+03 -0.86713292479E+02  0.20503512619E+03  0.75647939770E+02 0.  0.
         24    2    4    4    0    0  0.47329933178E+03 -0.30442445260E+03 -0.22406508178E+03  0.61103661064E+03  0.80461629804E+02 0.  0.
         13    1    5    5    0    0 -0.28943745873E+02  0.14044002026E+02 -0.27059934735E+02  0.42038250272E+02  0.00000000000E+00 0. -1.
        -14    1    5    5    0    0 -0.86275769346E+01  0.15144313581E+03 -0.59653357743E+02  0.16299687592E+03  0.00000000000E+00 0.  1.
         13    1    3    3    0    0 -0.28365368257E+03  0.50277069428E+02 -0.35260470331E+03  0.45532106490E+03  0.00000000000E+00 0. -1.
        -14    1    3    3    0    0 -0.15207432640E+03  0.88660245330E+02 -0.19876072137E+03  0.26550529977E+03  0.00000000000E+00 0.  1.
          2    1    6    6  502    0  0.35634085513E+03 -0.18576510468E+03 -0.15713733462E+03  0.43148536602E+03  0.00000000000E+00 0. -1.
         -1    1    6    6    0  502  0.11695847664E+03 -0.11865934791E+03 -0.66927747161E+02  0.17955124462E+03  0.00000000000E+00 0.  1.
<mgrwt>
<rscale>  0 0.60821648E+03</rscale>
<asrwt>0</asrwt>
<pdfrwt beam="1">  1        1 0.18454168E+00 0.60821648E+03</pdfrwt>
<pdfrwt beam="2">  1       -2 0.51904178E-01 0.60821648E+03</pdfrwt>
<totfact> 0.34234863E+01</totfact>
</mgrwt>
</event>
<event>
12    3  0.2212098E-007  0.3754661E+03  0.7818608E-02  0.1052622E+00
         -2   -1    0    0    0  501 -0.00000000000E+00  0.00000000000E+00  0.81837475672E+02  0.81837475672E+02  0.00000000000E+00 0.  1.
          1   -1    0    0  501    0  0.00000000000E+00 -0.00000000000E+00 -0.22128088405E+04  0.22128088405E+04  0.00000000000E+00 0. -1.
        -24    2    1    2    0    0 -0.81125217635E+01 -0.16933452100E+03 -0.24141935674E+03  0.30488079352E+03  0.76999996331E+02 0.  0.
    5000000    2    1    2    0    0  0.81125217635E+01  0.16933452100E+03 -0.18895520081E+04  0.19897655226E+04  0.60001670882E+03 0.  0.
        -24    2    4    4    0    0  0.12688857034E+03  0.33013459726E+03 -0.15110438188E+04  0.15538690627E+04  0.78524391213E+02 0.  0.
         24    2    4    4    0    0 -0.11877604858E+03 -0.16080007626E+03 -0.37850818922E+03  0.43589645991E+03  0.82297388891E+02 0.  0.
         13    1    3    3    0    0  0.34090450670E+02 -0.65776228807E+02 -0.10450538693E+03  0.12810170569E+03  0.00000000000E+00 0. -1.
        -14    1    3    3    0    0 -0.42202972434E+02 -0.10355829219E+03 -0.13691396981E+03  0.17677908783E+03  0.00000000000E+00 0.  1.
         13    1    5    5    0    0  0.12364616536E+03  0.24997053021E+03 -0.12520861757E+04  0.12827678791E+04  0.00000000000E+00 0. -1.
        -14    1    5    5    0    0  0.32424049831E+01  0.80164067044E+02 -0.25895764315E+03  0.27110118366E+03  0.00000000000E+00 0.  1.
          4    1    6    6  502    0  0.93774289401E+00 -0.24433925532E+02 -0.12696170795E+02  0.27551566770E+02  0.00000000000E+00 0. -1.
         -3    1    6    6    0  502 -0.11971379147E+03 -0.13636615073E+03 -0.36581201842E+03  0.40834489314E+03  0.00000000000E+00 0.  1.
<mgrwt>
<rscale>  0 0.37546613E+03</rscale>
<asrwt>0</asrwt>
<pdfrwt beam="1">  1        1 0.34043214E+00 0.37546613E+03</pdfrwt>
<pdfrwt beam="2">  1       -2 0.12590381E-01 0.37546613E+03</pdfrwt>
<totfact> 0.96380938E+01</totfact>
</mgrwt>
</event>
<event>
12    3  0.2212098E-007  0.8009299E+03  0.7818608E-02  0.9558672E-01
         -2   -1    0    0    0  501 -0.00000000000E+00  0.00000000000E+00  0.67326200665E+03  0.67326200665E+03  0.00000000000E+00 0.  1.
          1   -1    0    0  501    0  0.00000000000E+00 -0.00000000000E+00 -0.14644965825E+04  0.14644965825E+04  0.00000000000E+00 0. -1.
        -24    2    1    2    0    0  0.36001973917E+02  0.69731176520E+03  0.25186726849E+03  0.74641543130E+03  0.78479520438E+02 0.  0.
    5000000    2    1    2    0    0 -0.36001973917E+02 -0.69731176520E+03 -0.10431018443E+04  0.13913431579E+04  0.60019537253E+03 0.  0.
        -24    2    4    4    0    0  0.22513127573E+03 -0.10605389057E+03 -0.22077761885E+03  0.34234996482E+03  0.80803603933E+02 0.  0.
         24    2    4    4    0    0 -0.26113324964E+03 -0.59125787463E+03 -0.82232422550E+03  0.10489931930E+04  0.79957106103E+02 0.  0.
         11    1    5    5    0    0  0.21347388281E+03 -0.79856454117E+02 -0.17112356846E+03  0.28501127625E+03  0.00000000000E+00 0. -1.
        -12    1    5    5    0    0  0.11657392914E+02 -0.26197436452E+02 -0.49654050389E+02  0.57338688565E+02  0.00000000000E+00 0.  1.
         11    1    3    3    0    0 -0.38212404864E+01  0.11313136609E+03  0.70835991770E+02  0.13353293826E+03  0.00000000000E+00 0. -1.
        -12    1    3    3    0    0  0.39823214404E+02  0.58418039912E+03  0.18103127672E+03  0.61288249304E+03  0.00000000000E+00 0.  1.
          4    1    6    6  502    0 -0.14406241830E+03 -0.30753461352E+03 -0.49479621752E+03  0.60012899925E+03  0.00000000000E+00 0. -1.
         -3    1    6    6    0  502 -0.11707083134E+03 -0.28372326112E+03 -0.32752800798E+03  0.44886419379E+03  0.00000000000E+00 0.  1.
<mgrwt>
<rscale>  0 0.80092995E+03</rscale>
<asrwt>0</asrwt>
<pdfrwt beam="1">  1        1 0.22530716E+00 0.80092995E+03</pdfrwt>
<pdfrwt beam="2">  1       -2 0.10357877E+00 0.80092995E+03</pdfrwt>
<totfact> 0.47296563E+00</totfact>
</mgrwt>
</event>
<event>
12    3  0.2212098E-007  0.6868070E+03  0.7818608E-02  0.9740064E-01
         -2   -1    0    0    0  501 -0.00000000000E+00  0.00000000000E+00  0.82965726981E+03  0.82965726981E+03  0.00000000000E+00 0.  1.
          1   -1    0    0  501    0  0.00000000000E+00 -0.00000000000E+00 -0.62395968466E+03  0.62395968466E+03  0.00000000000E+00 0. -1.
        -24    2    1    2    0    0  0.38463433989E+03 -0.41838070149E+03 -0.79815825939E+02  0.57925736908E+03  0.78629172488E+02 0.  0.
    5000000    2    1    2    0    0 -0.38463433989E+03  0.41838070149E+03  0.28551341109E+03  0.87435958539E+03  0.60000065820E+03 0.  0.
        -24    2    4    4    0    0  0.13920642623E+03  0.54237150280E+02  0.12258325167E+03  0.21114903961E+03  0.85071533221E+02 0.  0.
         24    2    4    4    0    0 -0.52384076613E+03  0.36414355121E+03  0.16293015943E+03  0.66321054578E+03  0.79324126470E+02 0.  0.
         11    1    5    5    0    0  0.26432108399E+02  0.38262293815E+02  0.73825346863E+02  0.87251597819E+02  0.00000000000E+00 0. -1.
        -12    1    5    5    0    0  0.11277431783E+03  0.15974856465E+02  0.48757904802E+02  0.12389744179E+03  0.00000000000E+00 0.  1.
         11    1    3    3    0    0  0.27572794626E+03 -0.34616720099E+03 -0.71742306715E+02  0.44833535435E+03  0.00000000000E+00 0. -1.
        -12    1    3    3    0    0  0.10890639364E+03 -0.72213500492E+02 -0.80735192242E+01  0.13092201473E+03  0.00000000000E+00 0.  1.
          2    1    6    6  502    0 -0.26077580655E+03  0.15050354443E+03  0.10814296012E+03  0.31992223741E+03  0.00000000000E+00 0. -1.
         -1    1    6    6    0  502 -0.26306495957E+03  0.21364000678E+03  0.54787199309E+02  0.34328830836E+03  0.00000000000E+00 0.  1.
<mgrwt>
<rscale>  0 0.68680696E+03</rscale>
<asrwt>0</asrwt>
<pdfrwt beam="1">  1        1 0.95993797E-01 0.68680696E+03</pdfrwt>
<pdfrwt beam="2">  1       -2 0.12763958E+00 0.68680696E+03</pdfrwt>
<totfact> 0.13226155E+01</totfact>
</mgrwt>
</event>
<event>
12    3  0.2212098E-007  0.7651577E+03  0.7818608E-02  0.9611866E-01
         -2   -1    0    0    0  501 -0.00000000000E+00  0.00000000000E+00  0.48721841797E+03  0.48721841797E+03  0.00000000000E+00 0.  1.
          1   -1    0    0  501    0  0.00000000000E+00 -0.00000000000E+00 -0.13752345745E+04  0.13752345745E+04  0.00000000000E+00 0. -1.
        -24    2    1    2    0    0  0.40590652494E+03 -0.53971678668E+03 -0.61974259648E+03  0.92005763767E+03  0.79817629195E+02 0.  0.
    5000000    2    1    2    0    0 -0.40590652494E+03  0.53971678668E+03 -0.26827356004E+03  0.94239535480E+03  0.60006998335E+03 0.  0.
        -24    2    4    4    0    0 -0.45543425713E+03  0.18639568040E+03 -0.28874154581E+03  0.57640550745E+03  0.81901871205E+02 0.  0.
         24    2    4    4    0    0  0.49527732188E+02  0.35332110628E+03  0.20467985773E+02  0.36598984734E+03  0.78998920999E+02 0.  0.
         13    1    3    3    0    0  0.24498807507E+03 -0.36670361087E+03 -0.44203937642E+03  0.62441132714E+03  0.00000000000E+00 0. -1.
        -14    1    3    3    0    0  0.16091844987E+03 -0.17301317581E+03 -0.17770322006E+03  0.29564631053E+03  0.00000000000E+00 0.  1.
         13    1    5    5    0    0 -0.18992075314E+03  0.86439786714E+02 -0.16877768440E+03  0.26837964891E+03  0.00000000000E+00 0. -1.
        -14    1    5    5    0    0 -0.26551350399E+03  0.99955893686E+02 -0.11996386141E+03  0.30802585854E+03  0.00000000000E+00 0.  1.
          2    1    6    6  502    0  0.49145729031E+02  0.16106617057E+03 -0.19817054699E+02  0.16955922163E+03  0.00000000000E+00 0. -1.
         -1    1    6    6    0  502  0.38200315645E+00  0.19225493571E+03  0.40285040472E+02  0.19643062571E+03  0.00000000000E+00 0.  1.
<mgrwt>
<rscale>  0 0.76515766E+03</rscale>
<asrwt>0</asrwt>
<pdfrwt beam="1">  1        1 0.21157455E+00 0.76515766E+03</pdfrwt>
<pdfrwt beam="2">  1       -2 0.74956680E-01 0.76515766E+03</pdfrwt>
<totfact> 0.11531678E+01</totfact>
</mgrwt>
</event>
<event>
12    3  0.2475926E-007  0.8114328E+03  0.7818608E-02  0.9543614E-01
          1   -1    0    0  501    0  0.00000000000E+00  0.00000000000E+00  0.16270499856E+04  0.16270499856E+04  0.00000000000E+00 0. -1.
         -2   -1    0    0    0  501 -0.00000000000E+00 -0.00000000000E+00 -0.13503845629E+04  0.13503845629E+04  0.00000000000E+00 0.  1.
        -24    2    1    2    0    0  0.74263139162E+03 -0.36359268420E+02  0.13483275361E+04  0.15417366118E+04  0.78366163570E+02 0.  0.
    5000000    2    1    2    0    0 -0.74263139162E+03  0.36359268420E+02 -0.10716621134E+04  0.14356979367E+04  0.59995458160E+03 0.  0.
        -24    2    4    4    0    0 -0.65841943063E+03  0.20187270651E+03 -0.10098171358E+04  0.12249622332E+04  0.80827525507E+02 0.  0.
         24    2    4    4    0    0 -0.84211960988E+02 -0.16551343809E+03 -0.61844977627E+02  0.21073570349E+03  0.78092143688E+02 0.  0.
         11    1    5    5    0    0 -0.21656696957E+03  0.90038940132E+02 -0.39912368078E+03  0.46293409424E+03  0.00000000000E+00 0. -1.
        -12    1    5    5    0    0 -0.44185246106E+03  0.11183376637E+03 -0.61069345498E+03  0.76202813898E+03  0.00000000000E+00 0.  1.
         11    1    3    3    0    0  0.49226909958E+03 -0.57328697530E+02  0.86048305390E+03  0.99299875730E+03  0.00000000000E+00 0. -1.
        -12    1    3    3    0    0  0.25036229204E+03  0.20969429111E+02  0.48784448216E+03  0.54873785454E+03  0.00000000000E+00 0.  1.
          4    1    6    6  502    0 -0.43767046770E+02 -0.86931106584E+02 -0.72990462961E+02  0.12165598776E+03  0.00000000000E+00 0. -1.
         -3    1    6    6    0  502 -0.40444914217E+02 -0.78582331502E+02  0.11145485334E+02  0.89079715725E+02  0.00000000000E+00 0.  1.
<mgrwt>
<rscale>  0 0.81143284E+03</rscale>
<asrwt>0</asrwt>
<pdfrwt beam="1">  1        1 0.25031538E+00 0.81143284E+03</pdfrwt>
<pdfrwt beam="2">  1       -2 0.20775147E+00 0.81143284E+03</pdfrwt>
<totfact> 0.57356872E-01</totfact>
</mgrwt>
</event>
<event>
12    3  0.2212098E-007  0.7390850E+03  0.7818608E-02  0.9652632E-01
          1   -1    0    0  501    0  0.00000000000E+00  0.00000000000E+00  0.26031351844E+04  0.26031351844E+04  0.00000000000E+00 0. -1.
         -2   -1    0    0    0  501 -0.00000000000E+00 -0.00000000000E+00 -0.26837337783E+03  0.26837337783E+03  0.00000000000E+00 0.  1.
        -24    2    1    2    0    0 -0.30171306909E+03 -0.54838667579E+03  0.16486051817E+04  0.17654568419E+04  0.84735431703E+02 0.  0.
    5000000    2    1    2    0    0  0.30171306909E+03  0.54838667579E+03  0.68615662488E+03  0.11060517203E+04  0.60065029081E+03 0.  0.
        -24    2    4    4    0    0  0.45977003973E+03  0.28694267346E+03  0.47071177822E+03  0.72233847532E+03  0.80490418641E+02 0.  0.
         24    2    4    4    0    0 -0.15805697063E+03  0.26144400233E+03  0.21544484666E+03  0.38371324497E+03  0.86512427372E+02 0.  0.
         13    1    3    3    0    0 -0.78914905609E+02 -0.16592028214E+03  0.59290199168E+03  0.62071722555E+03  0.00000000000E+00 0. -1.
        -14    1    3    3    0    0 -0.22279816349E+03 -0.38246639365E+03  0.10557031900E+04  0.11447396164E+04  0.00000000000E+00 0.  1.
         13    1    5    5    0    0  0.34210796674E+03  0.22935289426E+03  0.39683694373E+03  0.57194420264E+03  0.00000000000E+00 0. -1.
        -14    1    5    5    0    0  0.11766207298E+03  0.57589779194E+02  0.73874834487E+02  0.15039427269E+03  0.00000000000E+00 0.  1.
          2    1    6    6  502    0 -0.51792744679E+02  0.48524264101E+02  0.90287045988E+02  0.11484268928E+03  0.00000000000E+00 0. -1.
         -1    1    6    6    0  502 -0.10626422596E+03  0.21291973823E+03  0.12515780067E+03  0.26887055569E+03  0.00000000000E+00 0.  1.
<mgrwt>
<rscale>  0 0.73908497E+03</rscale>
<asrwt>0</asrwt>
<pdfrwt beam="1">  1        1 0.40048232E+00 0.73908497E+03</pdfrwt>
<pdfrwt beam="2">  1       -2 0.41288214E-01 0.73908497E+03</pdfrwt>
<totfact> 0.59248947E+00</totfact>
</mgrwt>
</event>
<event>
12    3  0.2212098E-007  0.9874540E+03  0.7818608E-02  0.9322413E-01
          1   -1    0    0  501    0  0.00000000000E+00  0.00000000000E+00  0.15061841623E+04  0.15061841623E+04  0.00000000000E+00 0. -1.
         -2   -1    0    0    0  501 -0.00000000000E+00 -0.00000000000E+00 -0.77529445163E+03  0.77529445163E+03  0.00000000000E+00 0.  1.
        -24    2    1    2    0    0  0.53925992341E+03 -0.77210866760E+03  0.67871169963E+03  0.11636266236E+04  0.80151658412E+02 0.  0.
    5000000    2    1    2    0    0 -0.53925992341E+03  0.77210866760E+03  0.52178011075E+02  0.11178519904E+04  0.59993121936E+03 0.  0.
        -24    2    4    4    0    0 -0.59743513659E+03  0.58717953633E+03 -0.11681549336E+03  0.84775009637E+03  0.57669888889E+02 0.  0.
         24    2    4    4    0    0  0.58175213181E+02  0.18492913126E+03  0.16899350443E+03  0.27010189400E+03  0.82541441607E+02 0.  0.
         11    1    5    5    0    0 -0.31259385735E+03  0.32175503387E+03 -0.35430921029E+02  0.44999619070E+03  0.00000000000E+00 0. -1.
        -12    1    5    5    0    0 -0.28484127924E+03  0.26542450246E+03 -0.81384572332E+02  0.39775390567E+03  0.00000000000E+00 0.  1.
         13    1    3    3    0    0  0.17322105076E+03 -0.26519434040E+03  0.27399915868E+03  0.41881870727E+03  0.00000000000E+00 0. -1.
        -14    1    3    3    0    0  0.36603887265E+03 -0.50691432720E+03  0.40471254095E+03  0.74480791632E+03  0.00000000000E+00 0.  1.
          4    1    6    6  502    0 -0.96211872076E+00  0.15034693870E+02  0.55248284461E+02  0.57265527397E+02  0.00000000000E+00 0. -1.
         -3    1    6    6    0  502  0.59137331901E+02  0.16989443739E+03  0.11374521997E+03  0.21283636660E+03  0.00000000000E+00 0.  1.
<mgrwt>
<rscale>  0 0.98745400E+03</rscale>
<asrwt>0</asrwt>
<pdfrwt beam="1">  1        1 0.23172064E+00 0.98745400E+03</pdfrwt>
<pdfrwt beam="2">  1       -2 0.11927607E+00 0.98745400E+03</pdfrwt>
<totfact> 0.30663837E+00</totfact>
</mgrwt>
</event>
<event>
12    3  0.2212098E-007  0.1015433E+04  0.7818608E-02  0.9291778E-01
          1   -1    0    0  501    0  0.00000000000E+00  0.00000000000E+00  0.77901676729E+03  0.77901676729E+03  0.00000000000E+00 0. -1.
         -2   -1    0    0    0  501 -0.00000000000E+00 -0.00000000000E+00 -0.13425018367E+04  0.13425018367E+04  0.00000000000E+00 0.  1.
        -24    2    1    2    0    0  0.23224614549E+03  0.89958377607E+03 -0.17066053536E+03  0.94784451584E+03  0.78070260789E+02 0.  0.
    5000000    2    1    2    0    0 -0.23224614549E+03 -0.89958377607E+03 -0.39282453408E+03  0.11736740882E+04  0.60000875695E+03 0.  0.
        -24    2    4    4    0    0 -0.40516675414E+03 -0.76567653587E+03 -0.27229726783E+03  0.91146793075E+03  0.78786613482E+02 0.  0.
         24    2    4    4    0    0  0.17292060865E+03 -0.13390724020E+03 -0.12052726625E+03  0.26220615743E+03  0.79953494046E+02 0.  0.
         11    1    3    3    0    0  0.41878525188E+02  0.21698206102E+03 -0.10011095600E+02  0.22121312735E+03  0.00000000000E+00 0. -1.
        -12    1    3    3    0    0  0.19036762031E+03  0.68260171505E+03 -0.16064943976E+03  0.72663138849E+03  0.00000000000E+00 0.  1.
         13    1    5    5    0    0 -0.30489745263E+03 -0.51184612925E+03 -0.20837425410E+03  0.63116459535E+03  0.00000000000E+00 0. -1.
        -14    1    5    5    0    0 -0.10026930151E+03 -0.25383040662E+03 -0.63923013736E+02  0.28030333540E+03  0.00000000000E+00 0.  1.
          4    1    6    6  502    0  0.13013239110E+03 -0.13784546857E+03 -0.92755830280E+02  0.21104373118E+03  0.00000000000E+00 0. -1.
         -1    1    6    6    0  502  0.42788217548E+02  0.39382283743E+01 -0.27771435969E+02  0.51162426247E+02  0.00000000000E+00 0.  1.
<mgrwt>
<rscale>  0 0.10154331E+04</rscale>
<asrwt>0</asrwt>
<pdfrwt beam="1">  1        1 0.11984873E+00 0.10154331E+04</pdfrwt>
<pdfrwt beam="2">  1       -2 0.20653874E+00 0.10154331E+04</pdfrwt>
<totfact> 0.24268113E+00</totfact>
</mgrwt>
</event>
<event>
12    3  0.2212098E-007  0.9284399E+03  0.7818608E-02  0.9390712E-01
          1   -1    0    0  501    0  0.00000000000E+00  0.00000000000E+00  0.15601254585E+04  0.15601254585E+04  0.00000000000E+00 0. -1.
         -2   -1    0    0    0  501 -0.00000000000E+00 -0.00000000000E+00 -0.66655691409E+03  0.66655691409E+03  0.00000000000E+00 0.  1.
        -24    2    1    2    0    0 -0.91034559991E+03 -0.56068564186E+02  0.60520164367E+03  0.10974662674E+04  0.79311938127E+02 0.  0.
    5000000    2    1    2    0    0  0.91034559991E+03  0.56068564186E+02  0.28836690076E+03  0.11292161052E+04  0.60008395042E+03 0.  0.
        -24    2    4    4    0    0  0.55943405885E+03  0.13773552162E+03 -0.10390062729E+03  0.59085729599E+03  0.79871545308E+02 0.  0.
         24    2    4    4    0    0  0.35091154106E+03 -0.81666957435E+02  0.39226752805E+03  0.53835880918E+03  0.78409133894E+02 0.  0.
         11    1    3    3    0    0 -0.65641107111E+03 -0.73243860278E+02  0.45317238199E+03  0.80100272480E+03  0.00000000000E+00 0. -1.
        -12    1    3    3    0    0 -0.25393452880E+03  0.17175296092E+02  0.15202926168E+03  0.29646354265E+03  0.00000000000E+00 0.  1.
         13    1    5    5    0    0  0.41780240613E+03  0.66529589215E+02 -0.79359717476E+02  0.43044512028E+03  0.00000000000E+00 0. -1.
        -14    1    5    5    0    0  0.14163165272E+03  0.71205932405E+02 -0.24540909811E+02  0.16041217571E+03  0.00000000000E+00 0.  1.
          4    1    6    6  502    0  0.30995108348E+03 -0.71860691654E+02  0.30167156309E+03  0.43845109776E+03  0.00000000000E+00 0. -1.
         -3    1    6    6    0  502  0.40960457579E+02 -0.98062657810E+01  0.90595964959E+02  0.99907711416E+02  0.00000000000E+00 0.  1.
<mgrwt>
<rscale>  0 0.92843993E+03</rscale>
<asrwt>0</asrwt>
<pdfrwt beam="1">  1        1 0.24001930E+00 0.92843993E+03</pdfrwt>
<pdfrwt beam="2">  1       -2 0.10254722E+00 0.92843993E+03</pdfrwt>
<totfact> 0.40963803E+00</totfact>
</mgrwt>
</event>
<event>
12    3  0.2212098E-007  0.9801772E+03  0.7818608E-02  0.9330557E-01
          1   -1    0    0  501    0  0.00000000000E+00  0.00000000000E+00  0.12275874171E+04  0.12275874171E+04  0.00000000000E+00 0. -1.
         -2   -1    0    0    0  501 -0.00000000000E+00 -0.00000000000E+00 -0.91696623190E+03  0.91696623190E+03  0.00000000000E+00 0.  1.
        -24    2    1    2    0    0  0.10142530161E+03  0.96385261148E+03  0.42081319319E+02  0.97352317942E+03  0.81716552604E+02 0.  0.
    5000000    2    1    2    0    0 -0.10142530161E+03 -0.96385261148E+03  0.26853986592E+03  0.11710304696E+04  0.59991645480E+03 0.  0.
        -24    2    4    4    0    0  0.44810881094E+02 -0.44472652716E+03  0.40639562379E+03  0.60910900313E+03  0.77888867198E+02 0.  0.
         24    2    4    4    0    0 -0.14623618270E+03 -0.51912608432E+03 -0.13785575787E+03  0.56192146650E+03  0.76646017357E+02 0.  0.
         13    1    5    5    0    0  0.37590311351E+02 -0.18562418111E+03  0.12720920326E+03  0.22814808681E+03  0.00000000000E+00 0. -1.
        -14    1    5    5    0    0  0.72205697428E+01 -0.25910234605E+03  0.27918642053E+03  0.38096091632E+03  0.00000000000E+00 0.  1.
         13    1    3    3    0    0  0.10975236769E+03  0.70974157228E+03  0.22652895353E+02  0.71853450530E+03  0.00000000000E+00 0. -1.
        -14    1    3    3    0    0 -0.83270660804E+01  0.25411103920E+03  0.19428423966E+02  0.25498867412E+03  0.00000000000E+00 0.  1.
          2    1    6    6  502    0 -0.12152042963E+03 -0.42832531698E+03 -0.82703511060E+02  0.45284617998E+03  0.00000000000E+00 0. -1.
         -1    1    6    6    0  502 -0.24715753070E+02 -0.90800767345E+02 -0.55152246811E+02  0.10907528652E+03  0.00000000000E+00 0.  1.
<mgrwt>
<rscale>  0 0.98017715E+03</rscale>
<asrwt>0</asrwt>
<pdfrwt beam="1">  1        1 0.18885960E+00 0.98017715E+03</pdfrwt>
<pdfrwt beam="2">  1       -2 0.14107173E+00 0.98017715E+03</pdfrwt>
<totfact> 0.31470732E+00</totfact>
</mgrwt>
</event>
<event>
12    3  0.2212098E-007  0.1102596E+04  0.7818608E-02  0.9202665E-01
         -2   -1    0    0    0  501 -0.00000000000E+00  0.00000000000E+00  0.10242228407E+04  0.10242228407E+04  0.00000000000E+00 0.  1.
          1   -1    0    0  501    0  0.00000000000E+00 -0.00000000000E+00 -0.12477322918E+04  0.12477322918E+04  0.00000000000E+00 0. -1.
        -24    2    1    2    0    0  0.57244458771E+03  0.87432684458E+03 -0.96776203222E+01  0.10482590103E+04  0.81320717976E+02 0.  0.
    5000000    2    1    2    0    0 -0.57244458771E+03 -0.87432684458E+03 -0.21383183071E+03  0.12236961222E+04  0.59963981730E+03 0.  0.
        -24    2    4    4    0    0 -0.19745911871E+03 -0.72909994772E+03 -0.27706897005E+03  0.80842108007E+03  0.78743832765E+02 0.  0.
         24    2    4    4    0    0 -0.37498546900E+03 -0.14522689686E+03  0.63237139343E+02  0.41527504212E+03  0.82155165936E+02 0.  0.
         11    1    3    3    0    0  0.43663855497E+03  0.67733939364E+03 -0.41173879277E+02  0.80693070966E+03  0.00000000000E+00 0. -1.
        -12    1    3    3    0    0  0.13580603274E+03  0.19698745094E+03  0.31496258954E+02  0.24132830063E+03  0.00000000000E+00 0.  1.
         13    1    5    5    0    0 -0.13429378214E+03 -0.46747306443E+03 -0.13858235111E+03  0.50573802895E+03  0.00000000000E+00 0. -1.
        -14    1    5    5    0    0 -0.63165336566E+02 -0.26162688330E+03 -0.13848661895E+03  0.30268305112E+03  0.00000000000E+00 0.  1.
          4    1    6    6  502    0 -0.29406140174E+03 -0.13277734672E+03  0.78327860560E+02  0.33201985714E+03  0.00000000000E+00 0. -1.
         -3    1    6    6    0  502 -0.80924067252E+02 -0.12449550134E+02 -0.15090721217E+02  0.83255184980E+02  0.00000000000E+00 0.  1.
<mgrwt>
<rscale>  0 0.11025963E+04</rscale>
<asrwt>0</asrwt>
<pdfrwt beam="1">  1        1 0.19195881E+00 0.11025963E+04</pdfrwt>
<pdfrwt beam="2">  1       -2 0.15757274E+00 0.11025963E+04</pdfrwt>
<totfact> 0.22379225E+00</totfact>
</mgrwt>
</event>
<event>
12    3  0.2212098E-007  0.4576635E+03  0.7818608E-02  0.1025461E+00
         -2   -1    0    0    0  501 -0.00000000000E+00  0.00000000000E+00  0.36458950982E+03  0.36458950982E+03  0.00000000000E+00 0.  1.
          1   -1    0    0  501    0  0.00000000000E+00 -0.00000000000E+00 -0.10349562283E+04  0.10349562283E+04  0.00000000000E+00 0. -1.
        -24    2    1    2    0    0  0.30707475827E+03  0.22773084980E+03  0.42477673129E+02  0.39277051823E+03  0.79423423213E+02 0.  0.
    5000000    2    1    2    0    0 -0.30707475827E+03 -0.22773084980E+03 -0.71284439162E+03  0.10067752199E+04  0.59941051844E+03 0.  0.
        -24    2    4    4    0    0  0.68905209903E+02 -0.28414208226E+02 -0.52305091268E+03  0.53400560566E+03  0.77617230315E+02 0.  0.
         24    2    4    4    0    0 -0.37597996818E+03 -0.19931664157E+03 -0.18979347894E+03  0.47276961424E+03  0.80009270856E+02 0.  0.
         11    1    5    5    0    0 -0.82731180067E+01  0.27352747731E+01 -0.20689722207E+03  0.20708062852E+03  0.00000000000E+00 0. -1.
        -12    1    5    5    0    0  0.77178327910E+02 -0.31149482999E+02 -0.31615369061E+03  0.32692497714E+03  0.00000000000E+00 0.  1.
         13    1    3    3    0    0  0.18078983777E+03  0.84659659684E+02  0.20879316462E+02  0.20071913032E+03  0.00000000000E+00 0. -1.
        -14    1    3    3    0    0  0.12628492050E+03  0.14307119012E+03  0.21598356667E+02  0.19205138791E+03  0.00000000000E+00 0.  1.
          4    1    6    6  502    0 -0.39955391630E+02  0.40335376662E+01 -0.20234573509E+02  0.44968218905E+02  0.00000000000E+00 0. -1.
         -3    1    6    6    0  502 -0.33602457655E+03 -0.20335017924E+03 -0.16955890543E+03  0.42780139534E+03  0.00000000000E+00 0.  1.
<mgrwt>
<rscale>  0 0.45766346E+03</rscale>
<asrwt>0</asrwt>
<pdfrwt beam="1">  1        1 0.15922403E+00 0.45766346E+03</pdfrwt>
<pdfrwt beam="2">  1       -2 0.56090695E-01 0.45766346E+03</pdfrwt>
<totfact> 0.39378866E+01</totfact>
</mgrwt>
</event>
<event>
12    3  0.2212098E-007  0.1164540E+04  0.7818608E-02  0.9144474E-01
         -2   -1    0    0    0  501 -0.00000000000E+00  0.00000000000E+00  0.69976022949E+03  0.69976022949E+03  0.00000000000E+00 0.  1.
          1   -1    0    0  501    0  0.00000000000E+00 -0.00000000000E+00 -0.21772360677E+04  0.21772360677E+04  0.00000000000E+00 0. -1.
        -24    2    1    2    0    0  0.52648431492E+03  0.10335383926E+04 -0.70872905412E+03  0.13616397078E+04  0.79865379600E+02 0.  0.
    5000000    2    1    2    0    0 -0.52648431492E+03 -0.10335383926E+04 -0.76874678405E+03  0.15153565894E+04  0.59995552526E+03 0.  0.
        -24    2    4    4    0    0 -0.33311266293E+03 -0.58658159494E+03 -0.10321449493E+03  0.68683138516E+03  0.77730984487E+02 0.  0.
         24    2    4    4    0    0 -0.19337165199E+03 -0.44695679762E+03 -0.66553228911E+03  0.82852520423E+03  0.79735885692E+02 0.  0.
         11    1    5    5    0    0 -0.26133137316E+03 -0.44456389810E+03 -0.46008439661E+02  0.51773344745E+03  0.00000000000E+00 0. -1.
        -12    1    5    5    0    0 -0.71781289768E+02 -0.14201769684E+03 -0.57206055273E+02  0.16909793771E+03  0.00000000000E+00 0.  1.
         13    1    3    3    0    0  0.45095410662E+03  0.93509390398E+03 -0.62153860989E+03  0.12099877930E+04  0.00000000000E+00 0. -1.
        -14    1    3    3    0    0  0.75530208303E+02  0.98444488568E+02 -0.87190444224E+02  0.15165191479E+03  0.00000000000E+00 0.  1.
          2    1    6    6  502    0 -0.12428433861E+03 -0.19891500388E+03 -0.34898646084E+03  0.42048225342E+03  0.00000000000E+00 0. -1.
         -1    1    6    6    0  502 -0.69087313381E+02 -0.24804179373E+03 -0.31654582827E+03  0.40804295081E+03  0.00000000000E+00 0.  1.
<mgrwt>
<rscale>  0 0.11645399E+04</rscale>
<asrwt>0</asrwt>
<pdfrwt beam="1">  1        1 0.33495940E+00 0.11645399E+04</pdfrwt>
<pdfrwt beam="2">  1       -2 0.10765542E+00 0.11645399E+04</pdfrwt>
<totfact> 0.13535822E+00</totfact>
</mgrwt>
</event>
<event>
12    3  0.2212098E-007  0.8188785E+03  0.7818608E-02  0.9533086E-01
          1   -1    0    0  501    0  0.00000000000E+00  0.00000000000E+00  0.25003887117E+04  0.25003887117E+04  0.00000000000E+00 0. -1.
         -2   -1    0    0    0  501 -0.00000000000E+00 -0.00000000000E+00 -0.32295667274E+03  0.32295667274E+03  0.00000000000E+00 0.  1.
        -24    2    1    2    0    0 -0.77870313887E+03  0.58383664072E+02  0.72433693531E+03  0.10679910520E+04  0.78445271413E+02 0.  0.
    5000000    2    1    2    0    0  0.77870313887E+03 -0.58383664072E+02  0.14530951037E+04  0.17553543325E+04  0.59999685117E+03 0.  0.
        -24    2    4    4    0    0  0.58883839245E+02 -0.98431996371E+02  0.94429183545E+01  0.13965170089E+03  0.79102872388E+02 0.  0.
         24    2    4    4    0    0  0.71981929963E+03  0.40048332299E+02  0.14436521853E+04  0.16157026316E+04  0.81361344744E+02 0.  0.
         13    1    5    5    0    0  0.44218014121E+02 -0.96519483591E+01 -0.12654356502E+02  0.46994953116E+02  0.00000000000E+00 0. -1.
        -14    1    5    5    0    0  0.14665825124E+02 -0.88780048012E+02  0.22097274856E+02  0.92656747772E+02  0.00000000000E+00 0.  1.
         13    1    3    3    0    0 -0.29387523837E+03  0.98463566029E+01  0.32242386707E+03  0.43636768501E+03  0.00000000000E+00 0. -1.
        -14    1    3    3    0    0 -0.48482790051E+03  0.48537307469E+02  0.40191306824E+03  0.63162336701E+03  0.00000000000E+00 0.  1.
          4    1    6    6  502    0  0.14908394330E+03 -0.52707855356E-02  0.23217337382E+03  0.27591755597E+03  0.00000000000E+00 0. -1.
         -3    1    6    6    0  502  0.57073535633E+03  0.40053603085E+02  0.12114788115E+04  0.13397850756E+04  0.00000000000E+00 0.  1.
<mgrwt>
<rscale>  0 0.81887851E+03</rscale>
<asrwt>0</asrwt>
<pdfrwt beam="1">  1        1 0.38467517E+00 0.81887851E+03</pdfrwt>
<pdfrwt beam="2">  1       -2 0.49685644E-01 0.81887851E+03</pdfrwt>
<totfact> 0.47518666E+00</totfact>
</mgrwt>
</event>
<event>
12    3  0.2212098E-007  0.1132219E+04  0.7818608E-02  0.9174346E-01
         -4   -1    0    0    0  501 -0.00000000000E+00  0.00000000000E+00  0.11924449671E+04  0.11924449671E+04  0.00000000000E+00 0.  1.
          3   -1    0    0  501    0  0.00000000000E+00 -0.00000000000E+00 -0.11643429708E+04  0.11643429708E+04  0.00000000000E+00 0. -1.
        -24    2    1    2    0    0  0.10432419260E+04 -0.30882971552E+03 -0.15302022888E+03  0.11009957284E+04  0.71041496588E+02 0.  0.
    5000000    2    1    2    0    0 -0.10432419260E+04  0.30882971552E+03  0.18112222518E+03  0.12557922095E+04  0.60039928679E+03 0.  0.
        -24    2    4    4    0    0 -0.74825919624E+03  0.41056555709E+03 -0.49974699359E+02  0.85906590276E+03  0.83909792459E+02 0.  0.
         24    2    4    4    0    0 -0.29498272975E+03 -0.10173584157E+03  0.23109692454E+03  0.39672630671E+03  0.81369414377E+02 0.  0.
         11    1    5    5    0    0 -0.14716516808E+03  0.12042146502E+03 -0.11023676491E+02  0.19047424334E+03  0.00000000000E+00 0. -1.
        -12    1    5    5    0    0 -0.60109402816E+03  0.29014409208E+03 -0.38951022868E+02  0.66859165941E+03  0.00000000000E+00 0.  1.
         13    1    3    3    0    0  0.13897875648E+03 -0.59179002183E+02 -0.38939894149E+02  0.15599219342E+03  0.00000000000E+00 0. -1.
        -14    1    3    3    0    0  0.90426316951E+03 -0.24965071334E+03 -0.11408033473E+03  0.94500353500E+03  0.00000000000E+00 0.  1.
          2    1    6    6  502    0 -0.12837579254E+03 -0.13314869050E+02  0.12799548664E+03  0.18177038936E+03  0.00000000000E+00 0. -1.
         -1    1    6    6    0  502 -0.16660693721E+03 -0.88420972523E+02  0.10310143790E+03  0.21495591735E+03  0.00000000000E+00 0.  1.
<mgrwt>
<rscale>  0 0.11322190E+04</rscale>
<asrwt>0</asrwt>
<pdfrwt beam="1">  1        3 0.17912969E+00 0.11322190E+04</pdfrwt>
<pdfrwt beam="2">  1       -4 0.18345307E+00 0.11322190E+04</pdfrwt>
<totfact> 0.74713392E-02</totfact>
</mgrwt>
</event>
<event>
12    3  0.2212098E-007  0.4824377E+03  0.7818608E-02  0.1018467E+00
          1   -1    0    0  501    0  0.00000000000E+00  0.00000000000E+00  0.71432153541E+03  0.71432153541E+03  0.00000000000E+00 0. -1.
         -2   -1    0    0    0  501 -0.00000000000E+00 -0.00000000000E+00 -0.42283956483E+03  0.42283956483E+03  0.00000000000E+00 0.  1.
        -24    2    1    2    0    0  0.91245808450E+02 -0.30002154798E+03  0.32608911779E+03  0.45929520264E+03  0.79241678504E+02 0.  0.
    5000000    2    1    2    0    0 -0.91245808450E+02  0.30002154798E+03 -0.34607147216E+02  0.67786589761E+03  0.59997149407E+03 0.  0.
        -24    2    4    4    0    0 -0.10332305707E+01 -0.15959741368E+03  0.61080408449E+02  0.18906905965E+03  0.80894319971E+02 0.  0.
         24    2    4    4    0    0 -0.90212577880E+02  0.45961896165E+03 -0.95687555665E+02  0.48879683796E+03  0.10187414474E+03 0.  0.
         11    1    5    5    0    0 -0.20980665751E+02 -0.76044785351E+02  0.66247188131E+02  0.10301304602E+03  0.00000000000E+00 0. -1.
        -12    1    5    5    0    0  0.19947435181E+02 -0.83552628327E+02 -0.51667796813E+01  0.86056013636E+02  0.00000000000E+00 0.  1.
         13    1    3    3    0    0  0.96861300027E+01 -0.15388258740E+03  0.18129357841E+03  0.23799376755E+03  0.00000000000E+00 0. -1.
        -14    1    3    3    0    0  0.81559678448E+02 -0.14613896057E+03  0.14479553939E+03  0.22130143509E+03  0.00000000000E+00 0.  1.
          4    1    6    6  502    0  0.67247219341E+01  0.21940458101E+03 -0.29878399266E+02  0.22153173768E+03  0.00000000000E+00 0. -1.
         -3    1    6    6    0  502 -0.96937299814E+02  0.24021438064E+03 -0.65809156399E+02  0.26726510028E+03  0.00000000000E+00 0.  1.
<mgrwt>
<rscale>  0 0.48243770E+03</rscale>
<asrwt>0</asrwt>
<pdfrwt beam="1">  1        1 0.10989562E+00 0.48243770E+03</pdfrwt>
<pdfrwt beam="2">  1       -2 0.65052241E-01 0.48243770E+03</pdfrwt>
<totfact> 0.52680822E+01</totfact>
</mgrwt>
</event>
<event>
12    3  0.2212098E-007  0.2645679E+04  0.7818608E-02  0.8352849E-01
          1   -1    0    0  501    0  0.00000000000E+00  0.00000000000E+00  0.43467578001E+04  0.43467578001E+04  0.00000000000E+00 0. -1.
         -2   -1    0    0    0  501 -0.00000000000E+00 -0.00000000000E+00 -0.24999531573E+04  0.24999531573E+04  0.00000000000E+00 0.  1.
        -24    2    1    2    0    0 -0.65380457142E+03 -0.25517493123E+04  0.29257213371E+04  0.39376330032E+04  0.78888244444E+02 0.  0.
    5000000    2    1    2    0    0  0.65380457142E+03  0.25517493123E+04 -0.10789166944E+04  0.29090779543E+04  0.59982359090E+03 0.  0.
        -24    2    4    4    0    0  0.44675072088E+03  0.22208513368E+04 -0.10772348061E+04  0.25096916319E+04  0.79689352148E+02 0.  0.
         24    2    4    4    0    0  0.20705385054E+03  0.33089797547E+03 -0.16818882166E+01  0.39938632235E+03  0.84509399117E+02 0.  0.
         11    1    5    5    0    0  0.43730190665E+03  0.20761621531E+04 -0.10052975763E+04  0.23478299471E+04  0.00000000000E+00 0. -1.
        -12    1    5    5    0    0  0.94488142297E+01  0.14468918371E+03 -0.71937229836E+02  0.16186168481E+03  0.00000000000E+00 0.  1.
         11    1    3    3    0    0 -0.38127419746E+03 -0.14362876638E+04  0.15950703984E+04  0.21800325325E+04  0.00000000000E+00 0. -1.
        -12    1    3    3    0    0 -0.27253037396E+03 -0.11154616484E+04  0.13306509387E+04  0.17576004707E+04  0.00000000000E+00 0.  1.
          2    1    6    6  502    0  0.20430146283E+03  0.32658088025E+03 -0.14594233371E+02  0.38549598014E+03  0.00000000000E+00 0. -1.
         -1    1    6    6    0  502  0.27523877116E+01  0.43170952195E+01  0.12912345154E+02  0.13890342207E+02  0.00000000000E+00 0.  1.
<mgrwt>
<rscale>  0 0.26456788E+04</rscale>
<asrwt>0</asrwt>
<pdfrwt beam="1">  1        1 0.66873197E+00 0.26456788E+04</pdfrwt>
<pdfrwt beam="2">  1       -2 0.38460818E+00 0.26456788E+04</pdfrwt>
<totfact> 0.30648412E-04</totfact>
</mgrwt>
</event>
<event>
12    3  0.2212098E-007  0.1436515E+04  0.7818608E-02  0.8927803E-01
         -2   -1    0    0    0  501 -0.00000000000E+00  0.00000000000E+00  0.15262702960E+04  0.15262702960E+04  0.00000000000E+00 0.  1.
          1   -1    0    0  501    0  0.00000000000E+00 -0.00000000000E+00 -0.16179555854E+04  0.16179555854E+04  0.00000000000E+00 0. -1.
        -24    2    1    2    0    0 -0.11258009602E+04 -0.81787082834E+03 -0.63853899239E+03  0.15331518848E+04  0.80511881635E+02 0.  0.
    5000000    2    1    2    0    0  0.11258009602E+04  0.81787082834E+03  0.54685370297E+03  0.16110739967E+04  0.60014161368E+03 0.  0.
        -24    2    4    4    0    0  0.56874062651E+03  0.70192150042E+03  0.49846369033E+03  0.10346430687E+04  0.76554137692E+02 0.  0.
         24    2    4    4    0    0  0.55706033371E+03  0.11594932792E+03  0.48390012642E+02  0.57643092800E+03  0.78552908271E+02 0.  0.
         11    1    5    5    0    0  0.40008309554E+02  0.29867611983E+02  0.14098861753E+02  0.51879832129E+02  0.00000000000E+00 0. -1.
        -12    1    5    5    0    0  0.52873231695E+03  0.67205388844E+03  0.48436482858E+03  0.98276323655E+03  0.00000000000E+00 0.  1.
         11    1    3    3    0    0 -0.87766023366E+03 -0.59517540721E+03 -0.48586944127E+03  0.11664434684E+04  0.00000000000E+00 0. -1.
        -12    1    3    3    0    0 -0.24814072656E+03 -0.22269542113E+03 -0.15266955112E+03  0.36670841633E+03  0.00000000000E+00 0.  1.
          4    1    6    6  502    0  0.31598777557E+03  0.10441100409E+03  0.19541350199E+02  0.33336435990E+03  0.00000000000E+00 0. -1.
         -3    1    6    6    0  502  0.24107255814E+03  0.11538323832E+02  0.28848662443E+02  0.24306656810E+03  0.00000000000E+00 0.  1.
<mgrwt>
<rscale>  0 0.14365147E+04</rscale>
<asrwt>0</asrwt>
<pdfrwt beam="1">  1        1 0.24891624E+00 0.14365147E+04</pdfrwt>
<pdfrwt beam="2">  1       -2 0.23481082E+00 0.14365147E+04</pdfrwt>
<totfact> 0.35978283E-01</totfact>
</mgrwt>
</event>
<event>
12    3  0.2212098E-007  0.3636985E+03  0.7818608E-02  0.1057129E+00
         -2   -1    0    0    0  501 -0.00000000000E+00  0.00000000000E+00  0.22866224733E+03  0.22866224733E+03  0.00000000000E+00 0.  1.
          1   -1    0    0  501    0  0.00000000000E+00 -0.00000000000E+00 -0.12007963289E+04  0.12007963289E+04  0.00000000000E+00 0. -1.
        -24    2    1    2    0    0 -0.25330716284E+03  0.23726724807E+01 -0.76572223421E+01  0.26564393193E+03  0.79611036909E+02 0.  0.
    5000000    2    1    2    0    0  0.25330716284E+03 -0.23726724807E+01 -0.96447685920E+03  0.11638146443E+04  0.60006563471E+03 0.  0.
        -24    2    4    4    0    0 -0.61732706196E+02 -0.10205405237E+03 -0.74576071096E+03  0.75961884172E+03  0.81460358892E+02 0.  0.
         24    2    4    4    0    0  0.31503986904E+03  0.99681379885E+02 -0.21871614824E+03  0.40419580255E+03  0.79693140963E+02 0.  0.
         11    1    5    5    0    0  0.88385142626E+00 -0.13710191455E+02 -0.32030285956E+03  0.32059736803E+03  0.00000000000E+00 0. -1.
        -12    1    5    5    0    0 -0.62616557622E+02 -0.88343860911E+02 -0.42545785140E+03  0.43902147369E+03  0.00000000000E+00 0.  1.
         13    1    3    3    0    0 -0.14406870416E+03  0.40797675005E+02 -0.44608505757E+01  0.14980033709E+03  0.00000000000E+00 0. -1.
        -14    1    3    3    0    0 -0.10923845868E+03 -0.38425002524E+02 -0.31963717664E+01  0.11584359484E+03  0.00000000000E+00 0.  1.
          4    1    6    6  502    0  0.16451787805E+03  0.10431703673E+02 -0.11011456966E+03  0.19824270754E+03  0.00000000000E+00 0. -1.
         -3    1    6    6    0  502  0.15052199099E+03  0.89249676211E+02 -0.10860157857E+03  0.20595309501E+03  0.00000000000E+00 0.  1.
<mgrwt>
<rscale>  0 0.36369851E+03</rscale>
<asrwt>0</asrwt>
<pdfrwt beam="1">  1        1 0.18473790E+00 0.36369851E+03</pdfrwt>
<pdfrwt beam="2">  1       -2 0.35178807E-01 0.36369851E+03</pdfrwt>
<totfact> 0.75968632E+01</totfact>
</mgrwt>
</event>
<event>
12    3  0.2212098E-007  0.7066806E+03  0.7818608E-02  0.9705875E-01
         -2   -1    0    0    0  501 -0.00000000000E+00  0.00000000000E+00  0.40209483834E+03  0.40209483834E+03  0.00000000000E+00 0.  1.
          1   -1    0    0  501    0  0.00000000000E+00 -0.00000000000E+00 -0.15789128865E+04  0.15789128865E+04  0.00000000000E+00 0. -1.
        -24    2    1    2    0    0  0.30750623279E+03 -0.49629267978E+03 -0.94250504589E+03  0.11116223423E+04  0.80758672773E+02 0.  0.
    5000000    2    1    2    0    0 -0.30750623279E+03  0.49629267978E+03 -0.23431300224E+03  0.86938538248E+03  0.60005154199E+03 0.  0.
        -24    2    4    4    0    0  0.63003966325E+00  0.51311885309E+03 -0.14751756671E+03  0.53827731830E+03  0.68481271600E+02 0.  0.
         24    2    4    4    0    0 -0.30813627245E+03 -0.16826173315E+02 -0.86795435535E+02  0.33110806418E+03  0.82873518240E+02 0.  0.
         13    1    5    5    0    0  0.20510093444E+02  0.35826165460E+03 -0.12771767095E+03  0.38089877995E+03  0.00000000000E+00 0. -1.
        -14    1    5    5    0    0 -0.19880053780E+02  0.15485719849E+03 -0.19799895759E+02  0.15737853835E+03  0.00000000000E+00 0.  1.
         13    1    3    3    0    0  0.97341157575E+02 -0.93355563669E+02 -0.22301833958E+03  0.26062951103E+03  0.00000000000E+00 0. -1.
        -14    1    3    3    0    0  0.21016507521E+03 -0.40293711611E+03 -0.71948670631E+03  0.85099283130E+03  0.00000000000E+00 0.  1.
          4    1    6    6  502    0 -0.18850349796E+03 -0.18551697845E+02 -0.93581574008E+02  0.21127054985E+03  0.00000000000E+00 0. -1.
         -3    1    6    6    0  502 -0.11963277448E+03  0.17255245301E+01  0.67861384731E+01  0.11983751433E+03  0.00000000000E+00 0.  1.
<mgrwt>
<rscale>  0 0.70668064E+03</rscale>
<asrwt>0</asrwt>
<pdfrwt beam="1">  1        1 0.24290968E+00 0.70668064E+03</pdfrwt>
<pdfrwt beam="2">  1       -2 0.61860744E-01 0.70668064E+03</pdfrwt>
<totfact> 0.12773149E+01</totfact>
</mgrwt>
</event>
<event>
12    3  0.2212098E-007  0.4256288E+03  0.7818608E-02  0.1035250E+00
         -2   -1    0    0    0  501 -0.00000000000E+00  0.00000000000E+00  0.48103681933E+03  0.48103681933E+03  0.00000000000E+00 0.  1.
          1   -1    0    0  501    0  0.00000000000E+00 -0.00000000000E+00 -0.48312648725E+03  0.48312648725E+03  0.00000000000E+00 0. -1.
        -24    2    1    2    0    0  0.19845574367E+03 -0.18998541016E+03  0.83001860345E+02  0.29901549434E+03  0.83915545457E+02 0.  0.
    5000000    2    1    2    0    0 -0.19845574367E+03  0.18998541016E+03 -0.85091528267E+02  0.66514781224E+03  0.59975153661E+03 0.  0.
        -24    2    4    4    0    0  0.80233721065E+02  0.26266229462E+03 -0.19609981210E+03  0.34681133977E+03  0.79962729301E+02 0.  0.
         24    2    4    4    0    0 -0.27868946473E+03 -0.72676884461E+02  0.11100828383E+03  0.31833647246E+03  0.77881469779E+02 0.  0.
         13    1    3    3    0    0  0.53564560715E+02 -0.24432291808E+02 -0.10789745019E+02  0.59854136408E+02  0.00000000000E+00 0. -1.
        -14    1    3    3    0    0  0.14489118295E+03 -0.16555311835E+03  0.93791605364E+02  0.23916135794E+03  0.00000000000E+00 0.  1.
         13    1    5    5    0    0  0.31880598822E+01  0.41268436891E+02 -0.32109119137E+00  0.41392640757E+02  0.00000000000E+00 0. -1.
        -14    1    5    5    0    0  0.77045661183E+02  0.22139385773E+03 -0.19577872091E+03  0.30541869901E+03  0.00000000000E+00 0.  1.
          4    1    6    6  502    0 -0.22004583869E+03 -0.25912511460E+02  0.67478800434E+02  0.23161394147E+03  0.00000000000E+00 0. -1.
         -3    1    6    6    0  502 -0.58643626043E+02 -0.46764373001E+02  0.43529483398E+02  0.86722530997E+02  0.00000000000E+00 0.  1.
<mgrwt>
<rscale>  0 0.42562882E+03</rscale>
<asrwt>0</asrwt>
<pdfrwt beam="1">  1        1 0.74327152E-01 0.42562882E+03</pdfrwt>
<pdfrwt beam="2">  1       -2 0.74005665E-01 0.42562882E+03</pdfrwt>
<totfact> 0.69730561E+01</totfact>
</mgrwt>
</event>
<event>
12    3  0.2212098E-007  0.9599600E+03  0.7818608E-02  0.9353584E-01
          1   -1    0    0  501    0  0.00000000000E+00  0.00000000000E+00  0.32157446525E+04  0.32157446525E+04  0.00000000000E+00 0. -1.
         -2   -1    0    0    0  501 -0.00000000000E+00 -0.00000000000E+00 -0.44476470193E+03  0.44476470193E+03  0.00000000000E+00 0.  1.
        -24    2    1    2    0    0 -0.81392106306E+03 -0.42137594222E+03  0.22829805340E+04  0.24613142690E+04  0.77734356753E+02 0.  0.
    5000000    2    1    2    0    0  0.81392106306E+03  0.42137594222E+03  0.48799941651E+03  0.11991950854E+04  0.59991686161E+03 0.  0.
        -24    2    4    4    0    0  0.72000759487E+03  0.18351495748E+03  0.14073184090E+03  0.75960467440E+03  0.71450220627E+02 0.  0.
         24    2    4    4    0    0  0.93913468189E+02  0.23786098474E+03  0.34726757561E+03  0.43959041104E+03  0.85131503220E+02 0.  0.
         11    1    5    5    0    0  0.18935610170E+03  0.50287311319E+02  0.69427783105E+02  0.20785755699E+03  0.00000000000E+00 0. -1.
        -12    1    5    5    0    0  0.53065149317E+03  0.13322764616E+03  0.71304057792E+02  0.55174711741E+03  0.00000000000E+00 0.  1.
         13    1    3    3    0    0 -0.23266528720E+03 -0.15791956565E+03  0.66332967440E+03  0.72047066701E+03  0.00000000000E+00 0. -1.
        -14    1    3    3    0    0 -0.58125577587E+03 -0.26345637657E+03  0.16196508596E+04  0.17408436020E+04  0.00000000000E+00 0.  1.
          2    1    6    6  502    0  0.40210248535E+02  0.14250492889E+03  0.13317594411E+03  0.19914906712E+03  0.00000000000E+00 0. -1.
         -1    1    6    6    0  502  0.53703219654E+02  0.95356055849E+02  0.21409163150E+03  0.24044134392E+03  0.00000000000E+00 0.  1.
<mgrwt>
<rscale>  0 0.95996004E+03</rscale>
<asrwt>0</asrwt>
<pdfrwt beam="1">  1        1 0.49472993E+00 0.95996004E+03</pdfrwt>
<pdfrwt beam="2">  1       -2 0.68425341E-01 0.95996004E+03</pdfrwt>
<totfact> 0.73541348E-01</totfact>
</mgrwt>
</event>
<event>
12    3  0.2212098E-007  0.3143359E+03  0.7818608E-02  0.1078286E+00
         -4   -1    0    0    0  501 -0.00000000000E+00  0.00000000000E+00  0.19133605189E+03  0.19133605189E+03  0.00000000000E+00 0.  1.
          3   -1    0    0  501    0  0.00000000000E+00 -0.00000000000E+00 -0.24232409425E+04  0.24232409425E+04  0.00000000000E+00 0. -1.
        -24    2    1    2    0    0  0.87142575589E+02  0.14333391004E+03 -0.18993767563E+04  0.19084188928E+04  0.79323198098E+02 0.  0.
    5000000    2    1    2    0    0 -0.87142575589E+02 -0.14333391004E+03 -0.33252813438E+03  0.70615810167E+03  0.59995488676E+03 0.  0.
        -24    2    4    4    0    0  0.14275823845E+03 -0.14858195578E+03 -0.39708566368E+03  0.45402833474E+03  0.77512529416E+02 0.  0.
         24    2    4    4    0    0 -0.22990081404E+03  0.52480457456E+01  0.64557529299E+02  0.25212976693E+03  0.80745393077E+02 0.  0.
         11    1    5    5    0    0  0.77319983978E+02 -0.32795061749E+02 -0.11760926683E+03  0.14451932619E+03  0.00000000000E+00 0. -1.
        -12    1    5    5    0    0  0.65438254473E+02 -0.11578689403E+03 -0.27947639685E+03  0.30950900855E+03  0.00000000000E+00 0.  1.
         11    1    3    3    0    0  0.38587755752E+02  0.72167755662E+02 -0.13348407280E+04  0.13373469890E+04  0.00000000000E+00 0. -1.
        -12    1    3    3    0    0  0.48554819837E+02  0.71166154376E+02 -0.56453602823E+03  0.57107190373E+03  0.00000000000E+00 0.  1.
          4    1    6    6  502    0 -0.14757530789E+03  0.42153175238E+02  0.42504952453E+02  0.15925461583E+03  0.00000000000E+00 0. -1.
         -3    1    6    6    0  502 -0.82325506150E+02 -0.36905129492E+02  0.22052576846E+02  0.92875151097E+02  0.00000000000E+00 0.  1.
<mgrwt>
<rscale>  0 0.31433590E+03</rscale>
<asrwt>0</asrwt>
<pdfrwt beam="1">  1        3 0.37280633E+00 0.31433590E+03</pdfrwt>
<pdfrwt beam="2">  1       -4 0.29436314E-01 0.31433590E+03</pdfrwt>
<totfact> 0.42712201E-01</totfact>
</mgrwt>
</event>
<event>
12    3  0.2212098E-007  0.9418051E+03  0.7818608E-02  0.9374781E-01
          1   -1    0    0  501    0  0.00000000000E+00  0.00000000000E+00  0.10291213758E+04  0.10291213758E+04  0.00000000000E+00 0. -1.
         -2   -1    0    0    0  501 -0.00000000000E+00 -0.00000000000E+00 -0.15374812299E+04  0.15374812299E+04  0.00000000000E+00 0.  1.
        -24    2    1    2    0    0 -0.29061203455E+03  0.80378499270E+03  0.59737357002E+03  0.10458961337E+04  0.80733333871E+02 0.  0.
    5000000    2    1    2    0    0  0.29061203455E+03 -0.80378499270E+03 -0.11057334241E+04  0.15207064721E+04  0.59947985777E+03 0.  0.
        -24    2    4    4    0    0 -0.34653827772E+02  0.61361790667E+02 -0.46396279667E+02  0.11253509226E+03  0.74467275298E+02 0.  0.
         24    2    4    4    0    0  0.32526586232E+03 -0.86514678336E+03 -0.10593371444E+04  0.14081713798E+04  0.80464969653E+02 0.  0.
         11    1    5    5    0    0 -0.56855204197E+02  0.46646406473E+02 -0.44216092070E+02  0.85810630338E+02  0.00000000000E+00 0. -1.
        -12    1    5    5    0    0  0.22201376425E+02  0.14715384194E+02 -0.21801875970E+01  0.26724461923E+02  0.00000000000E+00 0.  1.
         13    1    3    3    0    0 -0.14663498856E+03  0.46538661799E+03  0.38227997363E+03  0.61985845345E+03  0.00000000000E+00 0. -1.
        -14    1    3    3    0    0 -0.14397704599E+03  0.33839837470E+03  0.21509359639E+03  0.42603768024E+03  0.00000000000E+00 0.  1.
          4    1    6    6  502    0  0.61736668071E+01 -0.79845151137E+02 -0.88356951735E+02  0.11924895489E+03  0.00000000000E+00 0. -1.
         -3    1    6    6    0  502  0.31909219551E+03 -0.78530163223E+03 -0.97098019270E+03  0.12889224249E+04  0.00000000000E+00 0.  1.
<mgrwt>
<rscale>  0 0.94180514E+03</rscale>
<asrwt>0</asrwt>
<pdfrwt beam="1">  1        1 0.15832637E+00 0.94180514E+03</pdfrwt>
<pdfrwt beam="2">  1       -2 0.23653557E+00 0.94180514E+03</pdfrwt>
<totfact> 0.98787047E-01</totfact>
</mgrwt>
</event>
<event>
12    3  0.2212098E-007  0.1020090E+04  0.7818608E-02  0.9286781E-01
         -2   -1    0    0    0  501 -0.00000000000E+00  0.00000000000E+00  0.12815946329E+04  0.12815946329E+04  0.00000000000E+00 0.  1.
          1   -1    0    0  501    0  0.00000000000E+00 -0.00000000000E+00 -0.96382880718E+03  0.96382880718E+03  0.00000000000E+00 0. -1.
        -24    2    1    2    0    0  0.28932700841E+03  0.89285045758E+03  0.57327012196E+03  0.11025429622E+04  0.77912086965E+02 0.  0.
    5000000    2    1    2    0    0 -0.28932700841E+03 -0.89285045758E+03 -0.25550429620E+03  0.11428804779E+04  0.60000107007E+03 0.  0.
        -24    2    4    4    0    0  0.14780262059E+03 -0.44446998136E+03 -0.44098063797E+02  0.47735162038E+03  0.80751168856E+02 0.  0.
         24    2    4    4    0    0 -0.43712962900E+03 -0.44838047622E+03 -0.21140623240E+03  0.66552885756E+03  0.78158180229E+02 0.  0.
         11    1    3    3    0    0  0.17530854767E+03  0.54867328241E+03  0.30703809175E+03  0.65272340812E+03  0.00000000000E+00 0. -1.
        -12    1    3    3    0    0  0.11401846074E+03  0.34417717517E+03  0.26623203020E+03  0.44981955405E+03  0.00000000000E+00 0.  1.
         11    1    5    5    0    0  0.41867725204E+02 -0.68075587006E+02 -0.32170830865E+02  0.86151925797E+02  0.00000000000E+00 0. -1.
        -12    1    5    5    0    0  0.10593489538E+03 -0.37639439435E+03 -0.11927232932E+02  0.39119969459E+03  0.00000000000E+00 0.  1.
          4    1    6    6  502    0 -0.17738081948E+03 -0.13078564771E+03 -0.85046758440E+02  0.23622402902E+03  0.00000000000E+00 0. -1.
         -3    1    6    6    0  502 -0.25974880952E+03 -0.31759482851E+03 -0.12635947396E+03  0.42930482854E+03  0.00000000000E+00 0.  1.
<mgrwt>
<rscale>  0 0.10200899E+04</rscale>
<asrwt>0</asrwt>
<pdfrwt beam="1">  1        1 0.14828135E+00 0.10200899E+04</pdfrwt>
<pdfrwt beam="2">  1       -2 0.19716841E+00 0.10200899E+04</pdfrwt>
<totfact> 0.19556139E+00</totfact>
</mgrwt>
</event>
<event>
12    3  0.2212098E-007  0.5000682E+03  0.7818608E-02  0.1013761E+00
         -2   -1    0    0    0  501 -0.00000000000E+00  0.00000000000E+00  0.18015258287E+03  0.18015258287E+03  0.00000000000E+00 0.  1.
          1   -1    0    0  501    0  0.00000000000E+00 -0.00000000000E+00 -0.20832713669E+04  0.20832713669E+04  0.00000000000E+00 0. -1.
        -24    2    1    2    0    0 -0.11972757868E+03  0.38425152648E+03 -0.11434454095E+04  0.12150983677E+04  0.83741925218E+02 0.  0.
    5000000    2    1    2    0    0  0.11972757868E+03 -0.38425152648E+03 -0.75967337450E+03  0.10483255820E+04  0.59991579517E+03 0.  0.
        -24    2    4    4    0    0  0.27038378495E+03 -0.31058878010E+03 -0.75400602186E+03  0.86283299305E+03  0.79893124845E+02 0.  0.
         24    2    4    4    0    0 -0.15065620626E+03 -0.73662746377E+02 -0.56673526369E+01  0.18549258897E+03  0.79068887616E+02 0.  0.
         13    1    5    5    0    0  0.19029768412E+03 -0.20547538923E+03 -0.43282919695E+03  0.51553317826E+03  0.00000000000E+00 0. -1.
        -14    1    5    5    0    0  0.80086100829E+02 -0.10511339088E+03 -0.32117682492E+03  0.34729981479E+03  0.00000000000E+00 0.  1.
         13    1    3    3    0    0 -0.17256144770E+02  0.38670596446E+02 -0.61335734635E+02  0.74533629356E+02  0.00000000000E+00 0. -1.
        -14    1    3    3    0    0 -0.10247143391E+03  0.34558093003E+03 -0.10821096748E+04  0.11405647383E+04  0.00000000000E+00 0.  1.
          2    1    6    6  502    0 -0.12006986907E+03 -0.90371239882E+02 -0.85441334798E+01  0.15052154886E+03  0.00000000000E+00 0. -1.
         -1    1    6    6    0  502 -0.30586337195E+02  0.16708493505E+02  0.28767808429E+01  0.34971040108E+02  0.00000000000E+00 0.  1.
<mgrwt>
<rscale>  0 0.50006821E+03</rscale>
<asrwt>0</asrwt>
<pdfrwt beam="1">  1        1 0.32050327E+00 0.50006821E+03</pdfrwt>
<pdfrwt beam="2">  1       -2 0.27715784E-01 0.50006821E+03</pdfrwt>
<totfact> 0.29416286E+01</totfact>
</mgrwt>
</event>
<event>
12    3  0.2212098E-007  0.4478365E+03  0.7818608E-02  0.1028369E+00
         -2   -1    0    0    0  501 -0.00000000000E+00  0.00000000000E+00  0.25252765206E+03  0.25252765206E+03  0.00000000000E+00 0.  1.
          1   -1    0    0  501    0  0.00000000000E+00 -0.00000000000E+00 -0.13078482710E+04  0.13078482710E+04  0.00000000000E+00 0. -1.
        -24    2    1    2    0    0  0.31683551098E+03  0.36478310768E+01 -0.26915096349E+02  0.32828766154E+03  0.81549485703E+02 0.  0.
    5000000    2    1    2    0    0 -0.31683551098E+03 -0.36478310768E+01 -0.10284055226E+04  0.12320882616E+04  0.60002126431E+03 0.  0.
        -24    2    4    4    0    0 -0.24374457303E+03 -0.22445849299E+03 -0.87335989354E+03  0.93741352180E+03  0.78699270985E+02 0.  0.
         24    2    4    4    0    0 -0.73090937954E+02  0.22081066191E+03 -0.15504562907E+03  0.29467473975E+03  0.93243881981E+02 0.  0.
         11    1    5    5    0    0 -0.72730343333E+02 -0.43277383252E+02 -0.14839457909E+03  0.17083203987E+03  0.00000000000E+00 0. -1.
        -12    1    5    5    0    0 -0.17101422969E+03 -0.18118110974E+03 -0.72496531445E+03  0.76658148194E+03  0.00000000000E+00 0.  1.
         11    1    3    3    0    0  0.13955952552E+03 -0.25567114225E+02 -0.42055232060E+02  0.14798371883E+03  0.00000000000E+00 0. -1.
        -12    1    3    3    0    0  0.17727598546E+03  0.29214945302E+02  0.15140135711E+02  0.18030394272E+03  0.00000000000E+00 0.  1.
          4    1    6    6  502    0 -0.17271336357E+02  0.14594428002E+03 -0.52697051955E+02  0.15612498588E+03  0.00000000000E+00 0. -1.
         -3    1    6    6    0  502 -0.55819601596E+02  0.74866381892E+02 -0.10234857712E+03  0.13854975387E+03  0.00000000000E+00 0.  1.
<mgrwt>
<rscale>  0 0.44783651E+03</rscale>
<asrwt>0</asrwt>
<pdfrwt beam="1">  1        1 0.20120743E+00 0.44783651E+03</pdfrwt>
<pdfrwt beam="2">  1       -2 0.38850408E-01 0.44783651E+03</pdfrwt>
<totfact> 0.52153914E+01</totfact>
</mgrwt>
</event>
<event>
12    3  0.2212098E-007  0.8320009E+03  0.7818608E-02  0.9514818E-01
          1   -1    0    0  501    0  0.00000000000E+00  0.00000000000E+00  0.93469638455E+03  0.93469638455E+03  0.00000000000E+00 0. -1.
         -2   -1    0    0    0  501 -0.00000000000E+00 -0.00000000000E+00 -0.13550723085E+04  0.13550723085E+04  0.00000000000E+00 0.  1.
        -24    2    1    2    0    0 -0.10489356346E+03 -0.73130678122E+03 -0.94580202659E+03  0.12026381358E+04  0.77361128696E+02 0.  0.
    5000000    2    1    2    0    0  0.10489356346E+03  0.73130678122E+03  0.52542610266E+03  0.10871305572E+04  0.59997332542E+03 0.  0.
        -24    2    4    4    0    0 -0.19973947138E+03  0.13297658616E+03  0.43496495535E+02  0.25695485533E+03  0.80964335729E+02 0.  0.
         24    2    4    4    0    0  0.30463303484E+03  0.59833019507E+03  0.48192960712E+03  0.83017570191E+03  0.78327782907E+02 0.  0.
         11    1    3    3    0    0 -0.10484585544E+03 -0.48236077559E+03 -0.64364772000E+03  0.81113929672E+03  0.00000000000E+00 0. -1.
        -12    1    3    3    0    0 -0.47708017078E-01 -0.24894600564E+03 -0.30215430659E+03  0.39149883907E+03  0.00000000000E+00 0.  1.
         13    1    5    5    0    0 -0.16871461924E+03  0.75834008519E+02  0.49989139331E+02  0.19160984747E+03  0.00000000000E+00 0. -1.
        -14    1    5    5    0    0 -0.31024852138E+02  0.57142577641E+02 -0.64926437955E+01  0.65345007867E+02  0.00000000000E+00 0.  1.
          2    1    6    6  502    0  0.80051897576E+02  0.16223930943E+03  0.88673364327E+02  0.20147671174E+03  0.00000000000E+00 0. -1.
         -1    1    6    6    0  502  0.22458113726E+03  0.43609088563E+03  0.39325624280E+03  0.62869899017E+03  0.00000000000E+00 0.  1.
<mgrwt>
<rscale>  0 0.83200094E+03</rscale>
<asrwt>0</asrwt>
<pdfrwt beam="1">  1        1 0.14379944E+00 0.83200094E+03</pdfrwt>
<pdfrwt beam="2">  1       -2 0.20847266E+00 0.83200094E+03</pdfrwt>
<totfact> 0.17847489E+00</totfact>
</mgrwt>
</event>
<event>
12    3  0.2212098E-007  0.3531858E+03  0.7818608E-02  0.1061315E+00
          1   -1    0    0  501    0  0.00000000000E+00  0.00000000000E+00  0.16779303715E+04  0.16779303715E+04  0.00000000000E+00 0. -1.
         -2   -1    0    0    0  501 -0.00000000000E+00 -0.00000000000E+00 -0.97102562248E+02  0.97102562248E+02  0.00000000000E+00 0.  1.
        -24    2    1    2    0    0 -0.10579867028E+03  0.91382212806E+02  0.16283354378E+03  0.22896815881E+03  0.79797163588E+02 0.  0.
    5000000    2    1    2    0    0  0.10579867028E+03 -0.91382212806E+02  0.14179942655E+04  0.15460647750E+04  0.60005373423E+03 0.  0.
        -24    2    4    4    0    0 -0.64064315215E+02 -0.28135478082E+03  0.10468467176E+04  0.10888027227E+04  0.79615134550E+02 0.  0.
         24    2    4    4    0    0  0.16986298549E+03  0.18997256802E+03  0.37114754790E+03  0.45726205226E+03  0.79969192112E+02 0.  0.
         11    1    3    3    0    0 -0.43430347820E+02  0.32260940718E-01  0.79099483794E+02  0.90238154287E+02  0.00000000000E+00 0. -1.
        -12    1    3    3    0    0 -0.62368322460E+02  0.91349951865E+02  0.83734059986E+02  0.13873000452E+03  0.00000000000E+00 0.  1.
         13    1    5    5    0    0 -0.16559878876E+02 -0.20810231791E+03  0.66012343837E+03  0.69234655931E+03  0.00000000000E+00 0. -1.
        -14    1    5    5    0    0 -0.47504436339E+02 -0.73252462917E+02  0.38672327925E+03  0.39645616342E+03  0.00000000000E+00 0.  1.
          2    1    6    6  502    0  0.87183084063E+02  0.77349897970E+02  0.23432996196E+03  0.26171440147E+03  0.00000000000E+00 0. -1.
         -1    1    6    6    0  502  0.82679901432E+02  0.11262267005E+03  0.13681758594E+03  0.19554765079E+03  0.00000000000E+00 0.  1.
<mgrwt>
<rscale>  0 0.35318579E+03</rscale>
<asrwt>0</asrwt>
<pdfrwt beam="1">  1        1 0.25814311E+00 0.35318579E+03</pdfrwt>
<pdfrwt beam="2">  1       -2 0.14938857E-01 0.35318579E+03</pdfrwt>
<totfact> 0.16377261E+02</totfact>
</mgrwt>
</event>
<event>
12    3  0.2212098E-007  0.6441211E+03  0.7818608E-02  0.9817873E-01
         -2   -1    0    0    0  501 -0.00000000000E+00  0.00000000000E+00  0.38393876710E+03  0.38393876710E+03  0.00000000000E+00 0.  1.
          1   -1    0    0  501    0  0.00000000000E+00 -0.00000000000E+00 -0.13278084457E+04  0.13278084457E+04  0.00000000000E+00 0. -1.
        -24    2    1    2    0    0  0.45748103305E+03 -0.26633892607E+03 -0.92409839419E+02  0.54340154102E+03  0.80748605127E+02 0.  0.
    5000000    2    1    2    0    0 -0.45748103305E+03  0.26633892607E+03 -0.85145983915E+03  0.11683456717E+04  0.59985200829E+03 0.  0.
        -24    2    4    4    0    0 -0.56247887194E+03  0.26298257023E+03 -0.82298582103E+03  0.10340683029E+04  0.80307407655E+02 0.  0.
         24    2    4    4    0    0  0.10499783890E+03  0.33563558431E+01 -0.28474018114E+02  0.13427736888E+03  0.78637337112E+02 0.  0.
         11    1    3    3    0    0  0.22374016458E+03 -0.85298028101E+02 -0.31109347626E+02  0.24146056894E+03  0.00000000000E+00 0. -1.
        -12    1    3    3    0    0  0.23374086847E+03 -0.18104089797E+03 -0.61300491793E+02  0.30194097209E+03  0.00000000000E+00 0.  1.
         11    1    5    5    0    0 -0.22916675696E+03  0.12738639021E+03 -0.28964929397E+03  0.39069349675E+03  0.00000000000E+00 0. -1.
        -12    1    5    5    0    0 -0.33331211498E+03  0.13559618001E+03 -0.53333652706E+03  0.64337480610E+03  0.00000000000E+00 0.  1.
          4    1    6    6  502    0  0.10466447521E+03  0.26498441687E+02 -0.25551614118E+02  0.11094910890E+03  0.00000000000E+00 0. -1.
         -3    1    6    6    0  502  0.33336369289E+00 -0.23142085844E+02 -0.29224039960E+01  0.23328259979E+02  0.00000000000E+00 0.  1.
<mgrwt>
<rscale>  0 0.64412109E+03</rscale>
<asrwt>0</asrwt>
<pdfrwt beam="1">  1        1 0.20427822E+00 0.64412109E+03</pdfrwt>
<pdfrwt beam="2">  1       -2 0.59067502E-01 0.64412109E+03</pdfrwt>
<totfact> 0.21139145E+01</totfact>
</mgrwt>
</event>
<event>
12    3  0.2212098E-007  0.6860872E+03  0.7818608E-02  0.9741325E-01
         -2   -1    0    0    0  501 -0.00000000000E+00  0.00000000000E+00  0.57425606441E+03  0.57425606441E+03  0.00000000000E+00 0.  1.
          1   -1    0    0  501    0  0.00000000000E+00 -0.00000000000E+00 -0.10360700023E+04  0.10360700023E+04  0.00000000000E+00 0. -1.
        -24    2    1    2    0    0 -0.52700985465E+03 -0.20287935155E+03  0.14360444432E+03  0.58787966906E+03  0.77979809461E+02 0.  0.
    5000000    2    1    2    0    0  0.52700985465E+03  0.20287935155E+03 -0.60541838223E+03  0.10224463977E+04  0.59997149963E+03 0.  0.
        -24    2    4    4    0    0 -0.10820341101E+03 -0.41416764333E+02 -0.94441919263E+02  0.16761165680E+03  0.75835775601E+02 0.  0.
         24    2    4    4    0    0  0.63521326566E+03  0.24429611588E+03 -0.51097646297E+03  0.85483474086E+03  0.80430114810E+02 0.  0.
         13    1    3    3    0    0 -0.18527199531E+03 -0.11184731922E+03  0.54926334737E+02  0.22327659374E+03  0.00000000000E+00 0. -1.
        -14    1    3    3    0    0 -0.34173785934E+03 -0.91032032321E+02  0.88678109583E+02  0.36460307532E+03  0.00000000000E+00 0.  1.
         13    1    5    5    0    0 -0.42116621962E+02 -0.24864758270E+02 -0.86037374383E+02  0.98967145256E+02  0.00000000000E+00 0. -1.
        -14    1    5    5    0    0 -0.66086789046E+02 -0.16552006063E+02 -0.84045448799E+01  0.68644511549E+02  0.00000000000E+00 0.  1.
          2    1    6    6  502    0  0.59103972292E+03  0.20394068013E+03 -0.45982201064E+03  0.77611599427E+03  0.00000000000E+00 0. -1.
         -1    1    6    6    0  502  0.44173542734E+02  0.40355435746E+02 -0.51154452325E+02  0.78718746590E+02  0.00000000000E+00 0.  1.
<mgrwt>
<rscale>  0 0.68608717E+03</rscale>
<asrwt>0</asrwt>
<pdfrwt beam="1">  1        1 0.15939538E+00 0.68608717E+03</pdfrwt>
<pdfrwt beam="2">  1       -2 0.88347088E-01 0.68608717E+03</pdfrwt>
<totfact> 0.14157703E+01</totfact>
</mgrwt>
</event>
<event>
12    3  0.2212098E-007  0.8549541E+03  0.7818608E-02  0.9483712E-01
         -2   -1    0    0    0  501 -0.00000000000E+00  0.00000000000E+00  0.60192768388E+03  0.60192768388E+03  0.00000000000E+00 0.  1.
          1   -1    0    0  501    0  0.00000000000E+00 -0.00000000000E+00 -0.13138972998E+04  0.13138972998E+04  0.00000000000E+00 0. -1.
        -24    2    1    2    0    0 -0.47259686493E+03 -0.58560786936E+03 -0.56008336038E+03  0.94146588336E+03  0.79876564486E+02 0.  0.
    5000000    2    1    2    0    0  0.47259686493E+03  0.58560786936E+03 -0.15188625554E+03  0.97435910032E+03  0.60001820669E+03 0.  0.
        -24    2    4    4    0    0  0.15291206658E+03 -0.99803070550E+02 -0.45679424914E+01  0.19980250727E+03  0.80977915618E+02 0.  0.
         24    2    4    4    0    0  0.31968479835E+03  0.68541093991E+03 -0.14731831305E+03  0.77455659305E+03  0.79048742106E+02 0.  0.
         13    1    5    5    0    0  0.36773233094E+02 -0.68453792172E+02 -0.14689073329E+02  0.79081990429E+02  0.00000000000E+00 0. -1.
        -14    1    5    5    0    0  0.11613883348E+03 -0.31349278378E+02  0.10121130838E+02  0.12072051684E+03  0.00000000000E+00 0.  1.
         13    1    3    3    0    0 -0.98515097074E+02 -0.12844927622E+03 -0.81589935986E+02  0.18127702162E+03  0.00000000000E+00 0. -1.
        -14    1    3    3    0    0 -0.37408176786E+03 -0.45715859315E+03 -0.47849342439E+03  0.76018886174E+03  0.00000000000E+00 0.  1.
          2    1    6    6  502    0  0.21838607242E+03  0.53630208447E+03 -0.12990554817E+03  0.59345417167E+03  0.00000000000E+00 0. -1.
         -1    1    6    6    0  502  0.10129872593E+03  0.14910885545E+03 -0.17412764873E+02  0.18110242138E+03  0.00000000000E+00 0.  1.
<mgrwt>
<rscale>  0 0.85495406E+03</rscale>
<asrwt>0</asrwt>
<pdfrwt beam="1">  1        1 0.20213805E+00 0.85495406E+03</pdfrwt>
<pdfrwt beam="2">  1       -2 0.92604259E-01 0.85495406E+03</pdfrwt>
<totfact> 0.77935612E+00</totfact>
</mgrwt>
</event>
<event>
12    3  0.2212098E-007  0.1002883E+04  0.7818608E-02  0.9305389E-01
          1   -1    0    0  501    0  0.00000000000E+00  0.00000000000E+00  0.23052331060E+04  0.23052331060E+04  0.00000000000E+00 0. -1.
         -2   -1    0    0    0  501 -0.00000000000E+00 -0.00000000000E+00 -0.62317615360E+03  0.62317615360E+03  0.00000000000E+00 0.  1.
        -24    2    1    2    0    0 -0.92029723160E+03 -0.15028749986E+03  0.27151810269E+02  0.93636283658E+03  0.80652426000E+02 0.  0.
    5000000    2    1    2    0    0  0.92029723160E+03  0.15028749986E+03  0.16549051421E+04  0.19920464230E+04  0.60000382908E+03 0.  0.
        -24    2    4    4    0    0 -0.61852593689E+02  0.29844187399E+02  0.26007183349E+03  0.28006607710E+03  0.77995064586E+02 0.  0.
         24    2    4    4    0    0  0.98214982529E+03  0.12044331247E+03  0.13948333086E+04  0.17119803459E+04  0.78688468571E+02 0.  0.
         11    1    3    3    0    0 -0.65525405428E+03 -0.11854295403E+03  0.54011246242E+02  0.66807748227E+03  0.00000000000E+00 0. -1.
        -12    1    3    3    0    0 -0.26504317732E+03 -0.31744545834E+02 -0.26859435973E+02  0.26828535431E+03  0.00000000000E+00 0.  1.
         13    1    5    5    0    0 -0.28343717934E+02 -0.88976900575E+01  0.23128397396E+02  0.37649143427E+02  0.00000000000E+00 0. -1.
        -14    1    5    5    0    0 -0.33508875755E+02  0.38741877457E+02  0.23694343610E+03  0.24241693368E+03  0.00000000000E+00 0.  1.
          4    1    6    6  502    0  0.37057483238E+03  0.11144527948E+02  0.55087263812E+03  0.66401097154E+03  0.00000000000E+00 0. -1.
         -3    1    6    6    0  502  0.61157499291E+03  0.10929878452E+03  0.84396067047E+03  0.10479693743E+04  0.00000000000E+00 0.  1.
<mgrwt>
<rscale>  0 0.10028829E+04</rscale>
<asrwt>0</asrwt>
<pdfrwt beam="1">  1        1 0.35465124E+00 0.10028829E+04</pdfrwt>
<pdfrwt beam="2">  1       -2 0.95873255E-01 0.10028829E+04</pdfrwt>
<totfact> 0.14930420E+00</totfact>
</mgrwt>
</event>
<event>
12    3  0.2212098E-007  0.8816825E+03  0.7818608E-02  0.9448773E-01
          1   -1    0    0  501    0  0.00000000000E+00  0.00000000000E+00  0.71510243892E+03  0.71510243892E+03  0.00000000000E+00 0. -1.
         -2   -1    0    0    0  501 -0.00000000000E+00 -0.00000000000E+00 -0.11777518123E+04  0.11777518123E+04  0.00000000000E+00 0.  1.
        -24    2    1    2    0    0  0.79445408237E+03 -0.64033052636E+02 -0.39457924851E+03  0.89289020397E+03  0.79388992711E+02 0.  0.
    5000000    2    1    2    0    0 -0.79445408237E+03  0.64033052636E+02 -0.68070124829E+02  0.99996404721E+03  0.60003086003E+03 0.  0.
        -24    2    4    4    0    0 -0.65975633777E+03  0.27329963894E+03 -0.13219375809E+03  0.73067042623E+03  0.80205761706E+02 0.  0.
         24    2    4    4    0    0 -0.13469774460E+03 -0.20926658630E+03  0.64123633263E+02  0.26929362098E+03  0.80443939574E+02 0.  0.
         13    1    5    5    0    0 -0.28722784997E+03  0.96771039877E+02 -0.21623968894E+02  0.30386192257E+03  0.00000000000E+00 0. -1.
        -14    1    5    5    0    0 -0.37252848780E+03  0.17652859906E+03 -0.11056978920E+03  0.42680850366E+03  0.00000000000E+00 0.  1.
         13    1    3    3    0    0  0.46810970995E+03 -0.27054781919E+02 -0.18981091120E+03  0.50585259096E+03  0.00000000000E+00 0. -1.
        -14    1    3    3    0    0  0.32634437242E+03 -0.36978270717E+02 -0.20476833731E+03  0.38703761300E+03  0.00000000000E+00 0.  1.
          2    1    6    6  502    0 -0.10916725337E+03 -0.14454579160E+03  0.10481324056E+02  0.18144099104E+03  0.00000000000E+00 0. -1.
         -1    1    6    6    0  502 -0.25530491230E+02 -0.64720794709E+02  0.53642309206E+02  0.87852629939E+02  0.00000000000E+00 0.  1.
<mgrwt>
<rscale>  0 0.88168251E+03</rscale>
<asrwt>0</asrwt>
<pdfrwt beam="1">  1        1 0.11001576E+00 0.88168251E+03</pdfrwt>
<pdfrwt beam="2">  1       -2 0.18119258E+00 0.88168251E+03</pdfrwt>
<totfact> 0.41465290E+00</totfact>
</mgrwt>
</event>
<event>
12    3  0.3214563E-007  0.8266832E+03  0.7818608E-02  0.9522178E-01
         -2   -1    0    0    0  501 -0.00000000000E+00  0.00000000000E+00  0.56676897497E+03  0.56676897497E+03  0.00000000000E+00 0.  1.
          1   -1    0    0  501    0  0.00000000000E+00 -0.00000000000E+00 -0.12447882600E+04  0.12447882600E+04  0.00000000000E+00 0. -1.
        -24    2    1    2    0    0  0.47139577399E+03 -0.55793714871E+03 -0.28472754699E+03  0.78792159504E+03  0.79011557844E+02 0.  0.
    5000000    2    1    2    0    0 -0.47139577399E+03  0.55793714871E+03 -0.39329173801E+03  0.10236356399E+04  0.59970300519E+03 0.  0.
        -24    2    4    4    0    0 -0.97607808452E+02 -0.11541032557E+03 -0.79994370961E+02  0.18851407449E+03  0.79319791834E+02 0.  0.
         24    2    4    4    0    0 -0.37378796553E+03  0.67334747428E+03 -0.31329736705E+03  0.83512156541E+03  0.78476267164E+02 0.  0.
         11    1    3    3    0    0  0.32484462600E+03 -0.38612845855E+03 -0.23525477512E+03  0.55674413042E+03  0.00000000000E+00 0. -1.
        -12    1    3    3    0    0  0.14655114799E+03 -0.17180869017E+03 -0.49472771875E+02  0.23117746463E+03  0.00000000000E+00 0.  1.
         11    1    5    5    0    0 -0.14119336577E+02 -0.30733550480E+02  0.14330535504E+02  0.36732424891E+02  0.00000000000E+00 0. -1.
        -12    1    5    5    0    0 -0.83488471874E+02 -0.84676775087E+02 -0.94324906465E+02  0.15178164960E+03  0.00000000000E+00 0.  1.
          4    1    6    6  502    0 -0.18676746419E+03  0.34728835986E+03 -0.11842533596E+03  0.41172302677E+03  0.00000000000E+00 0. -1.
         -3    1    6    6    0  502 -0.18702050134E+03  0.32605911442E+03 -0.19487203109E+03  0.42339853863E+03  0.00000000000E+00 0.  1.
<mgrwt>
<rscale>  0 0.82668318E+03</rscale>
<asrwt>0</asrwt>
<pdfrwt beam="1">  1        1 0.19150588E+00 0.82668318E+03</pdfrwt>
<pdfrwt beam="2">  1       -2 0.87195228E-01 0.82668318E+03</pdfrwt>
<totfact> 0.10064856E+01</totfact>
</mgrwt>
</event>
<event>
12    3  0.2212098E-007  0.6109195E+03  0.7818608E-02  0.9883007E-01
         -2   -1    0    0    0  501 -0.00000000000E+00  0.00000000000E+00  0.67512413120E+03  0.67512413120E+03  0.00000000000E+00 0.  1.
          1   -1    0    0  501    0  0.00000000000E+00 -0.00000000000E+00 -0.98143160418E+03  0.98143160418E+03  0.00000000000E+00 0. -1.
        -24    2    1    2    0    0  0.55141056903E+03  0.16972964796E+03  0.27231638108E+03  0.64278867090E+03  0.78481176108E+02 0.  0.
    5000000    2    1    2    0    0 -0.55141056903E+03 -0.16972964796E+03 -0.57862385405E+03  0.10137670645E+04  0.60004693776E+03 0.  0.
        -24    2    4    4    0    0 -0.26090975749E+03  0.56629130652E+02 -0.57274759993E+03  0.63695941804E+03  0.79979541215E+02 0.  0.
         24    2    4    4    0    0 -0.29050081153E+03 -0.22635877862E+03 -0.58762541213E+01  0.37680764644E+03  0.79501282322E+02 0.  0.
         11    1    5    5    0    0 -0.12549537218E+03  0.25211590759E+02 -0.36674655653E+03  0.38844272355E+03  0.00000000000E+00 0. -1.
        -12    1    5    5    0    0 -0.13541438531E+03  0.31417539894E+02 -0.20600104340E+03  0.24851669450E+03  0.00000000000E+00 0.  1.
         13    1    3    3    0    0  0.38432408155E+03  0.14400799208E+03  0.22088752400E+03  0.46608432681E+03  0.00000000000E+00 0. -1.
        -14    1    3    3    0    0  0.16708648748E+03  0.25721655884E+02  0.51428857074E+02  0.17670434409E+03  0.00000000000E+00 0.  1.
          4    1    6    6  502    0 -0.61989443950E+02 -0.89888906438E+02 -0.16522800095E+02  0.11043418667E+03  0.00000000000E+00 0. -1.
         -3    1    6    6    0  502 -0.22851136758E+03 -0.13646987218E+03  0.10646545974E+02  0.26637345977E+03  0.00000000000E+00 0.  1.
<mgrwt>
<rscale>  0 0.61091946E+03</rscale>
<asrwt>0</asrwt>
<pdfrwt beam="1">  1        1 0.15098948E+00 0.61091946E+03</pdfrwt>
<pdfrwt beam="2">  1       -2 0.10386525E+00 0.61091946E+03</pdfrwt>
<totfact> 0.10789924E+01</totfact>
</mgrwt>
</event>
<event>
12    3  0.2212098E-007  0.6064119E+03  0.7818608E-02  0.9892192E-01
         -2   -1    0    0    0  501 -0.00000000000E+00  0.00000000000E+00  0.33175324773E+03  0.33175324773E+03  0.00000000000E+00 0.  1.
          1   -1    0    0  501    0  0.00000000000E+00 -0.00000000000E+00 -0.15720963190E+04  0.15720963190E+04  0.00000000000E+00 0. -1.
        -24    2    1    2    0    0  0.50150833151E+03  0.27009625748E+03 -0.74082765160E+03  0.93727355833E+03  0.72066073016E+02 0.  0.
    5000000    2    1    2    0    0 -0.50150833151E+03 -0.27009625748E+03 -0.49951541964E+03  0.96657600838E+03  0.60024239323E+03 0.  0.
        -24    2    4    4    0    0 -0.28711358322E+03  0.62985195225E+01 -0.52794858264E+03  0.60659824618E+03  0.82206114995E+02 0.  0.
         24    2    4    4    0    0 -0.21439474829E+03 -0.27639477701E+03  0.28433162990E+02  0.35997776220E+03  0.80102207659E+02 0.  0.
         11    1    5    5    0    0 -0.68523301557E+02  0.21020049120E-02 -0.20848392591E+03  0.21945612368E+03  0.00000000000E+00 0. -1.
        -12    1    5    5    0    0 -0.21859028167E+03  0.62964175176E+01 -0.31946465673E+03  0.38714212250E+03  0.00000000000E+00 0.  1.
         11    1    3    3    0    0  0.21819738148E+03  0.11814876962E+03 -0.26513147669E+03  0.36313073263E+03  0.00000000000E+00 0. -1.
        -12    1    3    3    0    0  0.28331095003E+03  0.15194748787E+03 -0.47569617491E+03  0.57414282570E+03  0.00000000000E+00 0.  1.
          4    1    6    6  502    0 -0.40498236339E+02 -0.10189737917E+03 -0.12091018043E+02  0.11031489358E+03  0.00000000000E+00 0. -1.
         -1    1    6    6    0  502 -0.17389651195E+03 -0.17449739784E+03  0.40524181034E+02  0.24966286863E+03  0.00000000000E+00 0.  1.
<mgrwt>
<rscale>  0 0.60641194E+03</rscale>
<asrwt>0</asrwt>
<pdfrwt beam="1">  1        1 0.24186097E+00 0.60641194E+03</pdfrwt>
<pdfrwt beam="2">  1       -2 0.51038962E-01 0.60641194E+03</pdfrwt>
<totfact> 0.19544813E+01</totfact>
</mgrwt>
</event>
<event>
12    3  0.2212098E-007  0.1435519E+04  0.7818608E-02  0.8928502E-01
         -2   -1    0    0    0  501 -0.00000000000E+00  0.00000000000E+00  0.15649944062E+04  0.15649944062E+04  0.00000000000E+00 0.  1.
          1   -1    0    0  501    0  0.00000000000E+00 -0.00000000000E+00 -0.16523897161E+04  0.16523897161E+04  0.00000000000E+00 0. -1.
        -24    2    1    2    0    0 -0.14061267382E+04 -0.27700963355E+03 -0.63551672639E+03  0.15698003745E+04  0.80405006409E+02 0.  0.
    5000000    2    1    2    0    0  0.14061267382E+04  0.27700963355E+03  0.54812141650E+03  0.16475837479E+04  0.60014029858E+03 0.  0.
        -24    2    4    4    0    0  0.65847295254E+03  0.13030602100E+03 -0.46831288842E+02  0.67751035464E+03  0.79125360621E+02 0.  0.
         24    2    4    4    0    0  0.74765378569E+03  0.14670361255E+03  0.59495270535E+03  0.97007339323E+03  0.81027979524E+02 0.  0.
         11    1    5    5    0    0  0.33401766990E+03  0.26719397572E+02 -0.31776269230E+02  0.33658796963E+03  0.00000000000E+00 0. -1.
        -12    1    5    5    0    0  0.32445528265E+03  0.10358662343E+03 -0.15055019612E+02  0.34092238502E+03  0.00000000000E+00 0.  1.
         11    1    3    3    0    0 -0.24839505583E+03 -0.37603962002E+02 -0.80769547822E+02  0.26388990426E+03  0.00000000000E+00 0. -1.
        -12    1    3    3    0    0 -0.11577316824E+04 -0.23940567155E+03 -0.55474717856E+03  0.13059104702E+04  0.00000000000E+00 0.  1.
          2    1    6    6  502    0  0.40293190392E+03  0.79690260705E+02  0.37160368025E+03  0.55388983745E+03  0.00000000000E+00 0. -1.
         -1    1    6    6    0  502  0.34472188177E+03  0.67013351843E+02  0.22334902509E+03  0.41618355579E+03  0.00000000000E+00 0.  1.
<mgrwt>
<rscale>  0 0.14355187E+04</rscale>
<asrwt>0</asrwt>
<pdfrwt beam="1">  1        1 0.25421380E+00 0.14355187E+04</pdfrwt>
<pdfrwt beam="2">  1       -2 0.24076837E+00 0.14355187E+04</pdfrwt>
<totfact> 0.31289335E-01</totfact>
</mgrwt>
</event>
<event>
12    3  0.2212098E-007  0.4990802E+03  0.7818608E-02  0.1014019E+00
          1   -1    0    0  501    0  0.00000000000E+00  0.00000000000E+00  0.93563606412E+03  0.93563606412E+03  0.00000000000E+00 0. -1.
         -2   -1    0    0    0  501 -0.00000000000E+00 -0.00000000000E+00 -0.30132246243E+03  0.30132246243E+03  0.00000000000E+00 0.  1.
        -24    2    1    2    0    0 -0.27001129476E+03 -0.23125552828E+03  0.22815170442E+03  0.42992655023E+03  0.79990122551E+02 0.  0.
    5000000    2    1    2    0    0  0.27001129476E+03  0.23125552828E+03  0.40616189727E+03  0.80703197631E+03  0.59995658621E+03 0.  0.
        -24    2    4    4    0    0 -0.80134331775E+02 -0.11442686098E+03  0.22248324272E+03  0.27543581231E+03  0.82771225501E+02 0.  0.
         24    2    4    4    0    0  0.35014562654E+03  0.34568238925E+03  0.18367865455E+03  0.53159616400E+03  0.82209241680E+02 0.  0.
         11    1    3    3    0    0 -0.10485499918E+03 -0.14142818547E+03  0.10116311780E+03  0.20305289681E+03  0.00000000000E+00 0. -1.
        -12    1    3    3    0    0 -0.16515629558E+03 -0.89827342807E+02  0.12698858662E+03  0.22687365343E+03  0.00000000000E+00 0.  1.
         13    1    5    5    0    0 -0.43402281501E+02 -0.74034479713E+02  0.19760968468E+03  0.21544013021E+03  0.00000000000E+00 0. -1.
        -14    1    5    5    0    0 -0.36732050274E+02 -0.40392381264E+02  0.24873558044E+02  0.59995682105E+02  0.00000000000E+00 0.  1.
          2    1    6    6  502    0  0.19036799141E+03  0.21586281921E+03  0.14442799619E+03  0.32201890465E+03  0.00000000000E+00 0. -1.
         -1    1    6    6    0  502  0.15977763512E+03  0.12981957005E+03  0.39250658358E+02  0.20957725935E+03  0.00000000000E+00 0.  1.
<mgrwt>
<rscale>  0 0.49908018E+03</rscale>
<asrwt>0</asrwt>
<pdfrwt beam="1">  1        1 0.14394401E+00 0.49908018E+03</pdfrwt>
<pdfrwt beam="2">  1       -2 0.46357302E-01 0.49908018E+03</pdfrwt>
<totfact> 0.68757565E+01</totfact>
</mgrwt>
</event>
<event>
12    3  0.2212098E-007  0.8218124E+03  0.7818608E-02  0.9528970E-01
         -2   -1    0    0    0  501 -0.00000000000E+00  0.00000000000E+00  0.35338319235E+03  0.35338319235E+03  0.00000000000E+00 0.  1.
          1   -1    0    0  501    0  0.00000000000E+00 -0.00000000000E+00 -0.20579761759E+04  0.20579761759E+04  0.00000000000E+00 0. -1.
        -24    2    1    2    0    0 -0.11353770125E+03 -0.71424332326E+03 -0.49568206148E+03  0.88019807580E+03  0.77547483211E+02 0.  0.
    5000000    2    1    2    0    0  0.11353770125E+03  0.71424332326E+03 -0.12089109221E+04  0.15311612924E+04  0.59996245845E+03 0.  0.
        -24    2    4    4    0    0  0.31688712224E+03  0.60425055526E+03 -0.79716773752E+03  0.10523854663E+04  0.80638614908E+02 0.  0.
         24    2    4    4    0    0 -0.20334942099E+03  0.10999276800E+03 -0.41174318455E+03  0.47877582612E+03  0.79021804712E+02 0.  0.
         11    1    5    5    0    0  0.87031528263E+02  0.21476260499E+03 -0.31826820173E+03  0.39369037536E+03  0.00000000000E+00 0. -1.
        -12    1    5    5    0    0  0.22985559398E+03  0.38948795027E+03 -0.47889953579E+03  0.65869509097E+03  0.00000000000E+00 0.  1.
         13    1    3    3    0    0 -0.68154956556E+02 -0.26142472219E+03 -0.15263922854E+03  0.31030101122E+03  0.00000000000E+00 0. -1.
        -14    1    3    3    0    0 -0.45382744692E+02 -0.45281860107E+03 -0.34304283294E+03  0.56989706458E+03  0.00000000000E+00 0.  1.
          4    1    6    6  502    0 -0.13792849160E+03  0.94399060806E+02 -0.34826824996E+03  0.38629810432E+03  0.00000000000E+00 0. -1.
         -3    1    6    6    0  502 -0.65420929391E+02  0.15593707194E+02 -0.63474934596E+02  0.92477721795E+02  0.00000000000E+00 0.  1.
<mgrwt>
<rscale>  0 0.82181236E+03</rscale>
<asrwt>0</asrwt>
<pdfrwt beam="1">  1        1 0.31661173E+00 0.82181236E+03</pdfrwt>
<pdfrwt beam="2">  1       -2 0.54366643E-01 0.82181236E+03</pdfrwt>
<totfact> 0.78584150E+00</totfact>
</mgrwt>
</event>
<event>
12    3  0.2212098E-007  0.4878502E+03  0.7818608E-02  0.1017000E+00
         -2   -1    0    0    0  501 -0.00000000000E+00  0.00000000000E+00  0.11680827088E+03  0.11680827088E+03  0.00000000000E+00 0.  1.
          1   -1    0    0  501    0  0.00000000000E+00 -0.00000000000E+00 -0.23832431787E+04  0.23832431787E+04  0.00000000000E+00 0. -1.
        -24    2    1    2    0    0 -0.32878937642E+03 -0.10218669714E+03 -0.93904554058E+03  0.10032383948E+04  0.78333737010E+02 0.  0.
    5000000    2    1    2    0    0  0.32878937642E+03  0.10218669714E+03 -0.13273893672E+04  0.14968130548E+04  0.59995184278E+03 0.  0.
        -24    2    4    4    0    0  0.33124577040E+03  0.28070163274E+03 -0.60489356201E+03  0.74886876680E+03  0.79943989798E+02 0.  0.
         24    2    4    4    0    0 -0.24563939789E+01 -0.17851493559E+03 -0.72249580518E+03  0.74794428796E+03  0.74477199735E+02 0.  0.
         11    1    3    3    0    0 -0.15502747519E+03 -0.79816942274E+02 -0.53925998494E+03  0.56675002752E+03  0.00000000000E+00 0. -1.
        -12    1    3    3    0    0 -0.17376190123E+03 -0.22369754870E+02 -0.39978555564E+03  0.43648836725E+03  0.00000000000E+00 0.  1.
         13    1    5    5    0    0  0.63421331255E+02  0.17503047607E+02 -0.82584795448E+02  0.10558821133E+03  0.00000000000E+00 0. -1.
        -14    1    5    5    0    0  0.26782443914E+03  0.26319858513E+03 -0.52230876656E+03  0.64328055547E+03  0.00000000000E+00 0.  1.
          4    1    6    6  502    0 -0.18656593080E+02 -0.29217417220E+02 -0.24360663960E+03  0.24606080710E+03  0.00000000000E+00 0. -1.
         -3    1    6    6    0  502  0.16200199101E+02 -0.14929751837E+03 -0.47888916558E+03  0.50188348086E+03  0.00000000000E+00 0.  1.
<mgrwt>
<rscale>  0 0.48785019E+03</rscale>
<asrwt>0</asrwt>
<pdfrwt beam="1">  1        1 0.36665280E+00 0.48785019E+03</pdfrwt>
<pdfrwt beam="2">  1       -2 0.17970503E-01 0.48785019E+03</pdfrwt>
<totfact> 0.39988920E+01</totfact>
</mgrwt>
</event>
<event>
12    3  0.2212098E-007  0.4916013E+03  0.7818608E-02  0.1015995E+00
          1   -1    0    0  501    0  0.00000000000E+00  0.00000000000E+00  0.12935322454E+04  0.12935322454E+04  0.00000000000E+00 0. -1.
         -2   -1    0    0    0  501 -0.00000000000E+00 -0.00000000000E+00 -0.29339661637E+03  0.29339661637E+03  0.00000000000E+00 0.  1.
        -24    2    1    2    0    0 -0.13981332608E+03  0.41423780449E+03  0.59073764687E+03  0.73906667562E+03  0.78152791089E+02 0.  0.
    5000000    2    1    2    0    0  0.13981332608E+03 -0.41423780449E+03  0.40939798212E+03  0.84786218612E+03  0.60010236965E+03 0.  0.
        -24    2    4    4    0    0  0.71536352419E+02 -0.44048863133E+03  0.52208365213E+03  0.69145813136E+03  0.79970766954E+02 0.  0.
         24    2    4    4    0    0  0.68276973665E+02  0.26250826833E+02 -0.11268567000E+03  0.15640405475E+03  0.80083188480E+02 0.  0.
         11    1    3    3    0    0 -0.10725498754E+03  0.35960501356E+03  0.45974845514E+03  0.59345432860E+03  0.00000000000E+00 0. -1.
        -12    1    3    3    0    0 -0.32558338545E+02  0.54632790936E+02  0.13098919173E+03  0.14561234702E+03  0.00000000000E+00 0.  1.
         13    1    5    5    0    0  0.83810913725E+02 -0.30197998098E+03  0.38156945353E+03  0.49377264611E+03  0.00000000000E+00 0. -1.
        -14    1    5    5    0    0 -0.12274561306E+02 -0.13850865034E+03  0.14051419859E+03  0.19768548526E+03  0.00000000000E+00 0.  1.
          4    1    6    6  502    0  0.60447565775E+02 -0.40690479465E+01 -0.29230454440E+02  0.67267264149E+02  0.00000000000E+00 0. -1.
         -3    1    6    6    0  502  0.78294078894E+01  0.30319874779E+02 -0.83455215564E+02  0.89136790605E+02  0.00000000000E+00 0.  1.
<mgrwt>
<rscale>  0 0.49160132E+03</rscale>
<asrwt>0</asrwt>
<pdfrwt beam="1">  1        1 0.19900496E+00 0.49160132E+03</pdfrwt>
<pdfrwt beam="2">  1       -2 0.45137942E-01 0.49160132E+03</pdfrwt>
<totfact> 0.39537825E+01</totfact>
</mgrwt>
</event>
<event>
12    3  0.2212098E-007  0.9517808E+03  0.7818608E-02  0.9363071E-01
          1   -1    0    0  501    0  0.00000000000E+00  0.00000000000E+00  0.47602663067E+04  0.47602663067E+04  0.00000000000E+00 0. -1.
         -2   -1    0    0    0  501 -0.00000000000E+00 -0.00000000000E+00 -0.28763307358E+03  0.28763307358E+03  0.00000000000E+00 0.  1.
        -24    2    1    2    0    0  0.15845564899E+03 -0.89127067753E+03  0.77594421936E+03  0.11949857129E+04  0.80186090217E+02 0.  0.
    5000000    2    1    2    0    0 -0.15845564899E+03  0.89127067753E+03  0.36966890137E+04  0.38529136674E+04  0.59996870826E+03 0.  0.
        -24    2    4    4    0    0 -0.61250678761E+02  0.89621596174E+03  0.35335350759E+04  0.36467876042E+04  0.78962028992E+02 0.  0.
         24    2    4    4    0    0 -0.97204970232E+02 -0.49452842096E+01  0.16315393782E+03  0.20612606316E+03  0.79971772611E+02 0.  0.
         11    1    5    5    0    0 -0.40511414202E+01  0.20645459811E+02  0.14379521661E+03  0.14532622295E+03  0.00000000000E+00 0. -1.
        -12    1    5    5    0    0 -0.57199537341E+02  0.87557050193E+03  0.33897398593E+04  0.35014613813E+04  0.00000000000E+00 0.  1.
         11    1    3    3    0    0  0.12914817738E+03 -0.64027788471E+03  0.60135123971E+03  0.88783913794E+03  0.00000000000E+00 0. -1.
        -12    1    3    3    0    0  0.29307471618E+02 -0.25099279282E+03  0.17459297966E+03  0.30714657492E+03  0.00000000000E+00 0.  1.
          2    1    6    6  502    0 -0.55678245461E+02 -0.12353321506E+02  0.15221464660E+03  0.16254836268E+03  0.00000000000E+00 0. -1.
         -1    1    6    6    0  502 -0.41526724771E+02  0.74080372960E+01  0.10939291216E+02  0.43577700480E+02  0.00000000000E+00 0.  1.
<mgrwt>
<rscale>  0 0.95178084E+03</rscale>
<asrwt>0</asrwt>
<pdfrwt beam="1">  1        1 0.73234861E+00 0.95178084E+03</pdfrwt>
<pdfrwt beam="2">  1       -2 0.44251246E-01 0.95178084E+03</pdfrwt>
<totfact> 0.78417587E-02</totfact>
</mgrwt>
</event>
<event>
12    3  0.2212098E-007  0.7115751E+03  0.7818608E-02  0.9697640E-01
         -2   -1    0    0    0  501 -0.00000000000E+00  0.00000000000E+00  0.11856730968E+04  0.11856730968E+04  0.00000000000E+00 0.  1.
          1   -1    0    0  501    0  0.00000000000E+00 -0.00000000000E+00 -0.71673133631E+03  0.71673133631E+03  0.00000000000E+00 0. -1.
        -24    2    1    2    0    0  0.47186575317E+03  0.51796211727E+03  0.65380829915E+03  0.96160178810E+03  0.79187517295E+02 0.  0.
    5000000    2    1    2    0    0 -0.47186575317E+03 -0.51796211727E+03 -0.18486653868E+03  0.94080264500E+03  0.59999327977E+03 0.  0.
        -24    2    4    4    0    0 -0.34539526323E+03 -0.31317873499E+03  0.17125276351E+03  0.50308584928E+03  0.79931563330E+02 0.  0.
         24    2    4    4    0    0 -0.12647048994E+03 -0.20478338227E+03 -0.35611930220E+03  0.43771679572E+03  0.82728576556E+02 0.  0.
         11    1    5    5    0    0 -0.21162272295E+03 -0.21298371452E+03  0.14666807907E+03  0.33415230800E+03  0.00000000000E+00 0. -1.
        -12    1    5    5    0    0 -0.13377254028E+03 -0.10019502047E+03  0.24584684443E+02  0.16893354128E+03  0.00000000000E+00 0.  1.
         11    1    3    3    0    0  0.46519306467E+03  0.50184744463E+03  0.61924320192E+03  0.92288546864E+03  0.00000000000E+00 0. -1.
        -12    1    3    3    0    0  0.66726885035E+01  0.16114672634E+02  0.34565097229E+02  0.38716319459E+02  0.00000000000E+00 0.  1.
          2    1    6    6  502    0 -0.46095243959E+02 -0.14960470937E+03 -0.23224931213E+03  0.28008227999E+03  0.00000000000E+00 0. -1.
         -1    1    6    6    0  502 -0.80375245979E+02 -0.55178672901E+02 -0.12386999007E+03  0.15763451573E+03  0.00000000000E+00 0.  1.
<mgrwt>
<rscale>  0 0.71157505E+03</rscale>
<asrwt>0</asrwt>
<pdfrwt beam="1">  1        1 0.11026636E+00 0.71157505E+03</pdfrwt>
<pdfrwt beam="2">  1       -2 0.18241125E+00 0.71157505E+03</pdfrwt>
<totfact> 0.41400936E+00</totfact>
</mgrwt>
</event>
<event>
12    3  0.2212098E-007  0.7574450E+03  0.7818608E-02  0.9623742E-01
          1   -1    0    0  501    0  0.00000000000E+00  0.00000000000E+00  0.65746779916E+03  0.65746779916E+03  0.00000000000E+00 0. -1.
         -2   -1    0    0    0  501 -0.00000000000E+00 -0.00000000000E+00 -0.90560113127E+03  0.90560113127E+03  0.00000000000E+00 0.  1.
        -24    2    1    2    0    0 -0.33304417091E+03 -0.55231144424E+03 -0.11060544377E+02  0.65086331035E+03  0.86800702214E+02 0.  0.
    5000000    2    1    2    0    0  0.33304417091E+03  0.55231144424E+03 -0.23707278773E+03  0.91220562008E+03  0.59995769469E+03 0.  0.
        -24    2    4    4    0    0  0.49691543824E+03  0.43291745235E+03 -0.18026475120E+03  0.68788888444E+03  0.79707361654E+02 0.  0.
         24    2    4    4    0    0 -0.16387126733E+03  0.11939399188E+03 -0.56808036535E+02  0.22431673564E+03  0.77344213223E+02 0.  0.
         13    1    5    5    0    0  0.21644586265E+03  0.21226049011E+03 -0.46117589685E+02  0.30664337462E+03  0.00000000000E+00 0. -1.
        -14    1    5    5    0    0  0.28046957559E+03  0.22065696225E+03 -0.13414716151E+03  0.38124550982E+03  0.00000000000E+00 0.  1.
         13    1    3    3    0    0 -0.17756727331E+03 -0.36792510016E+03 -0.24800167616E+02  0.40928482038E+03  0.00000000000E+00 0. -1.
        -14    1    3    3    0    0 -0.15547689760E+03 -0.18438634407E+03  0.13739623239E+02  0.24157848997E+03  0.00000000000E+00 0.  1.
          2    1    6    6  502    0 -0.59191523579E+02  0.25213377498E+02 -0.53159255092E+02  0.83458116863E+02  0.00000000000E+00 0. -1.
         -1    1    6    6    0  502 -0.10467974375E+03  0.94180614384E+02 -0.36487814436E+01  0.14085861878E+03  0.00000000000E+00 0.  1.
<mgrwt>
<rscale>  0 0.75744502E+03</rscale>
<asrwt>0</asrwt>
<pdfrwt beam="1">  1        1 0.10114889E+00 0.75744502E+03</pdfrwt>
<pdfrwt beam="2">  1       -2 0.13932325E+00 0.75744502E+03</pdfrwt>
<totfact> 0.97265095E+00</totfact>
</mgrwt>
</event>
<event>
12    3  0.2212098E-007  0.8011489E+03  0.7818608E-02  0.9558356E-01
          1   -1    0    0  501    0  0.00000000000E+00  0.00000000000E+00  0.63436897664E+03  0.63436897664E+03  0.00000000000E+00 0. -1.
         -2   -1    0    0    0  501 -0.00000000000E+00 -0.00000000000E+00 -0.10269942495E+04  0.10269942495E+04  0.00000000000E+00 0.  1.
        -24    2    1    2    0    0  0.60142365833E+02  0.69042298688E+03 -0.16326372371E+03  0.71647701179E+03  0.79895306319E+02 0.  0.
    5000000    2    1    2    0    0 -0.60142365833E+02 -0.69042298688E+03 -0.22936154914E+03  0.94488621434E+03  0.59991852184E+03 0.  0.
        -24    2    4    4    0    0 -0.20543090041E+03 -0.70829862385E+03 -0.23241497673E+03  0.77732239090E+03  0.79527244380E+02 0.  0.
         24    2    4    4    0    0  0.14528853457E+03  0.17875636969E+02  0.30534275865E+01  0.16756382344E+03  0.81486286144E+02 0.  0.
         13    1    3    3    0    0  0.56592212676E+02  0.54507926559E+03 -0.96285381850E+02  0.55640359369E+03  0.00000000000E+00 0. -1.
        -14    1    3    3    0    0  0.35501531574E+01  0.14534372128E+03 -0.66978341862E+02  0.16007341810E+03  0.00000000000E+00 0.  1.
         13    1    5    5    0    0 -0.19858559810E+03 -0.57571568924E+03 -0.19031634466E+03  0.63804788664E+03  0.00000000000E+00 0. -1.
        -14    1    5    5    0    0 -0.68453023106E+01 -0.13258293461E+03 -0.42098632064E+02  0.13927450425E+03  0.00000000000E+00 0.  1.
          2    1    6    6  502    0  0.41129932596E+02 -0.31560920122E+02  0.62857358798E+01  0.52223304279E+02  0.00000000000E+00 0. -1.
         -1    1    6    6    0  502  0.10415860198E+03  0.49436557091E+02 -0.32323082933E+01  0.11534051916E+03  0.00000000000E+00 0.  1.
<mgrwt>
<rscale>  0 0.80114889E+03</rscale>
<asrwt>0</asrwt>
<pdfrwt beam="1">  1        1 0.97595227E-01 0.80114889E+03</pdfrwt>
<pdfrwt beam="2">  1       -2 0.15799912E+00 0.80114889E+03</pdfrwt>
<totfact> 0.73212870E+00</totfact>
</mgrwt>
</event>
<event>
12    3  0.2212098E-007  0.3511485E+03  0.7818608E-02  0.1062145E+00
          1   -1    0    0  501    0  0.00000000000E+00  0.00000000000E+00  0.27229210644E+04  0.27229210644E+04  0.00000000000E+00 0. -1.
         -2   -1    0    0    0  501 -0.00000000000E+00 -0.00000000000E+00 -0.63716188268E+02  0.63716188268E+02  0.00000000000E+00 0.  1.
        -24    2    1    2    0    0  0.11379123083E+03 -0.13828800535E+03  0.48416049570E+03  0.52316186047E+03  0.84940744096E+02 0.  0.
    5000000    2    1    2    0    0 -0.11379123083E+03  0.13828800535E+03  0.21750443804E+04  0.22634753922E+04  0.60035887404E+03 0.  0.
        -24    2    4    4    0    0  0.18579324520E+03  0.42226272326E+02  0.15058103499E+04  0.15197639397E+04  0.76911861066E+02 0.  0.
         24    2    4    4    0    0 -0.29958447602E+03  0.96061733027E+02  0.66923403050E+03  0.74371145252E+03  0.79081111562E+02 0.  0.
         13    1    5    5    0    0  0.15956038143E+03  0.47058477748E+02  0.10427867562E+04  0.10559726486E+04  0.00000000000E+00 0. -1.
        -14    1    5    5    0    0  0.26232863765E+02 -0.48322054219E+01  0.46302359368E+03  0.46379129105E+03  0.00000000000E+00 0.  1.
         13    1    3    3    0    0  0.28070750721E+02 -0.79166399725E+02  0.30067721005E+03  0.31218915826E+03  0.00000000000E+00 0. -1.
        -14    1    3    3    0    0  0.85720480105E+02 -0.59121605628E+02  0.18348328565E+03  0.21097270220E+03  0.00000000000E+00 0.  1.
          2    1    6    6  502    0 -0.14126258579E+02  0.22145866055E+02  0.30865401626E+02  0.40529786358E+02  0.00000000000E+00 0. -1.
         -1    1    6    6    0  502 -0.28545821744E+03  0.73915866972E+02  0.63836862888E+03  0.70318166616E+03  0.00000000000E+00 0.  1.
<mgrwt>
<rscale>  0 0.35114848E+03</rscale>
<asrwt>0</asrwt>
<pdfrwt beam="1">  1        1 0.41891084E+00 0.35114848E+03</pdfrwt>
<pdfrwt beam="2">  1       -2 0.98024926E-02 0.35114848E+03</pdfrwt>
<totfact> 0.66207587E+01</totfact>
</mgrwt>
</event>
<event>
12    3  0.2212098E-007  0.7472910E+03  0.7818608E-02  0.9639610E-01
          1   -1    0    0  501    0  0.00000000000E+00  0.00000000000E+00  0.85568550514E+03  0.85568550514E+03  0.00000000000E+00 0. -1.
         -2   -1    0    0    0  501 -0.00000000000E+00 -0.00000000000E+00 -0.69253048279E+03  0.69253048279E+03  0.00000000000E+00 0.  1.
        -24    2    1    2    0    0  0.51117259218E+03 -0.36967669923E+03  0.22704504487E+03  0.67527592674E+03  0.80559567369E+02 0.  0.
    5000000    2    1    2    0    0 -0.51117259218E+03  0.36967669923E+03 -0.63890022519E+02  0.87294006120E+03  0.59998677862E+03 0.  0.
        -24    2    4    4    0    0 -0.35638782958E+03  0.52415236296E+03 -0.26227765085E+02  0.63944715627E+03  0.80354124523E+02 0.  0.
         24    2    4    4    0    0 -0.15478476260E+03 -0.15447566373E+03 -0.37662257434E+02  0.23349290493E+03  0.72659738508E+02 0.  0.
         13    1    5    5    0    0 -0.11741274609E+03  0.23841281526E+03 -0.25171648966E+02  0.26694575354E+03  0.00000000000E+00 0. -1.
        -14    1    5    5    0    0 -0.23897508349E+03  0.28573954770E+03 -0.10561161192E+01  0.37250140272E+03  0.00000000000E+00 0.  1.
         13    1    3    3    0    0  0.15404745045E+03 -0.14646968234E+03  0.49579562276E+02  0.21827074433E+03  0.00000000000E+00 0. -1.
        -14    1    3    3    0    0  0.35712514172E+03 -0.22320701689E+03  0.17746548259E+03  0.45700518241E+03  0.00000000000E+00 0.  1.
          2    1    6    6  502    0 -0.15173053871E+03 -0.13558432458E+03 -0.51474166746E+02  0.20989248508E+03  0.00000000000E+00 0. -1.
         -1    1    6    6    0  502 -0.30542238878E+01 -0.18891339150E+02  0.13811909312E+02  0.23600419854E+02  0.00000000000E+00 0.  1.
<mgrwt>
<rscale>  0 0.74729098E+03</rscale>
<asrwt>0</asrwt>
<pdfrwt beam="1">  1        1 0.13164392E+00 0.74729098E+03</pdfrwt>
<pdfrwt beam="2">  1       -2 0.10654315E+00 0.74729098E+03</pdfrwt>
<totfact> 0.12595444E+01</totfact>
</mgrwt>
</event>
<event>
12    3  0.2633182E-007  0.8584763E+03  0.7818608E-02  0.9479030E-01
         -2   -1    0    0    0  501 -0.00000000000E+00  0.00000000000E+00  0.11413299654E+04  0.11413299654E+04  0.00000000000E+00 0.  1.
          1   -1    0    0  501    0  0.00000000000E+00 -0.00000000000E+00 -0.79018750973E+03  0.79018750973E+03  0.00000000000E+00 0. -1.
        -24    2    1    2    0    0  0.57142557968E+03 -0.60627968474E+03 -0.24680910151E+02  0.83827029173E+03  0.89362662382E+02 0.  0.
    5000000    2    1    2    0    0 -0.57142557968E+03  0.60627968474E+03  0.37582336578E+03  0.10932471834E+04  0.59986994624E+03 0.  0.
        -24    2    4    4    0    0 -0.45488515016E+03  0.31111671895E+03  0.49510739407E+03  0.74519388960E+03  0.80426915861E+02 0.  0.
         24    2    4    4    0    0 -0.11654042952E+03  0.29516296580E+03 -0.11928402829E+03  0.34805329375E+03  0.78800810881E+02 0.  0.
         11    1    3    3    0    0  0.30914950078E+03 -0.38601333831E+03 -0.33217131146E+02  0.49566429061E+03  0.00000000000E+00 0. -1.
        -12    1    3    3    0    0  0.26227607890E+03 -0.22026634643E+03  0.85362209951E+01  0.34260600112E+03  0.00000000000E+00 0.  1.
         13    1    5    5    0    0 -0.25195053386E+03  0.20174300642E+03  0.33022609109E+03  0.46176680629E+03  0.00000000000E+00 0. -1.
        -14    1    5    5    0    0 -0.20293461630E+03  0.10937371253E+03  0.16488130298E+03  0.28342708331E+03  0.00000000000E+00 0.  1.
          4    1    6    6  502    0 -0.31107682029E+02  0.18291353763E+03 -0.59523425826E+02  0.19485401806E+03  0.00000000000E+00 0. -1.
         -3    1    6    6    0  502 -0.85432747487E+02  0.11224942816E+03 -0.59760602464E+02  0.15319927569E+03  0.00000000000E+00 0.  1.
<mgrwt>
<rscale>  0 0.85847630E+03</rscale>
<asrwt>0</asrwt>
<pdfrwt beam="1">  1        1 0.12156731E+00 0.85847630E+03</pdfrwt>
<pdfrwt beam="2">  1       -2 0.17558923E+00 0.85847630E+03</pdfrwt>
<totfact> 0.38898368E+00</totfact>
</mgrwt>
</event>
<event>
12    3  0.2212098E-007  0.1215036E+04  0.7818608E-02  0.9099797E-01
          1   -1    0    0  501    0  0.00000000000E+00  0.00000000000E+00  0.94714875245E+03  0.94714875245E+03  0.00000000000E+00 0. -1.
         -2   -1    0    0    0  501 -0.00000000000E+00 -0.00000000000E+00 -0.17211055333E+04  0.17211055333E+04  0.00000000000E+00 0.  1.
        -24    2    1    2    0    0 -0.92893317673E+03  0.74307785595E+03 -0.56528886397E+03  0.13196617070E+04  0.82909434487E+02 0.  0.
    5000000    2    1    2    0    0  0.92893317673E+03 -0.74307785595E+03 -0.20866791690E+03  0.13485925788E+04  0.60006507743E+03 0.  0.
        -24    2    4    4    0    0  0.13694073655E+02 -0.82038139608E+02  0.12342942859E+03  0.16878198074E+03  0.79591137553E+02 0.  0.
         24    2    4    4    0    0  0.91523910307E+03 -0.66103971635E+03 -0.33209734549E+03  0.11798105980E+04  0.83834825578E+02 0.  0.
         11    1    3    3    0    0 -0.51039840032E+03  0.44236386728E+03 -0.35515718538E+03  0.76310480568E+03  0.00000000000E+00 0. -1.
        -12    1    3    3    0    0 -0.41853477640E+03  0.30071398867E+03 -0.21013167859E+03  0.55655690130E+03  0.00000000000E+00 0.  1.
         11    1    5    5    0    0 -0.27140123526E+02 -0.13033559868E+02  0.57778766399E+02  0.65152481414E+02  0.00000000000E+00 0. -1.
        -12    1    5    5    0    0  0.40834197181E+02 -0.69004579740E+02  0.65650662190E+02  0.10362949933E+03  0.00000000000E+00 0.  1.
          2    1    6    6  502    0  0.87469826668E+03 -0.63198982050E+03 -0.33478890979E+03  0.11298636223E+04  0.00000000000E+00 0. -1.
         -1    1    6    6    0  502  0.40540836392E+02 -0.29049895844E+02  0.26915642929E+01  0.49946975707E+02  0.00000000000E+00 0.  1.
<mgrwt>
<rscale>  0 0.12150357E+04</rscale>
<asrwt>0</asrwt>
<pdfrwt beam="1">  1        1 0.14571519E+00 0.12150357E+04</pdfrwt>
<pdfrwt beam="2">  1       -2 0.26478546E+00 0.12150357E+04</pdfrwt>
<totfact> 0.74423313E-01</totfact>
</mgrwt>
</event>
<event>
12    3  0.2212098E-007  0.6200668E+03  0.7818608E-02  0.9864627E-01
         -2   -1    0    0    0  501 -0.00000000000E+00  0.00000000000E+00  0.47240204186E+03  0.47240204186E+03  0.00000000000E+00 0.  1.
          1   -1    0    0  501    0  0.00000000000E+00 -0.00000000000E+00 -0.14207147888E+04  0.14207147888E+04  0.00000000000E+00 0. -1.
        -24    2    1    2    0    0  0.59748544671E+03 -0.26343431178E+02  0.23178243542E+02  0.60413642187E+03  0.82223779175E+02 0.  0.
    5000000    2    1    2    0    0 -0.59748544671E+03  0.26343431178E+02 -0.97149099050E+03  0.12889804088E+04  0.59999409516E+03 0.  0.
        -24    2    4    4    0    0 -0.82240294481E+02  0.43370093138E+02  0.56816814353E+02  0.13592799869E+03  0.81264010611E+02 0.  0.
         24    2    4    4    0    0 -0.51524515223E+03 -0.17026661960E+02 -0.10283078048E+04  0.11530524101E+04  0.79658300253E+02 0.  0.
         11    1    3    3    0    0  0.29121311039E+02 -0.55199161629E+01 -0.16653377475E+02  0.33997870704E+02  0.00000000000E+00 0. -1.
        -12    1    3    3    0    0  0.56836413567E+03 -0.20823515015E+02  0.39831621017E+02  0.57013855117E+03  0.00000000000E+00 0.  1.
         13    1    5    5    0    0  0.66258292551E+01  0.33398784313E+02  0.14881177621E+02  0.37159519027E+02  0.00000000000E+00 0. -1.
        -14    1    5    5    0    0 -0.88866123736E+02  0.99713088244E+01  0.41935636732E+02  0.98768479667E+02  0.00000000000E+00 0.  1.
          2    1    6    6  502    0 -0.12486017895E+03  0.18724120597E+02 -0.31019577973E+03  0.33490607450E+03  0.00000000000E+00 0. -1.
         -1    1    6    6    0  502 -0.39038497328E+03 -0.35750782557E+02 -0.71811202512E+03  0.81814633559E+03  0.00000000000E+00 0.  1.
<mgrwt>
<rscale>  0 0.62006682E+03</rscale>
<asrwt>0</asrwt>
<pdfrwt beam="1">  1        1 0.21857150E+00 0.62006682E+03</pdfrwt>
<pdfrwt beam="2">  1       -2 0.72677238E-01 0.62006682E+03</pdfrwt>
<totfact> 0.11716798E+01</totfact>
</mgrwt>
</event>
<event>
12    3  0.2212098E-007  0.1034269E+04  0.7818608E-02  0.9271737E-01
         -2   -1    0    0    0  501 -0.00000000000E+00  0.00000000000E+00  0.12475782861E+04  0.12475782861E+04  0.00000000000E+00 0.  1.
          1   -1    0    0  501    0  0.00000000000E+00 -0.00000000000E+00 -0.20457052537E+04  0.20457052537E+04  0.00000000000E+00 0. -1.
        -24    2    1    2    0    0 -0.86889862763E+03 -0.42373445805E+03  0.85050298460E+03  0.12901323828E+04  0.80935297107E+02 0.  0.
    5000000    2    1    2    0    0  0.86889862763E+03  0.42373445805E+03 -0.16486299522E+04  0.20031511570E+04  0.60008176335E+03 0.  0.
        -24    2    4    4    0    0  0.30740952457E+03 -0.96342277349E+02 -0.28740345391E+03  0.43948849099E+03  0.82261401584E+02 0.  0.
         24    2    4    4    0    0  0.56148910306E+03  0.52007673540E+03 -0.13612264982E+04  0.15636626660E+04  0.79709033796E+02 0.  0.
         13    1    5    5    0    0  0.11937345650E+03 -0.79597268184E+02 -0.11600184385E+03  0.18450521672E+03  0.00000000000E+00 0. -1.
        -14    1    5    5    0    0  0.18803606807E+03 -0.16745009165E+02 -0.17140161006E+03  0.25498327427E+03  0.00000000000E+00 0.  1.
         13    1    3    3    0    0 -0.53795191608E+03 -0.22323162211E+03  0.53522209753E+03  0.79100399165E+03  0.00000000000E+00 0. -1.
        -14    1    3    3    0    0 -0.33094671155E+03 -0.20050283594E+03  0.31528088707E+03  0.49912839116E+03  0.00000000000E+00 0.  1.
          4    1    6    6  502    0  0.30051581471E+03  0.24500722953E+03 -0.75209369655E+03  0.84615792013E+03  0.00000000000E+00 0. -1.
         -3    1    6    6    0  502  0.26097328835E+03  0.27506950587E+03 -0.60913280170E+03  0.71750474591E+03  0.00000000000E+00 0.  1.
<mgrwt>
<rscale>  0 0.10342693E+04</rscale>
<asrwt>0</asrwt>
<pdfrwt beam="1">  1        1 0.31472388E+00 0.10342693E+04</pdfrwt>
<pdfrwt beam="2">  1       -2 0.19193512E+00 0.10342693E+04</pdfrwt>
<totfact> 0.36589791E-01</totfact>
</mgrwt>
</event>
<event>
12    3  0.2212098E-007  0.1128164E+04  0.7818608E-02  0.9178168E-01
          1   -1    0    0  501    0  0.00000000000E+00  0.00000000000E+00  0.34899622757E+04  0.34899622757E+04  0.00000000000E+00 0. -1.
         -2   -1    0    0    0  501 -0.00000000000E+00 -0.00000000000E+00 -0.39949373170E+03  0.39949373170E+03  0.00000000000E+00 0.  1.
        -24    2    1    2    0    0  0.31520314295E+03  0.10025603952E+04  0.89567603085E+03  0.13831447736E+04  0.79834486843E+02 0.  0.
    5000000    2    1    2    0    0 -0.31520314295E+03 -0.10025603952E+04  0.21947925132E+04  0.25063112338E+04  0.60000121437E+03 0.  0.
        -24    2    4    4    0    0  0.13162149552E+03 -0.52198041932E+03  0.11028491297E+04  0.12298835688E+04  0.80929684165E+02 0.  0.
         24    2    4    4    0    0 -0.44682463847E+03 -0.48057997588E+03  0.10919433835E+04  0.12764276649E+04  0.79484969106E+02 0.  0.
         11    1    3    3    0    0  0.18785791665E+03  0.71602965657E+03  0.63989036227E+03  0.97849309740E+03  0.00000000000E+00 0. -1.
        -12    1    3    3    0    0  0.12734522629E+03  0.28653073863E+03  0.25578566858E+03  0.40465167625E+03  0.00000000000E+00 0.  1.
         11    1    5    5    0    0  0.98772649087E+01 -0.16187059067E+03  0.38050650341E+03  0.41362404140E+03  0.00000000000E+00 0. -1.
        -12    1    5    5    0    0  0.12174423061E+03 -0.36010982865E+03  0.72234262627E+03  0.81625952742E+03  0.00000000000E+00 0.  1.
          4    1    6    6  502    0 -0.22493331660E+03 -0.29478313160E+03  0.64424581295E+03  0.74333354498E+03  0.00000000000E+00 0. -1.
         -3    1    6    6    0  502 -0.22189132186E+03 -0.18579684428E+03  0.44769757053E+03  0.53309411995E+03  0.00000000000E+00 0.  1.
<mgrwt>
<rscale>  0 0.11281639E+04</rscale>
<asrwt>0</asrwt>
<pdfrwt beam="1">  1        1 0.53691725E+00 0.11281639E+04</pdfrwt>
<pdfrwt beam="2">  1       -2 0.61460576E-01 0.11281639E+04</pdfrwt>
<totfact> 0.55883915E-01</totfact>
</mgrwt>
</event>
<event>
12    3  0.2212098E-007  0.7456333E+03  0.7818608E-02  0.9642226E-01
         -2   -1    0    0    0  501 -0.00000000000E+00  0.00000000000E+00  0.41595308782E+03  0.41595308782E+03  0.00000000000E+00 0.  1.
          1   -1    0    0  501    0  0.00000000000E+00 -0.00000000000E+00 -0.18290301436E+04  0.18290301436E+04  0.00000000000E+00 0. -1.
        -24    2    1    2    0    0 -0.44624358844E+03 -0.44909311950E+03 -0.67708993015E+02  0.64165636290E+03  0.79501006970E+02 0.  0.
    5000000    2    1    2    0    0  0.44624358844E+03  0.44909311950E+03 -0.13453680628E+04  0.16033268686E+04  0.59985319274E+03 0.  0.
        -24    2    4    4    0    0  0.31749608799E+03  0.58358745917E+03 -0.10637259742E+04  0.12567197291E+04  0.80333311686E+02 0.  0.
         24    2    4    4    0    0  0.12874750045E+03 -0.13449433967E+03 -0.28164208861E+03  0.34660713945E+03  0.78419364742E+02 0.  0.
         11    1    5    5    0    0  0.17149632742E+03  0.36699579658E+03 -0.70287488654E+03  0.81125212552E+03  0.00000000000E+00 0. -1.
        -12    1    5    5    0    0  0.14599976057E+03  0.21659166259E+03 -0.36085108766E+03  0.44546760359E+03  0.00000000000E+00 0.  1.
         11    1    3    3    0    0 -0.33195802916E+03 -0.36992405303E+03 -0.31703768951E+02  0.49804123032E+03  0.00000000000E+00 0. -1.
        -12    1    3    3    0    0 -0.11428555928E+03 -0.79169066466E+02 -0.36005224064E+02  0.14361513258E+03  0.00000000000E+00 0.  1.
          4    1    6    6  502    0  0.46732161164E+02 -0.71850414268E+02 -0.19060594209E+03  0.20899043537E+03  0.00000000000E+00 0. -1.
         -3    1    6    6    0  502  0.82015339287E+02 -0.62643925406E+02 -0.91036146521E+02  0.13761670408E+03  0.00000000000E+00 0.  1.
<mgrwt>
<rscale>  0 0.74563334E+03</rscale>
<asrwt>0</asrwt>
<pdfrwt beam="1">  1        1 0.28138925E+00 0.74563334E+03</pdfrwt>
<pdfrwt beam="2">  1       -2 0.63992782E-01 0.74563334E+03</pdfrwt>
<totfact> 0.80205749E+00</totfact>
</mgrwt>
</event>
<event>
12    3  0.2212098E-007  0.7505489E+03  0.7818608E-02  0.9634490E-01
          1   -1    0    0  501    0  0.00000000000E+00  0.00000000000E+00  0.25906831930E+04  0.25906831930E+04  0.00000000000E+00 0. -1.
         -2   -1    0    0    0  501 -0.00000000000E+00 -0.00000000000E+00 -0.33549086850E+03  0.33549086850E+03  0.00000000000E+00 0.  1.
        -24    2    1    2    0    0 -0.33671593545E+03 -0.54715727606E+03  0.18466055781E+04  0.19568014000E+04  0.79754949154E+02 0.  0.
    5000000    2    1    2    0    0  0.33671593545E+03  0.54715727606E+03  0.40858674639E+03  0.96937266154E+03  0.59998460120E+03 0.  0.
        -24    2    4    4    0    0 -0.11067673967E+03 -0.36368657374E+02  0.54799165372E+02  0.14921518767E+03  0.75433439283E+02 0.  0.
         24    2    4    4    0    0  0.44739267512E+03  0.58352593343E+03  0.35378758102E+03  0.82015747387E+03  0.82643261772E+02 0.  0.
         11    1    3    3    0    0 -0.28246315487E+03 -0.40462714437E+03  0.14636037266E+04  0.15445531484E+04  0.00000000000E+00 0. -1.
        -12    1    3    3    0    0 -0.54252780578E+02 -0.14253013169E+03  0.38300185152E+03  0.41224825156E+03  0.00000000000E+00 0.  1.
         13    1    5    5    0    0 -0.36583034341E+02 -0.12592898765E+02 -0.17985426074E+02  0.42665853466E+02  0.00000000000E+00 0. -1.
        -14    1    5    5    0    0 -0.74093705328E+02 -0.23775758609E+02  0.72784591446E+02  0.10654933420E+03  0.00000000000E+00 0.  1.
          2    1    6    6  502    0  0.36069397468E+03  0.42073480911E+03  0.28623195317E+03  0.62373604512E+03  0.00000000000E+00 0. -1.
         -1    1    6    6    0  502  0.86698700439E+02  0.16279112433E+03  0.67555627852E+02  0.19642142875E+03  0.00000000000E+00 0.  1.
<mgrwt>
<rscale>  0 0.75054892E+03</rscale>
<asrwt>0</asrwt>
<pdfrwt beam="1">  1        1 0.39856663E+00 0.75054892E+03</pdfrwt>
<pdfrwt beam="2">  1       -2 0.51613982E-01 0.75054892E+03</pdfrwt>
<totfact> 0.38557516E+00</totfact>
</mgrwt>
</event>
<event>
12    3  0.2212098E-007  0.1638687E+04  0.7818608E-02  0.8797128E-01
         -2   -1    0    0    0  501 -0.00000000000E+00  0.00000000000E+00  0.18169848271E+04  0.18169848271E+04  0.00000000000E+00 0.  1.
          1   -1    0    0  501    0  0.00000000000E+00 -0.00000000000E+00 -0.25763048315E+04  0.25763048315E+04  0.00000000000E+00 0. -1.
        -24    2    1    2    0    0  0.13321494912E+04 -0.93409842027E+03 -0.17542615344E+04  0.23939868712E+04  0.81101680109E+02 0.  0.
    5000000    2    1    2    0    0 -0.13321494912E+04  0.93409842027E+03  0.99494153002E+03  0.19993027874E+04  0.60011737326E+03 0.  0.
        -24    2    4    4    0    0 -0.56854385238E+03  0.24512458846E+03  0.97371799784E+02  0.63199409206E+03  0.81284002486E+02 0.  0.
         24    2    4    4    0    0 -0.76360563884E+03  0.68897383181E+03  0.89756973024E+03  0.13673086953E+04  0.78250463382E+02 0.  0.
         11    1    5    5    0    0 -0.31252200076E+03  0.15475867342E+03  0.18337202341E+02  0.34922270967E+03  0.00000000000E+00 0. -1.
        -12    1    5    5    0    0 -0.25602185162E+03  0.90365915042E+02  0.79034597443E+02  0.28277138239E+03  0.00000000000E+00 0.  1.
         11    1    3    3    0    0  0.11515170012E+04 -0.79277539966E+03 -0.14681853002E+04  0.20273263956E+04  0.00000000000E+00 0. -1.
        -12    1    3    3    0    0  0.18063249002E+03 -0.14132302061E+03 -0.28607623420E+03  0.36666047561E+03  0.00000000000E+00 0.  1.
          4    1    6    6  502    0 -0.40602184013E+03  0.33190275440E+03  0.49631986521E+03  0.72204333779E+03  0.00000000000E+00 0. -1.
         -3    1    6    6    0  502 -0.35758379871E+03  0.35707107741E+03  0.40124986503E+03  0.64526535751E+03  0.00000000000E+00 0.  1.
<mgrwt>
<rscale>  0 0.16386867E+04</rscale>
<asrwt>0</asrwt>
<pdfrwt beam="1">  1        1 0.39635459E+00 0.16386867E+04</pdfrwt>
<pdfrwt beam="2">  1       -2 0.27953613E+00 0.16386867E+04</pdfrwt>
<totfact> 0.41156774E-02</totfact>
</mgrwt>
</event>
<event>
12    3  0.2212098E-007  0.5567897E+03  0.7818608E-02  0.9999345E-01
          3   -1    0    0  501    0  0.00000000000E+00  0.00000000000E+00  0.76771767052E+03  0.76771767052E+03  0.00000000000E+00 0. -1.
         -4   -1    0    0    0  501 -0.00000000000E+00 -0.00000000000E+00 -0.46898509760E+03  0.46898509760E+03  0.00000000000E+00 0.  1.
        -24    2    1    2    0    0 -0.40560273995E+03  0.12586730949E+03 -0.27990466775E+02  0.43230719757E+03  0.75827993435E+02 0.  0.
    5000000    2    1    2    0    0  0.40560273995E+03 -0.12586730949E+03  0.32672303970E+03  0.80439557055E+03  0.59995677094E+03 0.  0.
        -24    2    4    4    0    0 -0.64786422393E+02 -0.19012656242E+03  0.22503493855E+03  0.31232172348E+03  0.80986079845E+02 0.  0.
         24    2    4    4    0    0  0.47038916234E+03  0.64259252925E+02  0.10168810115E+03  0.49207384707E+03  0.80006158627E+02 0.  0.
         11    1    3    3    0    0 -0.18179036941E+03  0.80555075820E+02 -0.43094154331E+02  0.20345506823E+03  0.00000000000E+00 0. -1.
        -12    1    3    3    0    0 -0.22381237053E+03  0.45312233671E+02  0.15103687556E+02  0.22885212933E+03  0.00000000000E+00 0.  1.
         13    1    5    5    0    0 -0.10513160695E+02 -0.11670918586E+03  0.16744605311E+03  0.20437646957E+03  0.00000000000E+00 0. -1.
        -14    1    5    5    0    0 -0.54273261699E+02 -0.73417376558E+02  0.57588885435E+02  0.10794525391E+03  0.00000000000E+00 0.  1.
          4    1    6    6  502    0  0.30282257822E+03  0.14764573483E+02  0.93037516517E+02  0.31713638389E+03  0.00000000000E+00 0. -1.
         -3    1    6    6    0  502  0.16756658412E+03  0.49494679442E+02  0.86505846323E+01  0.17493746317E+03  0.00000000000E+00 0.  1.
<mgrwt>
<rscale>  0 0.55678975E+03</rscale>
<asrwt>0</asrwt>
<pdfrwt beam="1">  1        3 0.11811041E+00 0.55678975E+03</pdfrwt>
<pdfrwt beam="2">  1       -4 0.72151553E-01 0.55678975E+03</pdfrwt>
<totfact> 0.23313583E+00</totfact>
</mgrwt>
</event>
<event>
12    3  0.2212098E-007  0.3264256E+03  0.7818608E-02  0.1072729E+00
          3   -1    0    0  501    0  0.00000000000E+00  0.00000000000E+00  0.17982901278E+03  0.17982901278E+03  0.00000000000E+00 0. -1.
         -4   -1    0    0    0  501 -0.00000000000E+00 -0.00000000000E+00 -0.11207805670E+04  0.11207805670E+04  0.00000000000E+00 0.  1.
        -24    2    1    2    0    0 -0.10999762767E+03  0.14966463787E+03 -0.48263272901E+03  0.52316233896E+03  0.79154910621E+02 0.  0.
    5000000    2    1    2    0    0  0.10999762767E+03 -0.14966463787E+03 -0.45831882524E+03  0.77744724085E+03  0.59989089409E+03 0.  0.
        -24    2    4    4    0    0 -0.31535518544E+02  0.13131767020E+03  0.58336910052E+02  0.16765707226E+03  0.80416909716E+02 0.  0.
         24    2    4    4    0    0  0.14153314622E+03 -0.28098230807E+03 -0.51665573530E+03  0.60979016859E+03  0.76994882760E+02 0.  0.
         11    1    3    3    0    0 -0.68288513534E+02  0.13422336536E+03 -0.30646974661E+03  0.34147172427E+03  0.00000000000E+00 0. -1.
        -12    1    3    3    0    0 -0.41709114141E+02  0.15441272508E+02 -0.17616298240E+03  0.18169061469E+03  0.00000000000E+00 0.  1.
         13    1    5    5    0    0 -0.18929658635E+02  0.85451059704E+02 -0.59049859608E+01  0.87721630398E+02  0.00000000000E+00 0. -1.
        -14    1    5    5    0    0 -0.12605859909E+02  0.45866610493E+02  0.64241896013E+02  0.79935441861E+02  0.00000000000E+00 0.  1.
          2    1    6    6  502    0  0.12409859279E+03 -0.17072894753E+03 -0.36240324554E+03  0.41938639300E+03  0.00000000000E+00 0. -1.
         -1    1    6    6    0  502  0.17434553432E+02 -0.11025336054E+03 -0.15425248976E+03  0.19040377560E+03  0.00000000000E+00 0.  1.
<mgrwt>
<rscale>  0 0.32642560E+03</rscale>
<asrwt>0</asrwt>
<pdfrwt beam="1">  1        3 0.27666002E-01 0.32642560E+03</pdfrwt>
<pdfrwt beam="2">  1       -4 0.17242778E+00 0.32642560E+03</pdfrwt>
<totfact> 0.57982960E+00</totfact>
</mgrwt>
</event>
<event>
12    3  0.2212098E-007  0.1463552E+04  0.7818608E-02  0.8909059E-01
         -2   -1    0    0    0  501 -0.00000000000E+00  0.00000000000E+00  0.94876943920E+03  0.94876943920E+03  0.00000000000E+00 0.  1.
          1   -1    0    0  501    0  0.00000000000E+00 -0.00000000000E+00 -0.23655957593E+04  0.23655957593E+04  0.00000000000E+00 0. -1.
        -24    2    1    2    0    0 -0.12243461612E+04 -0.72703387233E+03 -0.46745811606E+03  0.15007811977E+04  0.78900818833E+02 0.  0.
    5000000    2    1    2    0    0  0.12243461612E+04  0.72703387233E+03 -0.94936820404E+03  0.18135840008E+04  0.60015428616E+03 0.  0.
        -24    2    4    4    0    0  0.12627879928E+04  0.69882166270E+03 -0.93058722545E+03  0.17190430201E+04  0.78301276520E+02 0.  0.
         24    2    4    4    0    0 -0.38441831620E+02  0.28212209628E+02 -0.18780978589E+02  0.94540980655E+02  0.79445381717E+02 0.  0.
         13    1    3    3    0    0 -0.72483308234E+03 -0.40723272111E+03 -0.30788478839E+03  0.88657460448E+03  0.00000000000E+00 0. -1.
        -14    1    3    3    0    0 -0.49951307884E+03 -0.31980115122E+03 -0.15957332767E+03  0.61420659323E+03  0.00000000000E+00 0.  1.
         13    1    5    5    0    0  0.48254375108E+03  0.22821870288E+03 -0.36354103156E+03  0.64582840575E+03  0.00000000000E+00 0. -1.
        -14    1    5    5    0    0  0.78024424171E+03  0.47060295982E+03 -0.56704619389E+03  0.10732146144E+04  0.00000000000E+00 0.  1.
          4    1    6    6  502    0 -0.36528080081E+02  0.80961203019E+01 -0.46849124503E+02  0.59955719202E+02  0.00000000000E+00 0. -1.
         -3    1    6    6    0  502 -0.19137515389E+01  0.20116089326E+02  0.28068145914E+02  0.34585261453E+02  0.00000000000E+00 0.  1.
<mgrwt>
<rscale>  0 0.14635522E+04</rscale>
<asrwt>0</asrwt>
<pdfrwt beam="1">  1        1 0.36393780E+00 0.14635522E+04</pdfrwt>
<pdfrwt beam="2">  1       -2 0.14596453E+00 0.14635522E+04</pdfrwt>
<totfact> 0.45060302E-01</totfact>
</mgrwt>
</event>
<event>
12    3  0.2212098E-007  0.9028589E+03  0.7818608E-02  0.9422015E-01
          1   -1    0    0  501    0  0.00000000000E+00  0.00000000000E+00  0.30502718701E+04  0.30502718701E+04  0.00000000000E+00 0. -1.
         -2   -1    0    0    0  501 -0.00000000000E+00 -0.00000000000E+00 -0.31981229038E+03  0.31981229038E+03  0.00000000000E+00 0.  1.
        -24    2    1    2    0    0 -0.84925104339E+03 -0.27844128503E+03  0.11733567860E+04  0.14770996181E+04  0.79374119058E+02 0.  0.
    5000000    2    1    2    0    0  0.84925104339E+03  0.27844128503E+03  0.15571027937E+04  0.18929845423E+04  0.60005373373E+03 0.  0.
        -24    2    4    4    0    0  0.26529699947E+03  0.12493009381E+03  0.10720908501E+04  0.11143931803E+04  0.80643307576E+02 0.  0.
         24    2    4    4    0    0  0.58395404392E+03  0.15351119122E+03  0.48501194360E+03  0.77859136205E+03  0.79999452407E+02 0.  0.
         11    1    3    3    0    0 -0.64123559170E+03 -0.18886943205E+03  0.92090106724E+03  0.11379426708E+04  0.00000000000E+00 0. -1.
        -12    1    3    3    0    0 -0.20801545170E+03 -0.89571852972E+02  0.25245571875E+03  0.33915694733E+03  0.00000000000E+00 0.  1.
         13    1    5    5    0    0  0.26717669799E+03  0.11278581922E+03  0.10474813566E+04  0.10868860204E+04  0.00000000000E+00 0. -1.
        -14    1    5    5    0    0 -0.18796985174E+01  0.12144274584E+02  0.24609493541E+02  0.27507159869E+02  0.00000000000E+00 0.  1.
          2    1    6    6  502    0  0.33535300952E+03  0.49499062757E+02  0.28734455297E+03  0.44438574497E+03  0.00000000000E+00 0. -1.
         -1    1    6    6    0  502  0.24860103440E+03  0.10401212846E+03  0.19766739062E+03  0.33420561708E+03  0.00000000000E+00 0.  1.
<mgrwt>
<rscale>  0 0.90285891E+03</rscale>
<asrwt>0</asrwt>
<pdfrwt beam="1">  1        1 0.46927258E+00 0.90285891E+03</pdfrwt>
<pdfrwt beam="2">  1       -2 0.49201893E-01 0.90285891E+03</pdfrwt>
<totfact> 0.19654767E+00</totfact>
</mgrwt>
</event>
<event>
12    3  0.2212098E-007  0.3552780E+03  0.7818608E-02  0.1060469E+00
         -2   -1    0    0    0  501 -0.00000000000E+00  0.00000000000E+00  0.32338531213E+03  0.32338531213E+03  0.00000000000E+00 0.  1.
          1   -1    0    0  501    0  0.00000000000E+00 -0.00000000000E+00 -0.63414636165E+03  0.63414636165E+03  0.00000000000E+00 0. -1.
        -24    2    1    2    0    0  0.22964614297E+03 -0.83865687046E+02 -0.10045823313E+03  0.27622460473E+03  0.80233230094E+02 0.  0.
    5000000    2    1    2    0    0 -0.22964614297E+03  0.83865687046E+02 -0.21030281639E+03  0.68130706904E+03  0.60015101708E+03 0.  0.
        -24    2    4    4    0    0 -0.24860450169E+03 -0.10520334688E+03 -0.33735343327E+03  0.43867946516E+03  0.75897244733E+02 0.  0.
         24    2    4    4    0    0  0.18958358720E+02  0.18906903393E+03  0.12705061687E+03  0.24262760388E+03  0.81362005640E+02 0.  0.
         13    1    3    3    0    0  0.13110563515E+03 -0.39330897818E+02 -0.97489430444E+02  0.16804700574E+03  0.00000000000E+00 0. -1.
        -14    1    3    3    0    0  0.98540507827E+02 -0.44534789228E+02 -0.29688026814E+01  0.10817759899E+03  0.00000000000E+00 0.  1.
         13    1    5    5    0    0 -0.15466379280E+03 -0.51501674522E+02 -0.25519539756E+03  0.30281677995E+03  0.00000000000E+00 0. -1.
        -14    1    5    5    0    0 -0.93940708895E+02 -0.53701672359E+02 -0.82158035705E+02  0.13586268521E+03  0.00000000000E+00 0.  1.
          2    1    6    6  502    0  0.25857589179E+02  0.63503972119E+02  0.72600082722E+01  0.68949815903E+02  0.00000000000E+00 0. -1.
         -1    1    6    6    0  502 -0.68992304590E+01  0.12556506181E+03  0.11979060860E+03  0.17367778798E+03  0.00000000000E+00 0.  1.
<mgrwt>
<rscale>  0 0.35527801E+03</rscale>
<asrwt>0</asrwt>
<pdfrwt beam="1">  1        1 0.97560979E-01 0.35527801E+03</pdfrwt>
<pdfrwt beam="2">  1       -2 0.49751587E-01 0.35527801E+03</pdfrwt>
<totfact> 0.11095665E+02</totfact>
</mgrwt>
</event>
<event>
12    3  0.2212098E-007  0.4448670E+03  0.7818608E-02  0.1029264E+00
          1   -1    0    0  501    0  0.00000000000E+00  0.00000000000E+00  0.27721739496E+04  0.27721739496E+04  0.00000000000E+00 0. -1.
         -2   -1    0    0    0  501 -0.00000000000E+00 -0.00000000000E+00 -0.10769260515E+03  0.10769260515E+03  0.00000000000E+00 0.  1.
        -24    2    1    2    0    0  0.20146844853E+03 -0.30684477247E+03  0.11558135011E+04  0.12153599178E+04  0.80322039936E+02 0.  0.
    5000000    2    1    2    0    0 -0.20146844853E+03  0.30684477247E+03  0.15086678434E+04  0.16645066370E+04  0.59980032764E+03 0.  0.
        -24    2    4    4    0    0  0.94322593921E+02  0.48967252003E+02  0.10340269886E+04  0.10421953727E+04  0.75265120214E+02 0.  0.
         24    2    4    4    0    0 -0.29579104245E+03  0.25787752047E+03  0.47464085475E+03  0.62231126430E+03  0.89410359097E+02 0.  0.
         11    1    3    3    0    0  0.79843151414E+02 -0.19098603490E+03  0.67670733859E+03  0.70766052345E+03  0.00000000000E+00 0. -1.
        -12    1    3    3    0    0  0.12162529712E+03 -0.11585873757E+03  0.47910616256E+03  0.50769939430E+03  0.00000000000E+00 0.  1.
         11    1    5    5    0    0 -0.24444075083E+00 -0.10090060318E+02  0.25829364811E+03  0.25849076912E+03  0.00000000000E+00 0. -1.
        -12    1    5    5    0    0  0.94567034672E+02  0.59057312321E+02  0.77573334049E+03  0.78370460362E+03  0.00000000000E+00 0.  1.
          2    1    6    6  502    0 -0.16631635226E+03  0.12895481072E+03  0.31967280869E+03  0.38272859424E+03  0.00000000000E+00 0. -1.
         -1    1    6    6    0  502 -0.12947469019E+03  0.12892270975E+03  0.15496804607E+03  0.23958267006E+03  0.00000000000E+00 0.  1.
<mgrwt>
<rscale>  0 0.44486697E+03</rscale>
<asrwt>0</asrwt>
<pdfrwt beam="1">  1        1 0.42648825E+00 0.44486697E+03</pdfrwt>
<pdfrwt beam="2">  1       -2 0.16568095E-01 0.44486697E+03</pdfrwt>
<totfact> 0.25227951E+01</totfact>
</mgrwt>
</event>
<event>
12    3  0.2212098E-007  0.1662948E+04  0.7818608E-02  0.8782783E-01
          1   -1    0    0  501    0  0.00000000000E+00  0.00000000000E+00  0.18882012753E+04  0.18882012753E+04  0.00000000000E+00 0. -1.
         -2   -1    0    0    0  501 -0.00000000000E+00 -0.00000000000E+00 -0.15743720592E+04  0.15743720592E+04  0.00000000000E+00 0.  1.
        -24    2    1    2    0    0  0.57944805119E+03  0.15527957198E+04  0.36520090488E+03  0.16991720937E+04  0.82942820269E+02 0.  0.
    5000000    2    1    2    0    0 -0.57944805119E+03 -0.15527957198E+04 -0.51371688811E+02  0.17634012408E+04  0.60000857818E+03 0.  0.
        -24    2    4    4    0    0 -0.53406892080E+03 -0.12287097182E+04  0.18115673909E+03  0.13544006537E+04  0.81401369405E+02 0.  0.
         24    2    4    4    0    0 -0.45379130389E+02 -0.32408600167E+03 -0.23252842790E+03  0.40900058705E+03  0.78236874127E+02 0.  0.
         11    1    3    3    0    0  0.33819289067E+03  0.83686605309E+03  0.16455055361E+03  0.91749447236E+03  0.00000000000E+00 0. -1.
        -12    1    3    3    0    0  0.24125516052E+03  0.71592966675E+03  0.20065035127E+03  0.78167762132E+03  0.00000000000E+00 0.  1.
         13    1    5    5    0    0 -0.24379438952E+03 -0.58427540440E+03  0.45699888681E+02  0.63474556507E+03  0.00000000000E+00 0. -1.
        -14    1    5    5    0    0 -0.29027453128E+03 -0.64443431376E+03  0.13545685041E+03  0.71965508863E+03  0.00000000000E+00 0.  1.
          4    1    6    6  502    0 -0.13379346339E+02 -0.17007783493E+03 -0.74921960620E+02  0.18632975347E+03  0.00000000000E+00 0. -1.
         -3    1    6    6    0  502 -0.31999784050E+02 -0.15400816674E+03 -0.15760646728E+03  0.22267083359E+03  0.00000000000E+00 0.  1.
<mgrwt>
<rscale>  0 0.16629476E+04</rscale>
<asrwt>0</asrwt>
<pdfrwt beam="1">  1        1 0.29049250E+00 0.16629476E+04</pdfrwt>
<pdfrwt beam="2">  1       -2 0.24221109E+00 0.16629476E+04</pdfrwt>
<totfact> 0.20649363E-01</totfact>
</mgrwt>
</event>
<event>
12    3  0.2212098E-007  0.1228792E+04  0.7818608E-02  0.9088021E-01
         -2   -1    0    0    0  501 -0.00000000000E+00  0.00000000000E+00  0.10309722134E+04  0.10309722134E+04  0.00000000000E+00 0.  1.
          1   -1    0    0  501    0  0.00000000000E+00 -0.00000000000E+00 -0.17396523521E+04  0.17396523521E+04  0.00000000000E+00 0. -1.
        -24    2    1    2    0    0  0.96740566331E+03  0.71459832407E+03 -0.76093565259E+03  0.14255305575E+04  0.81177710773E+02 0.  0.
    5000000    2    1    2    0    0 -0.96740566331E+03 -0.71459832407E+03  0.52255513865E+02  0.13450940080E+04  0.60001897423E+03 0.  0.
        -24    2    4    4    0    0 -0.67146082542E+03 -0.28295604157E+03  0.25854110996E+03  0.77706530739E+03  0.77866712255E+02 0.  0.
         24    2    4    4    0    0 -0.29594483789E+03 -0.43164228250E+03 -0.20628559609E+03  0.56802870059E+03  0.78768333942E+02 0.  0.
         11    1    5    5    0    0 -0.34036519066E+03 -0.17847410654E+03  0.15877526218E+03  0.41582574908E+03  0.00000000000E+00 0. -1.
        -12    1    5    5    0    0 -0.33109563476E+03 -0.10448193503E+03  0.99765847778E+02  0.36123955831E+03  0.00000000000E+00 0.  1.
         13    1    3    3    0    0  0.80685801966E+02  0.60949295016E+02 -0.38664084663E+02  0.10825861003E+03  0.00000000000E+00 0. -1.
        -14    1    3    3    0    0  0.88671986134E+03  0.65364902905E+03 -0.72227156792E+03  0.13172719474E+04  0.00000000000E+00 0.  1.
          4    1    6    6  502    0 -0.12883165014E+02 -0.18519033613E+02 -0.29085186650E+02  0.36808676005E+02  0.00000000000E+00 0. -1.
         -3    1    6    6    0  502 -0.28306167287E+03 -0.41312324888E+03 -0.17720040944E+03  0.53122002459E+03  0.00000000000E+00 0.  1.
<mgrwt>
<rscale>  0 0.12287924E+04</rscale>
<asrwt>0</asrwt>
<pdfrwt beam="1">  1        1 0.26763882E+00 0.12287924E+04</pdfrwt>
<pdfrwt beam="2">  1       -2 0.15861111E+00 0.12287924E+04</pdfrwt>
<totfact> 0.98537731E-01</totfact>
</mgrwt>
</event>
<event>
12    3  0.2212098E-007  0.2836265E+03  0.7818608E-02  0.1093725E+00
         -2   -1    0    0    0  501 -0.00000000000E+00  0.00000000000E+00  0.13180493375E+03  0.13180493375E+03  0.00000000000E+00 0.  1.
          1   -1    0    0  501    0  0.00000000000E+00 -0.00000000000E+00 -0.13329066355E+04  0.13329066355E+04  0.00000000000E+00 0. -1.
        -24    2    1    2    0    0  0.10478428111E+03  0.21076951614E+02 -0.14639118560E+02  0.13083304965E+03  0.74020265006E+02 0.  0.
    5000000    2    1    2    0    0 -0.10478428111E+03 -0.21076951614E+02 -0.11864625832E+04  0.13338785196E+04  0.60009537598E+03 0.  0.
        -24    2    4    4    0    0 -0.24048938595E+03  0.97372897251E+02 -0.22544926241E+03  0.35291269236E+03  0.80021076200E+02 0.  0.
         24    2    4    4    0    0  0.13570510484E+03 -0.11844984887E+03 -0.96101332079E+03  0.98096582724E+03  0.79379526929E+02 0.  0.
         11    1    3    3    0    0  0.88517481402E+02 -0.54929212898E+01 -0.33049882775E+02  0.94645715432E+02  0.00000000000E+00 0. -1.
        -12    1    3    3    0    0  0.16266799706E+02  0.26569872904E+02  0.18410764214E+02  0.36187334218E+02  0.00000000000E+00 0.  1.
         11    1    5    5    0    0 -0.47928605022E+02  0.19390298606E+02 -0.82570722222E+01  0.52357560114E+02  0.00000000000E+00 0. -1.
        -12    1    5    5    0    0 -0.19256078093E+03  0.77982598646E+02 -0.21719219019E+03  0.30055513225E+03  0.00000000000E+00 0.  1.
          4    1    6    6  502    0  0.58672638516E+02 -0.18002786446E+02 -0.19102556067E+03  0.20064232769E+03  0.00000000000E+00 0. -1.
         -3    1    6    6    0  502  0.77032466328E+02 -0.10044706242E+03 -0.76998776012E+03  0.78032349955E+03  0.00000000000E+00 0.  1.
<mgrwt>
<rscale>  0 0.28362651E+03</rscale>
<asrwt>0</asrwt>
<pdfrwt beam="1">  1        1 0.20506255E+00 0.28362651E+03</pdfrwt>
<pdfrwt beam="2">  1       -2 0.20277683E-01 0.28362651E+03</pdfrwt>
<totfact> 0.16803007E+02</totfact>
</mgrwt>
</event>
<event>
12    3  0.2212098E-007  0.5764568E+03  0.7818608E-02  0.9955492E-01
          1   -1    0    0  501    0  0.00000000000E+00  0.00000000000E+00  0.24807243422E+04  0.24807243422E+04  0.00000000000E+00 0. -1.
         -2   -1    0    0    0  501 -0.00000000000E+00 -0.00000000000E+00 -0.23416854728E+03  0.23416854728E+03  0.00000000000E+00 0.  1.
        -24    2    1    2    0    0  0.44904618355E+03 -0.29252897779E+03  0.15793107879E+04  0.16696859447E+04  0.80080654825E+02 0.  0.
    5000000    2    1    2    0    0 -0.44904618355E+03  0.29252897779E+03  0.66724500707E+03  0.10452069448E+04  0.60002164985E+03 0.  0.
        -24    2    4    4    0    0 -0.45420663543E+03  0.27600089774E+03  0.75401084231E+03  0.92592897951E+03  0.79573623465E+02 0.  0.
         24    2    4    4    0    0  0.51604518868E+01  0.16528080055E+02 -0.86765835236E+02  0.11927796534E+03  0.79994469542E+02 0.  0.
         11    1    5    5    0    0 -0.34504176820E+03  0.20636526667E+03  0.50724164931E+03  0.64725152444E+03  0.00000000000E+00 0. -1.
        -12    1    5    5    0    0 -0.10916486723E+03  0.69635631069E+02  0.24676919300E+03  0.27867745507E+03  0.00000000000E+00 0.  1.
         11    1    3    3    0    0  0.63031669225E+02 -0.71982637914E+02  0.33209433678E+03  0.34560257523E+03  0.00000000000E+00 0. -1.
        -12    1    3    3    0    0  0.38601451432E+03 -0.22054633988E+03  0.12472164511E+04  0.13240833694E+04  0.00000000000E+00 0.  1.
          2    1    6    6  502    0 -0.10601621733E+02 -0.30098184448E+02 -0.41992440121E+02  0.52741445920E+02  0.00000000000E+00 0. -1.
         -1    1    6    6    0  502  0.15762073619E+02  0.46626264504E+02 -0.44773395115E+02  0.66536519420E+02  0.00000000000E+00 0.  1.
<mgrwt>
<rscale>  0 0.57645680E+03</rscale>
<asrwt>0</asrwt>
<pdfrwt beam="1">  1        1 0.38164988E+00 0.57645680E+03</pdfrwt>
<pdfrwt beam="2">  1       -2 0.36025932E-01 0.57645680E+03</pdfrwt>
<totfact> 0.96392662E+00</totfact>
</mgrwt>
</event>
<event>
12    3  0.2212098E-007  0.1470364E+04  0.7818608E-02  0.8904403E-01
          1   -1    0    0  501    0  0.00000000000E+00  0.00000000000E+00  0.27666024254E+04  0.27666024254E+04  0.00000000000E+00 0. -1.
         -2   -1    0    0    0  501 -0.00000000000E+00 -0.00000000000E+00 -0.83908329677E+03  0.83908329677E+03  0.00000000000E+00 0.  1.
        -24    2    1    2    0    0  0.14413810634E+04  0.23640944653E+03  0.82131955995E+03  0.16776357261E+04  0.80168655672E+02 0.  0.
    5000000    2    1    2    0    0 -0.14413810634E+04 -0.23640944653E+03  0.11061995686E+04  0.19280499961E+04  0.60019205702E+03 0.  0.
        -24    2    4    4    0    0 -0.88448785584E+03 -0.24022853170E+03  0.34771952141E+03  0.98352665427E+03  0.79920582578E+02 0.  0.
         24    2    4    4    0    0 -0.55689320759E+03  0.38190851705E+01  0.75848004723E+03  0.94452334181E+03  0.81778549228E+02 0.  0.
         11    1    3    3    0    0  0.10878918406E+04  0.20851279527E+03  0.60217474531E+03  0.12607936653E+04  0.00000000000E+00 0. -1.
        -12    1    3    3    0    0  0.35348922281E+03  0.27896651260E+02  0.21914481464E+03  0.41684206071E+03  0.00000000000E+00 0.  1.
         13    1    5    5    0    0 -0.19173740211E+03 -0.60993287593E+02  0.42801817580E+02  0.20570709294E+03  0.00000000000E+00 0. -1.
        -14    1    5    5    0    0 -0.69275045373E+03 -0.17923524411E+03  0.30491770383E+03  0.77781956133E+03  0.00000000000E+00 0.  1.
          2    1    6    6  502    0 -0.38500532110E+03  0.36432911533E+02  0.49307499938E+03  0.62664137218E+03  0.00000000000E+00 0. -1.
         -1    1    6    6    0  502 -0.17188788649E+03 -0.32613826363E+02  0.26540504785E+03  0.31788196963E+03  0.00000000000E+00 0.  1.
<mgrwt>
<rscale>  0 0.14703644E+04</rscale>
<asrwt>0</asrwt>
<pdfrwt beam="1">  1        1 0.42563114E+00 0.14703644E+04</pdfrwt>
<pdfrwt beam="2">  1       -2 0.12908974E+00 0.14703644E+04</pdfrwt>
<totfact> 0.32571125E-01</totfact>
</mgrwt>
</event>
<event>
12    3  0.2212098E-007  0.7926529E+03  0.7818608E-02  0.9570713E-01
          1   -1    0    0  501    0  0.00000000000E+00  0.00000000000E+00  0.54955175314E+03  0.54955175314E+03  0.00000000000E+00 0. -1.
         -2   -1    0    0    0  501 -0.00000000000E+00 -0.00000000000E+00 -0.12625716562E+04  0.12625716562E+04  0.00000000000E+00 0.  1.
        -24    2    1    2    0    0 -0.54077134101E+03 -0.42610186860E+03 -0.54958744558E+03  0.88448439829E+03  0.79182351572E+02 0.  0.
    5000000    2    1    2    0    0  0.54077134101E+03  0.42610186860E+03 -0.16343245747E+03  0.92763901104E+03  0.59983957937E+03 0.  0.
        -24    2    4    4    0    0  0.15101690680E+03 -0.13322001975E+03 -0.98424160159E+02  0.23812227661E+03  0.80381736181E+02 0.  0.
         24    2    4    4    0    0  0.38975443420E+03  0.55932188835E+03 -0.65008297307E+02  0.68951673443E+03  0.80360155396E+02 0.  0.
         11    1    5    5    0    0  0.13410426063E+03 -0.14062324629E+03 -0.10177932288E+03  0.21935788265E+03  0.00000000000E+00 0. -1.
        -12    1    5    5    0    0  0.16912646168E+02  0.74032265347E+01  0.33551627247E+01  0.18764393953E+02  0.00000000000E+00 0.  1.
         13    1    3    3    0    0 -0.25588326428E+03 -0.22965839887E+03 -0.23192440715E+03  0.41473865957E+03  0.00000000000E+00 0. -1.
        -14    1    3    3    0    0 -0.28488807673E+03 -0.19644346973E+03 -0.31766303843E+03  0.46974573872E+03  0.00000000000E+00 0.  1.
          4    1    6    6  502    0  0.34781632713E+03  0.47805383633E+03 -0.80868895666E+02  0.59670046601E+03  0.00000000000E+00 0. -1.
         -3    1    6    6    0  502  0.41938107077E+02  0.81268052018E+02  0.15860598359E+02  0.92816268425E+02  0.00000000000E+00 0.  1.
<mgrwt>
<rscale>  0 0.79265287E+03</rscale>
<asrwt>0</asrwt>
<pdfrwt beam="1">  1        1 0.84546424E-01 0.79265287E+03</pdfrwt>
<pdfrwt beam="2">  1       -2 0.19424179E+00 0.79265287E+03</pdfrwt>
<totfact> 0.50327701E+00</totfact>
</mgrwt>
</event>
<event>
12    3  0.2212098E-007  0.7349850E+03  0.7818608E-02  0.9659205E-01
         -2   -1    0    0    0  501 -0.00000000000E+00  0.00000000000E+00  0.60028561365E+03  0.60028561365E+03  0.00000000000E+00 0.  1.
          1   -1    0    0  501    0  0.00000000000E+00 -0.00000000000E+00 -0.99152792400E+03  0.99152792400E+03  0.00000000000E+00 0. -1.
        -24    2    1    2    0    0 -0.56314099427E+03  0.29453825749E+03 -0.16289729786E+02  0.64075125734E+03  0.80101522686E+02 0.  0.
    5000000    2    1    2    0    0  0.56314099427E+03 -0.29453825749E+03 -0.37495258056E+03  0.95106228031E+03  0.60004121427E+03 0.  0.
        -24    2    4    4    0    0  0.25832179129E+03  0.13477360291E+03 -0.29192131959E+01  0.30186061584E+03  0.78849462215E+02 0.  0.
         24    2    4    4    0    0  0.30481920298E+03 -0.42931186040E+03 -0.37203336736E+03  0.64920166448E+03  0.76358069298E+02 0.  0.
         11    1    5    5    0    0  0.19671134513E+03  0.62430031087E+02  0.55981352764E+01  0.20645629369E+03  0.00000000000E+00 0. -1.
        -12    1    5    5    0    0  0.61610446158E+02  0.72343571819E+02 -0.85173484723E+01  0.95404322147E+02  0.00000000000E+00 0.  1.
         11    1    3    3    0    0 -0.43759299646E+01  0.15252693633E+02 -0.59505819586E+00  0.15879153641E+02  0.00000000000E+00 0. -1.
        -12    1    3    3    0    0 -0.55876506430E+03  0.27928556386E+03 -0.15694671590E+02  0.62487210370E+03  0.00000000000E+00 0.  1.
          4    1    6    6  502    0  0.14486028776E+03 -0.17004847051E+03 -0.11853495294E+03  0.25288637836E+03  0.00000000000E+00 0. -1.
         -3    1    6    6    0  502  0.15995891522E+03 -0.25926338989E+03 -0.25349841442E+03  0.39631528612E+03  0.00000000000E+00 0.  1.
<mgrwt>
<rscale>  0 0.73498504E+03</rscale>
<asrwt>0</asrwt>
<pdfrwt beam="1">  1        1 0.15254276E+00 0.73498504E+03</pdfrwt>
<pdfrwt beam="2">  1       -2 0.92351633E-01 0.73498504E+03</pdfrwt>
<totfact> 0.13750333E+01</totfact>
</mgrwt>
</event>
<event>
12    3  0.2212098E-007  0.6202747E+03  0.7818608E-02  0.9864213E-01
          1   -1    0    0  501    0  0.00000000000E+00  0.00000000000E+00  0.39321742921E+03  0.39321742921E+03  0.00000000000E+00 0. -1.
         -2   -1    0    0    0  501 -0.00000000000E+00 -0.00000000000E+00 -0.11110468034E+04  0.11110468034E+04  0.00000000000E+00 0.  1.
        -24    2    1    2    0    0 -0.17757113203E+03  0.44567359523E+03 -0.51785558583E+03  0.71040561971E+03  0.79657242815E+02 0.  0.
    5000000    2    1    2    0    0  0.17757113203E+03 -0.44567359523E+03 -0.19997378834E+03  0.79385861288E+03  0.60005459819E+03 0.  0.
        -24    2    4    4    0    0  0.32482578970E+03 -0.49338550424E+02 -0.84834521023E+02  0.34833852385E+03  0.78719406929E+02 0.  0.
         24    2    4    4    0    0 -0.14725465768E+03 -0.39633504481E+03 -0.11513926732E+03  0.44552008903E+03  0.80409557272E+02 0.  0.
         11    1    5    5    0    0  0.87218475590E+02  0.10372496928E+02 -0.49463343222E+02  0.10080314231E+03  0.00000000000E+00 0. -1.
        -12    1    5    5    0    0  0.23760731411E+03 -0.59711047352E+02 -0.35371177802E+02  0.24753538154E+03  0.00000000000E+00 0.  1.
         13    1    3    3    0    0 -0.20780316847E+02  0.13829940848E+03 -0.12549623974E+03  0.18790384281E+03  0.00000000000E+00 0. -1.
        -14    1    3    3    0    0 -0.15679081518E+03  0.30737418675E+03 -0.39235934608E+03  0.52250177690E+03  0.00000000000E+00 0.  1.
          2    1    6    6  502    0 -0.81966808597E+02 -0.22445288541E+03 -0.10606175936E+03  0.26143211792E+03  0.00000000000E+00 0. -1.
         -1    1    6    6    0  502 -0.65287849079E+02 -0.17188215940E+03 -0.90775079510E+01  0.18408797111E+03  0.00000000000E+00 0.  1.
<mgrwt>
<rscale>  0 0.62027466E+03</rscale>
<asrwt>0</asrwt>
<pdfrwt beam="1">  1        1 0.60494990E-01 0.62027466E+03</pdfrwt>
<pdfrwt beam="2">  1       -2 0.17093028E+00 0.62027466E+03</pdfrwt>
<totfact> 0.11648470E+01</totfact>
</mgrwt>
</event>
<event>
12    3  0.2212098E-007  0.8946632E+03  0.7818608E-02  0.9432277E-01
         -2   -1    0    0    0  501 -0.00000000000E+00  0.00000000000E+00  0.14677544525E+04  0.14677544525E+04  0.00000000000E+00 0.  1.
          1   -1    0    0  501    0  0.00000000000E+00 -0.00000000000E+00 -0.16361332816E+04  0.16361332816E+04  0.00000000000E+00 0. -1.
        -24    2    1    2    0    0  0.79261144749E+03 -0.16681274990E+03 -0.13341836418E+04  0.15627438595E+04  0.77865140133E+02 0.  0.
    5000000    2    1    2    0    0 -0.79261144749E+03  0.16681274990E+03  0.11658048127E+04  0.15411438746E+04  0.59997014974E+03 0.  0.
        -24    2    4    4    0    0 -0.83985612408E+03  0.23405485095E+03  0.92181324476E+03  0.12712987120E+04  0.79503298929E+02 0.  0.
         24    2    4    4    0    0  0.47244676585E+02 -0.67242101054E+02  0.24399156793E+03  0.26984516255E+03  0.80814397917E+02 0.  0.
         11    1    5    5    0    0 -0.35321615051E+03  0.76444280098E+02  0.33426971188E+03  0.49228205048E+03  0.00000000000E+00 0. -1.
        -12    1    5    5    0    0 -0.48663997356E+03  0.15761057086E+03  0.58754353288E+03  0.77901666153E+03  0.00000000000E+00 0.  1.
         11    1    3    3    0    0  0.90294751577E+02 -0.90921589477E+01 -0.10981410568E+03  0.14246033597E+03  0.00000000000E+00 0. -1.
        -12    1    3    3    0    0  0.70231669591E+03 -0.15772059095E+03 -0.12243695361E+04  0.14202835235E+04  0.00000000000E+00 0.  1.
          4    1    6    6  502    0  0.15860295151E+02 -0.72333032433E+02  0.11338604547E+03  0.13542529989E+03  0.00000000000E+00 0. -1.
         -3    1    6    6    0  502  0.31384381434E+02  0.50909313784E+01  0.13060552246E+03  0.13441986266E+03  0.00000000000E+00 0.  1.
<mgrwt>
<rscale>  0 0.89466322E+03</rscale>
<asrwt>0</asrwt>
<pdfrwt beam="1">  1        1 0.25171281E+00 0.89466322E+03</pdfrwt>
<pdfrwt beam="2">  1       -2 0.22580838E+00 0.89466322E+03</pdfrwt>
<totfact> 0.42838072E-01</totfact>
</mgrwt>
</event>
<event>
12    3  0.2212098E-007  0.5372589E+03  0.7818608E-02  0.1004487E+00
         -2   -1    0    0    0  501 -0.00000000000E+00  0.00000000000E+00  0.58904175981E+03  0.58904175981E+03  0.00000000000E+00 0.  1.
          1   -1    0    0  501    0  0.00000000000E+00 -0.00000000000E+00 -0.60501381070E+03  0.60501381070E+03  0.00000000000E+00 0. -1.
        -24    2    1    2    0    0  0.92846479359E+02  0.36743495080E+03 -0.23151391606E+03  0.45191355670E+03  0.83655589215E+02 0.  0.
    5000000    2    1    2    0    0 -0.92846479359E+02 -0.36743495080E+03  0.21554186517E+03  0.74214201381E+03  0.60057269437E+03 0.  0.
        -24    2    4    4    0    0  0.83517048924E+02 -0.47201896291E+03  0.11158897683E+03  0.49862051363E+03  0.79958226933E+02 0.  0.
         24    2    4    4    0    0 -0.17636352828E+03  0.10458401211E+03  0.10395288833E+03  0.24352150018E+03  0.80340577288E+02 0.  0.
         11    1    5    5    0    0  0.85827899172E+02 -0.25810062590E+03  0.59063319690E+02  0.27833583509E+03  0.00000000000E+00 0. -1.
        -12    1    5    5    0    0 -0.23108502482E+01 -0.21391833701E+03  0.52525657143E+02  0.22028467854E+03  0.00000000000E+00 0.  1.
         11    1    3    3    0    0  0.40466210702E+02  0.10782753477E+03 -0.29684045019E+02  0.11893457862E+03  0.00000000000E+00 0. -1.
        -12    1    3    3    0    0  0.52380268657E+02  0.25960741603E+03 -0.20182987104E+03  0.33297897808E+03  0.00000000000E+00 0.  1.
          4    1    6    6  502    0 -0.70258891874E+02  0.63811191880E+02  0.86701624987E+02  0.12855096994E+03  0.00000000000E+00 0. -1.
         -3    1    6    6    0  502 -0.10610463641E+03  0.40772820233E+02  0.17251263346E+02  0.11497053024E+03  0.00000000000E+00 0.  1.
<mgrwt>
<rscale>  0 0.53725892E+03</rscale>
<asrwt>0</asrwt>
<pdfrwt beam="1">  1        1 0.93079048E-01 0.53725892E+03</pdfrwt>
<pdfrwt beam="2">  1       -2 0.90621809E-01 0.53725892E+03</pdfrwt>
<totfact> 0.32027295E+01</totfact>
</mgrwt>
</event>
<event>
12    3  0.2212098E-007  0.4294337E+03  0.7818608E-02  0.1034039E+00
          1   -1    0    0  501    0  0.00000000000E+00  0.00000000000E+00  0.91098062906E+03  0.91098062906E+03  0.00000000000E+00 0. -1.
         -2   -1    0    0    0  501 -0.00000000000E+00 -0.00000000000E+00 -0.30819000025E+03  0.30819000025E+03  0.00000000000E+00 0.  1.
        -24    2    1    2    0    0 -0.23936575750E+03 -0.11866849890E+02 -0.93758379368E+02  0.26914154573E+03  0.78801966640E+02 0.  0.
    5000000    2    1    2    0    0  0.23936575750E+03  0.11866849890E+02  0.69654900818E+03  0.95002908358E+03  0.59994829016E+03 0.  0.
        -24    2    4    4    0    0  0.33918136505E+03  0.20578088017E+03  0.51334827725E+03  0.65365571954E+03  0.79684232387E+02 0.  0.
         24    2    4    4    0    0 -0.99815607555E+02 -0.19391403028E+03  0.18320073094E+03  0.29637336405E+03  0.81907609219E+02 0.  0.
         11    1    3    3    0    0 -0.19133487616E+03  0.87481074283E+00 -0.10491388955E+03  0.21821256689E+03  0.00000000000E+00 0. -1.
        -12    1    3    3    0    0 -0.48030881337E+02 -0.12741660633E+02  0.11155510183E+02  0.50928978835E+02  0.00000000000E+00 0.  1.
         13    1    5    5    0    0  0.30990804369E+03  0.17257205046E+03  0.48578353446E+03  0.60150623480E+03  0.00000000000E+00 0. -1.
        -14    1    5    5    0    0  0.29273321356E+02  0.33208829709E+02  0.27564742786E+02  0.52149484740E+02  0.00000000000E+00 0.  1.
          2    1    6    6  502    0 -0.83219972636E+02 -0.17438261847E+03  0.18878938003E+03  0.27014124358E+03  0.00000000000E+00 0. -1.
         -1    1    6    6    0  502 -0.16595634919E+02 -0.19531411813E+02 -0.55886490881E+01  0.26232120471E+02  0.00000000000E+00 0.  1.
<mgrwt>
<rscale>  0 0.42943366E+03</rscale>
<asrwt>0</asrwt>
<pdfrwt beam="1">  1        1 0.14015086E+00 0.42943366E+03</pdfrwt>
<pdfrwt beam="2">  1       -2 0.47413847E-01 0.42943366E+03</pdfrwt>
<totfact> 0.69369735E+01</totfact>
</mgrwt>
</event>
<event>
12    3  0.2212098E-007  0.1967625E+04  0.7818608E-02  0.8621908E-01
          1   -1    0    0  501    0  0.00000000000E+00  0.00000000000E+00  0.30237647415E+04  0.30237647415E+04  0.00000000000E+00 0. -1.
         -2   -1    0    0    0  501 -0.00000000000E+00 -0.00000000000E+00 -0.13120467606E+04  0.13120467606E+04  0.00000000000E+00 0.  1.
        -24    2    1    2    0    0 -0.39912082198E+03 -0.18823623072E+04  0.11517424290E+04  0.22439080240E+04  0.77635762366E+02 0.  0.
    5000000    2    1    2    0    0  0.39912082198E+03  0.18823623072E+04  0.55997555201E+03  0.20919034780E+04  0.59991854156E+03 0.  0.
        -24    2    4    4    0    0 -0.54247817730E+02  0.26298496062E+02  0.49367497383E+02  0.11261212383E+03  0.81301316183E+02 0.  0.
         24    2    4    4    0    0  0.45336863971E+03  0.18560638111E+04  0.51060805463E+03  0.19792913542E+04  0.79735092131E+02 0.  0.
         11    1    3    3    0    0 -0.21802552729E+03 -0.84475713668E+03  0.51400518438E+03  0.10125962078E+04  0.00000000000E+00 0. -1.
        -12    1    3    3    0    0 -0.18109529469E+03 -0.10376051705E+04  0.63773724457E+03  0.12313118162E+04  0.00000000000E+00 0.  1.
         13    1    5    5    0    0 -0.48781169736E+02  0.52580056471E+02  0.23876673501E+02  0.75593388578E+02  0.00000000000E+00 0. -1.
        -14    1    5    5    0    0 -0.54666479948E+01 -0.26281560409E+02  0.25490823882E+02  0.37018735257E+02  0.00000000000E+00 0.  1.
          2    1    6    6  502    0  0.20783288245E+03  0.77793168519E+03  0.17860575722E+03  0.82478617251E+03  0.00000000000E+00 0. -1.
         -1    1    6    6    0  502  0.24553575726E+03  0.10781321259E+04  0.33200229741E+03  0.11545051817E+04  0.00000000000E+00 0.  1.
<mgrwt>
<rscale>  0 0.19676252E+04</rscale>
<asrwt>0</asrwt>
<pdfrwt beam="1">  1        1 0.46519457E+00 0.19676252E+04</pdfrwt>
<pdfrwt beam="2">  1       -2 0.20185335E+00 0.19676252E+04</pdfrwt>
<totfact> 0.58372069E-02</totfact>
</mgrwt>
</event>
<event>
12    3  0.2664048E-007  0.7447436E+03  0.7818608E-02  0.9643633E-01
          1   -1    0    0  501    0  0.00000000000E+00  0.00000000000E+00  0.18497811362E+04  0.18497811362E+04  0.00000000000E+00 0. -1.
         -2   -1    0    0    0  501 -0.00000000000E+00 -0.00000000000E+00 -0.32363729898E+03  0.32363729898E+03  0.00000000000E+00 0.  1.
        -24    2    1    2    0    0  0.34680473472E+03  0.51790340681E+03  0.93123395259E+03  0.11234345363E+04  0.80068846344E+02 0.  0.
    5000000    2    1    2    0    0 -0.34680473472E+03 -0.51790340681E+03  0.59490988459E+03  0.10499838988E+04  0.60004246032E+03 0.  0.
        -24    2    4    4    0    0 -0.77053427506E+02 -0.56833528179E+03  0.38296071337E+03  0.69430460529E+03  0.80360150111E+02 0.  0.
         24    2    4    4    0    0 -0.26975130721E+03  0.50431874981E+02  0.21194917122E+03  0.35567929352E+03  0.79222262688E+02 0.  0.
         11    1    3    3    0    0  0.10569964244E+03  0.20748333231E+03  0.29892683633E+03  0.37891819840E+03  0.00000000000E+00 0. -1.
        -12    1    3    3    0    0  0.24110509228E+03  0.31042007450E+03  0.63230711626E+03  0.74451633794E+03  0.00000000000E+00 0.  1.
         13    1    5    5    0    0  0.45982042940E+01 -0.25208276134E+03  0.15424167932E+03  0.29556278130E+03  0.00000000000E+00 0. -1.
        -14    1    5    5    0    0 -0.81651631800E+02 -0.31625252045E+03  0.22871903405E+03  0.39874182400E+03  0.00000000000E+00 0.  1.
          4    1    6    6  502    0 -0.97428616743E+02  0.56075572074E+02  0.96802234739E+02  0.14834917524E+03  0.00000000000E+00 0. -1.
         -3    1    6    6    0  502 -0.17232269047E+03 -0.56436970937E+01  0.11514693648E+03  0.20733011828E+03  0.00000000000E+00 0.  1.
<mgrwt>
<rscale>  0 0.74474356E+03</rscale>
<asrwt>0</asrwt>
<pdfrwt beam="1">  1        1 0.28458171E+00 0.74474356E+03</pdfrwt>
<pdfrwt beam="2">  1       -2 0.49790355E-01 0.74474356E+03</pdfrwt>
<totfact> 0.13113999E+01</totfact>
</mgrwt>
</event>
<event>
12    3  0.2212098E-007  0.1247848E+04  0.7818608E-02  0.9071976E-01
         -2   -1    0    0    0  501 -0.00000000000E+00  0.00000000000E+00  0.12910050420E+04  0.12910050420E+04  0.00000000000E+00 0.  1.
          1   -1    0    0  501    0  0.00000000000E+00 -0.00000000000E+00 -0.13409417131E+04  0.13409417131E+04  0.00000000000E+00 0. -1.
        -24    2    1    2    0    0 -0.76654081484E+03 -0.94755022554E+03 -0.28258765352E+03  0.12539586654E+04  0.84381881621E+02 0.  0.
    5000000    2    1    2    0    0  0.76654081484E+03  0.94755022554E+03  0.23265098242E+03  0.13779880896E+04  0.59940674393E+03 0.  0.
        -24    2    4    4    0    0  0.72105109175E+03  0.96645360920E+03  0.91905552910E+02  0.12119156134E+04  0.79659072377E+02 0.  0.
         24    2    4    4    0    0  0.45489723098E+02 -0.18903383657E+02  0.14074542951E+03  0.16607247614E+03  0.73103615384E+02 0.  0.
         13    1    5    5    0    0  0.49814283521E+03  0.72314729122E+03  0.79421644759E+02  0.88170067864E+03  0.00000000000E+00 0. -1.
        -14    1    5    5    0    0  0.22290825654E+03  0.24330631798E+03  0.12483908151E+02  0.33021493480E+03  0.00000000000E+00 0.  1.
         13    1    3    3    0    0 -0.57447997724E+03 -0.65481760333E+03 -0.18547147911E+03  0.89062506558E+03  0.00000000000E+00 0. -1.
        -14    1    3    3    0    0 -0.19206083760E+03 -0.29273262221E+03 -0.97116174405E+02  0.36333359985E+03  0.00000000000E+00 0.  1.
          4    1    6    6  502    0 -0.19349266571E+01  0.10441588387E+02  0.90146747016E+02  0.90770076053E+02  0.00000000000E+00 0. -1.
         -3    1    6    6    0  502  0.47424649755E+02 -0.29344972044E+02  0.50598682493E+02  0.75302400086E+02  0.00000000000E+00 0.  1.
<mgrwt>
<rscale>  0 0.12478484E+04</rscale>
<asrwt>0</asrwt>
<pdfrwt beam="1">  1        1 0.20629872E+00 0.12478484E+04</pdfrwt>
<pdfrwt beam="2">  1       -2 0.19861616E+00 0.12478484E+04</pdfrwt>
<totfact> 0.97608104E-01</totfact>
</mgrwt>
</event>
<event>
12    3  0.2212098E-007  0.9752639E+03  0.7818608E-02  0.9336099E-01
         -2   -1    0    0    0  501 -0.00000000000E+00  0.00000000000E+00  0.12170220734E+04  0.12170220734E+04  0.00000000000E+00 0.  1.
          1   -1    0    0  501    0  0.00000000000E+00 -0.00000000000E+00 -0.10070575470E+04  0.10070575470E+04  0.00000000000E+00 0. -1.
        -24    2    1    2    0    0 -0.94161182033E+03 -0.24538816508E+03 -0.22327542938E+03  0.10015063963E+04  0.79466802001E+02 0.  0.
    5000000    2    1    2    0    0  0.94161182033E+03  0.24538816508E+03  0.43323995574E+03  0.12225732241E+04  0.60011686977E+03 0.  0.
        -24    2    4    4    0    0  0.41530075215E+03  0.13021581983E+03 -0.10657237505E+03  0.45580767264E+03  0.83499034961E+02 0.  0.
         24    2    4    4    0    0  0.52631106818E+03  0.11517234525E+03  0.53981233079E+03  0.76676555150E+03  0.79145744637E+02 0.  0.
         11    1    3    3    0    0 -0.44427376108E+03 -0.80298936353E+02 -0.83060296757E+02  0.45904913339E+03  0.00000000000E+00 0. -1.
        -12    1    3    3    0    0 -0.49733805925E+03 -0.16508922873E+03 -0.14021513262E+03  0.54245726287E+03  0.00000000000E+00 0.  1.
         13    1    5    5    0    0  0.39598858665E+03  0.12808319354E+03 -0.81507500726E+02  0.42409402012E+03  0.00000000000E+00 0. -1.
        -14    1    5    5    0    0  0.19312165501E+02  0.21326262911E+01 -0.25064874325E+02  0.31713652520E+02  0.00000000000E+00 0.  1.
          4    1    6    6  502    0  0.35662377646E+03  0.90661888588E+02  0.31742287050E+03  0.48596026041E+03  0.00000000000E+00 0. -1.
         -3    1    6    6    0  502  0.16968729172E+03  0.24510456659E+02  0.22238946029E+03  0.28080529109E+03  0.00000000000E+00 0.  1.
<mgrwt>
<rscale>  0 0.97526394E+03</rscale>
<asrwt>0</asrwt>
<pdfrwt beam="1">  1        1 0.15493193E+00 0.97526394E+03</pdfrwt>
<pdfrwt beam="2">  1       -2 0.18723416E+00 0.97526394E+03</pdfrwt>
<totfact> 0.21173833E+00</totfact>
</mgrwt>
</event>
<event>
12    3  0.2212098E-007  0.4503494E+03  0.7818608E-02  0.1027618E+00
          1   -1    0    0  501    0  0.00000000000E+00  0.00000000000E+00  0.12121949247E+04  0.12121949247E+04  0.00000000000E+00 0. -1.
         -2   -1    0    0    0  501 -0.00000000000E+00 -0.00000000000E+00 -0.26203388853E+03  0.26203388853E+03  0.00000000000E+00 0.  1.
        -24    2    1    2    0    0 -0.21828974739E+03 -0.26711033701E+03  0.81251800773E+02  0.36334513531E+03  0.80121696645E+02 0.  0.
    5000000    2    1    2    0    0  0.21828974739E+03  0.26711033701E+03  0.86890923544E+03  0.11108836779E+04  0.60005078164E+03 0.  0.
        -24    2    4    4    0    0  0.30900388979E+03  0.29883919244E+03  0.88218140872E+03  0.98485964841E+03  0.83163828215E+02 0.  0.
         24    2    4    4    0    0 -0.90714142394E+02 -0.31728855431E+02 -0.13272173284E+02  0.12602402954E+03  0.80437115444E+02 0.  0.
         11    1    3    3    0    0 -0.99144146344E+02 -0.62038225693E+02  0.25104212583E+02  0.11961824564E+03  0.00000000000E+00 0. -1.
        -12    1    3    3    0    0 -0.11914560105E+03 -0.20507211131E+03  0.56147588190E+02  0.24372688967E+03  0.00000000000E+00 0.  1.
         11    1    5    5    0    0  0.23959755925E+03  0.20665004774E+03  0.56837227931E+03  0.65050617254E+03  0.00000000000E+00 0. -1.
        -12    1    5    5    0    0  0.69406330537E+02  0.92189144700E+02  0.31380912942E+03  0.33435347587E+03  0.00000000000E+00 0.  1.
          4    1    6    6  502    0 -0.42887500367E+02 -0.47893832016E+02 -0.32455661390E+02  0.72017545010E+02  0.00000000000E+00 0. -1.
         -3    1    6    6    0  502 -0.47826642026E+02  0.16164976585E+02  0.19183488106E+02  0.54006484531E+02  0.00000000000E+00 0.  1.
<mgrwt>
<rscale>  0 0.45034937E+03</rscale>
<asrwt>0</asrwt>
<pdfrwt beam="1">  1        1 0.18649152E+00 0.45034937E+03</pdfrwt>
<pdfrwt beam="2">  1       -2 0.40312907E-01 0.45034937E+03</pdfrwt>
<totfact> 0.56668653E+01</totfact>
</mgrwt>
</event>
<event>
12    3  0.2212098E-007  0.6734024E+03  0.7818608E-02  0.9763831E-01
         -4   -1    0    0    0  501 -0.00000000000E+00  0.00000000000E+00  0.15585888220E+04  0.15585888220E+04  0.00000000000E+00 0.  1.
          3   -1    0    0  501    0  0.00000000000E+00 -0.00000000000E+00 -0.51099992213E+03  0.51099992213E+03  0.00000000000E+00 0. -1.
        -24    2    1    2    0    0  0.57710868612E+03 -0.77856078601E+01 -0.15877053483E+03  0.60383440359E+03  0.79327504336E+02 0.  0.
    5000000    2    1    2    0    0 -0.57710868612E+03  0.77856078601E+01  0.12063594347E+04  0.14657543406E+04  0.60001470803E+03 0.  0.
        -24    2    4    4    0    0 -0.53664826140E+03  0.18518284341E+03  0.11020553560E+04  0.12422128229E+04  0.79263154959E+02 0.  0.
         24    2    4    4    0    0 -0.40460424722E+02 -0.17739723555E+03  0.10430407878E+03  0.22354151772E+03  0.77360481794E+02 0.  0.
         11    1    3    3    0    0  0.48074315968E+02 -0.21389078738E+02 -0.23395895167E+02  0.57584724153E+02  0.00000000000E+00 0. -1.
        -12    1    3    3    0    0  0.52903437015E+03  0.13603470878E+02 -0.13537463966E+03  0.54624967944E+03  0.00000000000E+00 0.  1.
         13    1    5    5    0    0 -0.19923807070E+03  0.29283923711E+02  0.37409449250E+03  0.42485297024E+03  0.00000000000E+00 0. -1.
        -14    1    5    5    0    0 -0.33741019069E+03  0.15589891970E+03  0.72796086347E+03  0.81735985263E+03  0.00000000000E+00 0.  1.
          2    1    6    6  502    0 -0.56605946056E+02 -0.12837369130E+03  0.50835892238E+02  0.14922575410E+03  0.00000000000E+00 0. -1.
         -3    1    6    6    0  502  0.16145521334E+02 -0.49023544253E+02  0.53468186544E+02  0.74315763622E+02  0.00000000000E+00 0.  1.
<mgrwt>
<rscale>  0 0.67340240E+03</rscale>
<asrwt>0</asrwt>
<pdfrwt beam="1">  1        3 0.78615373E-01 0.67340240E+03</pdfrwt>
<pdfrwt beam="2">  1       -4 0.23978289E+00 0.67340240E+03</pdfrwt>
<totfact> 0.25368139E-01</totfact>
</mgrwt>
</event>
<event>
12    3  0.2212098E-007  0.6110669E+03  0.7818608E-02  0.9882708E-01
         -2   -1    0    0    0  501 -0.00000000000E+00  0.00000000000E+00  0.19670901760E+03  0.19670901760E+03  0.00000000000E+00 0.  1.
          1   -1    0    0  501    0  0.00000000000E+00 -0.00000000000E+00 -0.32332687739E+04  0.32332687739E+04  0.00000000000E+00 0. -1.
        -24    2    1    2    0    0  0.13513513367E+03  0.59522033521E+03 -0.19611990821E+04  0.20556010683E+04  0.81517855837E+02 0.  0.
    5000000    2    1    2    0    0 -0.13513513367E+03 -0.59522033521E+03 -0.10753606742E+04  0.13743767232E+04  0.59996837061E+03 0.  0.
        -24    2    4    4    0    0 -0.10218501738E+03 -0.41114116575E+03 -0.19989237557E+03  0.47560458390E+03  0.82243069378E+02 0.  0.
         24    2    4    4    0    0 -0.32950116293E+02 -0.18407916945E+03 -0.87546829867E+03  0.89877213929E+03  0.79848391278E+02 0.  0.
         11    1    5    5    0    0 -0.39807620587E+02 -0.18471489215E+03 -0.44919285963E+02  0.19422147227E+03  0.00000000000E+00 0. -1.
        -12    1    5    5    0    0 -0.62377396790E+02 -0.22642627361E+03 -0.15497308961E+03  0.28138311163E+03  0.00000000000E+00 0.  1.
         11    1    3    3    0    0  0.10697832244E+03  0.50706922793E+03 -0.17475724348E+04  0.18227926317E+04  0.00000000000E+00 0. -1.
        -12    1    3    3    0    0  0.28156811232E+02  0.88151107280E+02 -0.21362664725E+03  0.23280843660E+03  0.00000000000E+00 0.  1.
          2    1    6    6  502    0 -0.83995063147E+01 -0.87269136954E+02 -0.24018332013E+03  0.25568433906E+03  0.00000000000E+00 0. -1.
         -1    1    6    6    0  502 -0.24550609978E+02 -0.96810032499E+02 -0.63528497854E+03  0.64308780023E+03  0.00000000000E+00 0.  1.
<mgrwt>
<rscale>  0 0.61106688E+03</rscale>
<asrwt>0</asrwt>
<pdfrwt beam="1">  1        1 0.49742596E+00 0.61106688E+03</pdfrwt>
<pdfrwt beam="2">  1       -2 0.30262926E-01 0.61106688E+03</pdfrwt>
<totfact> 0.39225619E+00</totfact>
</mgrwt>
</event>
<event>
12    3  0.2212098E-007  0.1495609E+04  0.7818608E-02  0.8887378E-01
          1   -1    0    0  501    0  0.00000000000E+00  0.00000000000E+00  0.25345026465E+04  0.25345026465E+04  0.00000000000E+00 0. -1.
         -2   -1    0    0    0  501 -0.00000000000E+00 -0.00000000000E+00 -0.92960292153E+03  0.92960292153E+03  0.00000000000E+00 0.  1.
        -24    2    1    2    0    0 -0.12886506449E+04  0.69398174716E+03  0.98103202316E+03  0.17637898686E+04  0.79370776467E+02 0.  0.
    5000000    2    1    2    0    0  0.12886506449E+04 -0.69398174716E+03  0.62386770183E+03  0.17003156994E+04  0.59969277006E+03 0.  0.
        -24    2    4    4    0    0  0.27834934001E+03  0.32055195466E+02 -0.28330779948E+02  0.29298070229E+03  0.80803268389E+02 0.  0.
         24    2    4    4    0    0  0.10103013049E+04 -0.72603694263E+03  0.65219848178E+03  0.14073349972E+04  0.85968400658E+02 0.  0.
         13    1    5    5    0    0  0.31421566127E+02  0.21803296386E+01 -0.31062316798E+02  0.44237271390E+02  0.00000000000E+00 0. -1.
        -14    1    5    5    0    0  0.24692777388E+03  0.29874865827E+02  0.27315368494E+01  0.24874343090E+03  0.00000000000E+00 0.  1.
         13    1    3    3    0    0 -0.76642804668E+03  0.39708008122E+03  0.62218580264E+03  0.10640487370E+04  0.00000000000E+00 0. -1.
        -14    1    3    3    0    0 -0.52222259820E+03  0.29690166594E+03  0.35884622051E+03  0.69974113162E+03  0.00000000000E+00 0.  1.
          4    1    6    6  502    0  0.47729417657E+03 -0.39592921330E+03  0.32475441280E+03  0.70002507210E+03  0.00000000000E+00 0. -1.
         -3    1    6    6    0  502  0.53300712830E+03 -0.33010772932E+03  0.32744406898E+03  0.70730992506E+03  0.00000000000E+00 0.  1.
<mgrwt>
<rscale>  0 0.14956092E+04</rscale>
<asrwt>0</asrwt>
<pdfrwt beam="1">  1        1 0.38992348E+00 0.14956092E+04</pdfrwt>
<pdfrwt beam="2">  1       -2 0.14301583E+00 0.14956092E+04</pdfrwt>
<totfact> 0.36230347E-01</totfact>
</mgrwt>
</event>
<event>
12    3  0.2212098E-007  0.3325747E+03  0.7818608E-02  0.1070003E+00
          3   -1    0    0  501    0  0.00000000000E+00  0.00000000000E+00  0.34159409092E+03  0.34159409092E+03  0.00000000000E+00 0. -1.
         -4   -1    0    0    0  501 -0.00000000000E+00 -0.00000000000E+00 -0.13538824486E+04  0.13538824486E+04  0.00000000000E+00 0.  1.
        -24    2    1    2    0    0  0.18731146387E+03  0.26396992142E+03 -0.95488501636E+03  0.10113451803E+04  0.79044135099E+02 0.  0.
    5000000    2    1    2    0    0 -0.18731146387E+03 -0.26396992142E+03 -0.57403341315E+02  0.68413135924E+03  0.59997905729E+03 0.  0.
        -24    2    4    4    0    0 -0.13392866959E+03 -0.21234068314E+03  0.24661087619E+03  0.36144270068E+03  0.82452697720E+02 0.  0.
         24    2    4    4    0    0 -0.53382794281E+02 -0.51629238279E+02 -0.30401421751E+03  0.32268865856E+03  0.78664000321E+02 0.  0.
         13    1    5    5    0    0 -0.12934779896E+03 -0.14383843343E+03  0.16081485997E+03  0.25155867549E+03  0.00000000000E+00 0. -1.
        -14    1    5    5    0    0 -0.45808706284E+01 -0.68502249712E+02  0.85796016224E+02  0.10988402519E+03  0.00000000000E+00 0.  1.
         13    1    3    3    0    0  0.73596967743E+02  0.13204190872E+03 -0.55409557504E+03  0.57434613744E+03  0.00000000000E+00 0. -1.
        -14    1    3    3    0    0  0.11371449613E+03  0.13192801269E+03 -0.40078944132E+03  0.43699904283E+03  0.00000000000E+00 0.  1.
          2    1    6    6  502    0 -0.98831555473E+01 -0.24566830913E+02 -0.23629481044E+03  0.23777393336E+03  0.00000000000E+00 0. -1.
         -1    1    6    6    0  502 -0.43499638734E+02 -0.27062407366E+02 -0.67719407070E+02  0.84914725203E+02  0.00000000000E+00 0.  1.
<mgrwt>
<rscale>  0 0.33257470E+03</rscale>
<asrwt>0</asrwt>
<pdfrwt beam="1">  1        3 0.52552936E-01 0.33257470E+03</pdfrwt>
<pdfrwt beam="2">  1       -4 0.20828961E+00 0.33257470E+03</pdfrwt>
<totfact> 0.96434134E-01</totfact>
</mgrwt>
</event>
<event>
12    3  0.2212098E-007  0.6000348E+03  0.7818608E-02  0.9905334E-01
         -2   -1    0    0    0  501 -0.00000000000E+00  0.00000000000E+00  0.13421992009E+04  0.13421992009E+04  0.00000000000E+00 0.  1.
          1   -1    0    0  501    0  0.00000000000E+00 -0.00000000000E+00 -0.50384646446E+03  0.50384646446E+03  0.00000000000E+00 0. -1.
        -24    2    1    2    0    0  0.10303208478E+03  0.50313796028E+03  0.91607644815E+03  0.10523464149E+04  0.66884231929E+02 0.  0.
    5000000    2    1    2    0    0 -0.10303208478E+03 -0.50313796028E+03 -0.77723711727E+02  0.79369925047E+03  0.60012840898E+03 0.  0.
        -24    2    4    4    0    0 -0.12849198433E+03  0.34887000161E+02 -0.18282602184E+03  0.23947596392E+03  0.78715247676E+02 0.  0.
         24    2    4    4    0    0  0.25459899549E+02 -0.53802496044E+03  0.10510231012E+03  0.55422328655E+03  0.77446053611E+02 0.  0.
         11    1    3    3    0    0  0.88935480087E+02  0.36987700645E+03  0.72815090386E+03  0.82153652281E+03  0.00000000000E+00 0. -1.
        -12    1    3    3    0    0  0.14096604694E+02  0.13326095382E+03  0.18792554429E+03  0.23080989206E+03  0.00000000000E+00 0.  1.
         13    1    5    5    0    0 -0.24792170678E+02  0.34113151410E+02 -0.20592216800E+02  0.46929715733E+02  0.00000000000E+00 0. -1.
        -14    1    5    5    0    0 -0.10369981365E+03  0.77384875139E+00 -0.16223380504E+03  0.19254624819E+03  0.00000000000E+00 0.  1.
          4    1    6    6  502    0  0.96066342724E+00 -0.36709404212E+03  0.10399696643E+03  0.38154203918E+03  0.00000000000E+00 0. -1.
         -3    1    6    6    0  502  0.24499236122E+02 -0.17093091832E+03  0.11053436825E+01  0.17268124737E+03  0.00000000000E+00 0.  1.
<mgrwt>
<rscale>  0 0.60003482E+03</rscale>
<asrwt>0</asrwt>
<pdfrwt beam="1">  1        1 0.77514841E-01 0.60003482E+03</pdfrwt>
<pdfrwt beam="2">  1       -2 0.20649218E+00 0.60003482E+03</pdfrwt>
<totfact> 0.48508098E+00</totfact>
</mgrwt>
</event>
<event>
12    3  0.2212098E-007  0.5916932E+03  0.7818608E-02  0.9922791E-01
         -4   -1    0    0    0  501 -0.00000000000E+00  0.00000000000E+00  0.28749033181E+03  0.28749033181E+03  0.00000000000E+00 0.  1.
          1   -1    0    0  501    0  0.00000000000E+00 -0.00000000000E+00 -0.17145218479E+04  0.17145218479E+04  0.00000000000E+00 0. -1.
        -24    2    1    2    0    0 -0.16143590184E+03 -0.53131877202E+03 -0.77092994767E+03  0.95341898778E+03  0.79458128291E+02 0.  0.
    5000000    2    1    2    0    0  0.16143590184E+03  0.53131877202E+03 -0.65610156845E+03  0.10485931920E+04  0.60059739111E+03 0.  0.
        -24    2    4    4    0    0  0.21741556368E+03  0.27763944448E+03 -0.68541515695E+03  0.77487633462E+03  0.79285611068E+02 0.  0.
         24    2    4    4    0    0 -0.55979661842E+02  0.25367932753E+03  0.29313588492E+02  0.27371685734E+03  0.81084571697E+02 0.  0.
         11    1    5    5    0    0  0.17746934390E+03  0.17416189821E+03 -0.43624832417E+03  0.50213577362E+03  0.00000000000E+00 0. -1.
        -12    1    5    5    0    0  0.39946219781E+02  0.10347754628E+03 -0.24916683278E+03  0.27274056100E+03  0.00000000000E+00 0.  1.
         13    1    3    3    0    0 -0.16500183682E+03 -0.51419101361E+03 -0.72311500654E+03  0.90250391540E+03  0.00000000000E+00 0. -1.
        -14    1    3    3    0    0  0.35659349794E+01 -0.17127758404E+02 -0.47814941135E+02  0.50915072385E+02  0.00000000000E+00 0.  1.
          2    1    6    6  502    0 -0.45661728908E+02  0.78460176935E+02 -0.16607564918E+02  0.92286532408E+02  0.00000000000E+00 0. -1.
         -1    1    6    6    0  502 -0.10317932935E+02  0.17521915060E+03  0.45921153410E+02  0.18143032494E+03  0.00000000000E+00 0.  1.
<mgrwt>
<rscale>  0 0.59169319E+03</rscale>
<asrwt>0</asrwt>
<pdfrwt beam="1">  1        1 0.26377259E+00 0.59169319E+03</pdfrwt>
<pdfrwt beam="2">  1       -4 0.44229282E-01 0.59169319E+03</pdfrwt>
<totfact> 0.11698023E+01</totfact>
</mgrwt>
</event>
<event>
12    3  0.2212098E-007  0.5642552E+03  0.7818608E-02  0.9982472E-01
          1   -1    0    0  501    0  0.00000000000E+00  0.00000000000E+00  0.29673775489E+04  0.29673775489E+04  0.00000000000E+00 0. -1.
         -2   -1    0    0    0  501 -0.00000000000E+00 -0.00000000000E+00 -0.12052629453E+03  0.12052629453E+03  0.00000000000E+00 0.  1.
        -24    2    1    2    0    0 -0.97058587911E+02  0.39619483836E+03  0.15184841985E+04  0.15743120611E+04  0.79205335371E+02 0.  0.
    5000000    2    1    2    0    0  0.97058587911E+02 -0.39619483836E+03  0.13283670559E+04  0.15135917823E+04  0.60000860746E+03 0.  0.
        -24    2    4    4    0    0  0.12985149924E+03  0.12632165753E+03  0.36723520091E+03  0.41616512418E+03  0.74250554046E+02 0.  0.
         24    2    4    4    0    0 -0.32792911329E+02 -0.52251649589E+03  0.96113185496E+03  0.10974266582E+04  0.80448517262E+02 0.  0.
         13    1    3    3    0    0 -0.88903884325E+02  0.19875379133E+03  0.81964177435E+03  0.84806816264E+03  0.00000000000E+00 0. -1.
        -14    1    3    3    0    0 -0.81547035858E+01  0.19744104703E+03  0.69884242417E+03  0.72624389847E+03  0.00000000000E+00 0.  1.
         13    1    5    5    0    0  0.34070323643E+02  0.16456662195E+02  0.14902435688E+03  0.15375261828E+03  0.00000000000E+00 0. -1.
        -14    1    5    5    0    0  0.95781175596E+02  0.10986499534E+03  0.21821084403E+03  0.26241250590E+03  0.00000000000E+00 0.  1.
          4    1    6    6  502    0  0.26625457424E+02 -0.17662966885E+03  0.31363724402E+03  0.36093666444E+03  0.00000000000E+00 0. -1.
         -3    1    6    6    0  502 -0.59418368753E+02 -0.34588682704E+03  0.64749461095E+03  0.73648999373E+03  0.00000000000E+00 0.  1.
<mgrwt>
<rscale>  0 0.56425516E+03</rscale>
<asrwt>0</asrwt>
<pdfrwt beam="1">  1        1 0.45651957E+00 0.56425516E+03</pdfrwt>
<pdfrwt beam="2">  1       -2 0.18542509E-01 0.56425516E+03</pdfrwt>
<totfact> 0.14792285E+01</totfact>
</mgrwt>
</event>
<event>
12    3  0.2212098E-007  0.1448252E+04  0.7818608E-02  0.8919613E-01
          1   -1    0    0  501    0  0.00000000000E+00  0.00000000000E+00  0.15426692852E+04  0.15426692852E+04  0.00000000000E+00 0. -1.
         -2   -1    0    0    0  501 -0.00000000000E+00 -0.00000000000E+00 -0.20670637795E+04  0.20670637795E+04  0.00000000000E+00 0.  1.
        -24    2    1    2    0    0 -0.10634226981E+04  0.96972241652E+03 -0.12332227577E+04  0.18969210424E+04  0.79004247313E+02 0.  0.
    5000000    2    1    2    0    0  0.10634226981E+04 -0.96972241652E+03  0.70882826340E+03  0.17128120223E+04  0.60004842876E+03 0.  0.
        -24    2    4    4    0    0  0.85075568120E+03 -0.86021354693E+03  0.32732212708E+03  0.12556490584E+04  0.75909205402E+02 0.  0.
         24    2    4    4    0    0  0.21266701689E+03 -0.10950886959E+03  0.38150613633E+03  0.45716296395E+03  0.78940426672E+02 0.  0.
         13    1    5    5    0    0  0.49121419339E+03 -0.52847959818E+03  0.16412967840E+03  0.73994636347E+03  0.00000000000E+00 0. -1.
        -14    1    5    5    0    0  0.35954148781E+03 -0.33173394875E+03  0.16319244867E+03  0.51570269488E+03  0.00000000000E+00 0.  1.
         13    1    3    3    0    0 -0.77300756396E+03  0.70880951645E+03 -0.94393835643E+03  0.14110178047E+04  0.00000000000E+00 0. -1.
        -14    1    3    3    0    0 -0.29041513413E+03  0.26091290006E+03 -0.28928440124E+03  0.48590323764E+03  0.00000000000E+00 0.  1.
          4    1    6    6  502    0  0.16677403182E+03 -0.11158040911E+03  0.26865649752E+03  0.33532085985E+03  0.00000000000E+00 0. -1.
         -3    1    6    6    0  502  0.45892985075E+02  0.20715395267E+01  0.11284963880E+03  0.12184210410E+03  0.00000000000E+00 0.  1.
<mgrwt>
<rscale>  0 0.14482520E+04</rscale>
<asrwt>0</asrwt>
<pdfrwt beam="1">  1        1 0.23733374E+00 0.14482520E+04</pdfrwt>
<pdfrwt beam="2">  1       -2 0.31800981E+00 0.14482520E+04</pdfrwt>
<totfact> 0.12525192E-01</totfact>
</mgrwt>
</event>
<event>
12    3  0.2212098E-007  0.4710742E+03  0.7818608E-02  0.1021617E+00
          1   -1    0    0  501    0  0.00000000000E+00  0.00000000000E+00  0.10493058052E+04  0.10493058052E+04  0.00000000000E+00 0. -1.
         -2   -1    0    0    0  501 -0.00000000000E+00 -0.00000000000E+00 -0.88184011647E+03  0.88184011647E+03  0.00000000000E+00 0.  1.
        -24    2    1    2    0    0  0.40056984636E+03 -0.19627883005E+03 -0.66965478995E+03  0.80872789867E+03  0.81373800730E+02 0.  0.
    5000000    2    1    2    0    0 -0.40056984636E+03  0.19627883005E+03  0.83712047865E+03  0.11224180230E+04  0.60005828180E+03 0.  0.
        -24    2    4    4    0    0 -0.72848436541E+02 -0.37949853876E+01 -0.73121489181E+02  0.13080474862E+03  0.80261033272E+02 0.  0.
         24    2    4    4    0    0 -0.32772140982E+03  0.20007381544E+03  0.91024196783E+03  0.99161327434E+03  0.85589670889E+02 0.  0.
         11    1    3    3    0    0  0.13574057936E+03 -0.10928188963E+03 -0.24084804659E+03  0.29728070545E+03  0.00000000000E+00 0. -1.
        -12    1    3    3    0    0  0.26482926700E+03 -0.86996940421E+02 -0.42880674336E+03  0.51144719322E+03  0.00000000000E+00 0.  1.
         13    1    5    5    0    0  0.10236718097E+01 -0.27278011442E+02 -0.35105892282E+02  0.44469781708E+02  0.00000000000E+00 0. -1.
        -14    1    5    5    0    0 -0.73872108350E+02  0.23483026054E+02 -0.38015596899E+02  0.86334966916E+02  0.00000000000E+00 0.  1.
          4    1    6    6  502    0 -0.26264112842E+03  0.15249808463E+03  0.79445669870E+03  0.85052776219E+03  0.00000000000E+00 0. -1.
         -3    1    6    6    0  502 -0.65080281399E+02  0.47575730811E+02  0.11578526913E+03  0.14108551215E+03  0.00000000000E+00 0.  1.
<mgrwt>
<rscale>  0 0.47107421E+03</rscale>
<asrwt>0</asrwt>
<pdfrwt beam="1">  1        1 0.16143166E+00 0.47107421E+03</pdfrwt>
<pdfrwt beam="2">  1       -2 0.13566771E+00 0.47107421E+03</pdfrwt>
<totfact> 0.50931821E+00</totfact>
</mgrwt>
</event>
<event>
12    3  0.2212098E-007  0.8105138E+03  0.7818608E-02  0.9544922E-01
         -2   -1    0    0    0  501 -0.00000000000E+00  0.00000000000E+00  0.97924443365E+03  0.97924443365E+03  0.00000000000E+00 0.  1.
          1   -1    0    0  501    0  0.00000000000E+00 -0.00000000000E+00 -0.82297155241E+03  0.82297155241E+03  0.00000000000E+00 0. -1.
        -24    2    1    2    0    0  0.19632682582E+03 -0.74624006098E+03  0.26216374401E+03  0.81900065695E+03  0.81325249862E+02 0.  0.
    5000000    2    1    2    0    0 -0.19632682582E+03  0.74624006098E+03 -0.10589086276E+03  0.98321532911E+03  0.60006754406E+03 0.  0.
        -24    2    4    4    0    0 -0.28204339223E+03  0.47411829468E+03  0.16518416742E+03  0.58150479112E+03  0.80779827154E+02 0.  0.
         24    2    4    4    0    0  0.85716566407E+02  0.27212176629E+03 -0.27107503018E+03  0.40171053799E+03  0.80573562019E+02 0.  0.
         11    1    5    5    0    0 -0.85405567565E+02  0.21398895522E+03  0.50799867382E+02  0.23593645427E+03  0.00000000000E+00 0. -1.
        -12    1    5    5    0    0 -0.19663782467E+03  0.26012933947E+03  0.11438430004E+03  0.34556833686E+03  0.00000000000E+00 0.  1.
         13    1    3    3    0    0  0.13877756226E+03 -0.62134874193E+03  0.19425482094E+03  0.66563383804E+03  0.00000000000E+00 0. -1.
        -14    1    3    3    0    0  0.57549263564E+02 -0.12489131905E+03  0.67908923068E+02  0.15336681891E+03  0.00000000000E+00 0.  1.
          2    1    6    6  502    0  0.62693039460E+02  0.10995040832E+03 -0.78664863790E+02  0.14902238182E+03  0.00000000000E+00 0. -1.
         -1    1    6    6    0  502  0.23023526947E+02  0.16217135797E+03 -0.19241016639E+03  0.25268815617E+03  0.00000000000E+00 0.  1.
<mgrwt>
<rscale>  0 0.81051385E+03</rscale>
<asrwt>0</asrwt>
<pdfrwt beam="1">  1        1 0.12661101E+00 0.81051385E+03</pdfrwt>
<pdfrwt beam="2">  1       -2 0.15065299E+00 0.81051385E+03</pdfrwt>
<totfact> 0.55689355E+00</totfact>
</mgrwt>
</event>
<event>
12    3  0.2212098E-007  0.5001475E+03  0.7818608E-02  0.1013740E+00
         -2   -1    0    0    0  501 -0.00000000000E+00  0.00000000000E+00  0.21415850098E+03  0.21415850098E+03  0.00000000000E+00 0.  1.
          1   -1    0    0  501    0  0.00000000000E+00 -0.00000000000E+00 -0.12320516041E+04  0.12320516041E+04  0.00000000000E+00 0. -1.
        -24    2    1    2    0    0  0.21736240740E+03 -0.25072756563E+03 -0.34629008561E+03  0.48641345172E+03  0.81058585591E+02 0.  0.
    5000000    2    1    2    0    0 -0.21736240740E+03  0.25072756563E+03 -0.67160301749E+03  0.95979665336E+03  0.60004022729E+03 0.  0.
        -24    2    4    4    0    0 -0.38336591445E+03  0.42292092892E+02 -0.29685906002E+03  0.49311612422E+03  0.79247491849E+02 0.  0.
         24    2    4    4    0    0  0.16600350705E+03  0.20843547274E+03 -0.37474395747E+03  0.46668052914E+03  0.79719332450E+02 0.  0.
         13    1    5    5    0    0 -0.25248138325E+03  0.13332873458E+02 -0.23613254299E+03  0.34595258672E+03  0.00000000000E+00 0. -1.
        -14    1    5    5    0    0 -0.13088453120E+03  0.28959219434E+02 -0.60726517039E+02  0.14716353750E+03  0.00000000000E+00 0.  1.
         13    1    3    3    0    0  0.19361200283E+03 -0.17099557555E+03 -0.26641185075E+03  0.37108000312E+03  0.00000000000E+00 0. -1.
        -14    1    3    3    0    0  0.23750404568E+02 -0.79731990078E+02 -0.79878234869E+02  0.11533344859E+03  0.00000000000E+00 0.  1.
          2    1    6    6  502    0  0.58647681913E+02  0.36102848650E+02 -0.14201809520E+03  0.15783569190E+03  0.00000000000E+00 0. -1.
         -1    1    6    6    0  502  0.10735582514E+03  0.17233262409E+03 -0.23272586227E+03  0.30884483723E+03  0.00000000000E+00 0.  1.
<mgrwt>
<rscale>  0 0.50014750E+03</rscale>
<asrwt>0</asrwt>
<pdfrwt beam="1">  1        1 0.18954640E+00 0.50014750E+03</pdfrwt>
<pdfrwt beam="2">  1       -2 0.32947462E-01 0.50014750E+03</pdfrwt>
<totfact> 0.79988391E+01</totfact>
</mgrwt>
</event>
<event>
12    3  0.2212098E-007  0.9191649E+03  0.7818608E-02  0.9401936E-01
         -2   -1    0    0    0  501 -0.00000000000E+00  0.00000000000E+00  0.59443327982E+03  0.59443327982E+03  0.00000000000E+00 0.  1.
          1   -1    0    0  501    0  0.00000000000E+00 -0.00000000000E+00 -0.16478141484E+04  0.16478141484E+04  0.00000000000E+00 0. -1.
        -24    2    1    2    0    0  0.67240874582E+03 -0.59301950004E+03 -0.50240983368E+03  0.10309981863E+04  0.82072956827E+02 0.  0.
    5000000    2    1    2    0    0 -0.67240874582E+03  0.59301950004E+03 -0.55097103486E+03  0.12112492419E+04  0.59979162704E+03 0.  0.
        -24    2    4    4    0    0 -0.63184323078E+03  0.57194167513E+03 -0.24247182828E+03  0.88939513364E+03  0.76733097075E+02 0.  0.
         24    2    4    4    0    0 -0.40565515039E+02  0.21077824909E+02 -0.30849920658E+03  0.32185410826E+03  0.79551686542E+02 0.  0.
         13    1    5    5    0    0 -0.24721645980E+03  0.27364663413E+03 -0.11364636962E+03  0.38589371036E+03  0.00000000000E+00 0. -1.
        -14    1    5    5    0    0 -0.38462677098E+03  0.29829504101E+03 -0.12882545865E+03  0.50350142328E+03  0.00000000000E+00 0.  1.
         13    1    3    3    0    0  0.17059382941E+03 -0.10529419539E+03 -0.10750669371E+03  0.22747925489E+03  0.00000000000E+00 0. -1.
        -14    1    3    3    0    0  0.50181491642E+03 -0.48772530465E+03 -0.39490313997E+03  0.80351893138E+03  0.00000000000E+00 0.  1.
          4    1    6    6  502    0 -0.54166977101E+00  0.38784888612E+02 -0.21684244385E+03  0.22028437631E+03  0.00000000000E+00 0. -1.
         -3    1    6    6    0  502 -0.40023845268E+02 -0.17707063703E+02 -0.91656762729E+02  0.10156973195E+03  0.00000000000E+00 0.  1.
<mgrwt>
<rscale>  0 0.91916494E+03</rscale>
<asrwt>0</asrwt>
<pdfrwt beam="1">  1        1 0.25350987E+00 0.91916494E+03</pdfrwt>
<pdfrwt beam="2">  1       -2 0.91451274E-01 0.91916494E+03</pdfrwt>
<totfact> 0.46812608E+00</totfact>
</mgrwt>
</event>
<event>
12    3  0.2212098E-007  0.4551784E+03  0.7818608E-02  0.1026189E+00
          1   -1    0    0  501    0  0.00000000000E+00  0.00000000000E+00  0.43736699008E+03  0.43736699008E+03  0.00000000000E+00 0. -1.
         -2   -1    0    0    0  501 -0.00000000000E+00 -0.00000000000E+00 -0.56818586726E+03  0.56818586726E+03  0.00000000000E+00 0.  1.
        -24    2    1    2    0    0  0.12438956300E+03  0.28076463142E+03  0.75211388429E+01  0.31733079350E+03  0.79628659014E+02 0.  0.
    5000000    2    1    2    0    0 -0.12438956300E+03 -0.28076463142E+03 -0.13834001603E+03  0.68822206383E+03  0.60017506402E+03 0.  0.
        -24    2    4    4    0    0  0.16046532016E+03 -0.25277587537E+03  0.78991073054E+02  0.31972332751E+03  0.79615666727E+02 0.  0.
         24    2    4    4    0    0 -0.28485488316E+03 -0.27988756054E+02 -0.21733108908E+03  0.36849873632E+03  0.81442258463E+02 0.  0.
         11    1    5    5    0    0  0.12658160543E+03 -0.23296036103E+03  0.88181896840E+02  0.27940916158E+03  0.00000000000E+00 0. -1.
        -12    1    5    5    0    0  0.33883714736E+02 -0.19815514336E+02 -0.91908237863E+01  0.40314165929E+02  0.00000000000E+00 0.  1.
         13    1    3    3    0    0  0.38081229133E+01  0.71025216296E+02 -0.19880012196E+02  0.73853219530E+02  0.00000000000E+00 0. -1.
        -14    1    3    3    0    0  0.12058144008E+03  0.20973941513E+03  0.27401151039E+02  0.24347757397E+03  0.00000000000E+00 0.  1.
          4    1    6    6  502    0 -0.21691080949E+03  0.58990286478E+01 -0.13073719109E+03  0.25333241196E+03  0.00000000000E+00 0. -1.
         -3    1    6    6    0  502 -0.67944073666E+02 -0.33887784702E+02 -0.86593897985E+02  0.11516632436E+03  0.00000000000E+00 0.  1.
<mgrwt>
<rscale>  0 0.45517839E+03</rscale>
<asrwt>0</asrwt>
<pdfrwt beam="1">  1        1 0.67287230E-01 0.45517839E+03</pdfrwt>
<pdfrwt beam="2">  1       -2 0.87413210E-01 0.45517839E+03</pdfrwt>
<totfact> 0.54735186E+01</totfact>
</mgrwt>
</event>
<event>
12    3  0.2212098E-007  0.5681150E+03  0.7818608E-02  0.9973859E-01
         -2   -1    0    0    0  501 -0.00000000000E+00  0.00000000000E+00  0.45014933583E+03  0.45014933583E+03  0.00000000000E+00 0.  1.
          1   -1    0    0  501    0  0.00000000000E+00 -0.00000000000E+00 -0.97710300040E+03  0.97710300040E+03  0.00000000000E+00 0. -1.
        -24    2    1    2    0    0 -0.37489225250E+03 -0.25622580750E+03 -0.49139452323E+03  0.67393176793E+03  0.80743946849E+02 0.  0.
    5000000    2    1    2    0    0  0.37489225250E+03  0.25622580750E+03 -0.35559141336E+02  0.75332056829E+03  0.60002629998E+03 0.  0.
        -24    2    4    4    0    0  0.46411926735E+03  0.31659592127E+03 -0.13428509993E+03  0.58322913901E+03  0.80523716032E+02 0.  0.
         24    2    4    4    0    0 -0.89227014846E+02 -0.60370113772E+02  0.98725958591E+02  0.17009142928E+03  0.87053251516E+02 0.  0.
         11    1    3    3    0    0 -0.19342909129E+03 -0.99141827622E+02 -0.19036082616E+03  0.28893106354E+03  0.00000000000E+00 0. -1.
        -12    1    3    3    0    0 -0.18146316121E+03 -0.15708397988E+03 -0.30103369707E+03  0.38500070439E+03  0.00000000000E+00 0.  1.
         13    1    5    5    0    0  0.24038189974E+03  0.14674997639E+03 -0.10593189475E+03  0.30089961718E+03  0.00000000000E+00 0. -1.
        -14    1    5    5    0    0  0.22373736761E+03  0.16984594488E+03 -0.28353205182E+02  0.28232952184E+03  0.00000000000E+00 0.  1.
          4    1    6    6  502    0 -0.10164143385E+02 -0.29924424626E+02 -0.91705312137E+01  0.32907136653E+02  0.00000000000E+00 0. -1.
         -3    1    6    6    0  502 -0.79062871461E+02 -0.30445689145E+02  0.10789648981E+03  0.13718429263E+03  0.00000000000E+00 0.  1.
<mgrwt>
<rscale>  0 0.56811495E+03</rscale>
<asrwt>0</asrwt>
<pdfrwt beam="1">  1        1 0.15032354E+00 0.56811495E+03</pdfrwt>
<pdfrwt beam="2">  1       -2 0.69253745E-01 0.56811495E+03</pdfrwt>
<totfact> 0.27468635E+01</totfact>
</mgrwt>
</event>
<event>
12    3  0.2212098E-007  0.1017501E+04  0.7818608E-02  0.9289555E-01
         -2   -1    0    0    0  501 -0.00000000000E+00  0.00000000000E+00  0.10337745507E+04  0.10337745507E+04  0.00000000000E+00 0.  1.
          1   -1    0    0  501    0  0.00000000000E+00 -0.00000000000E+00 -0.12784137918E+04  0.12784137918E+04  0.00000000000E+00 0. -1.
        -24    2    1    2    0    0 -0.91838647453E+03 -0.38803155678E+03 -0.50392569536E+03  0.11200149627E+04  0.80561805546E+02 0.  0.
    5000000    2    1    2    0    0  0.91838647453E+03  0.38803155678E+03  0.25928645423E+03  0.11921733799E+04  0.60003807933E+03 0.  0.
        -24    2    4    4    0    0  0.60007385071E+02  0.91282960081E+02 -0.14229903551E+03  0.19597193897E+03  0.78882953110E+02 0.  0.
         24    2    4    4    0    0  0.85837908945E+03  0.29674859670E+03  0.40158548974E+03  0.99620144089E+03  0.79196050467E+02 0.  0.
         11    1    5    5    0    0  0.68618430590E+02  0.60562561847E+02 -0.64734344867E+02  0.11210195502E+03  0.00000000000E+00 0. -1.
        -12    1    5    5    0    0 -0.86110455198E+01  0.30720398235E+02 -0.77564690644E+02  0.83869983947E+02  0.00000000000E+00 0.  1.
         13    1    3    3    0    0 -0.11055915689E+03 -0.76423526132E+02 -0.68246306317E+02  0.15073632888E+03  0.00000000000E+00 0. -1.
        -14    1    3    3    0    0 -0.80782731764E+03 -0.31160803065E+03 -0.43567938904E+03  0.96927863379E+03  0.00000000000E+00 0.  1.
          2    1    6    6  502    0  0.29492294360E+03  0.64544165157E+02  0.14592623742E+03  0.33532068037E+03  0.00000000000E+00 0. -1.
         -1    1    6    6    0  502  0.56345614586E+03  0.23220443154E+03  0.25565925232E+03  0.66088076052E+03  0.00000000000E+00 0.  1.
<mgrwt>
<rscale>  0 0.10175012E+04</rscale>
<asrwt>0</asrwt>
<pdfrwt beam="1">  1        1 0.19667904E+00 0.10175012E+04</pdfrwt>
<pdfrwt beam="2">  1       -2 0.15904224E+00 0.10175012E+04</pdfrwt>
<totfact> 0.20936258E+00</totfact>
</mgrwt>
</event>
<event>
12    3  0.2212098E-007  0.8133421E+03  0.7818608E-02  0.9540903E-01
          1   -1    0    0  501    0  0.00000000000E+00  0.00000000000E+00  0.11069036698E+04  0.11069036698E+04  0.00000000000E+00 0. -1.
         -2   -1    0    0    0  501 -0.00000000000E+00 -0.00000000000E+00 -0.11951992588E+04  0.11951992588E+04  0.00000000000E+00 0.  1.
        -24    2    1    2    0    0  0.63416158515E+03 -0.48795482446E+03  0.66998025915E+03  0.10469883827E+04  0.83966058990E+02 0.  0.
    5000000    2    1    2    0    0 -0.63416158515E+03  0.48795482446E+03 -0.75827584808E+03  0.12551145459E+04  0.60005785954E+03 0.  0.
        -24    2    4    4    0    0 -0.47928912896E+03  0.29698834537E+03 -0.14246817792E+03  0.58719126485E+03  0.81094101905E+02 0.  0.
         24    2    4    4    0    0 -0.15487245619E+03  0.19096647908E+03 -0.61580767017E+03  0.66792328107E+03  0.80304102920E+02 0.  0.
         11    1    3    3    0    0  0.42529198960E+03 -0.35439822901E+03  0.50383135456E+03  0.74854352911E+03  0.00000000000E+00 0. -1.
        -12    1    3    3    0    0  0.20886959556E+03 -0.13355659545E+03  0.16614890459E+03  0.29844485359E+03  0.00000000000E+00 0.  1.
         13    1    5    5    0    0 -0.97802508898E+02  0.25657021536E+02 -0.33745148241E+02  0.10659431753E+03  0.00000000000E+00 0. -1.
        -14    1    5    5    0    0 -0.38148662006E+03  0.27133132384E+03 -0.10872302968E+03  0.48059694731E+03  0.00000000000E+00 0.  1.
          4    1    6    6  502    0 -0.12853204868E+03  0.10488424510E+03 -0.44359782471E+03  0.47360344434E+03  0.00000000000E+00 0. -1.
         -3    1    6    6    0  502 -0.26340407516E+02  0.86082233976E+02 -0.17220984546E+03  0.19431983673E+03  0.00000000000E+00 0.  1.
<mgrwt>
<rscale>  0 0.81334211E+03</rscale>
<asrwt>0</asrwt>
<pdfrwt beam="1">  1        1 0.17029287E+00 0.81334211E+03</pdfrwt>
<pdfrwt beam="2">  1       -2 0.18387681E+00 0.81334211E+03</pdfrwt>
<totfact> 0.19131015E+00</totfact>
</mgrwt>
</event>
<event>
12    3  0.2212098E-007  0.1738299E+04  0.7818608E-02  0.8739817E-01
          1   -1    0    0  501    0  0.00000000000E+00  0.00000000000E+00  0.16329047842E+04  0.16329047842E+04  0.00000000000E+00 0. -1.
         -2   -1    0    0    0  501 -0.00000000000E+00 -0.00000000000E+00 -0.19386277559E+04  0.19386277559E+04  0.00000000000E+00 0.  1.
        -24    2    1    2    0    0  0.81383330026E+03 -0.15093126724E+04  0.63112865827E+02  0.17177432382E+04  0.79430566241E+02 0.  0.
    5000000    2    1    2    0    0 -0.81383330026E+03  0.15093126724E+04 -0.36883583758E+03  0.18537893019E+04  0.60012125209E+03 0.  0.
        -24    2    4    4    0    0 -0.12437773816E+03  0.61519247644E+03  0.78052754759E+02  0.63691906096E+03  0.75113599770E+02 0.  0.
         24    2    4    4    0    0 -0.68945556210E+03  0.89412019595E+03 -0.44688859234E+03  0.12168702410E+04  0.79144630090E+02 0.  0.
         11    1    5    5    0    0 -0.10604781745E+03  0.33931410963E+03  0.37451256007E+02  0.35746720291E+03  0.00000000000E+00 0. -1.
        -12    1    5    5    0    0 -0.18329920713E+02  0.27587836681E+03  0.40601498752E+02  0.27945185805E+03  0.00000000000E+00 0.  1.
         11    1    3    3    0    0  0.55478694087E+03 -0.10612801425E+04  0.77135234736E+02  0.12000224727E+04  0.00000000000E+00 0. -1.
        -12    1    3    3    0    0  0.25904635938E+03 -0.44803252989E+03 -0.14022368909E+02  0.51772076545E+03  0.00000000000E+00 0.  1.
          2    1    6    6  502    0 -0.18781297211E+03  0.22027346581E+03 -0.81092651498E+02  0.30061625099E+03  0.00000000000E+00 0. -1.
         -1    1    6    6    0  502 -0.50164258999E+03  0.67384673014E+03 -0.36579594084E+03  0.91625398998E+03  0.00000000000E+00 0.  1.
<mgrwt>
<rscale>  0 0.17382993E+04</rscale>
<asrwt>0</asrwt>
<pdfrwt beam="1">  1        1 0.25121612E+00 0.17382993E+04</pdfrwt>
<pdfrwt beam="2">  1       -2 0.29825042E+00 0.17382993E+04</pdfrwt>
<totfact> 0.13891595E-01</totfact>
</mgrwt>
</event>
<event>
12    3  0.2212098E-007  0.5193954E+03  0.7818608E-02  0.1008837E+00
          1   -1    0    0  501    0  0.00000000000E+00  0.00000000000E+00  0.19901486413E+04  0.19901486413E+04  0.00000000000E+00 0. -1.
         -2   -1    0    0    0  501 -0.00000000000E+00 -0.00000000000E+00 -0.51090561774E+03  0.51090561774E+03  0.00000000000E+00 0.  1.
        -24    2    1    2    0    0  0.25786540002E+03  0.41258218897E+03  0.16394782975E+04  0.17121250747E+04  0.82246921214E+02 0.  0.
    5000000    2    1    2    0    0 -0.25786540002E+03 -0.41258218897E+03 -0.16023527395E+03  0.78892918440E+03  0.60001273970E+03 0.  0.
        -24    2    4    4    0    0 -0.11934652816E+03 -0.37217565828E+03 -0.35514421541E+03  0.53360003453E+03  0.76441276247E+02 0.  0.
         24    2    4    4    0    0 -0.13851887186E+03 -0.40406530689E+02  0.19490894147E+03  0.25532914987E+03  0.79895642716E+02 0.  0.
         13    1    3    3    0    0  0.37963292702E+02  0.90051508586E+02  0.23762950736E+03  0.25694020425E+03  0.00000000000E+00 0. -1.
        -14    1    3    3    0    0  0.21990210732E+03  0.32253068038E+03  0.14018487902E+04  0.14551848704E+04  0.00000000000E+00 0.  1.
         13    1    5    5    0    0 -0.41766805021E+02 -0.66451083714E+02 -0.10468169184E+03  0.13083756775E+03  0.00000000000E+00 0. -1.
        -14    1    5    5    0    0 -0.77579723135E+02 -0.30572457457E+03 -0.25046252358E+03  0.40276246679E+03  0.00000000000E+00 0.  1.
          2    1    6    6  502    0 -0.35513413599E+02  0.16457442656E+02  0.88171986994E+02  0.96469421346E+02  0.00000000000E+00 0. -1.
         -1    1    6    6    0  502 -0.10300545826E+03 -0.56863973345E+02  0.10673695447E+03  0.15885972852E+03  0.00000000000E+00 0.  1.
<mgrwt>
<rscale>  0 0.51939542E+03</rscale>
<asrwt>0</asrwt>
<pdfrwt beam="1">  1        1 0.30617671E+00 0.51939542E+03</pdfrwt>
<pdfrwt beam="2">  1       -2 0.78600865E-01 0.51939542E+03</pdfrwt>
<totfact> 0.41742855E+00</totfact>
</mgrwt>
</event>
<event>
12    3  0.2212098E-007  0.4250268E+03  0.7818608E-02  0.1035443E+00
          1   -1    0    0  501    0  0.00000000000E+00  0.00000000000E+00  0.39050423535E+03  0.39050423535E+03  0.00000000000E+00 0. -1.
         -2   -1    0    0    0  501 -0.00000000000E+00 -0.00000000000E+00 -0.14622776698E+04  0.14622776698E+04  0.00000000000E+00 0.  1.
        -24    2    1    2    0    0 -0.40952270535E+03 -0.89545725938E+02  0.12962511062E+03  0.44606859704E+03  0.80294711708E+02 0.  0.
    5000000    2    1    2    0    0  0.40952270535E+03  0.89545725938E+02 -0.12013985450E+04  0.14067133081E+04  0.59979711893E+03 0.  0.
        -24    2    4    4    0    0  0.25283078388E+03  0.22731386300E+02 -0.92487951963E+02  0.28189318221E+03  0.80433971156E+02 0.  0.
         24    2    4    4    0    0  0.15669192146E+03  0.66814339639E+02 -0.11089105931E+04  0.11248201259E+04  0.80753315043E+02 0.  0.
         13    1    3    3    0    0 -0.35039572639E+03 -0.53350628695E+02  0.12763230674E+03  0.37671402997E+03  0.00000000000E+00 0. -1.
        -14    1    3    3    0    0 -0.59126978957E+02 -0.36195097243E+02  0.19928038820E+01  0.69354567062E+02  0.00000000000E+00 0.  1.
         13    1    5    5    0    0  0.20930418043E+03  0.28484176468E+02 -0.42689833762E+02  0.21550408387E+03  0.00000000000E+00 0. -1.
        -14    1    5    5    0    0  0.43526603448E+02 -0.57527901687E+01 -0.49798118201E+02  0.66389098343E+02  0.00000000000E+00 0.  1.
          4    1    6    6  502    0  0.91960166427E+02  0.30236162721E+02 -0.38035142992E+03  0.39247688847E+03  0.00000000000E+00 0. -1.
         -3    1    6    6    0  502  0.64731755036E+02  0.36578176917E+02 -0.72855916317E+03  0.73234323741E+03  0.00000000000E+00 0.  1.
<mgrwt>
<rscale>  0 0.42502678E+03</rscale>
<asrwt>0</asrwt>
<pdfrwt beam="1">  1        1 0.60077575E-01 0.42502678E+03</pdfrwt>
<pdfrwt beam="2">  1       -2 0.22496579E+00 0.42502678E+03</pdfrwt>
<totfact> 0.53915614E+00</totfact>
</mgrwt>
</event>
<event>
12    3  0.2212098E-007  0.4233636E+03  0.7818608E-02  0.1035977E+00
         -2   -1    0    0    0  501 -0.00000000000E+00  0.00000000000E+00  0.18122810174E+03  0.18122810174E+03  0.00000000000E+00 0.  1.
          1   -1    0    0  501    0  0.00000000000E+00 -0.00000000000E+00 -0.19638620010E+04  0.19638620010E+04  0.00000000000E+00 0. -1.
        -24    2    1    2    0    0 -0.25203606022E+03 -0.31123298875E+03 -0.10029948230E+04  0.10829090277E+04  0.79405278653E+02 0.  0.
    5000000    2    1    2    0    0  0.25203606022E+03  0.31123298875E+03 -0.77963907628E+03  0.10621810751E+04  0.60000283177E+03 0.  0.
        -24    2    4    4    0    0  0.23003028389E+03  0.26547253016E+03 -0.97018389730E+02  0.37304755872E+03  0.79764135697E+02 0.  0.
         24    2    4    4    0    0  0.22005776322E+02  0.45760458587E+02 -0.68262068655E+03  0.68913351639E+03  0.79722819499E+02 0.  0.
         11    1    5    5    0    0  0.75498897732E+02  0.53702509805E+02 -0.54424129464E+02  0.10745244988E+03  0.00000000000E+00 0. -1.
        -12    1    5    5    0    0  0.15453138616E+03  0.21177002035E+03 -0.42594260266E+02  0.26559510884E+03  0.00000000000E+00 0.  1.
         13    1    3    3    0    0 -0.26375908881E+02 -0.58602719471E+02 -0.10447782443E+03  0.12266043819E+03  0.00000000000E+00 0. -1.
        -14    1    3    3    0    0 -0.22566015133E+03 -0.25263026928E+03 -0.89851699859E+03  0.96024858948E+03  0.00000000000E+00 0.  1.
          4    1    6    6  502    0  0.49120246073E+02  0.29250739496E+02 -0.54025279442E+03  0.54326925756E+03  0.00000000000E+00 0. -1.
         -3    1    6    6    0  502 -0.27114469751E+02  0.16509719091E+02 -0.14236789213E+03  0.14586425883E+03  0.00000000000E+00 0.  1.
<mgrwt>
<rscale>  0 0.42336362E+03</rscale>
<asrwt>0</asrwt>
<pdfrwt beam="1">  1        1 0.30213260E+00 0.42336362E+03</pdfrwt>
<pdfrwt beam="2">  1       -2 0.27881248E-01 0.42336362E+03</pdfrwt>
<totfact> 0.35444859E+01</totfact>
</mgrwt>
</event>
<event>
12    3  0.2212098E-007  0.5846123E+03  0.7818608E-02  0.9937855E-01
         -2   -1    0    0    0  501 -0.00000000000E+00  0.00000000000E+00  0.94149504156E+03  0.94149504156E+03  0.00000000000E+00 0.  1.
          1   -1    0    0  501    0  0.00000000000E+00 -0.00000000000E+00 -0.38606812962E+03  0.38606812962E+03  0.00000000000E+00 0. -1.
        -24    2    1    2    0    0  0.41371907121E+03 -0.16552630886E+03  0.26949287469E+03  0.52719476080E+03  0.82130855968E+02 0.  0.
    5000000    2    1    2    0    0 -0.41371907121E+03  0.16552630886E+03  0.28593403725E+03  0.80036841038E+03  0.60022403307E+03 0.  0.
        -24    2    4    4    0    0 -0.45059407630E+03 -0.85152477773E+02  0.10131100984E+03  0.47695523701E+03  0.83285120698E+02 0.  0.
         24    2    4    4    0    0  0.36875005089E+02  0.25067878663E+03  0.18462302741E+03  0.32341317337E+03  0.79440533695E+02 0.  0.
         13    1    5    5    0    0 -0.22018005173E+03 -0.63077799398E+02  0.13652597260E+02  0.22944380002E+03  0.00000000000E+00 0. -1.
        -14    1    5    5    0    0 -0.23041402457E+03 -0.22074678376E+02  0.87658412582E+02  0.24751143698E+03  0.00000000000E+00 0.  1.
         13    1    3    3    0    0  0.26976743722E+03 -0.87032500232E+02  0.12967318969E+03  0.31171182590E+03  0.00000000000E+00 0. -1.
        -14    1    3    3    0    0  0.14395163399E+03 -0.78493808627E+02  0.13981968500E+03  0.21548293491E+03  0.00000000000E+00 0.  1.
          2    1    6    6  502    0  0.54897052921E+02  0.17056155918E+03  0.98723041428E+02  0.20457558700E+03  0.00000000000E+00 0. -1.
         -1    1    6    6    0  502 -0.18022047831E+02  0.80117227457E+02  0.85899985980E+02  0.11883758637E+03  0.00000000000E+00 0.  1.
<mgrwt>
<rscale>  0 0.58461232E+03</rscale>
<asrwt>0</asrwt>
<pdfrwt beam="1">  1        1 0.59395097E-01 0.58461232E+03</pdfrwt>
<pdfrwt beam="2">  1       -2 0.14484539E+00 0.58461232E+03</pdfrwt>
<totfact> 0.18677895E+01</totfact>
</mgrwt>
</event>
<event>
12    3  0.2212098E-007  0.1150756E+04  0.7818608E-02  0.9157087E-01
          1   -1    0    0  501    0  0.00000000000E+00  0.00000000000E+00  0.12718054008E+04  0.12718054008E+04  0.00000000000E+00 0. -1.
         -2   -1    0    0    0  501 -0.00000000000E+00 -0.00000000000E+00 -0.17975345981E+04  0.17975345981E+04  0.00000000000E+00 0.  1.
        -24    2    1    2    0    0  0.55466895199E+03  0.96123501091E+03 -0.12019594304E+04  0.16379607897E+04  0.81109086007E+02 0.  0.
    5000000    2    1    2    0    0 -0.55466895199E+03 -0.96123501091E+03  0.67623023311E+03  0.14313792091E+04  0.59994059668E+03 0.  0.
        -24    2    4    4    0    0 -0.16145288421E+02  0.62650769976E+01 -0.59138352422E+02  0.99720161349E+02  0.78401813272E+02 0.  0.
         24    2    4    4    0    0 -0.53852366357E+03 -0.96750008790E+03  0.73536858554E+03  0.13316590477E+04  0.80527675501E+02 0.  0.
         11    1    3    3    0    0  0.33994909583E+03  0.66467109810E+03 -0.81392340503E+03  0.11044565929E+04  0.00000000000E+00 0. -1.
        -12    1    3    3    0    0  0.21471985616E+03  0.29656391281E+03 -0.38803602541E+03  0.53350419682E+03  0.00000000000E+00 0.  1.
         13    1    5    5    0    0 -0.46473389807E+02  0.14370044430E+02 -0.39780028341E+02  0.62838879620E+02  0.00000000000E+00 0. -1.
        -14    1    5    5    0    0  0.30328101386E+02 -0.81049674324E+01 -0.19358324080E+02  0.36881281729E+02  0.00000000000E+00 0.  1.
          2    1    6    6  502    0 -0.16002806074E+03 -0.23570218113E+03  0.21886855826E+03  0.35926027363E+03  0.00000000000E+00 0. -1.
         -1    1    6    6    0  502 -0.37849560284E+03 -0.73179790677E+03  0.51650002727E+03  0.97239877411E+03  0.00000000000E+00 0.  1.
<mgrwt>
<rscale>  0 0.11507559E+04</rscale>
<asrwt>0</asrwt>
<pdfrwt beam="1">  1        1 0.19566237E+00 0.11507559E+04</pdfrwt>
<pdfrwt beam="2">  1       -2 0.27654379E+00 0.11507559E+04</pdfrwt>
<totfact> 0.36156269E-01</totfact>
</mgrwt>
</event>
<event>
12    3  0.2212098E-007  0.9458151E+03  0.7818608E-02  0.9370056E-01
         -2   -1    0    0    0  501 -0.00000000000E+00  0.00000000000E+00  0.21651744938E+03  0.21651744938E+03  0.00000000000E+00 0.  1.
          1   -1    0    0  501    0  0.00000000000E+00 -0.00000000000E+00 -0.42515079565E+04  0.42515079565E+04  0.00000000000E+00 0. -1.
        -24    2    1    2    0    0 -0.24256943081E+03  0.82760588017E+03 -0.19411302825E+04  0.21253663080E+04  0.73646096636E+02 0.  0.
    5000000    2    1    2    0    0  0.24256943081E+03 -0.82760588017E+03 -0.20938602246E+04  0.23426590979E+04  0.60002465564E+03 0.  0.
        -24    2    4    4    0    0  0.32420053240E+02 -0.80597018244E+03 -0.14536664790E+04  0.16643053009E+04  0.78274565551E+02 0.  0.
         24    2    4    4    0    0  0.21014937757E+03 -0.21635697736E+02 -0.64019374555E+03  0.67835379700E+03  0.75398791482E+02 0.  0.
         11    1    3    3    0    0 -0.17464898426E+03  0.47969644061E+03 -0.11837442115E+04  0.12891319953E+04  0.00000000000E+00 0. -1.
        -12    1    3    3    0    0 -0.67920446551E+02  0.34790943956E+03 -0.75738607099E+03  0.83623431269E+03  0.00000000000E+00 0.  1.
         11    1    5    5    0    0  0.54006637141E+02 -0.38408502153E+03 -0.70955719524E+03  0.80864666817E+03  0.00000000000E+00 0. -1.
        -12    1    5    5    0    0 -0.21586583901E+02 -0.42188516091E+03 -0.74410928380E+03  0.85565863277E+03  0.00000000000E+00 0.  1.
          4    1    6    6  502    0  0.80617794979E+02 -0.31252580837E+02 -0.34818951395E+03  0.35876439386E+03  0.00000000000E+00 0. -1.
         -3    1    6    6    0  502  0.12953158259E+03  0.96168831013E+01 -0.29200423160E+03  0.31958940314E+03  0.00000000000E+00 0.  1.
<mgrwt>
<rscale>  0 0.94581507E+03</rscale>
<asrwt>0</asrwt>
<pdfrwt beam="1">  1        1 0.65407812E+00 0.94581507E+03</pdfrwt>
<pdfrwt beam="2">  1       -2 0.33310378E-01 0.94581507E+03</pdfrwt>
<totfact> 0.44813259E-01</totfact>
</mgrwt>
</event>
<event>
12    3  0.2212098E-007  0.6572704E+03  0.7818608E-02  0.9793232E-01
          1   -1    0    0  501    0  0.00000000000E+00  0.00000000000E+00  0.83603733869E+03  0.83603733869E+03  0.00000000000E+00 0. -1.
         -2   -1    0    0    0  501 -0.00000000000E+00 -0.00000000000E+00 -0.72713830336E+03  0.72713830336E+03  0.00000000000E+00 0.  1.
        -24    2    1    2    0    0  0.87129993494E+01 -0.57215081839E+03 -0.28608989741E+03  0.64479610559E+03  0.80511570869E+02 0.  0.
    5000000    2    1    2    0    0 -0.87129993494E+01  0.57215081839E+03  0.39498893274E+03  0.91837953645E+03  0.59997686676E+03 0.  0.
        -24    2    4    4    0    0 -0.11018975328E+03 -0.20307879660E+02 -0.70158793110E+02  0.15417355120E+03  0.79328657711E+02 0.  0.
         24    2    4    4    0    0  0.10147675393E+03  0.59245869805E+03  0.46514772585E+03  0.76420598525E+03  0.79646346748E+02 0.  0.
         11    1    3    3    0    0  0.13836809322E+02 -0.48119478949E+03 -0.27106957038E+03  0.55246592176E+03  0.00000000000E+00 0. -1.
        -12    1    3    3    0    0 -0.51238099727E+01 -0.90956028902E+02 -0.15020327038E+02  0.92330183833E+02  0.00000000000E+00 0.  1.
         13    1    5    5    0    0 -0.24038491526E+02 -0.41896349432E+02 -0.21103057118E+02  0.52711404746E+02  0.00000000000E+00 0. -1.
        -14    1    5    5    0    0 -0.86151261754E+02  0.21588469772E+02 -0.49055735992E+02  0.10146214645E+03  0.00000000000E+00 0.  1.
          4    1    6    6  502    0  0.46921530584E+02  0.11268543686E+03  0.11544183588E+03  0.16800730693E+03  0.00000000000E+00 0. -1.
         -3    1    6    6    0  502  0.54555223346E+02  0.47977326119E+03  0.34970588997E+03  0.59619867832E+03  0.00000000000E+00 0.  1.
<mgrwt>
<rscale>  0 0.65727038E+03</rscale>
<asrwt>0</asrwt>
<pdfrwt beam="1">  1        1 0.12862113E+00 0.65727038E+03</pdfrwt>
<pdfrwt beam="2">  1       -2 0.11186743E+00 0.65727038E+03</pdfrwt>
<totfact> 0.11752398E+01</totfact>
</mgrwt>
</event>
<event>
12    3  0.2212098E-007  0.3430269E+03  0.7818608E-02  0.1065514E+00
          1   -1    0    0  501    0  0.00000000000E+00  0.00000000000E+00  0.22062888576E+04  0.22062888576E+04  0.00000000000E+00 0. -1.
         -2   -1    0    0    0  501 -0.00000000000E+00 -0.00000000000E+00 -0.19679394974E+03  0.19679394974E+03  0.00000000000E+00 0.  1.
        -24    2    1    2    0    0 -0.84640117202E+02  0.12377313147E+03 -0.10550738674E+03  0.19954217819E+03  0.78749823540E+02 0.  0.
    5000000    2    1    2    0    0  0.84640117202E+02 -0.12377313147E+03  0.21150022946E+04  0.22035406292E+04  0.59989404122E+03 0.  0.
        -24    2    4    4    0    0  0.14724829361E+02 -0.30284984938E+03  0.17731868064E+04  0.18008118769E+04  0.82444609005E+02 0.  0.
         24    2    4    4    0    0  0.69915287841E+02  0.17907671791E+03  0.34181548818E+03  0.40272875228E+03  0.91629698184E+02 0.  0.
         11    1    5    5    0    0  0.25404475135E+02 -0.30986718969E+02  0.30595055549E+03  0.30856329418E+03  0.00000000000E+00 0. -1.
        -12    1    5    5    0    0 -0.10679645773E+02 -0.27186313041E+03  0.14672362509E+04  0.14922485827E+04  0.00000000000E+00 0.  1.
         13    1    3    3    0    0  0.36850329191E+01  0.59249130814E+02 -0.45382719241E+02  0.74723692197E+02  0.00000000000E+00 0. -1.
        -14    1    3    3    0    0 -0.88325150121E+02  0.64524000659E+02 -0.60124667494E+02  0.12481848600E+03  0.00000000000E+00 0.  1.
          2    1    6    6  502    0 -0.10390596239E+02  0.63997664355E+02  0.16302210892E+03  0.17544193778E+03  0.00000000000E+00 0. -1.
         -1    1    6    6    0  502  0.80305884080E+02  0.11507905355E+03  0.17879337925E+03  0.22728681451E+03  0.00000000000E+00 0.  1.
<mgrwt>
<rscale>  0 0.34302688E+03</rscale>
<asrwt>0</asrwt>
<pdfrwt beam="1">  1        1 0.33942904E+00 0.34302688E+03</pdfrwt>
<pdfrwt beam="2">  1       -2 0.30275994E-01 0.34302688E+03</pdfrwt>
<totfact> 0.21571807E+01</totfact>
</mgrwt>
</event>
<event>
12    3  0.2212098E-007  0.6783465E+03  0.7818608E-02  0.9754996E-01
          1   -1    0    0  501    0  0.00000000000E+00  0.00000000000E+00  0.14241950803E+04  0.14241950803E+04  0.00000000000E+00 0. -1.
         -2   -1    0    0    0  501 -0.00000000000E+00 -0.00000000000E+00 -0.40671815536E+03  0.40671815536E+03  0.00000000000E+00 0.  1.
        -24    2    1    2    0    0 -0.60005412459E+03  0.18084917639E+03  0.27528588542E+03  0.68914767630E+03  0.79817441787E+02 0.  0.
    5000000    2    1    2    0    0  0.60005412459E+03 -0.18084917639E+03  0.74219103952E+03  0.11417655594E+04  0.60000806356E+03 0.  0.
        -24    2    4    4    0    0  0.32079675189E+03 -0.27145029890E+03  0.71898268628E+03  0.83697224947E+03  0.83609942092E+02 0.  0.
         24    2    4    4    0    0  0.27925737270E+03  0.90601122509E+02  0.23208353242E+02  0.30479330988E+03  0.78530825057E+02 0.  0.
         13    1    5    5    0    0  0.77009930125E+02 -0.27180229386E+02  0.16866731876E+03  0.18739786185E+03  0.00000000000E+00 0. -1.
        -14    1    5    5    0    0  0.24378682176E+03 -0.24427006951E+03  0.55031536752E+03  0.64957438762E+03  0.00000000000E+00 0.  1.
         13    1    3    3    0    0 -0.47657378904E+02  0.45620272990E+01  0.14563359886E+01  0.47897377503E+02  0.00000000000E+00 0. -1.
        -14    1    3    3    0    0 -0.55239674568E+03  0.17628714909E+03  0.27382954943E+03  0.64125029880E+03  0.00000000000E+00 0.  1.
          2    1    6    6  502    0  0.17956517357E+03  0.93531045786E+02  0.30694128020E+02  0.20477753192E+03  0.00000000000E+00 0. -1.
         -1    1    6    6    0  502  0.99692199130E+02 -0.29299232774E+01 -0.74857747781E+01  0.10001577796E+03  0.00000000000E+00 0.  1.
<mgrwt>
<rscale>  0 0.67834652E+03</rscale>
<asrwt>0</asrwt>
<pdfrwt beam="1">  1        1 0.21910693E+00 0.67834652E+03</pdfrwt>
<pdfrwt beam="2">  1       -2 0.62572025E-01 0.67834652E+03</pdfrwt>
<totfact> 0.15965920E+01</totfact>
</mgrwt>
</event>
<event>
12    3  0.2212098E-007  0.6803546E+03  0.7818608E-02  0.9751431E-01
         -2   -1    0    0    0  501 -0.00000000000E+00  0.00000000000E+00  0.44961829484E+03  0.44961829484E+03  0.00000000000E+00 0.  1.
          1   -1    0    0  501    0  0.00000000000E+00 -0.00000000000E+00 -0.12272974998E+04  0.12272974998E+04  0.00000000000E+00 0. -1.
        -24    2    1    2    0    0  0.44630110653E+03 -0.35787241603E+03 -0.59224063332E+03  0.82740130195E+03  0.81157888546E+02 0.  0.
    5000000    2    1    2    0    0 -0.44630110653E+03  0.35787241603E+03 -0.18543857167E+03  0.84951449272E+03  0.60002505417E+03 0.  0.
        -24    2    4    4    0    0 -0.46961430257E+03  0.61240941622E+02  0.13468836020E+02  0.48031963879E+03  0.78977843489E+02 0.  0.
         24    2    4    4    0    0  0.23313196031E+02  0.29663147441E+03 -0.19890740769E+03  0.36919485392E+03  0.90592199514E+02 0.  0.
         11    1    5    5    0    0 -0.37515521559E+03  0.39720042389E+02 -0.20104831851E+02  0.37778740293E+03  0.00000000000E+00 0. -1.
        -12    1    5    5    0    0 -0.94459086976E+02  0.21520899233E+02  0.33573667871E+02  0.10253223586E+03  0.00000000000E+00 0.  1.
         11    1    3    3    0    0  0.15621719585E+03 -0.81127277159E+02 -0.20164312541E+03  0.26766657879E+03  0.00000000000E+00 0. -1.
        -12    1    3    3    0    0  0.29008391069E+03 -0.27674513887E+03 -0.39059750791E+03  0.55973472316E+03  0.00000000000E+00 0.  1.
          4    1    6    6  502    0 -0.30076924968E+02  0.16257668688E+03 -0.88691601763E+02  0.18762196235E+03  0.00000000000E+00 0. -1.
         -3    1    6    6    0  502  0.53390120998E+02  0.13405478752E+03 -0.11021580593E+03  0.18157289157E+03  0.00000000000E+00 0.  1.
<mgrwt>
<rscale>  0 0.68035455E+03</rscale>
<asrwt>0</asrwt>
<pdfrwt beam="1">  1        1 0.18881500E+00 0.68035455E+03</pdfrwt>
<pdfrwt beam="2">  1       -2 0.69172046E-01 0.68035455E+03</pdfrwt>
<totfact> 0.17687118E+01</totfact>
</mgrwt>
</event>
<event>
12    3  0.2212098E-007  0.9603786E+03  0.7818608E-02  0.9353101E-01
         -2   -1    0    0    0  501 -0.00000000000E+00  0.00000000000E+00  0.12231981451E+04  0.12231981451E+04  0.00000000000E+00 0.  1.
          1   -1    0    0  501    0  0.00000000000E+00 -0.00000000000E+00 -0.90370532260E+03  0.90370532260E+03  0.00000000000E+00 0. -1.
        -24    2    1    2    0    0  0.73390082259E+03 -0.55682801238E+03 -0.14008458308E+03  0.93525329977E+03  0.80044934484E+02 0.  0.
    5000000    2    1    2    0    0 -0.73390082259E+03  0.55682801238E+03  0.45957740556E+03  0.11916501679E+04  0.60012571868E+03 0.  0.
        -24    2    4    4    0    0  0.24659787858E+02  0.10687231172E+03 -0.77823753887E+02  0.15576630661E+03  0.78592680677E+02 0.  0.
         24    2    4    4    0    0 -0.75856061045E+03  0.44995570066E+03  0.53740115945E+03  0.10358838613E+04  0.79881384920E+02 0.  0.
         11    1    5    5    0    0  0.26465126218E+02  0.29484956676E+02  0.77551869493E+01  0.40372125292E+02  0.00000000000E+00 0. -1.
        -12    1    5    5    0    0 -0.18053383604E+01  0.77387355043E+02 -0.85578940836E+02  0.11539418132E+03  0.00000000000E+00 0.  1.
         13    1    3    3    0    0  0.54797891219E+03 -0.40346340824E+03 -0.13742056426E+03  0.69422476294E+03  0.00000000000E+00 0. -1.
        -14    1    3    3    0    0  0.18592191040E+03 -0.15336460414E+03 -0.26640188233E+01  0.24102853683E+03  0.00000000000E+00 0.  1.
          4    1    6    6  502    0 -0.33292745398E+03  0.18526446353E+03  0.27698665871E+03  0.47104694051E+03  0.00000000000E+00 0. -1.
         -3    1    6    6    0  502 -0.42563315647E+03  0.26469123713E+03  0.26041450074E+03  0.56483692079E+03  0.00000000000E+00 0.  1.
<mgrwt>
<rscale>  0 0.96037861E+03</rscale>
<asrwt>0</asrwt>
<pdfrwt beam="1">  1        1 0.13903159E+00 0.96037861E+03</pdfrwt>
<pdfrwt beam="2">  1       -2 0.18818433E+00 0.96037861E+03</pdfrwt>
<totfact> 0.25268591E+00</totfact>
</mgrwt>
</event>
<event>
12    3  0.2212098E-007  0.6961663E+03  0.7818608E-02  0.9723811E-01
          1   -1    0    0  501    0  0.00000000000E+00  0.00000000000E+00  0.13561667392E+04  0.13561667392E+04  0.00000000000E+00 0. -1.
         -2   -1    0    0    0  501 -0.00000000000E+00 -0.00000000000E+00 -0.42737799710E+03  0.42737799710E+03  0.00000000000E+00 0.  1.
        -24    2    1    2    0    0 -0.47242218929E+03  0.33608047402E+03  0.71132033172E+03  0.92121449576E+03  0.80788136112E+02 0.  0.
    5000000    2    1    2    0    0  0.47242218929E+03 -0.33608047402E+03  0.21746841042E+03  0.86233024058E+03  0.60015674980E+03 0.  0.
        -24    2    4    4    0    0  0.34226397769E+02 -0.35687854834E+03  0.19386475829E+03  0.41529438832E+03  0.79700313022E+02 0.  0.
         24    2    4    4    0    0  0.43819579152E+03  0.20798074316E+02  0.23603652127E+02  0.44703585225E+03  0.82678952622E+02 0.  0.
         11    1    5    5    0    0  0.24957950184E+02 -0.28885596210E+02  0.11352020049E+02  0.39826439773E+02  0.00000000000E+00 0. -1.
        -12    1    5    5    0    0  0.92684475846E+01 -0.32799295213E+03  0.18251273824E+03  0.37546794855E+03  0.00000000000E+00 0.  1.
         11    1    3    3    0    0 -0.23867881496E+03  0.12202990177E+03  0.34212130268E+03  0.43463301691E+03  0.00000000000E+00 0. -1.
        -12    1    3    3    0    0 -0.23374337433E+03  0.21405057225E+03  0.36919902903E+03  0.48658147885E+03  0.00000000000E+00 0.  1.
          4    1    6    6  502    0  0.36201199052E+03 -0.15674001506E+00  0.45967437039E+02  0.36491877332E+03  0.00000000000E+00 0. -1.
         -3    1    6    6    0  502  0.76183800994E+02  0.20954814331E+02 -0.22363784913E+02  0.82117078937E+02  0.00000000000E+00 0.  1.
<mgrwt>
<rscale>  0 0.69616629E+03</rscale>
<asrwt>0</asrwt>
<pdfrwt beam="1">  1        1 0.20864104E+00 0.69616629E+03</pdfrwt>
<pdfrwt beam="2">  1       -2 0.65750461E-01 0.69616629E+03</pdfrwt>
<totfact> 0.15970281E+01</totfact>
</mgrwt>
</event>
<event>
12    3  0.2212098E-007  0.8410355E+03  0.7818608E-02  0.9502448E-01
         -2   -1    0    0    0  501 -0.00000000000E+00  0.00000000000E+00  0.40422653811E+03  0.40422653811E+03  0.00000000000E+00 0.  1.
          1   -1    0    0  501    0  0.00000000000E+00 -0.00000000000E+00 -0.26706645890E+04  0.26706645890E+04  0.00000000000E+00 0. -1.
        -24    2    1    2    0    0 -0.77418452538E+03 -0.28408643539E+03 -0.34087641507E+03  0.89591755051E+03  0.80029649856E+02 0.  0.
    5000000    2    1    2    0    0  0.77418452538E+03  0.28408643539E+03 -0.19255616358E+04  0.21789735766E+04  0.60005954042E+03 0.  0.
        -24    2    4    4    0    0  0.51448052808E+02  0.12089823334E+02 -0.83813383579E+03  0.84291872210E+03  0.72460881810E+02 0.  0.
         24    2    4    4    0    0  0.72273647257E+03  0.27199661205E+03 -0.10874278000E+04  0.13360548545E+04  0.78823779422E+02 0.  0.
         11    1    5    5    0    0  0.29600533402E+02 -0.23903976332E+02 -0.21321949412E+03  0.21658749810E+03  0.00000000000E+00 0. -1.
        -12    1    5    5    0    0  0.21847519405E+02  0.35993799666E+02 -0.62491434168E+03  0.62633122399E+03  0.00000000000E+00 0.  1.
         13    1    3    3    0    0 -0.66315160636E+03 -0.22262811231E+03 -0.31099540032E+03  0.76553998487E+03  0.00000000000E+00 0. -1.
        -14    1    3    3    0    0 -0.11103291902E+03 -0.61458323074E+02 -0.29881014752E+02  0.13037756564E+03  0.00000000000E+00 0.  1.
          2    1    6    6  502    0  0.31729305292E+03  0.81905842586E+02 -0.48866139655E+03  0.58836503037E+03  0.00000000000E+00 0. -1.
         -1    1    6    6    0  502  0.40544341966E+03  0.19009076947E+03 -0.59876640348E+03  0.74768982413E+03  0.00000000000E+00 0.  1.
<mgrwt>
<rscale>  0 0.84103548E+03</rscale>
<asrwt>0</asrwt>
<pdfrwt beam="1">  1        1 0.41087149E+00 0.84103548E+03</pdfrwt>
<pdfrwt beam="2">  1       -2 0.62188697E-01 0.84103548E+03</pdfrwt>
<totfact> 0.22644307E+00</totfact>
</mgrwt>
</event>
<event>
12    3  0.3820949E-007  0.9379447E+03  0.7818608E-02  0.9379353E-01
          1   -1    0    0  501    0  0.00000000000E+00  0.00000000000E+00  0.11644620849E+04  0.11644620849E+04  0.00000000000E+00 0. -1.
         -2   -1    0    0    0  501 -0.00000000000E+00 -0.00000000000E+00 -0.88263063659E+03  0.88263063659E+03  0.00000000000E+00 0.  1.
        -24    2    1    2    0    0 -0.85825072990E+03 -0.19801892360E+03  0.40749794660E+03  0.97390413578E+03  0.81417932464E+02 0.  0.
    5000000    2    1    2    0    0  0.85825072990E+03  0.19801892360E+03 -0.12566649825E+03  0.10731885858E+04  0.60011320793E+03 0.  0.
        -24    2    4    4    0    0 -0.29614073901E+02  0.22913069260E+02 -0.13905326624E+03  0.16473968702E+03  0.80008446502E+02 0.  0.
         24    2    4    4    0    0  0.88786480380E+03  0.17510585434E+03  0.13386767997E+02  0.90844889873E+03  0.78321299749E+02 0.  0.
         11    1    5    5    0    0 -0.28556511185E+02  0.49599643757E+02 -0.11643701999E+03  0.12974274013E+03  0.00000000000E+00 0. -1.
        -12    1    5    5    0    0 -0.10575627157E+01 -0.26686574497E+02 -0.22616246250E+02  0.34996946891E+02  0.00000000000E+00 0.  1.
         13    1    3    3    0    0 -0.61821263938E+03 -0.17667329527E+03  0.31232985802E+03  0.71480784898E+03  0.00000000000E+00 0. -1.
        -14    1    3    3    0    0 -0.24003809052E+03 -0.21345628325E+02  0.95168088580E+02  0.25909628680E+03  0.00000000000E+00 0.  1.
          4    1    6    6  502    0  0.41231945517E+03  0.11905970654E+03 -0.62375945132E+01  0.42921026830E+03  0.00000000000E+00 0. -1.
         -3    1    6    6    0  502  0.47554534864E+03  0.56046147796E+02  0.19624362511E+02  0.47923863043E+03  0.00000000000E+00 0.  1.
<mgrwt>
<rscale>  0 0.93794472E+03</rscale>
<asrwt>0</asrwt>
<pdfrwt beam="1">  1        1 0.17914802E+00 0.93794472E+03</pdfrwt>
<pdfrwt beam="2">  1       -2 0.13578933E+00 0.93794472E+03</pdfrwt>
<totfact> 0.38819313E+00</totfact>
</mgrwt>
</event>
<event>
12    3  0.2399904E-007  0.6935759E+03  0.7818608E-02  0.9728282E-01
         -2   -1    0    0    0  501 -0.00000000000E+00  0.00000000000E+00  0.13960033248E+04  0.13960033248E+04  0.00000000000E+00 0.  1.
          1   -1    0    0  501    0  0.00000000000E+00 -0.00000000000E+00 -0.48031953834E+03  0.48031953834E+03  0.00000000000E+00 0. -1.
        -24    2    1    2    0    0  0.20410200098E+03  0.65554718236E+03  0.20722209117E+03  0.72158446287E+03  0.79645507639E+02 0.  0.
    5000000    2    1    2    0    0 -0.20410200098E+03 -0.65554718236E+03  0.70846169532E+03  0.11547384003E+04  0.60008588075E+03 0.  0.
        -24    2    4    4    0    0 -0.39036898966E+02 -0.17944569403E+03  0.60041526337E+03  0.63318997985E+03  0.81892768296E+02 0.  0.
         24    2    4    4    0    0 -0.16506510201E+03 -0.47610148833E+03  0.10804643195E+03  0.52154842045E+03  0.80122458304E+02 0.  0.
         11    1    5    5    0    0  0.47597670404E+01 -0.10613784916E+03  0.23454650751E+03  0.25748779115E+03  0.00000000000E+00 0. -1.
        -12    1    5    5    0    0 -0.43796666007E+02 -0.73307844865E+02  0.36586875586E+03  0.37570218869E+03  0.00000000000E+00 0.  1.
         13    1    3    3    0    0  0.55582447938E+02  0.21038845763E+03  0.10355250104E+03  0.24098927797E+03  0.00000000000E+00 0. -1.
        -14    1    3    3    0    0  0.14851955304E+03  0.44515872472E+03  0.10366959013E+03  0.48059518490E+03  0.00000000000E+00 0.  1.
          2    1    6    6  502    0 -0.27404757153E+02 -0.18017446712E+03  0.58657619554E+02  0.19145384730E+03  0.00000000000E+00 0. -1.
         -1    1    6    6    0  502 -0.13766034486E+03 -0.29592702121E+03  0.49388812392E+02  0.33009457314E+03  0.00000000000E+00 0.  1.
<mgrwt>
<rscale>  0 0.69357593E+03</rscale>
<asrwt>0</asrwt>
<pdfrwt beam="1">  1        1 0.73895314E-01 0.69357593E+03</pdfrwt>
<pdfrwt beam="2">  1       -2 0.21476974E+00 0.69357593E+03</pdfrwt>
<totfact> 0.45268652E+00</totfact>
</mgrwt>
</event>
<event>
12    3  0.2212098E-007  0.1528527E+04  0.7818608E-02  0.8865701E-01
         -2   -1    0    0    0  501 -0.00000000000E+00  0.00000000000E+00  0.68814209396E+03  0.68814209396E+03  0.00000000000E+00 0.  1.
          1   -1    0    0  501    0  0.00000000000E+00 -0.00000000000E+00 -0.35882562334E+04  0.35882562334E+04  0.00000000000E+00 0. -1.
        -24    2    1    2    0    0  0.15049616251E+04  0.12090229468E+03 -0.15290671181E+04  0.21503902618E+04  0.81272189605E+02 0.  0.
    5000000    2    1    2    0    0 -0.15049616251E+04 -0.12090229468E+03 -0.13710470214E+04  0.21260080655E+04  0.60051103396E+03 0.  0.
        -24    2    4    4    0    0 -0.13826070184E+04 -0.16799039697E+02 -0.13682845580E+04  0.19469623441E+04  0.81088610599E+02 0.  0.
         24    2    4    4    0    0 -0.12235460667E+03 -0.10410325499E+03 -0.27624633809E+01  0.17904572135E+03  0.79003807877E+02 0.  0.
         11    1    3    3    0    0  0.20404043483E+03  0.40621617891E+02 -0.23096479092E+03  0.31084940008E+03  0.00000000000E+00 0. -1.
        -12    1    3    3    0    0  0.13009211903E+04  0.80280676794E+02 -0.12981023271E+04  0.18395408618E+04  0.00000000000E+00 0.  1.
         13    1    5    5    0    0 -0.21104045906E+03 -0.30904785111E+02 -0.22088528865E+03  0.30705617050E+03  0.00000000000E+00 0. -1.
        -14    1    5    5    0    0 -0.11715665594E+04  0.14105745414E+02 -0.11473992693E+04  0.16399061736E+04  0.00000000000E+00 0.  1.
          2    1    6    6  502    0 -0.79062521856E+02 -0.68942299311E+02 -0.39689545355E+02  0.11215695702E+03  0.00000000000E+00 0. -1.
         -1    1    6    6    0  502 -0.43292084811E+02 -0.35160955677E+02  0.36927081974E+02  0.66888764337E+02  0.00000000000E+00 0.  1.
<mgrwt>
<rscale>  0 0.15285274E+04</rscale>
<asrwt>0</asrwt>
<pdfrwt beam="1">  1        1 0.55203942E+00 0.15285274E+04</pdfrwt>
<pdfrwt beam="2">  1       -2 0.10586801E+00 0.15285274E+04</pdfrwt>
<totfact> 0.12877390E-01</totfact>
</mgrwt>
</event>
<event>
12    3  0.2212098E-007  0.5271304E+03  0.7818608E-02  0.1006930E+00
         -2   -1    0    0    0  501 -0.00000000000E+00  0.00000000000E+00  0.10370102786E+04  0.10370102786E+04  0.00000000000E+00 0.  1.
          1   -1    0    0  501    0  0.00000000000E+00 -0.00000000000E+00 -0.14218238400E+04  0.14218238400E+04  0.00000000000E+00 0. -1.
        -24    2    1    2    0    0 -0.38070720813E+03  0.10459130352E+03 -0.12623020885E+04  0.13249498687E+04  0.78792593257E+02 0.  0.
    5000000    2    1    2    0    0  0.38070720813E+03 -0.10459130352E+03  0.87748852717E+03  0.11338842499E+04  0.59985836482E+03 0.  0.
        -24    2    4    4    0    0  0.33447817549E+03  0.15901951007E+03  0.27105118069E+03  0.46604103501E+03  0.81010180217E+02 0.  0.
         24    2    4    4    0    0  0.46229032639E+02 -0.26361081359E+03  0.60643734648E+03  0.66784321493E+03  0.81366578006E+02 0.  0.
         13    1    3    3    0    0 -0.97838535160E+02  0.38296613508E+02 -0.45460828058E+03  0.46659157551E+03  0.00000000000E+00 0. -1.
        -14    1    3    3    0    0 -0.28286867297E+03  0.66294690011E+02 -0.80769380794E+03  0.85835829317E+03  0.00000000000E+00 0.  1.
         13    1    5    5    0    0  0.22268700532E+03  0.14637844602E+03  0.18521371792E+03  0.32453085077E+03  0.00000000000E+00 0. -1.
        -14    1    5    5    0    0  0.11179117017E+03  0.12641064051E+02  0.85837462775E+02  0.14151018424E+03  0.00000000000E+00 0.  1.
          2    1    6    6  502    0 -0.22845689211E+02 -0.46049698634E+02  0.10617552986E+03  0.11796500922E+03  0.00000000000E+00 0. -1.
         -1    1    6    6    0  502  0.69074721850E+02 -0.21756111496E+03  0.50026181662E+03  0.54987820571E+03  0.00000000000E+00 0.  1.
<mgrwt>
<rscale>  0 0.52713044E+03</rscale>
<asrwt>0</asrwt>
<pdfrwt beam="1">  1        1 0.21874213E+00 0.52713044E+03</pdfrwt>
<pdfrwt beam="2">  1       -2 0.15954004E+00 0.52713044E+03</pdfrwt>
<totfact> 0.17879888E+00</totfact>
</mgrwt>
</event>
<event>
12    3  0.2212098E-007  0.6775359E+03  0.7818608E-02  0.9756439E-01
          1   -1    0    0  501    0  0.00000000000E+00  0.00000000000E+00  0.18041133075E+04  0.18041133075E+04  0.00000000000E+00 0. -1.
         -2   -1    0    0    0  501 -0.00000000000E+00 -0.00000000000E+00 -0.70418141426E+03  0.70418141426E+03  0.00000000000E+00 0.  1.
        -24    2    1    2    0    0  0.31971122807E+03  0.51840170394E+03 -0.43409351645E+03  0.75210592272E+03  0.79186753679E+02 0.  0.
    5000000    2    1    2    0    0 -0.31971122807E+03 -0.51840170394E+03  0.15340254097E+04  0.17561887991E+04  0.60000795355E+03 0.  0.
        -24    2    4    4    0    0  0.42793252727E+02  0.40865734352E+02  0.22876596647E+02  0.10242169636E+03  0.80408920449E+02 0.  0.
         24    2    4    4    0    0 -0.36250448080E+03 -0.55926743829E+03  0.15111488131E+04  0.16537671027E+04  0.84766317806E+02 0.  0.
         13    1    5    5    0    0  0.28269175407E+01  0.30258975195E+02  0.45934153284E+02  0.55077613243E+02  0.00000000000E+00 0. -1.
        -14    1    5    5    0    0  0.39966335187E+02  0.10606759157E+02 -0.23057556637E+02  0.47344083116E+02  0.00000000000E+00 0.  1.
         13    1    3    3    0    0  0.14479805914E+03  0.16358450528E+03 -0.16203652187E+03  0.27199669615E+03  0.00000000000E+00 0. -1.
        -14    1    3    3    0    0  0.17491316893E+03  0.35481719866E+03 -0.27205699458E+03  0.48010922656E+03  0.00000000000E+00 0.  1.
          2    1    6    6  502    0 -0.22536568986E+03 -0.39988581146E+03  0.96721334318E+03  0.10706073078E+04  0.00000000000E+00 0. -1.
         -3    1    6    6    0  502 -0.13713879094E+03 -0.15938162684E+03  0.54393546988E+03  0.58315979486E+03  0.00000000000E+00 0.  1.
<mgrwt>
<rscale>  0 0.67753592E+03</rscale>
<asrwt>0</asrwt>
<pdfrwt beam="1">  1        1 0.27755589E+00 0.67753592E+03</pdfrwt>
<pdfrwt beam="2">  1       -2 0.10833560E+00 0.67753592E+03</pdfrwt>
<totfact> 0.25516622E+00</totfact>
</mgrwt>
</event>
<event>
12    3  0.2212098E-007  0.1044579E+04  0.7818608E-02  0.9260959E-01
         -2   -1    0    0    0  501 -0.00000000000E+00  0.00000000000E+00  0.79587235767E+03  0.79587235767E+03  0.00000000000E+00 0.  1.
          1   -1    0    0  501    0  0.00000000000E+00 -0.00000000000E+00 -0.15478477327E+04  0.15478477327E+04  0.00000000000E+00 0. -1.
        -24    2    1    2    0    0  0.26288041509E+03 -0.97146389066E+03 -0.56624897982E+03  0.11571760336E+04  0.74634188698E+02 0.  0.
    5000000    2    1    2    0    0 -0.26288041509E+03  0.97146389066E+03 -0.18572639521E+03  0.11865440568E+04  0.60045341308E+03 0.  0.
        -24    2    4    4    0    0 -0.32964481864E+03  0.47451157762E+03 -0.31316513101E+03  0.66217174825E+03  0.81068373357E+02 0.  0.
         24    2    4    4    0    0  0.66764403548E+02  0.49695231304E+03  0.12743873580E+03  0.52437230851E+03  0.85478649549E+02 0.  0.
         11    1    3    3    0    0  0.11352463308E+03 -0.32308926340E+03 -0.16421792511E+03  0.37979210283E+03  0.00000000000E+00 0. -1.
        -12    1    3    3    0    0  0.14935578201E+03 -0.64837462726E+03 -0.40203105471E+03  0.77738393078E+03  0.00000000000E+00 0.  1.
         13    1    5    5    0    0 -0.30304198484E+03  0.40749096700E+03 -0.29692471238E+03  0.58825812157E+03  0.00000000000E+00 0. -1.
        -14    1    5    5    0    0 -0.26602833797E+02  0.67020610612E+02 -0.16240418628E+02  0.73913626687E+02  0.00000000000E+00 0.  1.
          2    1    6    6  502    0  0.46756060291E+02  0.35324786555E+03  0.12987995079E+03  0.37926110439E+03  0.00000000000E+00 0. -1.
         -1    1    6    6    0  502  0.20008343257E+02  0.14370444750E+03 -0.24412149848E+01  0.14511120412E+03  0.00000000000E+00 0.  1.
<mgrwt>
<rscale>  0 0.10445786E+04</rscale>
<asrwt>0</asrwt>
<pdfrwt beam="1">  1        1 0.23813042E+00 0.10445786E+04</pdfrwt>
<pdfrwt beam="2">  1       -2 0.12244190E+00 0.10445786E+04</pdfrwt>
<totfact> 0.26706020E+00</totfact>
</mgrwt>
</event>
<event>
12    3  0.2212098E-007  0.8184125E+03  0.7818608E-02  0.9533742E-01
          1   -1    0    0  501    0  0.00000000000E+00  0.00000000000E+00  0.86457549399E+03  0.86457549399E+03  0.00000000000E+00 0. -1.
         -2   -1    0    0    0  501 -0.00000000000E+00 -0.00000000000E+00 -0.88722976288E+03  0.88722976288E+03  0.00000000000E+00 0.  1.
        -24    2    1    2    0    0 -0.24010637874E+03  0.69414688562E+03 -0.24388312808E+03  0.77799595291E+03  0.79421348843E+02 0.  0.
    5000000    2    1    2    0    0  0.24010637874E+03 -0.69414688562E+03  0.22122885919E+03  0.97380930396E+03  0.59989280744E+03 0.  0.
        -24    2    4    4    0    0 -0.74615344136E+01 -0.63053653880E+03  0.14696841429E+02  0.63551591346E+03  0.77669027674E+02 0.  0.
         24    2    4    4    0    0  0.24756791315E+03 -0.63610346822E+02  0.20653201776E+03  0.33829339050E+03  0.80316846617E+02 0.  0.
         11    1    5    5    0    0 -0.23154162754E+02 -0.22593305936E+03  0.36457395767E+02  0.23002392108E+03  0.00000000000E+00 0. -1.
        -12    1    5    5    0    0  0.15692628340E+02 -0.40460347944E+03 -0.21760554338E+02  0.40549199238E+03  0.00000000000E+00 0.  1.
         13    1    3    3    0    0 -0.94655063577E+02  0.19168707977E+03 -0.96401337872E+02  0.23451382806E+03  0.00000000000E+00 0. -1.
        -14    1    3    3    0    0 -0.14545131516E+03  0.50245980586E+03 -0.14748179021E+03  0.54348212484E+03  0.00000000000E+00 0.  1.
          4    1    6    6  502    0  0.37160392452E+02  0.19180307411E+02  0.31685309234E+02  0.52466539631E+02  0.00000000000E+00 0. -1.
         -1    1    6    6    0  502  0.21040752070E+03 -0.82790654232E+02  0.17484670853E+03  0.28582685087E+03  0.00000000000E+00 0.  1.
<mgrwt>
<rscale>  0 0.81841245E+03</rscale>
<asrwt>0</asrwt>
<pdfrwt beam="1">  1        1 0.13301162E+00 0.81841245E+03</pdfrwt>
<pdfrwt beam="2">  1       -2 0.13649689E+00 0.81841245E+03</pdfrwt>
<totfact> 0.66421926E+00</totfact>
</mgrwt>
</event>
<event>
12    3  0.2212098E-007  0.4766830E+03  0.7818608E-02  0.1020051E+00
          1   -1    0    0  501    0  0.00000000000E+00  0.00000000000E+00  0.87635183886E+03  0.87635183886E+03  0.00000000000E+00 0. -1.
         -2   -1    0    0    0  501 -0.00000000000E+00 -0.00000000000E+00 -0.74453034639E+03  0.74453034639E+03  0.00000000000E+00 0.  1.
        -24    2    1    2    0    0 -0.12855299693E+03  0.26245932674E+03  0.68840199734E+03  0.75189967747E+03  0.77749879952E+02 0.  0.
    5000000    2    1    2    0    0  0.12855299693E+03 -0.26245932674E+03 -0.55658050488E+03  0.86898250778E+03  0.59994830544E+03 0.  0.
        -24    2    4    4    0    0 -0.19778645532E+03 -0.24993921878E+03 -0.23882845109E+03  0.40635259113E+03  0.80587246363E+02 0.  0.
         24    2    4    4    0    0  0.32633945225E+03 -0.12520107962E+02 -0.31775205378E+03  0.46262991665E+03  0.80036747143E+02 0.  0.
         11    1    3    3    0    0 -0.11356715173E+03  0.24769033915E+03  0.57169569045E+03  0.63331190147E+03  0.00000000000E+00 0. -1.
        -12    1    3    3    0    0 -0.14985845198E+02  0.14768987591E+02  0.11670630689E+03  0.11858777600E+03  0.00000000000E+00 0.  1.
         13    1    5    5    0    0 -0.10323761889E+03 -0.67946923004E+02 -0.94220915366E+02  0.15541033168E+03  0.00000000000E+00 0. -1.
        -14    1    5    5    0    0 -0.94548836435E+02 -0.18199229577E+03 -0.14460753573E+03  0.25094225946E+03  0.00000000000E+00 0.  1.
          2    1    6    6  502    0  0.57934603331E+02  0.18865472432E+02 -0.92828489156E+02  0.11103806875E+03  0.00000000000E+00 0. -1.
         -1    1    6    6    0  502  0.26840484892E+03 -0.31385580394E+02 -0.22492356463E+03  0.35159184789E+03  0.00000000000E+00 0.  1.
<mgrwt>
<rscale>  0 0.47668299E+03</rscale>
<asrwt>0</asrwt>
<pdfrwt beam="1">  1        1 0.13482336E+00 0.47668299E+03</pdfrwt>
<pdfrwt beam="2">  1       -2 0.11454313E+00 0.47668299E+03</pdfrwt>
<totfact> 0.10560897E+01</totfact>
</mgrwt>
</event>
<event>
12    3  0.2212098E-007  0.8018074E+03  0.7818608E-02  0.9557405E-01
         -2   -1    0    0    0  501 -0.00000000000E+00  0.00000000000E+00  0.62839150306E+03  0.62839150306E+03  0.00000000000E+00 0.  1.
          1   -1    0    0  501    0  0.00000000000E+00 -0.00000000000E+00 -0.12463555916E+04  0.12463555916E+04  0.00000000000E+00 0. -1.
        -24    2    1    2    0    0 -0.46087491546E+03 -0.51592984619E+03 -0.65830040204E+03  0.95816825976E+03  0.78343479567E+02 0.  0.
    5000000    2    1    2    0    0  0.46087491546E+03  0.51592984619E+03  0.40336313500E+02  0.91657883491E+03  0.59991703471E+03 0.  0.
        -24    2    4    4    0    0  0.35797778728E+03 -0.17948545964E+02  0.27502481216E+02  0.36703614735E+03  0.74087114236E+02 0.  0.
         24    2    4    4    0    0  0.10289712817E+03  0.53387839216E+03  0.12833832284E+02  0.54954268756E+03  0.78857476535E+02 0.  0.
         13    1    5    5    0    0  0.16301983822E+03  0.12938006873E+02  0.42843305455E+02  0.16905149658E+03  0.00000000000E+00 0. -1.
        -14    1    5    5    0    0  0.19495794906E+03 -0.30886552838E+02 -0.15340824240E+02  0.19798465076E+03  0.00000000000E+00 0.  1.
         13    1    3    3    0    0 -0.31559773154E+03 -0.39999364515E+03 -0.50291753079E+03  0.71590703802E+03  0.00000000000E+00 0. -1.
        -14    1    3    3    0    0 -0.14527718391E+03 -0.11593620104E+03 -0.15538287126E+03  0.24226122174E+03  0.00000000000E+00 0.  1.
          4    1    6    6  502    0  0.33313253126E+02  0.62419856125E+02  0.17772576244E+02  0.72951187371E+02  0.00000000000E+00 0. -1.
         -3    1    6    6    0  502  0.69583875045E+02  0.47145853603E+03 -0.49387439599E+01  0.47659150019E+03  0.00000000000E+00 0.  1.
<mgrwt>
<rscale>  0 0.80180737E+03</rscale>
<asrwt>0</asrwt>
<pdfrwt beam="1">  1        1 0.19174701E+00 0.80180737E+03</pdfrwt>
<pdfrwt beam="2">  1       -2 0.96675618E-01 0.80180737E+03</pdfrwt>
<totfact> 0.79235038E+00</totfact>
</mgrwt>
</event>
<event>
12    3  0.2212098E-007  0.7629382E+03  0.7818608E-02  0.9615268E-01
          1   -1    0    0  501    0  0.00000000000E+00  0.00000000000E+00  0.75812591374E+03  0.75812591374E+03  0.00000000000E+00 0. -1.
         -2   -1    0    0    0  501 -0.00000000000E+00 -0.00000000000E+00 -0.91345608318E+03  0.91345608318E+03  0.00000000000E+00 0.  1.
        -24    2    1    2    0    0  0.59008504620E+03  0.40645398400E+03 -0.15570546745E+03  0.73719444174E+03  0.76198749823E+02 0.  0.
    5000000    2    1    2    0    0 -0.59008504620E+03 -0.40645398400E+03  0.37529800282E+00  0.93438755518E+03  0.59972890507E+03 0.  0.
        -24    2    4    4    0    0  0.15701465712E+02 -0.85857867798E+01  0.16718624730E+03  0.18619026594E+03  0.79970757693E+02 0.  0.
         24    2    4    4    0    0 -0.60578651191E+03 -0.39786819722E+03 -0.16681094929E+03  0.74819728924E+03  0.81834530933E+02 0.  0.
         13    1    5    5    0    0  0.52010819349E+01  0.34760719932E+02  0.95496675794E+02  0.10175939264E+03  0.00000000000E+00 0. -1.
        -14    1    5    5    0    0  0.10500383777E+02 -0.43346506712E+02  0.71689571501E+02  0.84430873296E+02  0.00000000000E+00 0.  1.
         13    1    3    3    0    0  0.31999630911E+03  0.18805185559E+03 -0.10824226020E+03  0.38662323408E+03  0.00000000000E+00 0. -1.
        -14    1    3    3    0    0  0.27008873709E+03  0.21840212841E+03 -0.47463207249E+02  0.35057120766E+03  0.00000000000E+00 0.  1.
          4    1    6    6  502    0 -0.38382903123E+03 -0.21436593361E+03 -0.12597829357E+03  0.45732702649E+03  0.00000000000E+00 0. -1.
         -3    1    6    6    0  502 -0.22195748069E+03 -0.18350226361E+03 -0.40832655721E+02  0.29087026276E+03  0.00000000000E+00 0.  1.
<mgrwt>
<rscale>  0 0.76293820E+03</rscale>
<asrwt>0</asrwt>
<pdfrwt beam="1">  1        1 0.11663476E+00 0.76293820E+03</pdfrwt>
<pdfrwt beam="2">  1       -2 0.14053170E+00 0.76293820E+03</pdfrwt>
<totfact> 0.76566106E+00</totfact>
</mgrwt>
</event>
<event>
12    3  0.2212098E-007  0.1460462E+04  0.7818608E-02  0.8911180E-01
          1   -1    0    0  501    0  0.00000000000E+00  0.00000000000E+00  0.11663115526E+04  0.11663115526E+04  0.00000000000E+00 0. -1.
         -2   -1    0    0    0  501 -0.00000000000E+00 -0.00000000000E+00 -0.25326795148E+04  0.25326795148E+04  0.00000000000E+00 0.  1.
        -24    2    1    2    0    0 -0.10799587839E+04  0.95495380024E+03  0.23434435544E+03  0.14628415813E+04  0.82100424208E+02 0.  0.
    5000000    2    1    2    0    0  0.10799587839E+04 -0.95495380024E+03 -0.16007123177E+04  0.22361494861E+04  0.59986403841E+03 0.  0.
        -24    2    4    4    0    0  0.10115983530E+03 -0.24752075055E+03 -0.61400750672E+03  0.67450870119E+03  0.80355058630E+02 0.  0.
         24    2    4    4    0    0  0.97879894857E+03 -0.70743304968E+03 -0.98670481097E+03  0.15616407849E+04  0.81404271843E+02 0.  0.
         11    1    5    5    0    0  0.54912004838E+02 -0.87712946896E+02 -0.32453956014E+03  0.34063883429E+03  0.00000000000E+00 0. -1.
        -12    1    5    5    0    0  0.46247830466E+02 -0.15980780366E+03 -0.28946794658E+03  0.33386986690E+03  0.00000000000E+00 0.  1.
         11    1    3    3    0    0 -0.27055104808E+03  0.23987599417E+03  0.95036392032E+02  0.37385863372E+03  0.00000000000E+00 0. -1.
        -12    1    3    3    0    0 -0.80940773579E+03  0.71507780607E+03  0.13930796340E+03  0.10889829476E+04  0.00000000000E+00 0.  1.
          4    1    6    6  502    0  0.60969905830E+03 -0.47941037699E+03 -0.66246157769E+03  0.10200110750E+04  0.00000000000E+00 0. -1.
         -3    1    6    6    0  502  0.36909989028E+03 -0.22802267270E+03 -0.32424323328E+03  0.54162970985E+03  0.00000000000E+00 0.  1.
<mgrwt>
<rscale>  0 0.14604619E+04</rscale>
<asrwt>0</asrwt>
<pdfrwt beam="1">  1        1 0.17943255E+00 0.14604619E+04</pdfrwt>
<pdfrwt beam="2">  1       -2 0.38964300E+00 0.14604619E+04</pdfrwt>
<totfact> 0.81952944E-02</totfact>
</mgrwt>
</event>
<event>
12    3  0.2212098E-007  0.9840887E+03  0.7818608E-02  0.9326170E-01
          1   -1    0    0  501    0  0.00000000000E+00  0.00000000000E+00  0.22661151694E+04  0.22661151694E+04  0.00000000000E+00 0. -1.
         -2   -1    0    0    0  501 -0.00000000000E+00 -0.00000000000E+00 -0.50170411557E+03  0.50170411557E+03  0.00000000000E+00 0.  1.
        -24    2    1    2    0    0 -0.88785744854E+03  0.40774773149E+03  0.91339807142E+03  0.13399482019E+04  0.81339323296E+02 0.  0.
    5000000    2    1    2    0    0  0.88785744854E+03 -0.40774773149E+03  0.85101298238E+03  0.14278710830E+04  0.60003639228E+03 0.  0.
        -24    2    4    4    0    0  0.63725730348E+03 -0.36494190708E+03  0.89200071693E+03  0.11581647782E+04  0.80005675706E+02 0.  0.
         24    2    4    4    0    0  0.25060014506E+03 -0.42805824408E+02 -0.40987734554E+02  0.26970630478E+03  0.80179331165E+02 0.  0.
         11    1    3    3    0    0 -0.61818042171E+03  0.30328606681E+03  0.68692258822E+03  0.97262125944E+03  0.00000000000E+00 0. -1.
        -12    1    3    3    0    0 -0.26967702683E+03  0.10446166468E+03  0.22647548320E+03  0.36732694249E+03  0.00000000000E+00 0.  1.
         11    1    5    5    0    0  0.22650495342E+03 -0.15846877537E+03  0.38218876349E+03  0.47168325985E+03  0.00000000000E+00 0. -1.
        -12    1    5    5    0    0  0.41075235006E+03 -0.20647313172E+03  0.50981195345E+03  0.68648151838E+03  0.00000000000E+00 0.  1.
          2    1    6    6  502    0  0.11559908394E+03 -0.18494025057E+02 -0.59445818788E+02  0.13129730592E+03  0.00000000000E+00 0. -1.
         -1    1    6    6    0  502  0.13500106112E+03 -0.24311799351E+02  0.18458084235E+02  0.13840899886E+03  0.00000000000E+00 0.  1.
<mgrwt>
<rscale>  0 0.98408867E+03</rscale>
<asrwt>0</asrwt>
<pdfrwt beam="1">  1        1 0.34863310E+00 0.98408867E+03</pdfrwt>
<pdfrwt beam="2">  1       -2 0.77185250E-01 0.98408867E+03</pdfrwt>
<totfact> 0.26166698E+00</totfact>
</mgrwt>
</event>
<event>
12    3  0.2212098E-007  0.9516708E+03  0.7818608E-02  0.9363200E-01
          1   -1    0    0  501    0  0.00000000000E+00  0.00000000000E+00  0.24547570219E+04  0.24547570219E+04  0.00000000000E+00 0. -1.
         -2   -1    0    0    0  501 -0.00000000000E+00 -0.00000000000E+00 -0.44925535561E+03  0.44925535561E+03  0.00000000000E+00 0.  1.
        -24    2    1    2    0    0 -0.47323656228E+03 -0.76356807365E+03  0.44521040579E+03  0.10062032040E+04  0.85108961005E+02 0.  0.
    5000000    2    1    2    0    0  0.47323656228E+03  0.76356807365E+03  0.15602912605E+04  0.18978091736E+04  0.60015147644E+03 0.  0.
        -24    2    4    4    0    0 -0.58033700758E+02  0.14365061592E+03  0.80169917515E+02  0.20533083055E+03  0.10830569894E+03 0.  0.
         24    2    4    4    0    0  0.53127026304E+03  0.61991745773E+03  0.14801213430E+04  0.16924783430E+04  0.84723106618E+02 0.  0.
         13    1    5    5    0    0 -0.77780546055E+02  0.14730504505E+03  0.60514041229E+02  0.17723018600E+03  0.00000000000E+00 0. -1.
        -14    1    5    5    0    0  0.19746845297E+02 -0.36544291392E+01  0.19655876286E+02  0.28100644550E+02  0.00000000000E+00 0.  1.
         13    1    3    3    0    0 -0.53993268130E+02 -0.11222240538E+03  0.92189970140E+02  0.15494557711E+03  0.00000000000E+00 0. -1.
        -14    1    3    3    0    0 -0.41924329415E+03 -0.65134566827E+03  0.35302043565E+03  0.85125762684E+03  0.00000000000E+00 0.  1.
          4    1    6    6  502    0  0.51408321580E+03  0.58616290822E+03  0.14385089442E+04  0.16362079606E+04  0.00000000000E+00 0. -1.
         -3    1    6    6    0  502  0.17187047234E+02  0.33754549516E+02  0.41612398820E+02  0.56270382451E+02  0.00000000000E+00 0.  1.
<mgrwt>
<rscale>  0 0.95167076E+03</rscale>
<asrwt>0</asrwt>
<pdfrwt beam="1">  1        1 0.37765492E+00 0.95167076E+03</pdfrwt>
<pdfrwt beam="2">  1       -2 0.69116210E-01 0.95167076E+03</pdfrwt>
<totfact> 0.24965527E+00</totfact>
</mgrwt>
</event>
<event>
12    3  0.2212098E-007  0.5243324E+03  0.7818608E-02  0.1007616E+00
          1   -1    0    0  501    0  0.00000000000E+00  0.00000000000E+00  0.15903584405E+04  0.15903584405E+04  0.00000000000E+00 0. -1.
         -2   -1    0    0    0  501 -0.00000000000E+00 -0.00000000000E+00 -0.97120708884E+03  0.97120708884E+03  0.00000000000E+00 0.  1.
        -24    2    1    2    0    0  0.39446300331E+03  0.26226416672E+03  0.13930978833E+04  0.14735710693E+04  0.79413031261E+02 0.  0.
    5000000    2    1    2    0    0 -0.39446300331E+03 -0.26226416672E+03 -0.77394653162E+03  0.10879944601E+04  0.60029589146E+03 0.  0.
        -24    2    4    4    0    0 -0.35734186632E+03 -0.71674167123E+02 -0.10611405133E+03  0.38812705245E+03  0.80944556947E+02 0.  0.
         24    2    4    4    0    0 -0.37121136991E+02 -0.19058999959E+03 -0.66783248029E+03  0.69986740766E+03  0.78176977558E+02 0.  0.
         11    1    5    5    0    0 -0.32421197081E+03 -0.66723030734E+02 -0.11969158814E+03  0.35198216023E+03  0.00000000000E+00 0. -1.
        -12    1    5    5    0    0 -0.33129895509E+02 -0.49511363894E+01  0.13577536814E+02  0.36144892225E+02  0.00000000000E+00 0.  1.
         13    1    3    3    0    0  0.11907779033E+03  0.11316250102E+03  0.55840152554E+03  0.58206317141E+03  0.00000000000E+00 0. -1.
        -14    1    3    3    0    0  0.27538521298E+03  0.14910166570E+03  0.83469635777E+03  0.89150789785E+03  0.00000000000E+00 0.  1.
          4    1    6    6  502    0 -0.58565667039E+02 -0.13563492221E+03 -0.42405332557E+03  0.44905232702E+03  0.00000000000E+00 0. -1.
         -3    1    6    6    0  502  0.21444530048E+02 -0.54955077384E+02 -0.24377915473E+03  0.25081508064E+03  0.00000000000E+00 0.  1.
<mgrwt>
<rscale>  0 0.52433237E+03</rscale>
<asrwt>0</asrwt>
<pdfrwt beam="1">  1        1 0.24467053E+00 0.52433237E+03</pdfrwt>
<pdfrwt beam="2">  1       -2 0.14941648E+00 0.52433237E+03</pdfrwt>
<totfact> 0.16369478E+00</totfact>
</mgrwt>
</event>
<event>
12    3  0.2212098E-007  0.9634188E+03  0.7818608E-02  0.9349602E-01
         -2   -1    0    0    0  501 -0.00000000000E+00  0.00000000000E+00  0.11032979225E+04  0.11032979225E+04  0.00000000000E+00 0.  1.
          1   -1    0    0  501    0  0.00000000000E+00 -0.00000000000E+00 -0.11338442742E+04  0.11338442742E+04  0.00000000000E+00 0. -1.
        -24    2    1    2    0    0  0.79484298540E+03  0.40330784649E+03  0.51488195411E+03  0.10322431327E+04  0.77394236418E+02 0.  0.
    5000000    2    1    2    0    0 -0.79484298540E+03 -0.40330784649E+03 -0.54542830579E+03  0.12048990640E+04  0.59988092741E+03 0.  0.
        -24    2    4    4    0    0 -0.27315513455E+03 -0.42550309250E+03 -0.42058083803E+03  0.66214967992E+03  0.76729056061E+02 0.  0.
         24    2    4    4    0    0 -0.52168785085E+03  0.22195246002E+02 -0.12484746776E+03  0.54274938403E+03  0.79618848203E+02 0.  0.
         11    1    3    3    0    0  0.56859684059E+03  0.29942123469E+03  0.33183928856E+03  0.72323769008E+03  0.00000000000E+00 0. -1.
        -12    1    3    3    0    0  0.22624614481E+03  0.10388661180E+03  0.18304266555E+03  0.30900544261E+03  0.00000000000E+00 0.  1.
         11    1    5    5    0    0 -0.14425238022E+03 -0.29151386283E+03 -0.25772011015E+03  0.41498040508E+03  0.00000000000E+00 0. -1.
        -12    1    5    5    0    0 -0.12890275433E+03 -0.13398922966E+03 -0.16286072788E+03  0.24716927484E+03  0.00000000000E+00 0.  1.
          2    1    6    6  502    0 -0.38672860761E+03 -0.32760099571E+01 -0.61882483037E+02  0.39166208636E+03  0.00000000000E+00 0. -1.
         -1    1    6    6    0  502 -0.13495924324E+03  0.25471255959E+02 -0.62964984722E+02  0.15108729767E+03  0.00000000000E+00 0.  1.
<mgrwt>
<rscale>  0 0.96341878E+03</rscale>
<asrwt>0</asrwt>
<pdfrwt beam="1">  1        1 0.17443758E+00 0.96341878E+03</pdfrwt>
<pdfrwt beam="2">  1       -2 0.16973814E+00 0.96341878E+03</pdfrwt>
<totfact> 0.22455378E+00</totfact>
</mgrwt>
</event>
<event>
12    3  0.2212098E-007  0.3716640E+03  0.7818608E-02  0.1054059E+00
          1   -1    0    0  501    0  0.00000000000E+00  0.00000000000E+00  0.19285091127E+04  0.19285091127E+04  0.00000000000E+00 0. -1.
         -2   -1    0    0    0  501 -0.00000000000E+00 -0.00000000000E+00 -0.82883661456E+02  0.82883661456E+02  0.00000000000E+00 0.  1.
        -24    2    1    2    0    0 -0.20940264337E+02  0.15096158611E+03  0.54042733966E+03  0.56685661116E+03  0.77696930507E+02 0.  0.
    5000000    2    1    2    0    0  0.20940264337E+02 -0.15096158611E+03  0.13051981116E+04  0.14445361630E+04  0.59992892960E+03 0.  0.
        -24    2    4    4    0    0 -0.20268881165E+03 -0.26218676147E+03  0.90057829995E+03  0.96297166429E+03  0.80302550561E+02 0.  0.
         24    2    4    4    0    0  0.22362907599E+03  0.11122517536E+03  0.40461981161E+03  0.48156449868E+03  0.76198236076E+02 0.  0.
         13    1    3    3    0    0 -0.39189799765E+02  0.11038218166E+03  0.46269184900E+03  0.47728797760E+03  0.00000000000E+00 0. -1.
        -14    1    3    3    0    0  0.18249535427E+02  0.40579404448E+02  0.77735490664E+02  0.89568633558E+02  0.00000000000E+00 0.  1.
         13    1    5    5    0    0 -0.18852318579E+03 -0.25034186447E+03  0.88487862431E+03  0.93873437162E+03  0.00000000000E+00 0. -1.
        -14    1    5    5    0    0 -0.14165625868E+02 -0.11844897001E+02  0.15699675639E+02  0.24237292678E+02  0.00000000000E+00 0.  1.
          2    1    6    6  502    0  0.21194636892E+03  0.10700231743E+03  0.33357823265E+03  0.40944498596E+03  0.00000000000E+00 0. -1.
         -3    1    6    6    0  502  0.11682707075E+02  0.42228579321E+01  0.71041578963E+02  0.72119512722E+02  0.00000000000E+00 0.  1.
<mgrwt>
<rscale>  0 0.37166396E+03</rscale>
<asrwt>0</asrwt>
<pdfrwt beam="1">  1        1 0.29669368E+00 0.37166396E+03</pdfrwt>
<pdfrwt beam="2">  1       -2 0.12751334E-01 0.37166396E+03</pdfrwt>
<totfact> 0.14522680E+02</totfact>
</mgrwt>
</event>
<event>
12    3  0.2212098E-007  0.9645191E+03  0.7818608E-02  0.9348339E-01
         -2   -1    0    0    0  501 -0.00000000000E+00  0.00000000000E+00  0.44450831729E+03  0.44450831729E+03  0.00000000000E+00 0.  1.
          1   -1    0    0  501    0  0.00000000000E+00 -0.00000000000E+00 -0.24657401585E+04  0.24657401585E+04  0.00000000000E+00 0. -1.
        -24    2    1    2    0    0 -0.75400662406E+03 -0.49044165832E+03 -0.46527260176E+03  0.10155127978E+04  0.75687774317E+02 0.  0.
    5000000    2    1    2    0    0  0.75400662406E+03  0.49044165832E+03 -0.15559592395E+04  0.18947356780E+04  0.59996260333E+03 0.  0.
        -24    2    4    4    0    0  0.62973154942E+03  0.58959190525E+03 -0.14488726995E+04  0.16881269043E+04  0.79749023441E+02 0.  0.
         24    2    4    4    0    0  0.12427507463E+03 -0.99150246940E+02 -0.10708653999E+03  0.20660877370E+03  0.77101184690E+02 0.  0.
         13    1    5    5    0    0  0.44769499079E+03  0.41409527942E+03 -0.95126677751E+03  0.11299620291E+04  0.00000000000E+00 0. -1.
        -14    1    5    5    0    0  0.18203655864E+03  0.17549662584E+03 -0.49760592198E+03  0.55816487523E+03  0.00000000000E+00 0.  1.
         13    1    3    3    0    0 -0.20520792702E+03 -0.15633000786E+03 -0.16568623680E+03  0.30659630417E+03  0.00000000000E+00 0. -1.
        -14    1    3    3    0    0 -0.54879869704E+03 -0.33411165046E+03 -0.29958636496E+03  0.70891649361E+03  0.00000000000E+00 0.  1.
          4    1    6    6  502    0  0.70347509964E+02 -0.84566804940E+02 -0.10283368125E+03  0.15058247792E+03  0.00000000000E+00 0. -1.
         -3    1    6    6    0  502  0.53927564671E+02 -0.14583442000E+02 -0.42528587335E+01  0.56026295784E+02  0.00000000000E+00 0.  1.
<mgrwt>
<rscale>  0 0.96451913E+03</rscale>
<asrwt>0</asrwt>
<pdfrwt beam="1">  1        1 0.37934464E+00 0.96451913E+03</pdfrwt>
<pdfrwt beam="2">  1       -2 0.68385896E-01 0.96451913E+03</pdfrwt>
<totfact> 0.25066902E+00</totfact>
</mgrwt>
</event>
<event>
12    3  0.2212098E-007  0.7564997E+03  0.7818608E-02  0.9625208E-01
          3   -1    0    0  501    0  0.00000000000E+00  0.00000000000E+00  0.45395758046E+03  0.45395758046E+03  0.00000000000E+00 0. -1.
         -4   -1    0    0    0  501 -0.00000000000E+00 -0.00000000000E+00 -0.13337438891E+04  0.13337438891E+04  0.00000000000E+00 0.  1.
        -24    2    1    2    0    0  0.44378634198E+03  0.47917769459E+03 -0.48014025190E+03  0.81489158618E+03  0.83402970075E+02 0.  0.
    5000000    2    1    2    0    0 -0.44378634198E+03 -0.47917769459E+03 -0.39964605673E+03  0.97280988336E+03  0.60007042769E+03 0.  0.
        -24    2    4    4    0    0 -0.72747852334E+01  0.10300447938E+03  0.14224243335E+02  0.13208631166E+03  0.81127180140E+02 0.  0.
         24    2    4    4    0    0 -0.43651155675E+03 -0.58218217396E+03 -0.41387030006E+03  0.84072357170E+03  0.77775805271E+02 0.  0.
         11    1    3    3    0    0  0.18079230936E+03  0.18957834138E+03 -0.24371271681E+03  0.35780119477E+03  0.00000000000E+00 0. -1.
        -12    1    3    3    0    0  0.26299403262E+03  0.28959935321E+03 -0.23642753508E+03  0.45709039141E+03  0.00000000000E+00 0.  1.
         13    1    5    5    0    0  0.35106597876E+02  0.65675459883E+02  0.31658603096E+01  0.74536983551E+02  0.00000000000E+00 0. -1.
        -14    1    5    5    0    0 -0.42381383110E+02  0.37329019492E+02  0.11058383026E+02  0.57549328108E+02  0.00000000000E+00 0.  1.
          4    1    6    6  502    0 -0.74547326597E+02 -0.12789489147E+03 -0.11520173680E+03  0.18757890960E+03  0.00000000000E+00 0. -1.
         -3    1    6    6    0  502 -0.36196423015E+03 -0.45428728250E+03 -0.29866856326E+03  0.65314466210E+03  0.00000000000E+00 0.  1.
<mgrwt>
<rscale>  0 0.75649967E+03</rscale>
<asrwt>0</asrwt>
<pdfrwt beam="1">  1        3 0.69839628E-01 0.75649967E+03</pdfrwt>
<pdfrwt beam="2">  1       -4 0.20519137E+00 0.75649967E+03</pdfrwt>
<totfact> 0.54136706E-01</totfact>
</mgrwt>
</event>
<event>
12    3  0.2212098E-007  0.1045268E+04  0.7818608E-02  0.9260243E-01
          1   -1    0    0  501    0  0.00000000000E+00  0.00000000000E+00  0.13591596922E+04  0.13591596922E+04  0.00000000000E+00 0. -1.
         -2   -1    0    0    0  501 -0.00000000000E+00 -0.00000000000E+00 -0.93682385604E+03  0.93682385604E+03  0.00000000000E+00 0.  1.
        -24    2    1    2    0    0 -0.74727944808E+03 -0.71875815816E+03  0.34393178071E+03  0.10955031192E+04  0.82450900424E+02 0.  0.
    5000000    2    1    2    0    0  0.74727944808E+03  0.71875815816E+03  0.78404055479E+02  0.12004804291E+04  0.59997183367E+03 0.  0.
        -24    2    4    4    0    0  0.33186075459E+03  0.41915863990E+03 -0.24100068095E+03  0.59161169310E+03  0.78086755324E+02 0.  0.
         24    2    4    4    0    0  0.41541869350E+03  0.29959951826E+03  0.31940473643E+03  0.60886873596E+03  0.79807203477E+02 0.  0.
         11    1    3    3    0    0 -0.13576275742E+03 -0.13028344097E+03  0.29563240986E+02  0.19047122226E+03  0.00000000000E+00 0. -1.
        -12    1    3    3    0    0 -0.61151669066E+03 -0.58847471719E+03  0.31436853973E+03  0.90503189695E+03  0.00000000000E+00 0.  1.
         11    1    5    5    0    0  0.31023423411E+03  0.37899156097E+03 -0.19601576691E+03  0.52754342398E+03  0.00000000000E+00 0. -1.
        -12    1    5    5    0    0  0.21626520476E+02  0.40167078929E+02 -0.44984914040E+02  0.64068269125E+02  0.00000000000E+00 0.  1.
          4    1    6    6  502    0  0.99793473959E+02  0.11654817625E+03  0.98936611551E+02  0.18256688620E+03  0.00000000000E+00 0. -1.
         -3    1    6    6    0  502  0.31562521954E+03  0.18305134201E+03  0.22046812488E+03  0.42630184976E+03  0.00000000000E+00 0.  1.
<mgrwt>
<rscale>  0 0.10452682E+04</rscale>
<asrwt>0</asrwt>
<pdfrwt beam="1">  1        1 0.20910149E+00 0.10452682E+04</pdfrwt>
<pdfrwt beam="2">  1       -2 0.14412675E+00 0.10452682E+04</pdfrwt>
<totfact> 0.23785568E+00</totfact>
</mgrwt>
</event>
<event>
12    3  0.2212098E-007  0.4604805E+03  0.7818608E-02  0.1024642E+00
          1   -1    0    0  501    0  0.00000000000E+00  0.00000000000E+00  0.22339083286E+04  0.22339083286E+04  0.00000000000E+00 0. -1.
         -2   -1    0    0    0  501 -0.00000000000E+00 -0.00000000000E+00 -0.28353686369E+03  0.28353686369E+03  0.00000000000E+00 0.  1.
        -24    2    1    2    0    0  0.27359582730E+03  0.31209841320E+02  0.18226625691E+04  0.18451543541E+04  0.81651814049E+02 0.  0.
    5000000    2    1    2    0    0 -0.27359582730E+03 -0.31209841320E+02  0.12770889581E+03  0.67229083819E+03  0.59986388300E+03 0.  0.
        -24    2    4    4    0    0 -0.31833260472E+03  0.20976069626E+03  0.12483357263E+02  0.39022323929E+03  0.82359852795E+02 0.  0.
         24    2    4    4    0    0  0.44736777421E+02 -0.24097053758E+03  0.11522553855E+03  0.28206759889E+03  0.78848122212E+02 0.  0.
         11    1    3    3    0    0  0.12329437208E+03  0.49905591021E+02  0.72627242052E+03  0.73835201564E+03  0.00000000000E+00 0. -1.
        -12    1    3    3    0    0  0.15030145522E+03 -0.18695749700E+02  0.10963901485E+04  0.11068023384E+04  0.00000000000E+00 0.  1.
         13    1    5    5    0    0 -0.77290466304E+02  0.80806836765E+02 -0.24189167317E+02  0.11440575538E+03  0.00000000000E+00 0. -1.
        -14    1    5    5    0    0 -0.24104213842E+03  0.12895385949E+03  0.36672524579E+02  0.27581748391E+03  0.00000000000E+00 0.  1.
          4    1    6    6  502    0  0.65266332101E+00 -0.15206775667E+03  0.39146288092E+02  0.15702694183E+03  0.00000000000E+00 0. -1.
         -3    1    6    6    0  502  0.44084114100E+02 -0.88902780906E+02  0.76079250458E+02  0.12504065706E+03  0.00000000000E+00 0.  1.
<mgrwt>
<rscale>  0 0.46048052E+03</rscale>
<asrwt>0</asrwt>
<pdfrwt beam="1">  1        1 0.34367819E+00 0.46048052E+03</pdfrwt>
<pdfrwt beam="2">  1       -2 0.43621057E-01 0.46048052E+03</pdfrwt>
<totfact> 0.10006458E+01</totfact>
</mgrwt>
</event>
<event>
12    3  0.2212098E-007  0.4195573E+03  0.7818608E-02  0.1037210E+00
         -2   -1    0    0    0  501 -0.00000000000E+00  0.00000000000E+00  0.66026001349E+03  0.66026001349E+03  0.00000000000E+00 0.  1.
          1   -1    0    0  501    0  0.00000000000E+00 -0.00000000000E+00 -0.46705324615E+03  0.46705324615E+03  0.00000000000E+00 0. -1.
        -24    2    1    2    0    0  0.18268602385E+03 -0.86553795765E+02  0.40530447525E+03  0.45973526921E+03  0.78860999364E+02 0.  0.
    5000000    2    1    2    0    0 -0.18268602385E+03  0.86553795765E+02 -0.21209770792E+03  0.66757799043E+03  0.59984097287E+03 0.  0.
        -24    2    4    4    0    0 -0.32551821318E+03  0.23804405071E+03 -0.16844566789E+03  0.44392905310E+03  0.77922936062E+02 0.  0.
         24    2    4    4    0    0  0.14283218932E+03 -0.15149025495E+03 -0.43652040024E+02  0.22364893734E+03  0.69014599339E+02 0.  0.
         11    1    3    3    0    0  0.11167719783E+03 -0.89903053243E+02  0.30239874546E+03  0.33466304958E+03  0.00000000000E+00 0. -1.
        -12    1    3    3    0    0  0.71008826020E+02  0.33492574787E+01  0.10290572980E+03  0.12507221963E+03  0.00000000000E+00 0.  1.
         11    1    5    5    0    0 -0.22037502592E+03  0.20357590891E+03 -0.12661354491E+03  0.32563674930E+03  0.00000000000E+00 0. -1.
        -12    1    5    5    0    0 -0.10514318726E+03  0.34468141803E+02 -0.41832122982E+02  0.11829230380E+03  0.00000000000E+00 0.  1.
          4    1    6    6  502    0  0.28244537498E+02 -0.61300929890E+01 -0.23899636226E+02  0.37503660491E+02  0.00000000000E+00 0. -1.
         -3    1    6    6    0  502  0.11458765183E+03 -0.14536016196E+03 -0.19752403799E+02  0.18614527684E+03  0.00000000000E+00 0.  1.
<mgrwt>
<rscale>  0 0.41955734E+03</rscale>
<asrwt>0</asrwt>
<pdfrwt beam="1">  1        1 0.71854346E-01 0.41955734E+03</pdfrwt>
<pdfrwt beam="2">  1       -2 0.10157846E+00 0.41955734E+03</pdfrwt>
<totfact> 0.35574867E+01</totfact>
</mgrwt>
</event>
<event>
12    3  0.2212098E-007  0.6432461E+03  0.7818608E-02  0.9819536E-01
         -2   -1    0    0    0  501 -0.00000000000E+00  0.00000000000E+00  0.36882853355E+03  0.36882853355E+03  0.00000000000E+00 0.  1.
          1   -1    0    0  501    0  0.00000000000E+00 -0.00000000000E+00 -0.11960919554E+04  0.11960919554E+04  0.00000000000E+00 0. -1.
        -24    2    1    2    0    0  0.49208421786E+03 -0.15184743049E+03 -0.45185501298E+03  0.68959019045E+03  0.78467562651E+02 0.  0.
    5000000    2    1    2    0    0 -0.49208421786E+03  0.15184743049E+03 -0.37540840892E+03  0.87533029854E+03  0.60005594609E+03 0.  0.
        -24    2    4    4    0    0 -0.75039959014E+01 -0.17654447562E+03 -0.48945893781E+02  0.19994246226E+03  0.79730959290E+02 0.  0.
         24    2    4    4    0    0 -0.48458022196E+03  0.32839190611E+03 -0.32646251514E+03  0.67538783628E+03  0.83136755349E+02 0.  0.
         13    1    3    3    0    0  0.29570813445E+03 -0.13011719940E+03 -0.26935877048E+03  0.42062802284E+03  0.00000000000E+00 0. -1.
        -14    1    3    3    0    0  0.19637608341E+03 -0.21730231092E+02 -0.18249624250E+03  0.26896216761E+03  0.00000000000E+00 0.  1.
         13    1    5    5    0    0  0.84031867517E+01 -0.13859939237E+03 -0.38639632273E+01  0.13890765034E+03  0.00000000000E+00 0. -1.
        -14    1    5    5    0    0 -0.15907182653E+02 -0.37945083253E+02 -0.45081930553E+02  0.61034811915E+02  0.00000000000E+00 0.  1.
          4    1    6    6  502    0 -0.17254223938E+03  0.10334739782E+03 -0.69738952339E+02  0.21287327329E+03  0.00000000000E+00 0. -1.
         -3    1    6    6    0  502 -0.31203798258E+03  0.22504450829E+03 -0.25672356280E+03  0.46251456299E+03  0.00000000000E+00 0.  1.
<mgrwt>
<rscale>  0 0.64324612E+03</rscale>
<asrwt>0</asrwt>
<pdfrwt beam="1">  1        1 0.18401415E+00 0.64324612E+03</pdfrwt>
<pdfrwt beam="2">  1       -2 0.56742852E-01 0.64324612E+03</pdfrwt>
<totfact> 0.28520335E+01</totfact>
</mgrwt>
</event>
<event>
12    3  0.2413841E-007  0.1349509E+04  0.7818608E-02  0.8991200E-01
         -2   -1    0    0    0  501 -0.00000000000E+00  0.00000000000E+00  0.11890606004E+04  0.11890606004E+04  0.00000000000E+00 0.  1.
          1   -1    0    0  501    0  0.00000000000E+00 -0.00000000000E+00 -0.19890891709E+04  0.19890891709E+04  0.00000000000E+00 0. -1.
        -24    2    1    2    0    0 -0.79134178787E+03  0.10346902720E+04  0.33680042937E+03  0.13479139419E+04  0.81435135624E+02 0.  0.
    5000000    2    1    2    0    0  0.79134178787E+03 -0.10346902720E+04 -0.11368289999E+04  0.18302358294E+04  0.60048083412E+03 0.  0.
        -24    2    4    4    0    0  0.83070008322E+03 -0.10065992261E+04 -0.93331819038E+03  0.16062963678E+04  0.76161319139E+02 0.  0.
         24    2    4    4    0    0 -0.39358295353E+02 -0.28091045937E+02 -0.20351080950E+03  0.22393946162E+03  0.79962807700E+02 0.  0.
         11    1    5    5    0    0  0.55379168121E+03 -0.70899172972E+03 -0.61095160802E+03  0.10874816625E+04  0.00000000000E+00 0. -1.
        -12    1    5    5    0    0  0.27690840201E+03 -0.29760749634E+03 -0.32236658236E+03  0.51881470527E+03  0.00000000000E+00 0.  1.
         13    1    3    3    0    0 -0.34634832427E+03  0.51832712906E+03  0.16968396614E+03  0.64607493591E+03  0.00000000000E+00 0. -1.
        -14    1    3    3    0    0 -0.44499346360E+03  0.51636314294E+03  0.16711646323E+03  0.70183900598E+03  0.00000000000E+00 0.  1.
          2    1    6    6  502    0 -0.44175490956E+02 -0.49228263661E+02 -0.11360854520E+03  0.13146025060E+03  0.00000000000E+00 0. -1.
         -1    1    6    6    0  502  0.48171956029E+01  0.21137217724E+02 -0.89902264298E+02  0.92479211029E+02  0.00000000000E+00 0.  1.
<mgrwt>
<rscale>  0 0.13495089E+04</rscale>
<asrwt>0</asrwt>
<pdfrwt beam="1">  1        1 0.30601372E+00 0.13495089E+04</pdfrwt>
<pdfrwt beam="2">  1       -2 0.18293240E+00 0.13495089E+04</pdfrwt>
<totfact> 0.44106023E-01</totfact>
</mgrwt>
</event>
<event>
12    3  0.2212098E-007  0.8830353E+03  0.7818608E-02  0.9447040E-01
          3   -1    0    0  501    0  0.00000000000E+00  0.00000000000E+00  0.10766335905E+04  0.10766335905E+04  0.00000000000E+00 0. -1.
         -4   -1    0    0    0  501 -0.00000000000E+00 -0.00000000000E+00 -0.74711328269E+03  0.74711328269E+03  0.00000000000E+00 0.  1.
        -24    2    1    2    0    0 -0.44109116147E+03  0.64789569735E+03  0.27877195231E+03  0.83539828970E+03  0.76460798227E+02 0.  0.
    5000000    2    1    2    0    0  0.44109116147E+03 -0.64789569735E+03  0.50748355449E+02  0.98834858345E+03  0.59993939648E+03 0.  0.
        -24    2    4    4    0    0  0.54779662272E+03 -0.65337727821E+03  0.51445244668E+02  0.85806782328E+03  0.81552244561E+02 0.  0.
         24    2    4    4    0    0 -0.10670546125E+03  0.54815808600E+01 -0.69688921914E+00  0.13028076017E+03  0.74541851511E+02 0.  0.
         13    1    3    3    0    0 -0.22201711651E+03  0.32659062083E+03  0.18100022854E+03  0.43441238055E+03  0.00000000000E+00 0. -1.
        -14    1    3    3    0    0 -0.21907404496E+03  0.32130507652E+03  0.97771723771E+02  0.40098590916E+03  0.00000000000E+00 0.  1.
         13    1    5    5    0    0  0.30541194302E+03 -0.41738475631E+03  0.51751666436E+02  0.51977372453E+03  0.00000000000E+00 0. -1.
        -14    1    5    5    0    0  0.24238467970E+03 -0.23599252191E+03 -0.30642176787E+00  0.33829409875E+03  0.00000000000E+00 0.  1.
          2    1    6    6  502    0 -0.94305015531E+02  0.30296878320E+02  0.11991836200E+02  0.99775452520E+02  0.00000000000E+00 0. -1.
         -1    1    6    6    0  502 -0.12400445720E+02 -0.24815297460E+02 -0.12688725419E+02  0.30505307650E+02  0.00000000000E+00 0.  1.
<mgrwt>
<rscale>  0 0.88303532E+03</rscale>
<asrwt>0</asrwt>
<pdfrwt beam="1">  1        3 0.16563594E+00 0.88303532E+03</pdfrwt>
<pdfrwt beam="2">  1       -4 0.11494051E+00 0.88303532E+03</pdfrwt>
<totfact> 0.32769753E-01</totfact>
</mgrwt>
</event>
<event>
12    3  0.2212098E-007  0.9417736E+03  0.7818608E-02  0.9374818E-01
         -2   -1    0    0    0  501 -0.00000000000E+00  0.00000000000E+00  0.89967251758E+03  0.89967251758E+03  0.00000000000E+00 0.  1.
          1   -1    0    0  501    0  0.00000000000E+00 -0.00000000000E+00 -0.11099952653E+04  0.11099952653E+04  0.00000000000E+00 0. -1.
        -24    2    1    2    0    0  0.64229965004E+03  0.59067300498E+03 -0.34543307087E+03  0.94209336409E+03  0.82294963166E+02 0.  0.
    5000000    2    1    2    0    0 -0.64229965004E+03 -0.59067300498E+03  0.13511032319E+03  0.10675744187E+04  0.60001408390E+03 0.  0.
        -24    2    4    4    0    0 -0.40893610524E+03 -0.63988350809E+03  0.23201465563E+03  0.79805263649E+03  0.79859677442E+02 0.  0.
         24    2    4    4    0    0 -0.23336354479E+03  0.49210503110E+02 -0.96904332440E+02  0.26952178225E+03  0.79820572594E+02 0.  0.
         11    1    3    3    0    0  0.15756338986E+02  0.29872820191E+01 -0.14186826612E+02  0.21411495077E+02  0.00000000000E+00 0. -1.
        -12    1    3    3    0    0  0.62654331105E+03  0.58768572296E+03 -0.33124624425E+03  0.92068186901E+03  0.00000000000E+00 0.  1.
         11    1    5    5    0    0 -0.44447442070E+02 -0.12174845218E+03  0.28887539584E+02  0.13278836793E+03  0.00000000000E+00 0. -1.
        -12    1    5    5    0    0 -0.36448866317E+03 -0.51813505592E+03  0.20312711605E+03  0.66526426856E+03  0.00000000000E+00 0.  1.
          4    1    6    6  502    0 -0.94583940958E+02 -0.87361842666E+01 -0.66861395034E+02  0.11615889526E+03  0.00000000000E+00 0. -1.
         -3    1    6    6    0  502 -0.13877960384E+03  0.57946687376E+02 -0.30042937406E+02  0.15336288699E+03  0.00000000000E+00 0.  1.
<mgrwt>
<rscale>  0 0.94177364E+03</rscale>
<asrwt>0</asrwt>
<pdfrwt beam="1">  1        1 0.17076850E+00 0.94177364E+03</pdfrwt>
<pdfrwt beam="2">  1       -2 0.13841116E+00 0.94177364E+03</pdfrwt>
<totfact> 0.40535677E+00</totfact>
</mgrwt>
</event>
<event>
12    3  0.2212098E-007  0.1307513E+04  0.7818608E-02  0.9023629E-01
          1   -1    0    0  501    0  0.00000000000E+00  0.00000000000E+00  0.31705694643E+04  0.31705694643E+04  0.00000000000E+00 0. -1.
         -2   -1    0    0    0  501 -0.00000000000E+00 -0.00000000000E+00 -0.71026397175E+03  0.71026397175E+03  0.00000000000E+00 0.  1.
        -24    2    1    2    0    0 -0.12541530742E+04  0.10333219185E+03  0.20857393210E+04  0.24372463092E+04  0.79269043621E+02 0.  0.
    5000000    2    1    2    0    0  0.12541530742E+04 -0.10333219185E+03  0.37456617154E+03  0.14435871268E+04  0.60005541450E+03 0.  0.
        -24    2    4    4    0    0  0.45448731574E+03 -0.27606771612E+03  0.30502669054E+03  0.61863772155E+03  0.83061691152E+02 0.  0.
         24    2    4    4    0    0  0.79966575846E+03  0.17273552427E+03  0.69539480999E+02  0.82494940526E+03  0.80018093200E+02 0.  0.
         13    1    3    3    0    0 -0.60489380505E+03  0.10480289636E+02  0.10113245788E+04  0.11784666969E+04  0.00000000000E+00 0. -1.
        -14    1    3    3    0    0 -0.64925926915E+03  0.92851902213E+02  0.10744147421E+04  0.12587796123E+04  0.00000000000E+00 0.  1.
         13    1    5    5    0    0  0.19994223897E+03 -0.13452776473E+03  0.18418681881E+03  0.30331403303E+03  0.00000000000E+00 0. -1.
        -14    1    5    5    0    0  0.25454507677E+03 -0.14153995139E+03  0.12083987173E+03  0.31532368853E+03  0.00000000000E+00 0.  1.
          2    1    6    6  502    0  0.34902889721E+03  0.11570336493E+03  0.36642005650E+02  0.36952818069E+03  0.00000000000E+00 0. -1.
         -1    1    6    6    0  502  0.45063686124E+03  0.57032159336E+02  0.32897475350E+02  0.45542122457E+03  0.00000000000E+00 0.  1.
<mgrwt>
<rscale>  0 0.13075127E+04</rscale>
<asrwt>0</asrwt>
<pdfrwt beam="1">  1        1 0.48777991E+00 0.13075127E+04</pdfrwt>
<pdfrwt beam="2">  1       -2 0.10927138E+00 0.13075127E+04</pdfrwt>
<totfact> 0.25661055E-01</totfact>
</mgrwt>
</event>
<event>
12    3  0.2212098E-007  0.8726627E+03  0.7818608E-02  0.9460415E-01
          3   -1    0    0  501    0  0.00000000000E+00  0.00000000000E+00  0.13238873936E+04  0.13238873936E+04  0.00000000000E+00 0. -1.
         -4   -1    0    0    0  501 -0.00000000000E+00 -0.00000000000E+00 -0.74572684456E+03  0.74572684456E+03  0.00000000000E+00 0.  1.
        -24    2    1    2    0    0  0.86378168536E+03 -0.83693718443E+01 -0.40637813178E+01  0.86746080748E+03  0.79264694878E+02 0.  0.
    5000000    2    1    2    0    0 -0.86378168536E+03  0.83693718443E+01  0.58222433031E+03  0.12021534306E+04  0.59999904471E+03 0.  0.
        -24    2    4    4    0    0 -0.58186056693E+03 -0.42168214613E+02  0.66976384637E+03  0.89199451942E+03  0.82041057455E+02 0.  0.
         24    2    4    4    0    0 -0.28192111842E+03  0.50537586458E+02 -0.87539516056E+02  0.31015891122E+03  0.80633855653E+02 0.  0.
         11    1    3    3    0    0  0.18388867488E+03 -0.11756522296E+02 -0.31827896334E+02  0.18699271523E+03  0.00000000000E+00 0. -1.
        -12    1    3    3    0    0  0.67989301048E+03  0.33871504520E+01  0.27764115016E+02  0.68046809225E+03  0.00000000000E+00 0.  1.
         13    1    5    5    0    0 -0.35360880488E+03  0.14201398668E+02  0.39343456863E+03  0.52918014552E+03  0.00000000000E+00 0. -1.
        -14    1    5    5    0    0 -0.22825176205E+03 -0.56369613282E+02  0.27632927773E+03  0.36281437391E+03  0.00000000000E+00 0.  1.
          4    1    6    6  502    0 -0.27923467533E+03  0.40976310658E+02 -0.71249236475E+02  0.29107991281E+03  0.00000000000E+00 0. -1.
         -3    1    6    6    0  502 -0.26864430920E+01  0.95612757992E+01 -0.16290279581E+02  0.19078998407E+02  0.00000000000E+00 0.  1.
<mgrwt>
<rscale>  0 0.87266273E+03</rscale>
<asrwt>0</asrwt>
<pdfrwt beam="1">  1        3 0.20367498E+00 0.87266273E+03</pdfrwt>
<pdfrwt beam="2">  1       -4 0.11472721E+00 0.87266273E+03</pdfrwt>
<totfact> 0.18467581E-01</totfact>
</mgrwt>
</event>
<event>
12    3  0.2212098E-007  0.7824114E+03  0.7818608E-02  0.9585831E-01
          1   -1    0    0  501    0  0.00000000000E+00  0.00000000000E+00  0.78919386249E+03  0.78919386249E+03  0.00000000000E+00 0. -1.
         -2   -1    0    0    0  501 -0.00000000000E+00 -0.00000000000E+00 -0.90707766240E+03  0.90707766240E+03  0.00000000000E+00 0.  1.
        -24    2    1    2    0    0  0.34108861848E+03  0.58506567467E+03  0.24069482861E+03  0.72303036108E+03  0.78712217577E+02 0.  0.
    5000000    2    1    2    0    0 -0.34108861848E+03 -0.58506567467E+03 -0.35857862853E+03  0.97324116380E+03  0.59998036697E+03 0.  0.
        -24    2    4    4    0    0 -0.16578849616E+03 -0.66928386765E+03 -0.27071903627E+03  0.74570015498E+03  0.85750822641E+02 0.  0.
         24    2    4    4    0    0 -0.17530012232E+03  0.84218192979E+02 -0.87859592254E+02  0.22754100882E+03  0.78947867807E+02 0.  0.
         11    1    5    5    0    0 -0.22358561389E+02 -0.79107785319E+02 -0.38395609291E+01  0.82296349819E+02  0.00000000000E+00 0. -1.
        -12    1    5    5    0    0 -0.14342993477E+03 -0.59017608233E+03 -0.26687947535E+03  0.66340380516E+03  0.00000000000E+00 0.  1.
         11    1    3    3    0    0  0.29946348292E+03  0.46124839908E+03  0.17711937151E+03  0.57775404371E+03  0.00000000000E+00 0. -1.
        -12    1    3    3    0    0  0.41625135563E+02  0.12381727559E+03  0.63575457107E+02  0.14527631738E+03  0.00000000000E+00 0.  1.
          4    1    6    6  502    0 -0.15270581896E+03  0.69844353334E+02 -0.39875286150E+02  0.17259009033E+03  0.00000000000E+00 0. -1.
         -3    1    6    6    0  502 -0.22594303364E+02  0.14373839646E+02 -0.47984306104E+02  0.54950918490E+02  0.00000000000E+00 0.  1.
<mgrwt>
<rscale>  0 0.78241142E+03</rscale>
<asrwt>0</asrwt>
<pdfrwt beam="1">  1        1 0.12141444E+00 0.78241142E+03</pdfrwt>
<pdfrwt beam="2">  1       -2 0.13955041E+00 0.78241142E+03</pdfrwt>
<totfact> 0.73032533E+00</totfact>
</mgrwt>
</event>
<event>
12    3  0.2212098E-007  0.5713335E+03  0.7818608E-02  0.9966732E-01
          1   -1    0    0  501    0  0.00000000000E+00  0.00000000000E+00  0.16961391685E+04  0.16961391685E+04  0.00000000000E+00 0. -1.
         -2   -1    0    0    0  501 -0.00000000000E+00 -0.00000000000E+00 -0.26567553299E+03  0.26567553299E+03  0.00000000000E+00 0.  1.
        -24    2    1    2    0    0 -0.52237040560E+03  0.10632054992E+03  0.59452218647E+03  0.80299429086E+03  0.84665819384E+02 0.  0.
    5000000    2    1    2    0    0  0.52237040560E+03 -0.10632054992E+03  0.83594144903E+03  0.11588204106E+04  0.59990977477E+03 0.  0.
        -24    2    4    4    0    0  0.68028490620E+02 -0.10777783168E+03  0.64020228360E+03  0.65755953245E+03  0.79256786757E+02 0.  0.
         24    2    4    4    0    0  0.45434191498E+03  0.14572817567E+01  0.19573916542E+03  0.50126087816E+03  0.80746193199E+02 0.  0.
         11    1    3    3    0    0 -0.36335934221E+03  0.55179413722E+02  0.45825285736E+03  0.58742698317E+03  0.00000000000E+00 0. -1.
        -12    1    3    3    0    0 -0.15901106340E+03  0.51141136198E+02  0.13626932910E+03  0.21556730770E+03  0.00000000000E+00 0.  1.
         13    1    5    5    0    0  0.73401666892E+02 -0.42980882421E+02  0.36578575889E+03  0.37554544646E+03  0.00000000000E+00 0. -1.
        -14    1    5    5    0    0 -0.53731762718E+01 -0.64796949256E+02  0.27441652472E+03  0.28201408599E+03  0.00000000000E+00 0.  1.
          4    1    6    6  502    0  0.43203769315E+03 -0.11583722574E+02  0.19787265603E+03  0.47533602739E+03  0.00000000000E+00 0. -1.
         -3    1    6    6    0  502  0.22304221833E+02  0.13041004330E+02 -0.21334906033E+01  0.25924850775E+02  0.00000000000E+00 0.  1.
<mgrwt>
<rscale>  0 0.57133345E+03</rscale>
<asrwt>0</asrwt>
<pdfrwt beam="1">  1        1 0.26094448E+00 0.57133345E+03</pdfrwt>
<pdfrwt beam="2">  1       -2 0.40873160E-01 0.57133345E+03</pdfrwt>
<totfact> 0.25255781E+01</totfact>
</mgrwt>
</event>
<event>
12    3  0.2212098E-007  0.6279322E+03  0.7818608E-02  0.9849092E-01
          1   -1    0    0  501    0  0.00000000000E+00  0.00000000000E+00  0.11462431391E+04  0.11462431391E+04  0.00000000000E+00 0. -1.
         -2   -1    0    0    0  501 -0.00000000000E+00 -0.00000000000E+00 -0.43116228209E+03  0.43116228209E+03  0.00000000000E+00 0.  1.
        -24    2    1    2    0    0 -0.53817207829E+03 -0.58982136367E+02  0.87132730051E+02  0.55405737063E+03  0.79242533061E+02 0.  0.
    5000000    2    1    2    0    0  0.53817207829E+03  0.58982136367E+02  0.62794812694E+03  0.10233480505E+04  0.59984523350E+03 0.  0.
        -24    2    4    4    0    0 -0.47174876844E+02 -0.84897529186E+02  0.31524852471E+03  0.33963006433E+03  0.80832473648E+02 0.  0.
         24    2    4    4    0    0  0.58534695513E+03  0.14387966555E+03  0.31269960223E+03  0.68371798621E+03  0.79729714576E+02 0.  0.
         13    1    5    5    0    0 -0.23087493895E+02 -0.80603861713E+02  0.29831694306E+03  0.30987580320E+03  0.00000000000E+00 0. -1.
        -14    1    5    5    0    0 -0.24087382949E+02 -0.42936674720E+01  0.16931581656E+02  0.29754261124E+02  0.00000000000E+00 0.  1.
         13    1    3    3    0    0 -0.63523945385E+02 -0.69468584772E+01  0.37249957457E+02  0.73966950799E+02  0.00000000000E+00 0. -1.
        -14    1    3    3    0    0 -0.47464813290E+03 -0.52035277890E+02  0.49882772594E+02  0.48009041983E+03  0.00000000000E+00 0.  1.
          4    1    6    6  502    0  0.24193639869E+03  0.92059256467E+02  0.10722055537E+03  0.28018632231E+03  0.00000000000E+00 0. -1.
         -3    1    6    6    0  502  0.34341055644E+03  0.51820409086E+02  0.20547904686E+03  0.40353166390E+03  0.00000000000E+00 0.  1.
<mgrwt>
<rscale>  0 0.62793224E+03</rscale>
<asrwt>0</asrwt>
<pdfrwt beam="1">  1        1 0.17634510E+00 0.62793224E+03</pdfrwt>
<pdfrwt beam="2">  1       -2 0.66332659E-01 0.62793224E+03</pdfrwt>
<totfact> 0.22317271E+01</totfact>
</mgrwt>
</event>
<event>
12    3  0.2212098E-007  0.6318198E+03  0.7818608E-02  0.9841504E-01
          1   -1    0    0  501    0  0.00000000000E+00  0.00000000000E+00  0.10650831296E+04  0.10650831296E+04  0.00000000000E+00 0. -1.
         -2   -1    0    0    0  501 -0.00000000000E+00 -0.00000000000E+00 -0.45845173731E+03  0.45845173731E+03  0.00000000000E+00 0.  1.
        -24    2    1    2    0    0 -0.45330045167E+03 -0.25350431616E+03  0.16416636942E+01  0.52565029430E+03  0.80992586311E+02 0.  0.
    5000000    2    1    2    0    0  0.45330045167E+03  0.25350431616E+03  0.60498972856E+03  0.99788457258E+03  0.60001275881E+03 0.  0.
        -24    2    4    4    0    0  0.39256562415E+03  0.40491164572E+03  0.58285459446E+03  0.81487161657E+03  0.78962415719E+02 0.  0.
         24    2    4    4    0    0  0.60734827521E+02 -0.15140732956E+03  0.22135134106E+02  0.18301295602E+03  0.79942974611E+02 0.  0.
         11    1    3    3    0    0 -0.46367203892E+02 -0.47875732642E+02  0.19255005959E+02  0.69374048659E+02  0.00000000000E+00 0. -1.
        -12    1    3    3    0    0 -0.40693324778E+03 -0.20562858352E+03 -0.17613342265E+02  0.45627624564E+03  0.00000000000E+00 0.  1.
         13    1    5    5    0    0  0.21334224333E+03  0.17469850767E+03  0.24937439778E+03  0.37178229065E+03  0.00000000000E+00 0. -1.
        -14    1    5    5    0    0  0.17922338082E+03  0.23021313806E+03  0.33348019668E+03  0.44308932592E+03  0.00000000000E+00 0.  1.
          2    1    6    6  502    0  0.67784437278E+02 -0.94943537705E+02  0.40076005858E+02  0.12334946913E+03  0.00000000000E+00 0. -1.
         -1    1    6    6    0  502 -0.70496097566E+01 -0.56463791855E+02 -0.17940871752E+02  0.59663486888E+02  0.00000000000E+00 0.  1.
<mgrwt>
<rscale>  0 0.63181981E+03</rscale>
<asrwt>0</asrwt>
<pdfrwt beam="1">  1        1 0.16385894E+00 0.63181981E+03</pdfrwt>
<pdfrwt beam="2">  1       -2 0.70531037E-01 0.63181981E+03</pdfrwt>
<totfact> 0.22430259E+01</totfact>
</mgrwt>
</event>
<event>
12    3  0.2212098E-007  0.8952443E+03  0.7818608E-02  0.9431546E-01
         -2   -1    0    0    0  501 -0.00000000000E+00  0.00000000000E+00  0.59669805285E+03  0.59669805285E+03  0.00000000000E+00 0.  1.
          1   -1    0    0  501    0  0.00000000000E+00 -0.00000000000E+00 -0.15698552075E+04  0.15698552075E+04  0.00000000000E+00 0. -1.
        -24    2    1    2    0    0 -0.18325102548E+03 -0.77985116187E+03 -0.52414476672E+02  0.80655865401E+03  0.77722660691E+02 0.  0.
    5000000    2    1    2    0    0  0.18325102548E+03  0.77985116187E+03 -0.92074267794E+03  0.13599946063E+04  0.60005789482E+03 0.  0.
        -24    2    4    4    0    0 -0.20595208174E+03  0.33120854892E+03 -0.42416301037E+03  0.58167077773E+03  0.79443511073E+02 0.  0.
         24    2    4    4    0    0  0.38920310723E+03  0.44864261296E+03 -0.49657966758E+03  0.77832382856E+03  0.80233179070E+02 0.  0.
         13    1    5    5    0    0 -0.13345855126E+03  0.19234338859E+03 -0.19832507301E+03  0.30682242197E+03  0.00000000000E+00 0. -1.
        -14    1    5    5    0    0 -0.72493530480E+02  0.13886516033E+03 -0.22583793736E+03  0.27484835576E+03  0.00000000000E+00 0.  1.
         13    1    3    3    0    0 -0.79753767482E+02 -0.48797791070E+03 -0.15602561664E+02  0.49469843813E+03  0.00000000000E+00 0. -1.
        -14    1    3    3    0    0 -0.10349725800E+03 -0.29187325117E+03 -0.36811915008E+02  0.31186021589E+03  0.00000000000E+00 0.  1.
          2    1    6    6  502    0  0.10713507817E+03  0.15504861317E+03 -0.11789043770E+03  0.22229744200E+03  0.00000000000E+00 0. -1.
         -1    1    6    6    0  502  0.28206802906E+03  0.29359399979E+03 -0.37868922987E+03  0.55602638656E+03  0.00000000000E+00 0.  1.
<mgrwt>
<rscale>  0 0.89524434E+03</rscale>
<asrwt>0</asrwt>
<pdfrwt beam="1">  1        1 0.24151618E+00 0.89524434E+03</pdfrwt>
<pdfrwt beam="2">  1       -2 0.91799703E-01 0.89524434E+03</pdfrwt>
<totfact> 0.52587299E+00</totfact>
</mgrwt>
</event>
<event>
12    3  0.2212098E-007  0.7963228E+03  0.7818608E-02  0.9565355E-01
         -2   -1    0    0    0  501 -0.00000000000E+00  0.00000000000E+00  0.56251880956E+03  0.56251880956E+03  0.00000000000E+00 0.  1.
          1   -1    0    0  501    0  0.00000000000E+00 -0.00000000000E+00 -0.15671432686E+04  0.15671432686E+04  0.00000000000E+00 0. -1.
        -24    2    1    2    0    0  0.72632975514E+03  0.95495805025E+02 -0.92026125955E+03  0.11790154601E+04  0.80760803863E+02 0.  0.
    5000000    2    1    2    0    0 -0.72632975514E+03 -0.95495805025E+02 -0.84363199471E+02  0.95064661800E+03  0.59994789850E+03 0.  0.
        -24    2    4    4    0    0 -0.21839624829E+03  0.16496609657E+03  0.15715697837E+03  0.32576343468E+03  0.80701705337E+02 0.  0.
         24    2    4    4    0    0 -0.50793350685E+03 -0.26046190159E+03 -0.24152017784E+03  0.62488318332E+03  0.79436433260E+02 0.  0.
         11    1    5    5    0    0 -0.12279560291E+03  0.45319824791E+02  0.88001579999E+02  0.15772420453E+03  0.00000000000E+00 0. -1.
        -12    1    5    5    0    0 -0.95600645383E+02  0.11964627177E+03  0.69155398368E+02  0.16803923015E+03  0.00000000000E+00 0.  1.
         13    1    3    3    0    0  0.35830924547E+03  0.13871148017E+02 -0.48597042990E+03  0.60394137371E+03  0.00000000000E+00 0. -1.
        -14    1    3    3    0    0  0.36802050967E+03  0.81624657008E+02 -0.43429082965E+03  0.57507408643E+03  0.00000000000E+00 0.  1.
          2    1    6    6  502    0 -0.46280576962E+02 -0.82579253056E+01 -0.39398317955E+02  0.61337693077E+02  0.00000000000E+00 0. -1.
         -1    1    6    6    0  502 -0.46165292989E+03 -0.25220397628E+03 -0.20212185988E+03  0.56354549024E+03  0.00000000000E+00 0.  1.
<mgrwt>
<rscale>  0 0.79632280E+03</rscale>
<asrwt>0</asrwt>
<pdfrwt beam="1">  1        1 0.24109896E+00 0.79632280E+03</pdfrwt>
<pdfrwt beam="2">  1       -2 0.86541356E-01 0.79632280E+03</pdfrwt>
<totfact> 0.61291122E+00</totfact>
</mgrwt>
</event>
<event>
12    3  0.2212098E-007  0.4466321E+03  0.7818608E-02  0.1028731E+00
          1   -1    0    0  501    0  0.00000000000E+00  0.00000000000E+00  0.95333360914E+03  0.95333360914E+03  0.00000000000E+00 0. -1.
         -2   -1    0    0    0  501 -0.00000000000E+00 -0.00000000000E+00 -0.34763995675E+03  0.34763995675E+03  0.00000000000E+00 0.  1.
        -24    2    1    2    0    0  0.17291346444E+03 -0.28227043087E+03 -0.59893499384E+02  0.34565454018E+03  0.79461736413E+02 0.  0.
    5000000    2    1    2    0    0 -0.17291346444E+03  0.28227043087E+03  0.66558715178E+03  0.95531902571E+03  0.60004376669E+03 0.  0.
        -24    2    4    4    0    0 -0.27414982018E+03  0.24689462906E+02  0.71208820696E+02  0.29478844534E+03  0.77857805503E+02 0.  0.
         24    2    4    4    0    0  0.10123635574E+03  0.25758096796E+03  0.59437833108E+03  0.66053058037E+03  0.80114245673E+02 0.  0.
         11    1    5    5    0    0 -0.16674570168E+03 -0.14404469935E+02  0.67396806014E+02  0.18042712446E+03  0.00000000000E+00 0. -1.
        -12    1    5    5    0    0 -0.10740411850E+03  0.39093932840E+02  0.38120146826E+01  0.11436132087E+03  0.00000000000E+00 0.  1.
         11    1    3    3    0    0  0.46570198860E+02 -0.47661759461E+02 -0.41613506020E+02  0.78562781392E+02  0.00000000000E+00 0. -1.
        -12    1    3    3    0    0  0.12634326558E+03 -0.23460867141E+03 -0.18279993364E+02  0.26709175879E+03  0.00000000000E+00 0.  1.
          2    1    6    6  502    0  0.22605788564E+02  0.28995769462E+02  0.33342819019E+02  0.49633858438E+02  0.00000000000E+00 0. -1.
         -1    1    6    6    0  502  0.78630567180E+02  0.22858519850E+03  0.56103551206E+03  0.61089672193E+03  0.00000000000E+00 0.  1.
<mgrwt>
<rscale>  0 0.44663209E+03</rscale>
<asrwt>0</asrwt>
<pdfrwt beam="1">  1        1 0.14666671E+00 0.44663209E+03</pdfrwt>
<pdfrwt beam="2">  1       -2 0.53483071E-01 0.44663209E+03</pdfrwt>
<totfact> 0.50236177E+01</totfact>
</mgrwt>
</event>
